Title
29212
    1ASP      N    1   4.177   3.227   3.989 -0.2523 -0.3463  0.0143
    1ASP    HT1    2   4.186   3.167   3.904 -3.6229 -2.9597  1.2910
    1ASP    HT2    3   4.074   3.244   3.989 -0.6144 -1.8308 -2.9215
    1ASP    HT3    4   4.203   3.164   4.067 -1.8378 -3.1940 -1.5792
    1ASP     CA    5   4.247   3.360   3.992  0.3659 -0.1659 -0.0343
    1ASP     HA    6   4.214   3.408   4.082 -1.0751  1.9312 -1.6018
    1ASP     CB    7   4.403   3.329   4.011  0.8372 -0.2893  0.1898
    1ASP    HB1    8   4.448   3.276   3.924  0.1716 -2.9387  1.3669
    1ASP    HB2    9   4.406   3.263   4.100  3.3240  0.2665  0.5909
    1ASP     CG   10   4.481   3.453   4.048  0.2385 -0.0517 -0.5100
    1ASP    OD1   11   4.414   3.555   4.060 -0.3379 -0.5544  0.1045
    1ASP    OD2   12   4.607   3.449   4.057 -0.2938 -0.2201  0.5389
    1ASP      C   13   4.211   3.435   3.864 -0.2989  0.3040 -0.1630
    1ASP      O   14   4.130   3.379   3.790 -0.2136  0.4731 -0.0498
    2GLY      N   15   4.273   3.554   3.827 -0.8485 -0.7098  0.0549
    2GLY     HN   16   4.348   3.592   3.881  0.7842  1.6363 -3.5162
    2GLY     CA   17   4.226   3.642   3.711 -0.3852  0.4710  0.1543
    2GLY    HA1   18   4.242   3.589   3.619 -1.3348  1.4838 -0.6174
    2GLY    HA2   19   4.279   3.735   3.718 -0.1551  0.2920  0.9794
    2GLY      C   20   4.081   3.675   3.709 -0.0194 -0.0489  0.4266
    2GLY      O   21   4.002   3.672   3.807 -0.3661  0.5864 -0.1020
    3ASP      N   22   4.036   3.705   3.588 -0.1226  0.2302  0.5804
    3ASP     HN   23   4.097   3.741   3.518 -1.4600 -0.7577 -1.1586
    3ASP     CA   24   3.892   3.722   3.558 -0.0463 -0.1136 -0.2379
    3ASP     HA   25   3.846   3.793   3.626  1.1370  1.8120 -1.3522
    3ASP     CB   26   3.881   3.790   3.417 -0.2649 -0.2036  0.1509
    3ASP    HB1   27   3.923   3.723   3.338  0.4868 -0.8834  1.1092
    3ASP    HB2   28   3.939   3.884   3.409 -0.0380 -0.0423  2.9178
    3ASP     CG   29   3.736   3.809   3.371  0.9275 -0.2185  0.1727
    3ASP    OD1   30   3.655   3.859   3.454  0.4312  0.4428  0.3526
    3ASP    OD2   31   3.711   3.794   3.250  0.5450  0.1801  0.7980
    3ASP      C   32   3.815   3.591   3.576 -0.4277 -0.6577 -0.4427
    3ASP      O   33   3.856   3.478   3.542  0.0254 -0.0253  0.3241
    4GLY      N   34   3.703   3.598   3.640  0.7233  0.0684 -0.1580
    4GLY     HN   35   3.680   3.691   3.670  0.4128 -0.0318 -0.0764
    4GLY     CA   36   3.601   3.489   3.647 -0.3991  0.2544  0.2651
    4GLY    HA1   37   3.519   3.525   3.707 -0.9091  1.0419 -0.8855
    4GLY    HA2   38   3.664   3.412   3.690  0.2940  0.5487 -0.2033
    4GLY      C   39   3.550   3.430   3.523 -0.0401  0.1478  1.1550
    4GLY      O   40   3.592   3.464   3.414 -0.4223  0.8175 -0.3090
    5PRO      N   41   3.454   3.336   3.524 -0.4862 -0.1223 -0.5719
    5PRO     CD   42   3.428   3.254   3.638 -0.3491 -0.1902 -0.0891
    5PRO    HD1   43   3.365   3.308   3.712  2.6082 -0.7672  3.1554
    5PRO    HD2   44   3.519   3.220   3.693 -1.1325 -1.6019  0.4025
    5PRO     CA   45   3.375   3.295   3.407 -0.1463  0.4502 -0.0312
    5PRO     HA   46   3.444   3.252   3.336 -0.9203 -1.5118  0.3543
    5PRO     CB   47   3.279   3.193   3.459 -0.0835  0.6157 -0.4199
    5PRO    HB1   48   3.262   3.121   3.376 -0.5163  1.6214 -1.2380
    5PRO    HB2   49   3.186   3.246   3.490 -1.0699 -0.1747 -1.9066
    5PRO     CG   50   3.347   3.134   3.582 -0.6205 -0.5034  0.6148
    5PRO    HG1   51   3.273   3.107   3.660 -0.9181 -1.6211 -0.0399
    5PRO    HG2   52   3.413   3.047   3.562 -0.4712 -0.3918  0.6194
    5PRO      C   53   3.308   3.414   3.332 -0.4465  0.7467  0.3804
    5PRO      O   54   3.295   3.522   3.386 -0.0505  0.1337 -0.2962
    6GLY      N   55   3.287   3.387   3.203 -0.0139  0.4711  0.2967
    6GLY     HN   56   3.318   3.301   3.163 -1.1891  0.3817 -0.4735
    6GLY     CA   57   3.230   3.462   3.098 -0.4028 -0.5202 -0.3304
    6GLY    HA1   58   3.223   3.393   3.015  0.2207 -0.8018 -0.1498
    6GLY    HA2   59   3.292   3.550   3.088  1.1687 -1.4255  0.9936
    6GLY      C   60   3.084   3.503   3.132 -0.4160 -0.6153  0.0092
    6GLY      O   61   3.026   3.467   3.236 -0.6091 -0.0163 -0.0258
    7ASP      N   62   3.026   3.580   3.038  0.1506 -0.1336  0.0728
    7ASP     HN   63   3.078   3.598   2.955  0.3637  1.6893  0.5626
    7ASP     CA   64   2.889   3.635   3.047 -0.2734  0.0930  0.7944
    7ASP     HA   65   2.882   3.705   3.129 -0.9316  2.6413 -1.3204
    7ASP     CB   66   2.861   3.720   2.924  0.5271 -1.0861  0.4664
    7ASP    HB1   67   2.751   3.735   2.917  0.6396  0.2540  1.2606
    7ASP    HB2   68   2.905   3.661   2.841  1.7437  1.6069 -0.9168
    7ASP     CG   69   2.926   3.855   2.917  0.1046  0.1296  0.3222
    7ASP    OD1   70   3.024   3.873   2.992  0.0031 -0.3044 -0.3904
    7ASP    OD2   71   2.900   3.940   2.831  0.2573 -0.3979  0.1614
    7ASP      C   72   2.783   3.523   3.056  0.2474  0.3204 -0.7236
    7ASP      O   73   2.795   3.423   2.984  0.1443 -0.0846 -0.0613
    8PRO      N   74   2.684   3.537   3.146  0.2867  0.0025  0.2346
    8PRO     CD   75   2.665   3.637   3.251  0.0069 -0.4414 -0.3693
    8PRO    HD1   76   2.621   3.728   3.205 -2.5586 -0.0656  2.4927
    8PRO    HD2   77   2.758   3.651   3.310 -1.0506  0.2363  1.1894
    8PRO     CA   78   2.572   3.445   3.159 -0.0395 -0.2384  0.4097
    8PRO     HA   79   2.626   3.359   3.196  1.0455  0.1215 -0.2837
    8PRO     CB   80   2.474   3.503   3.263  0.5532  0.3900  0.0852
    8PRO    HB1   81   2.419   3.419   3.312  0.9047 -1.5241 -2.5826
    8PRO    HB2   82   2.398   3.571   3.218 -0.0922  0.3260  1.0469
    8PRO     CG   83   2.565   3.573   3.354  0.0110  0.0097 -0.5770
    8PRO    HG1   84   2.506   3.646   3.412  1.5412 -1.2132  2.7678
    8PRO    HG2   85   2.625   3.501   3.414  2.8398  1.0947 -1.8886
    8PRO      C   86   2.492   3.405   3.035  0.3239  0.8998 -0.4120
    8PRO      O   87   2.489   3.472   2.937  0.0546  0.2694  0.1093
    9GLY      N   88   2.435   3.285   3.042  0.2217 -0.4189  0.1311
    9GLY     HN   89   2.452   3.231   3.124 -1.9359 -1.9860 -0.3815
    9GLY     CA   90   2.366   3.220   2.929 -0.3694  0.5415  0.1440
    9GLY    HA1   91   2.332   3.122   2.957  0.2506  0.5031  0.7943
    9GLY    HA2   92   2.438   3.203   2.850 -0.4862 -0.2162  0.1950
    9GLY      C   93   2.252   3.294   2.873  0.6276  0.5607  0.4061
    9GLY      O   94   2.196   3.382   2.941  0.3732  0.1383  0.2778
   10ASP      N   95   2.214   3.252   2.752  0.0486  0.1050  0.0798
   10ASP     HN   96   2.254   3.177   2.700 -0.0038 -0.0215  0.2219
   10ASP     CA   97   2.096   3.294   2.688  0.7705  0.5070 -0.4360
   10ASP     HA   98   2.084   3.401   2.688  1.1134  0.6025 -2.5881
   10ASP     CB   99   2.078   3.223   2.544 -0.0953 -0.9946 -0.3196
   10ASP    HB1  100   1.978   3.253   2.507 -0.4735 -0.0923  1.3087
   10ASP    HB2  101   2.083   3.113   2.562  0.6774 -0.9451 -0.1973
   10ASP     CG  102   2.178   3.249   2.435  0.1777  0.6400  0.5327
   10ASP    OD1  103   2.247   3.349   2.435  0.0569 -0.2509  0.1354
   10ASP    OD2  104   2.193   3.159   2.345 -0.0927  0.3208  0.6772
   10ASP      C  105   1.968   3.252   2.763 -0.4878 -0.1547  0.2638
   10ASP      O  106   1.960   3.144   2.824  0.4125 -0.0662 -0.2121
   11GLY      N  107   1.865   3.345   2.755  0.5853  0.4041  0.1017
   11GLY     HN  108   1.883   3.420   2.693 -2.1309 -0.6232 -2.1469
   11GLY     CA  109   1.729   3.322   2.812 -0.1076 -0.4671 -0.9170
   11GLY    HA1  110   1.737   3.342   2.918 -1.5690 -0.3202 -0.8248
   11GLY    HA2  111   1.698   3.219   2.804 -0.0572 -0.5388 -0.2014
   11GLY      C  112   1.627   3.423   2.759 -0.1000 -0.2211 -0.2205
   11GLY    OT1  113   1.595   3.414   2.637 -0.3013  0.4255 -0.1427
   11GLY    OT2  114   1.586   3.521   2.830  0.1102  0.1922  0.1962
   12SOD    SOD  115   4.797   5.620   4.659  0.0685  0.5247 -0.0526
   13SOD    SOD  116   4.618   2.352   5.531 -0.0524  0.1888  0.1243
   14SOD    SOD  117   5.073   1.804   1.384  0.1787  0.0929 -0.3815
   15SOD    SOD  118   6.881   2.392   5.691  0.2717  0.2501  0.3866
   16SOD    SOD  119   0.912   6.170   5.784  0.3086 -0.0777 -0.3809
   17SOD    SOD  120   6.153   0.192   4.614  0.0913 -0.8668  0.0705
   18SOD    SOD  121   3.149   3.978   1.486  0.2230 -0.4546  0.5196
   19SOD    SOD  122   2.688   0.436   3.636 -0.3998  0.0609 -0.3037
   20SOD    SOD  123   3.241   2.551   2.990  0.1025  0.0347  0.3506
   21SOD    SOD  124   2.801   5.248   1.844  0.2455 -0.6895 -0.1419
   22SOD    SOD  125   1.527   6.000   1.375  0.0890 -0.6266  0.0684
   23SOD    SOD  126   1.436   2.794   2.376  0.2070  0.3845  0.3932
   24SOD    SOD  127   5.869   3.215   4.691  0.0906  0.0007 -0.1848
   25SOD    SOD  128   5.699   2.013   5.049 -0.5440 -0.4941 -0.0250
   26SOD    SOD  129   5.035   2.924   2.909  0.0297  0.2613 -0.2285
   27SOD    SOD  130   2.196   3.873   1.775  0.3598  0.2334 -0.4093
   28SOD    SOD  131   2.225   4.135   2.967 -0.0979 -0.2975 -0.2395
   29SOD    SOD  132   6.203   6.622   0.613 -0.1446  0.0363 -0.0039
   30SOD    SOD  133   4.858   5.110   0.962  0.0129 -0.0290  0.6596
   31SOD    SOD  134   3.733   4.678   3.902  0.2850 -0.5764 -0.0475
   32SOD    SOD  135   4.169   3.873   1.678  0.4104  0.1815  0.0495
   33SOD    SOD  136   3.026   4.774   3.587 -0.1291  0.4988  0.0586
   34SOD    SOD  137   1.812   1.631   1.559 -0.4960  0.4467  0.1564
   35SOD    SOD  138   0.311   3.089   4.582 -0.1121 -0.3698 -0.0431
   36SOD    SOD  139   6.539   0.326   2.303  0.1475 -0.0014  0.6091
   37SOD    SOD  140   2.012   2.788   1.853 -0.0337  0.1545 -0.3370
   38SOD    SOD  141   2.583   3.479   5.123  0.6249 -0.0480  0.1723
   39SOD    SOD  142   4.017   1.864   2.993 -0.2409 -0.0817  0.4037
   40SOD    SOD  143   6.021   2.536   1.984  0.7953 -0.3583  0.2698
   41SOD    SOD  144   5.583   1.766   3.063  0.4939 -0.1256 -0.4842
   42SOD    SOD  145   7.059   2.701   1.927  0.0302  0.0828  0.2148
   43CLA    CLA  146   2.407   5.245   4.011  0.1161 -0.7182 -0.2346
   44CLA    CLA  147   2.154   3.677   4.237 -0.4718  0.1526  0.1743
   45CLA    CLA  148   3.958   4.196   0.130 -0.1289 -0.0431  0.1908
   46CLA    CLA  149   2.275   2.925   2.645  0.1475  0.3610 -0.0968
   47CLA    CLA  150   0.751   4.321   0.282 -0.0360 -0.0940 -0.1677
   48CLA    CLA  151   4.927   1.986   2.964 -0.3369  0.2242 -0.1071
   49CLA    CLA  152   0.052   4.194   5.282  0.0289 -0.2049 -0.0491
   50CLA    CLA  153   6.161   5.699   0.275  0.2745 -0.2536 -0.7312
   51CLA    CLA  154   7.080   3.525   1.227 -0.1737 -0.3332 -0.7717
   52CLA    CLA  155   6.831   0.396   4.780  0.3182 -0.2224  0.1112
   53CLA    CLA  156   3.943   3.954   1.287 -0.0202 -0.2228  0.0614
   54CLA    CLA  157   1.861   2.050   1.774 -0.2590 -0.1862  0.3160
   55CLA    CLA  158   4.448   3.906   1.694 -0.3749 -0.1942 -0.0744
   56CLA    CLA  159   2.375   1.271   2.277  0.3090 -0.1202  0.1645
   57CLA    CLA  160   2.069   6.025   4.503 -0.1061  0.0379 -0.0655
   58CLA    CLA  161   2.135   4.378   2.598 -0.0488  0.0188 -0.5551
   59CLA    CLA  162   6.975   2.947   1.840  0.2539 -0.0723  0.2144
   60CLA    CLA  163   6.834   1.717   0.233 -0.1940 -0.3644 -0.0785
   61CLA    CLA  164   2.051   5.517   1.462  0.0580  0.1657  0.0185
   62CLA    CLA  165   4.527   6.498   3.190 -0.0951  0.1274 -0.0075
   63CLA    CLA  166   0.110   0.844   1.008  0.2499 -0.5235  0.3609
   64CLA    CLA  167   3.935   6.698   5.232 -0.2224  0.2140  0.0925
   65CLA    CLA  168   3.667   3.006   5.000  0.2431  0.2253 -0.0234
   66CLA    CLA  169   1.496   6.608   2.910 -0.1815  0.0178 -0.6444
   67CLA    CLA  170   1.021   3.811   1.047 -0.1678  0.0716  0.3038
   68CLA    CLA  171   3.134   6.614   4.728 -0.6055  0.0068  0.2186
   69CLA    CLA  172   5.407   2.662   0.221  0.0049  0.0463 -0.1239
   70TIP3   OH2  173   4.664   0.993   4.831 -0.0797 -0.0159  1.0715
   70TIP3    H1  174   4.663   1.029   4.920 -2.1773  0.5143  0.9006
   70TIP3    H2  175   4.649   0.899   4.844  0.3191 -0.0492  1.3024
   71TIP3   OH2  176   4.263   0.419   0.886 -0.2325  0.1930 -0.3642
   71TIP3    H1  177   4.184   0.388   0.931  0.0321  0.3635  0.2239
   71TIP3    H2  178   4.322   0.444   0.956 -0.1289  1.2704 -0.8209
   72TIP3   OH2  179   5.184   3.344   1.310 -0.0170 -0.0149  0.0821
   72TIP3    H1  180   5.205   3.316   1.399 -0.8966  0.0012  0.3030
   72TIP3    H2  181   5.151   3.433   1.320 -1.8929 -0.6668 -0.0199
   73TIP3   OH2  182   3.072   4.908   1.473  0.0990 -1.1670 -0.3542
   73TIP3    H1  183   3.080   4.909   1.568 -0.1948 -1.3701 -0.3271
   73TIP3    H2  184   3.162   4.920   1.442  0.1392 -0.6585 -0.0565
   74TIP3   OH2  185   0.056   4.306   4.586  0.3889 -0.6178  0.3197
   74TIP3    H1  186   0.132   4.353   4.552  0.0321  0.5477  1.0632
   74TIP3    H2  187   0.006   4.373   4.634 -1.3534 -1.2413 -0.5521
   75TIP3   OH2  188   5.207   1.456   0.312 -0.1103 -0.6902 -0.3405
   75TIP3    H1  189   5.122   1.471   0.271 -0.5004 -0.2313  0.6089
   75TIP3    H2  190   5.188   1.400   0.387  0.7917 -2.7304 -1.5623
   76TIP3   OH2  191   5.336   4.993   0.992 -0.4746 -0.4912  0.2475
   76TIP3    H1  192   5.347   5.038   1.076 -0.1963 -2.4617  1.3401
   76TIP3    H2  193   5.423   4.994   0.952 -0.8740  1.6354 -0.7349
   77TIP3   OH2  194   2.485   5.967   5.652  0.5522 -0.3813  0.2452
   77TIP3    H1  195   2.474   6.030   5.581  3.3623 -0.2247 -0.1575
   77TIP3    H2  196   2.398   5.959   5.691 -0.8488  0.3581 -2.4877
   78TIP3   OH2  197   6.464   5.115   3.999 -0.0430 -0.0296  0.5022
   78TIP3    H1  198   6.466   5.173   4.075 -2.4052  2.1262 -0.9329
   78TIP3    H2  199   6.386   5.141   3.950 -0.3442 -3.3801 -1.1279
   79TIP3   OH2  200   4.521   1.454   3.082  0.3627 -0.8802 -0.2991
   79TIP3    H1  201   4.465   1.532   3.085 -1.1745 -1.9253 -0.5821
   79TIP3    H2  202   4.610   1.488   3.086 -0.2070  1.0087 -2.2153
   80TIP3   OH2  203   2.079   6.366   3.024 -0.2174  0.4379  0.1214
   80TIP3    H1  204   2.149   6.302   3.019 -1.3682 -1.1603  2.4360
   80TIP3    H2  205   2.098   6.418   3.102 -1.0198  0.7372  0.1373
   81TIP3   OH2  206   1.900   2.590   4.358 -0.6588 -0.1569  0.4237
   81TIP3    H1  207   1.978   2.638   4.384 -1.0650  0.3862  0.6754
   81TIP3    H2  208   1.883   2.531   4.431 -0.0358 -0.8433  0.0196
   82TIP3   OH2  209   4.768   5.514   4.443  0.1084  0.1481 -0.1933
   82TIP3    H1  210   4.747   5.422   4.455  1.1407 -0.5773 -3.0438
   82TIP3    H2  211   4.688   5.552   4.405  0.0072  0.1969  0.0693
   83TIP3   OH2  212   6.256   5.995   4.982 -0.3248  0.2855  0.0790
   83TIP3    H1  213   6.166   6.025   4.981 -0.7321 -0.8704  0.8316
   83TIP3    H2  214   6.291   6.023   5.066  0.2229  1.2535 -0.4490
   84TIP3   OH2  215   3.055   5.018   1.151  0.1257  0.1847 -0.3097
   84TIP3    H1  216   3.047   4.925   1.173  0.3831  0.1436 -0.3853
   84TIP3    H2  217   3.081   5.019   1.059  0.9176  0.3078 -0.0891
   85TIP3   OH2  218   0.802   2.617   3.303  0.0543  0.1593 -0.3392
   85TIP3    H1  219   0.821   2.565   3.382 -1.1069  0.8798  0.4388
   85TIP3    H2  220   0.887   2.654   3.279  0.5786 -0.7187  0.0887
   86TIP3   OH2  221   1.812   2.524   2.333  0.0868 -0.3186  0.9041
   86TIP3    H1  222   1.735   2.570   2.367 -0.7381 -2.2138  1.7405
   86TIP3    H2  223   1.884   2.585   2.345 -1.0870  1.0695  1.1621
   87TIP3   OH2  224   6.386   4.508   4.190 -0.2258  0.6112 -0.1239
   87TIP3    H1  225   6.449   4.497   4.261 -2.5788 -2.7897  1.6920
   87TIP3    H2  226   6.324   4.573   4.223 -0.2317  0.4865  0.1132
   88TIP3   OH2  227   3.698   5.690   4.294  0.3438  0.3162  0.3260
   88TIP3    H1  228   3.709   5.661   4.385  0.6357  1.2381  0.5925
   88TIP3    H2  229   3.725   5.782   4.294  1.0028  0.1477 -0.8395
   89TIP3   OH2  230   5.798   0.255   5.192  0.0001  0.3151  0.2418
   89TIP3    H1  231   5.827   0.338   5.230  0.8496 -0.3080  1.0026
   89TIP3    H2  232   5.879   0.210   5.167 -0.5127  0.6777 -2.3434
   90TIP3   OH2  233   0.214   0.574   4.114  0.4414  0.4595 -0.4191
   90TIP3    H1  234   0.182   0.605   4.029  1.3524 -1.4275 -1.5109
   90TIP3    H2  235   0.309   0.567   4.103  0.5425 -0.0702  0.6584
   91TIP3   OH2  236   3.190   4.644   1.139 -0.4398 -1.0106 -0.3207
   91TIP3    H1  237   3.105   4.683   1.160 -0.2096 -0.4496 -0.4100
   91TIP3    H2  238   3.233   4.636   1.224  0.7033  1.7533 -0.5125
   92TIP3   OH2  239   2.773   2.699   3.083  0.0184  0.1205 -0.4935
   92TIP3    H1  240   2.714   2.624   3.080 -0.3331  0.3886 -0.3145
   92TIP3    H2  241   2.803   2.702   3.173  1.2684 -0.7477 -0.8462
   93TIP3   OH2  242   1.192   3.311   0.845  0.2492 -0.3055  0.2962
   93TIP3    H1  243   1.173   3.404   0.836 -1.1029 -0.6060 -0.0771
   93TIP3    H2  244   1.157   3.288   0.931 -0.6680 -0.7591 -0.1899
   94TIP3   OH2  245   6.619   2.719   0.170  0.0657  0.2738  0.6699
   94TIP3    H1  246   6.551   2.785   0.180 -1.2560 -0.8494 -0.4076
   94TIP3    H2  247   6.575   2.636   0.189  0.8448 -0.5741 -0.9680
   95TIP3   OH2  248   5.526   6.432   2.602 -0.3789  0.2739 -0.3871
   95TIP3    H1  249   5.501   6.468   2.688  0.1582  0.9189 -0.4961
   95TIP3    H2  250   5.452   6.375   2.578 -0.5953  0.1820  0.4411
   96TIP3   OH2  251   6.390   3.040   4.769 -0.5300  0.9397 -0.9795
   96TIP3    H1  252   6.466   3.098   4.765 -0.4708  0.9007 -0.4633
   96TIP3    H2  253   6.413   2.966   4.713  0.2269  0.4454 -0.0286
   97TIP3   OH2  254   5.644   3.572   5.038  0.2236 -0.7039 -0.0148
   97TIP3    H1  255   5.617   3.558   5.129  1.2849 -1.2677  0.2281
   97TIP3    H2  256   5.737   3.553   5.038  0.3019 -0.3562 -1.1589
   98TIP3   OH2  257   5.494   3.340   0.379 -0.5014 -0.0091  0.5469
   98TIP3    H1  258   5.576   3.387   0.392  1.6716 -3.0093 -1.1833
   98TIP3    H2  259   5.457   3.331   0.467  1.9105 -0.0133  1.6237
   99TIP3   OH2  260   3.341   2.880   4.669 -0.0808  0.0164  0.1860
   99TIP3    H1  261   3.259   2.831   4.676  0.3430 -0.8304 -0.6936
   99TIP3    H2  262   3.400   2.836   4.730  0.2657 -0.5007 -0.5209
  100TIP3   OH2  263   1.364   3.763   0.988 -0.3090  0.4504  0.8373
  100TIP3    H1  264   1.394   3.679   0.952  0.9845  1.1714  0.1777
  100TIP3    H2  265   1.272   3.769   0.960 -0.3697 -0.6426  0.7328
  101TIP3   OH2  266   3.884   4.479   5.013 -0.1310  0.2739 -0.3577
  101TIP3    H1  267   3.885   4.440   4.926  1.1938 -1.3941  0.3447
  101TIP3    H2  268   3.841   4.413   5.068 -1.9241  1.7592  0.1039
  102TIP3   OH2  269   2.925   1.607   0.960  0.4049  0.4192  0.0963
  102TIP3    H1  270   2.978   1.602   0.881  1.3995  1.6808  0.6540
  102TIP3    H2  271   2.956   1.685   1.005 -1.5243  0.8764  0.7467
  103TIP3   OH2  272   6.688   1.238   0.925  0.1291  0.4671 -0.0375
  103TIP3    H1  273   6.716   1.215   0.836  0.9865  1.5465 -0.0667
  103TIP3    H2  274   6.737   1.178   0.981 -0.7351 -0.5067 -0.2968
  104TIP3   OH2  275   0.642   3.747   2.020  0.1652 -0.1409 -0.0343
  104TIP3    H1  276   0.555   3.735   1.982 -0.2912  1.5096  0.4306
  104TIP3    H2  277   0.699   3.765   1.944 -0.5121  1.9308 -0.0891
  105TIP3   OH2  278   5.779   4.713   4.455  0.1970  0.3319  0.2721
  105TIP3    H1  279   5.735   4.744   4.534  1.5110  1.1384  0.7200
  105TIP3    H2  280   5.728   4.636   4.428 -0.2867  0.0429  1.8937
  106TIP3   OH2  281   5.899   3.698   2.083  0.9930  0.3454  0.1895
  106TIP3    H1  282   5.932   3.608   2.093 -0.7435 -0.5297 -1.3266
  106TIP3    H2  283   5.816   3.698   2.130  1.2875  1.3717  0.7282
  107TIP3   OH2  284   1.916   2.072   5.513  0.1598  0.2482 -0.4739
  107TIP3    H1  285   2.002   2.041   5.542  0.4861  2.1248  0.7045
  107TIP3    H2  286   1.887   2.006   5.450  0.7261 -2.4978  1.9373
  108TIP3   OH2  287   6.847   4.169   0.758 -0.8729 -0.0941 -0.1044
  108TIP3    H1  288   6.876   4.080   0.737 -1.3710 -0.6997  1.6058
  108TIP3    H2  289   6.862   4.219   0.678  0.1439 -1.5375 -0.8546
  109TIP3   OH2  290   4.792   1.903   0.739  0.0684 -0.9935  0.1032
  109TIP3    H1  291   4.802   1.841   0.667  1.0151  0.6319 -1.2265
  109TIP3    H2  292   4.856   1.971   0.721 -1.8936  1.1182  0.7087
  110TIP3   OH2  293   3.576   4.616   0.224  0.1660 -0.1301 -0.1359
  110TIP3    H1  294   3.523   4.536   0.218  0.4308 -0.2573 -0.9296
  110TIP3    H2  295   3.663   4.589   0.194  0.7663  0.0184  1.3859
  111TIP3   OH2  296   1.479   5.892   0.584 -0.1866  0.3079 -0.5741
  111TIP3    H1  297   1.547   5.842   0.539  2.6475  1.6078  1.9012
  111TIP3    H2  298   1.486   5.980   0.547  1.3794  1.0894  1.3430
  112TIP3   OH2  299   1.951   2.246   3.511  0.1030  0.1166  0.2641
  112TIP3    H1  300   1.902   2.195   3.575 -2.3589  0.3848 -1.2349
  112TIP3    H2  301   1.946   2.336   3.543 -1.0566  0.2388 -0.1819
  113TIP3   OH2  302   7.094   6.764   4.081  0.1408  0.2121  0.4771
  113TIP3    H1  303   7.013   6.776   4.131 -0.2146 -2.4669  0.6936
  113TIP3    H2  304   7.134   6.686   4.120  3.0794  1.6692  0.6218
  114TIP3   OH2  305   4.250   4.831   5.373  0.5096 -0.1429 -0.5921
  114TIP3    H1  306   4.165   4.875   5.381  0.5626 -0.0002 -0.8037
  114TIP3    H2  307   4.271   4.803   5.462 -0.7603 -2.0944 -0.8670
  115TIP3   OH2  308   6.305   3.574   3.157 -0.6337 -0.2673 -0.0690
  115TIP3    H1  309   6.296   3.648   3.098  0.7695  0.8918  1.0950
  115TIP3    H2  310   6.295   3.497   3.101  0.7377  0.7806 -1.8566
  116TIP3   OH2  311   2.910   3.359   3.483 -0.8019  0.0139 -0.8056
  116TIP3    H1  312   2.906   3.441   3.532 -0.2119  0.5160 -1.5730
  116TIP3    H2  313   2.937   3.385   3.395  0.4567 -1.1202 -0.7810
  117TIP3   OH2  314   2.315   1.513   0.870  0.5841 -0.6707 -0.7793
  117TIP3    H1  315   2.355   1.534   0.955  0.0463  0.3952 -0.7665
  117TIP3    H2  316   2.222   1.499   0.891  0.4985 -0.6513 -1.1511
  118TIP3   OH2  317   1.836   0.973   3.434 -0.7238 -0.0234  0.0116
  118TIP3    H1  318   1.823   1.056   3.480 -0.1502  0.8239 -1.3225
  118TIP3    H2  319   1.915   0.936   3.473  0.0170  0.9054 -0.5866
  119TIP3   OH2  320   1.796   6.021   1.597  0.3049 -0.1748  0.0184
  119TIP3    H1  321   1.853   6.070   1.657 -0.2278  1.5407 -0.8204
  119TIP3    H2  322   1.856   5.984   1.532  0.6662 -0.1947  0.3578
  120TIP3   OH2  323   5.535   1.967   4.890  0.4853 -0.2899  0.3730
  120TIP3    H1  324   5.472   1.914   4.842  0.0668 -0.8792  1.5349
  120TIP3    H2  325   5.526   2.055   4.853 -3.0303  0.3299  2.2560
  121TIP3   OH2  326   2.182   4.028   0.355 -0.1617  0.1701 -0.3793
  121TIP3    H1  327   2.272   4.038   0.386 -0.1974 -0.3433 -0.0983
  121TIP3    H2  328   2.190   4.016   0.260  0.0853 -0.1630 -0.3162
  122TIP3   OH2  329   3.216   0.619   4.036 -0.1346 -0.2427 -0.1495
  122TIP3    H1  330   3.161   0.695   4.055  1.9390  1.4958 -0.7035
  122TIP3    H2  331   3.159   0.544   4.053 -2.3816  1.3993  0.1437
  123TIP3   OH2  332   7.132   4.590   0.267  0.1571 -0.0784 -0.0769
  123TIP3    H1  333   7.159   4.509   0.312 -0.1666 -1.3000 -1.9562
  123TIP3    H2  334   7.202   4.607   0.204  0.2391  1.1519  0.3241
  124TIP3   OH2  335   5.552   5.546   0.301  0.3046 -0.3676 -0.5076
  124TIP3    H1  336   5.602   5.478   0.257 -0.8153 -0.9181 -0.9817
  124TIP3    H2  337   5.591   5.628   0.272  2.2273 -0.7920  0.7377
  125TIP3   OH2  338   5.743   2.234   2.993 -0.2936 -0.5521 -0.0047
  125TIP3    H1  339   5.750   2.165   2.927 -0.9790 -1.8424  1.2217
  125TIP3    H2  340   5.678   2.295   2.958 -1.1012 -1.5416 -0.2712
  126TIP3   OH2  341   2.461   4.245   1.238 -0.0855 -0.4747 -0.1991
  126TIP3    H1  342   2.416   4.327   1.218  1.0046  0.1810 -0.0390
  126TIP3    H2  343   2.491   4.255   1.328 -0.5715 -1.3535  0.0691
  127TIP3   OH2  344   3.527   3.280   2.929  0.3179  0.0022  0.3564
  127TIP3    H1  345   3.610   3.242   2.901 -0.0665 -0.4180 -0.2144
  127TIP3    H2  346   3.521   3.363   2.881  0.8245  0.4819  1.0813
  128TIP3   OH2  347   1.268   5.771   3.407 -0.3468  0.0162 -0.2724
  128TIP3    H1  348   1.268   5.749   3.314  1.1290 -0.6758 -0.1474
  128TIP3    H2  349   1.324   5.848   3.414 -1.5353  0.8916 -0.0963
  129TIP3   OH2  350   5.064   1.178   0.455 -0.0461 -0.0033 -0.0463
  129TIP3    H1  351   5.079   1.142   0.368  0.6655  1.6488 -0.6439
  129TIP3    H2  352   5.149   1.172   0.499  0.3524  1.7454 -0.4993
  130TIP3   OH2  353   1.119   5.726   5.237 -0.4856  0.4617  0.2597
  130TIP3    H1  354   1.188   5.771   5.190 -0.5857  0.4525  0.1046
  130TIP3    H2  355   1.122   5.763   5.325 -0.4117  0.5990  0.1988
  131TIP3   OH2  356   4.183   2.712   5.867  0.3356  0.1770 -0.7375
  131TIP3    H1  357   4.196   2.635   5.812 -0.9387 -1.3989  1.0619
  131TIP3    H2  358   4.098   2.746   5.841  1.2483  1.5602 -2.1116
  132TIP3   OH2  359   2.899   5.499   0.887 -0.4237  0.3719 -0.7004
  132TIP3    H1  360   2.960   5.480   0.816  0.8187 -1.3728  0.7491
  132TIP3    H2  361   2.951   5.488   0.967 -2.2632  0.3425  0.5530
  133TIP3   OH2  362   2.269   0.705   5.158  0.4116  0.4412 -0.2396
  133TIP3    H1  363   2.266   0.619   5.117 -1.4790 -0.3700  1.4403
  133TIP3    H2  364   2.181   0.741   5.145  0.6141  1.3254  0.6926
  134TIP3   OH2  365   5.148   0.845   3.560 -0.0320 -0.0892 -0.6018
  134TIP3    H1  366   5.227   0.796   3.536  0.6365  0.8162 -0.2861
  134TIP3    H2  367   5.101   0.856   3.477  0.1846 -0.5930 -0.8014
  135TIP3   OH2  368   0.957   4.653   4.208 -0.4358  0.3748 -0.6732
  135TIP3    H1  369   0.868   4.618   4.214  0.1159 -1.0763 -0.6167
  135TIP3    H2  370   1.001   4.595   4.146  1.1621 -0.4542  1.1378
  136TIP3   OH2  371   6.698   6.655   1.991 -0.3636 -0.0561  0.3003
  136TIP3    H1  372   6.654   6.660   2.076 -1.0799 -0.5637 -0.0306
  136TIP3    H2  373   6.775   6.599   2.007 -0.4759 -0.1210  0.6165
  137TIP3   OH2  374   4.140   5.972   5.164  0.0473  0.4150 -0.0353
  137TIP3    H1  375   4.119   6.018   5.083 -2.0473  0.0166  0.2254
  137TIP3    H2  376   4.059   5.973   5.215 -0.2844 -3.7482 -0.1407
  138TIP3   OH2  377   4.039   1.837   0.441  0.0134 -0.6624 -0.4942
  138TIP3    H1  378   4.026   1.743   0.453  1.3239 -1.0331 -1.6455
  138TIP3    H2  379   4.082   1.866   0.522 -1.4022 -0.7882  0.3438
  139TIP3   OH2  380   0.416   3.444   0.114 -0.7065  0.5195  0.0004
  139TIP3    H1  381   0.351   3.460   0.045 -1.0984  1.8024  0.6311
  139TIP3    H2  382   0.384   3.366   0.159 -0.5625 -0.2074 -1.1163
  140TIP3   OH2  383   1.265   2.645   4.426 -0.2395 -0.1278 -0.1311
  140TIP3    H1  384   1.264   2.569   4.367 -1.0842 -1.1231  1.1103
  140TIP3    H2  385   1.174   2.654   4.455  0.3205 -0.3475  1.8346
  141TIP3   OH2  386   3.830   4.332   5.422 -0.2196  0.1416 -0.8831
  141TIP3    H1  387   3.869   4.257   5.468  0.1010 -0.5186 -2.1849
  141TIP3    H2  388   3.893   4.403   5.434  0.1877 -0.2148 -0.8581
  142TIP3   OH2  389   1.593   6.004   5.585  0.0250  0.0318  0.2176
  142TIP3    H1  390   1.643   6.045   5.515 -1.9674 -0.4720 -1.6245
  142TIP3    H2  391   1.531   6.071   5.613 -1.0292 -0.6065 -0.4952
  143TIP3   OH2  392   6.850   0.567   5.703  0.2022  0.6513 -0.7163
  143TIP3    H1  393   6.897   0.515   5.637  1.1382 -0.0992  0.5017
  143TIP3    H2  394   6.760   0.571   5.670 -0.2768 -2.8736 -0.2713
  144TIP3   OH2  395   4.740   3.558   0.787 -0.0952 -0.2109 -0.2413
  144TIP3    H1  396   4.684   3.593   0.718 -1.5576 -1.4416  0.2713
  144TIP3    H2  397   4.732   3.621   0.859  0.7281  0.6073 -0.8438
  145TIP3   OH2  398   0.972   4.592   3.757 -0.2161  0.1642 -0.0396
  145TIP3    H1  399   0.957   4.517   3.700 -0.8866 -0.1821  0.5750
  145TIP3    H2  400   0.991   4.554   3.842  0.5775  0.6825  0.0273
  146TIP3   OH2  401   5.753   4.862   0.162 -0.2411 -0.7603 -0.2513
  146TIP3    H1  402   5.781   4.771   0.169  0.3358 -0.5542  0.1633
  146TIP3    H2  403   5.796   4.895   0.083 -0.3636 -0.8159 -0.3413
  147TIP3   OH2  404   2.953   5.436   2.973  0.4491  0.2751 -0.0000
  147TIP3    H1  405   2.959   5.528   2.999  0.4593  0.4499 -0.6163
  147TIP3    H2  406   2.873   5.431   2.921  0.8590  0.0973 -0.6224
  148TIP3   OH2  407   5.131   0.540   4.200  0.0748 -0.3520  0.1996
  148TIP3    H1  408   5.140   0.583   4.285  0.4410  0.6729 -0.3392
  148TIP3    H2  409   5.050   0.574   4.164  1.3799  1.5171 -1.1072
  149TIP3   OH2  410   3.801   2.768   4.868 -0.1806 -0.1190  0.2625
  149TIP3    H1  411   3.787   2.700   4.934 -0.2943  0.1619  0.5244
  149TIP3    H2  412   3.756   2.845   4.902  1.4014  0.6048  0.7823
  150TIP3   OH2  413   0.607   0.217   2.245  0.0724 -0.1253  0.2807
  150TIP3    H1  414   0.616   0.282   2.315  0.3701  0.1382 -0.0001
  150TIP3    H2  415   0.520   0.178   2.259  0.9254 -1.5408  2.0491
  151TIP3   OH2  416   7.093   3.080   0.701  0.0362 -0.2023 -0.3320
  151TIP3    H1  417   7.014   3.047   0.745 -0.7317 -0.1252 -1.6076
  151TIP3    H2  418   7.164   3.059   0.761 -1.1522  1.5584  1.8391
  152TIP3   OH2  419   2.270   0.720   2.954  0.4840 -0.2841  0.3659
  152TIP3    H1  420   2.350   0.690   2.912  0.5919  1.7204 -0.9792
  152TIP3    H2  421   2.300   0.767   3.032  0.4074 -1.9847  1.4725
  153TIP3   OH2  422   4.764   5.203   5.171  0.0909 -0.4959 -0.1337
  153TIP3    H1  423   4.786   5.188   5.080  1.3829  1.5473 -0.2282
  153TIP3    H2  424   4.677   5.245   5.169 -0.2406 -1.1843 -0.3461
  154TIP3   OH2  425   1.667   0.252   0.757  0.4985 -0.2931 -0.2217
  154TIP3    H1  426   1.734   0.271   0.823  1.6223 -0.7936 -1.1717
  154TIP3    H2  427   1.677   0.323   0.693 -0.8720  0.4329  0.3294
  155TIP3   OH2  428   6.370   4.209   4.233  0.8048  0.2523  0.6652
  155TIP3    H1  429   6.376   4.262   4.313 -0.7374 -0.8091  1.5387
  155TIP3    H2  430   6.431   4.250   4.172  1.1711  1.7803  2.0015
  156TIP3   OH2  431   5.399   3.481   3.184 -0.2305 -0.3586  0.3515
  156TIP3    H1  432   5.461   3.550   3.206 -0.5040  0.3564 -1.0101
  156TIP3    H2  433   5.313   3.518   3.205 -0.2324 -1.3899  2.3501
  157TIP3   OH2  434   3.713   2.914   2.921  0.0047  0.2455  0.1685
  157TIP3    H1  435   3.693   2.967   2.999  1.6977 -0.3421  1.0470
  157TIP3    H2  436   3.806   2.926   2.907  0.0988 -1.1888 -0.6322
  158TIP3   OH2  437   0.821   0.554   4.547 -0.3056 -0.2445  0.1332
  158TIP3    H1  438   0.858   0.640   4.528 -1.8138  0.4717  0.3034
  158TIP3    H2  439   0.896   0.495   4.544  0.6875  0.9892 -0.4886
  159TIP3   OH2  440   0.411   5.693   2.889 -0.1248  0.3885 -0.1580
  159TIP3    H1  441   0.386   5.630   2.957  0.2680  0.5187  0.1080
  159TIP3    H2  442   0.387   5.650   2.807  2.5116 -1.2756 -0.1728
  160TIP3   OH2  443   3.384   0.228   5.182  0.3346  0.1715  0.4493
  160TIP3    H1  444   3.420   0.212   5.095 -2.8510 -0.2109 -0.9491
  160TIP3    H2  445   3.390   0.144   5.227  0.7145  0.0066  0.0962
  161TIP3   OH2  446   6.429   2.124   2.310  0.1435 -0.1015 -0.0112
  161TIP3    H1  447   6.409   2.079   2.392 -0.4131 -0.6887 -0.4602
  161TIP3    H2  448   6.525   2.118   2.303  0.3159  0.8483  1.0804
  162TIP3   OH2  449   4.592   6.409   4.984 -0.1228 -0.3316 -0.4237
  162TIP3    H1  450   4.531   6.342   5.014 -0.9940  0.6198  0.0039
  162TIP3    H2  451   4.602   6.468   5.059 -0.5255  0.8025 -1.2282
  163TIP3   OH2  452   6.702   2.439   4.062 -0.0839  0.0925  0.5747
  163TIP3    H1  453   6.693   2.357   4.110 -0.6165  0.0788  0.4597
  163TIP3    H2  454   6.681   2.507   4.126  0.5428  0.1517  0.7203
  164TIP3   OH2  455   2.479   2.494   0.363 -0.3660 -0.1356  0.2330
  164TIP3    H1  456   2.549   2.451   0.412  0.1692  0.9348  0.4379
  164TIP3    H2  457   2.427   2.422   0.327 -0.2724 -0.9581  1.6541
  165TIP3   OH2  458   5.485   1.136   5.381 -0.6045  0.3635  0.0139
  165TIP3    H1  459   5.446   1.201   5.323  0.0241  0.9675  0.2403
  165TIP3    H2  460   5.489   1.181   5.466  0.9472  0.4997 -0.0927
  166TIP3   OH2  461   5.907   2.460   0.530 -0.3564 -0.5790 -0.1523
  166TIP3    H1  462   5.839   2.517   0.567 -0.4672 -0.4140 -0.6025
  166TIP3    H2  463   5.989   2.493   0.568 -0.3093  0.5025 -1.1274
  167TIP3   OH2  464   6.695   0.381   3.617  0.5502  0.8136 -1.0466
  167TIP3    H1  465   6.784   0.385   3.652  0.5987  2.2453 -1.2664
  167TIP3    H2  466   6.707   0.377   3.522  0.3789  1.4255 -1.0947
  168TIP3   OH2  467   4.130   0.653   4.164  0.2465 -0.2395 -0.4606
  168TIP3    H1  468   4.106   0.686   4.077 -0.4446  0.1473 -0.1304
  168TIP3    H2  469   4.211   0.699   4.186 -0.7894  1.3886  0.0659
  169TIP3   OH2  470   4.554   1.576   5.101  0.3252  0.2410  0.3390
  169TIP3    H1  471   4.591   1.659   5.070  1.3497  0.8924  3.0173
  169TIP3    H2  472   4.630   1.524   5.126 -0.2032 -2.1857 -2.5580
  170TIP3   OH2  473   2.655   4.060   1.473 -0.2872  0.5649  0.6826
  170TIP3    H1  474   2.714   3.986   1.488 -0.7759 -0.0765 -0.3900
  170TIP3    H2  475   2.693   4.108   1.400 -1.0327  0.1872  0.0323
  171TIP3   OH2  476   2.361   1.059   0.654 -0.6720  0.1151  0.4132
  171TIP3    H1  477   2.274   1.083   0.685 -0.9200 -1.1927  0.7767
  171TIP3    H2  478   2.420   1.079   0.727 -0.3991  2.4826 -0.3792
  172TIP3   OH2  479   6.716   4.924   2.158 -0.1318  0.2216  0.5257
  172TIP3    H1  480   6.740   4.868   2.231 -0.6958  0.1659  0.6783
  172TIP3    H2  481   6.730   5.013   2.189  1.4957  0.1617  0.0201
  173TIP3   OH2  482   3.087   3.988   4.907 -0.2321  0.2252 -0.1076
  173TIP3    H1  483   3.015   3.924   4.907 -0.8208  0.8774  0.0105
  173TIP3    H2  484   3.052   4.064   4.862 -0.4541  1.4468  1.9895
  174TIP3   OH2  485   1.779   1.144   5.257  0.0664  0.4166 -0.2339
  174TIP3    H1  486   1.784   1.054   5.226  0.2138  0.5848 -0.6994
  174TIP3    H2  487   1.688   1.169   5.244 -0.1332  0.1229  0.5086
  175TIP3   OH2  488   3.789   1.645   5.523  0.4333  0.0030  0.2349
  175TIP3    H1  489   3.819   1.584   5.456 -1.7089  0.8510 -1.6207
  175TIP3    H2  490   3.842   1.724   5.509  1.0878 -0.3600  0.6213
  176TIP3   OH2  491   4.708   3.430   1.757 -0.0272  0.1228  0.2908
  176TIP3    H1  492   4.690   3.509   1.708  0.6999 -0.8899 -1.7223
  176TIP3    H2  493   4.659   3.361   1.712 -0.5737 -0.6354  1.9312
  177TIP3   OH2  494   2.590   4.411   0.939  0.9930  0.3154  0.0941
  177TIP3    H1  495   2.604   4.316   0.939  1.8791  0.4308 -0.6523
  177TIP3    H2  496   2.495   4.421   0.932  1.0255 -0.5338 -2.4179
  178TIP3   OH2  497   4.326   6.293   5.060  0.3717  0.2486 -0.0261
  178TIP3    H1  498   4.365   6.230   5.121  2.1580  1.7610  0.4779
  178TIP3    H2  499   4.242   6.317   5.100  1.0236  0.3958  1.2966
  179TIP3   OH2  500   1.195   4.460   0.912 -0.1318  0.6410  0.1664
  179TIP3    H1  501   1.224   4.473   0.822 -0.0323  1.4720  0.3091
  179TIP3    H2  502   1.158   4.545   0.938 -1.1586  0.1008  0.5459
  180TIP3   OH2  503   4.476   5.874   3.374 -0.1353  0.2609 -0.1716
  180TIP3    H1  504   4.541   5.873   3.303 -0.8945  1.4595 -0.9268
  180TIP3    H2  505   4.516   5.929   3.442  0.5456 -0.7994  0.3264
  181TIP3   OH2  506   1.734   5.085   3.344  0.1434 -0.1732 -0.2352
  181TIP3    H1  507   1.659   5.094   3.403  0.2732  0.5440 -0.1673
  181TIP3    H2  508   1.810   5.096   3.402  0.2794  0.0377 -0.4532
  182TIP3   OH2  509   3.464   1.628   0.797  0.1249 -0.0012 -0.1070
  182TIP3    H1  510   3.473   1.563   0.728 -0.3922 -1.1253  0.8309
  182TIP3    H2  511   3.546   1.624   0.846 -0.2272 -0.5899  0.4585
  183TIP3   OH2  512   6.924   6.405   2.850 -0.0170  0.0660  0.1636
  183TIP3    H1  513   6.864   6.349   2.899  1.1521 -1.0998  0.3382
  183TIP3    H2  514   6.986   6.437   2.915 -0.2828  1.0456 -0.0511
  184TIP3   OH2  515   5.390   3.020   5.630  0.1050 -0.5316  0.3075
  184TIP3    H1  516   5.454   3.055   5.568 -1.5178  1.7532 -0.1939
  184TIP3    H2  517   5.394   3.079   5.705 -2.2784  0.4996 -0.2893
  185TIP3   OH2  518   4.307   0.863   1.794  0.1242  0.1225 -0.6074
  185TIP3    H1  519   4.279   0.954   1.782 -0.9047 -0.2173 -0.8588
  185TIP3    H2  520   4.284   0.843   1.885  2.2096  0.7301  0.1024
  186TIP3   OH2  521   2.707   1.326   5.185 -0.1875  0.3063 -0.0490
  186TIP3    H1  522   2.682   1.282   5.266  0.8684 -0.8141 -0.2946
  186TIP3    H2  523   2.795   1.358   5.201  0.1077 -0.0936 -0.8073
  187TIP3   OH2  524   0.187   6.439   1.419  0.2970 -0.6737  0.3418
  187TIP3    H1  525   0.139   6.522   1.430 -0.3049 -0.8998 -0.4982
  187TIP3    H2  526   0.268   6.452   1.468 -0.0011  0.2383  0.6206
  188TIP3   OH2  527   0.569   5.731   5.006  0.3282 -0.7703 -0.0706
  188TIP3    H1  528   0.654   5.769   5.031 -0.1854 -0.3128  1.0597
  188TIP3    H2  529   0.543   5.779   4.927  2.2657 -2.6388 -1.9794
  189TIP3   OH2  530   0.103   0.645   4.804  0.6264  0.0744 -0.2673
  189TIP3    H1  531   0.101   0.583   4.730  1.0738 -1.2214  0.7684
  189TIP3    H2  532   0.023   0.627   4.852  1.5287 -0.8777  0.9411
  190TIP3   OH2  533   1.681   1.984   2.888  0.2829 -0.4071  0.3060
  190TIP3    H1  534   1.677   2.064   2.836  1.9134 -0.0078  0.7251
  190TIP3    H2  535   1.698   1.914   2.824  1.4559 -0.0325  0.1818
  191TIP3   OH2  536   5.707   3.721   2.602 -0.5431  0.3071  0.5137
  191TIP3    H1  537   5.658   3.803   2.594  0.5958  0.8405 -1.8551
  191TIP3    H2  538   5.778   3.730   2.539  0.7852 -1.7108  1.6401
  192TIP3   OH2  539   5.607   4.193   4.811 -0.2699  0.4308 -0.1477
  192TIP3    H1  540   5.702   4.195   4.818 -0.2555 -1.3180  0.8121
  192TIP3    H2  541   5.576   4.180   4.901 -1.3343 -0.4378 -0.6097
  193TIP3   OH2  542   6.148   2.031   4.939 -0.1480 -0.5010 -0.2387
  193TIP3    H1  543   6.123   2.122   4.955  2.2843 -0.0773  1.7474
  193TIP3    H2  544   6.244   2.031   4.942 -0.0321 -3.0043 -1.1423
  194TIP3   OH2  545   4.584   5.250   4.760 -0.1873  0.0241  0.7229
  194TIP3    H1  546   4.518   5.183   4.779  0.2455 -0.1155  1.8445
  194TIP3    H2  547   4.649   5.240   4.830  1.6775 -0.6373 -1.0324
  195TIP3   OH2  548   2.011   2.162   3.255  0.1433  0.0791 -0.3314
  195TIP3    H1  549   1.937   2.106   3.231  0.4919 -0.6380  0.2491
  195TIP3    H2  550   1.991   2.191   3.344 -0.3756  1.4666 -0.8589
  196TIP3   OH2  551   0.506   3.895   3.239 -0.0776 -0.5391 -0.3355
  196TIP3    H1  552   0.580   3.937   3.283 -0.7015  0.2099  0.0240
  196TIP3    H2  553   0.547   3.837   3.174  0.8152  1.1645 -1.3603
  197TIP3   OH2  554   5.705   1.946   1.887 -0.4005 -0.7008  0.1101
  197TIP3    H1  555   5.672   2.031   1.916  1.3788  0.0684 -0.0339
  197TIP3    H2  556   5.651   1.883   1.935 -1.3253  0.4971  0.7111
  198TIP3   OH2  557   0.288   1.133   5.380 -0.0503  0.0556 -0.5392
  198TIP3    H1  558   0.206   1.179   5.400 -0.3466 -0.5063 -0.4432
  198TIP3    H2  559   0.265   1.071   5.312  0.9077  1.7970 -2.5778
  199TIP3   OH2  560   0.257   3.813   3.140 -0.0599 -0.6532  0.4097
  199TIP3    H1  561   0.332   3.867   3.163 -0.4581 -0.4009  1.1544
  199TIP3    H2  562   0.217   3.791   3.224 -0.4346 -1.3352  0.0562
  200TIP3   OH2  563   2.813   1.992   3.416 -0.0349  0.1440  0.4005
  200TIP3    H1  564   2.838   1.979   3.324 -4.5575 -0.3707 -1.0051
  200TIP3    H2  565   2.798   1.904   3.449 -2.3044  0.4061  0.2422
  201TIP3   OH2  566   3.659   1.635   0.997 -0.0291  0.1699 -0.3323
  201TIP3    H1  567   3.674   1.620   1.090  0.0121  0.6312 -0.2589
  201TIP3    H2  568   3.732   1.591   0.953  0.2268  0.3758 -0.1157
  202TIP3   OH2  569   1.670   2.924   5.529  0.4311  0.0198  0.2642
  202TIP3    H1  570   1.739   2.958   5.586  0.4121  0.8659 -0.1999
  202TIP3    H2  571   1.610   2.998   5.517  0.6244 -0.0180 -1.1367
  203TIP3   OH2  572   1.615   2.523   5.182  0.0193  0.5166 -0.5199
  203TIP3    H1  573   1.596   2.611   5.215  0.2038  0.3065  0.1557
  203TIP3    H2  574   1.634   2.536   5.089 -1.6464  0.9605 -0.8296
  204TIP3   OH2  575   2.478   0.865   4.414 -0.1805  0.2029 -0.3527
  204TIP3    H1  576   2.564   0.867   4.373 -0.7119  0.3426 -1.5100
  204TIP3    H2  577   2.443   0.953   4.399 -0.0598  0.5449  1.1881
  205TIP3   OH2  578   1.984   4.328   1.850  0.0254 -0.8541  0.1396
  205TIP3    H1  579   1.905   4.344   1.798  0.1133  0.1733  0.3097
  205TIP3    H2  580   1.951   4.301   1.936 -0.1371 -0.6815  0.1324
  206TIP3   OH2  581   3.978   2.117   2.202 -0.0162 -0.1276  0.2821
  206TIP3    H1  582   3.970   2.040   2.147 -0.4446  0.3178 -0.2989
  206TIP3    H2  583   4.005   2.083   2.288  1.0698 -0.7859 -0.2995
  207TIP3   OH2  584   0.831   5.844   2.663  0.0566  0.1519 -0.2012
  207TIP3    H1  585   0.810   5.754   2.689 -0.2402 -0.2455 -1.6760
  207TIP3    H2  586   0.760   5.897   2.698 -0.0255 -0.2653  0.2638
  208TIP3   OH2  587   2.178   1.933   1.987  0.0331  0.0417 -0.1080
  208TIP3    H1  588   2.206   1.971   1.904 -1.7397  1.4633 -0.1021
  208TIP3    H2  589   2.187   2.003   2.051  1.9218 -1.1934  1.0987
  209TIP3   OH2  590   1.419   6.303   2.912  0.5563 -0.2710  0.4222
  209TIP3    H1  591   1.450   6.392   2.894  0.9250 -0.7963 -1.8674
  209TIP3    H2  592   1.362   6.282   2.837  0.6754 -2.0504  0.7833
  210TIP3   OH2  593   4.861   0.048   1.324 -0.0854  0.4952  0.4617
  210TIP3    H1  594   4.827  -0.028   1.370 -1.1360  1.6377  1.6684
  210TIP3    H2  595   4.931   0.014   1.268 -0.2635 -1.2738  1.2707
  211TIP3   OH2  596   1.178   1.334   2.693  0.2699 -0.0722  0.5612
  211TIP3    H1  597   1.173   1.384   2.611 -0.5455  0.8383  1.1395
  211TIP3    H2  598   1.262   1.288   2.688  0.1768 -0.1234 -0.8315
  212TIP3   OH2  599   4.837   5.411   0.237 -0.1839  0.0559  0.3240
  212TIP3    H1  600   4.914   5.465   0.221  0.0221 -0.3787 -0.1776
  212TIP3    H2  601   4.797   5.399   0.151 -0.2763 -0.5084  0.4373
  213TIP3   OH2  602   6.356   5.485   3.331 -0.6869  0.2427 -0.2361
  213TIP3    H1  603   6.307   5.519   3.256 -0.6092  1.4407  0.2365
  213TIP3    H2  604   6.312   5.403   3.354 -1.4938  0.5094 -0.7919
  214TIP3   OH2  605   0.406   4.489   2.027 -0.4773  0.5916 -0.5904
  214TIP3    H1  606   0.479   4.524   1.976  0.7049 -1.4182 -0.3583
  214TIP3    H2  607   0.367   4.422   1.971  0.0408 -0.7480  0.5883
  215TIP3   OH2  608   3.852   3.151   1.234  0.3500 -0.3450  0.6064
  215TIP3    H1  609   3.826   3.128   1.146  4.3392 -0.4021 -0.7685
  215TIP3    H2  610   3.780   3.121   1.290 -1.9089 -1.1103 -2.4700
  216TIP3   OH2  611   2.201   6.689   4.451 -0.3885 -0.1632  0.2364
  216TIP3    H1  612   2.121   6.742   4.455 -0.4318 -0.1411 -0.5643
  216TIP3    H2  613   2.260   6.740   4.395 -1.0225 -1.6616 -1.9257
  217TIP3   OH2  614   7.049   2.589   3.351 -0.7269  0.5424 -0.1109
  217TIP3    H1  615   6.955   2.612   3.352 -0.7049  0.7143  1.4810
  217TIP3    H2  616   7.093   2.671   3.375 -0.2976  0.0755  0.7401
  218TIP3   OH2  617   2.473   3.521   4.601 -0.3742 -0.6099  0.8581
  218TIP3    H1  618   2.433   3.519   4.514 -0.7447  1.5060  0.9212
  218TIP3    H2  619   2.421   3.459   4.652  0.5210 -2.7232 -0.6366
  219TIP3   OH2  620   1.513   3.983   0.232  0.7607  0.1447  0.4901
  219TIP3    H1  621   1.419   3.971   0.225  0.7125  0.4695  0.5540
  219TIP3    H2  622   1.527   4.076   0.213  0.9523  0.3385  1.5161
  220TIP3   OH2  623   5.941   3.281   3.473 -0.4275 -0.0517  0.2719
  220TIP3    H1  624   5.981   3.365   3.449  3.8795 -1.6051  1.0519
  220TIP3    H2  625   5.903   3.297   3.559  0.0684  1.1836  0.2837
  221TIP3   OH2  626   5.134   1.503   3.078  0.8547 -0.2548 -0.1458
  221TIP3    H1  627   5.069   1.570   3.060  1.4786 -0.1180 -2.1094
  221TIP3    H2  628   5.218   1.546   3.062  1.3724 -0.9041  0.6865
  222TIP3   OH2  629   6.808   1.649   4.559  0.1020  0.1159  0.3877
  222TIP3    H1  630   6.747   1.589   4.603 -0.4072 -0.2660 -0.7855
  222TIP3    H2  631   6.794   1.632   4.465  0.6640  1.3774  0.0596
  223TIP3   OH2  632   4.867   2.511   0.525 -0.0911 -0.0716 -1.4651
  223TIP3    H1  633   4.935   2.444   0.529  0.3455  0.4222  0.3379
  223TIP3    H2  634   4.915   2.594   0.520 -0.5145  0.2928 -0.0300
  224TIP3   OH2  635   4.428   4.839   4.411 -0.6167  0.2698 -0.4470
  224TIP3    H1  636   4.484   4.915   4.399 -0.7504  0.4183 -0.1179
  224TIP3    H2  637   4.480   4.766   4.377  0.3989  0.1640  1.2067
  225TIP3   OH2  638   4.522   0.176   2.898  0.0637  0.4723  0.1800
  225TIP3    H1  639   4.610   0.188   2.933  0.6212 -0.6684 -0.7756
  225TIP3    H2  640   4.525   0.215   2.811 -0.8982  1.9867  0.7842
  226TIP3   OH2  641   1.974   3.500   3.523  0.3625 -0.1778 -0.4541
  226TIP3    H1  642   2.060   3.531   3.495 -0.8651  1.0615 -3.2944
  226TIP3    H2  643   1.967   3.412   3.486  0.8281 -0.7687  0.8168
  227TIP3   OH2  644   0.285   0.873   4.694 -0.0071  0.0368 -0.1675
  227TIP3    H1  645   0.256   0.793   4.737  1.1949 -0.9635 -1.1464
  227TIP3    H2  646   0.282   0.940   4.763 -0.8459 -0.8823  0.7118
  228TIP3   OH2  647   5.755   0.452   4.575  0.2638  0.0566 -0.1392
  228TIP3    H1  648   5.798   0.523   4.527 -1.1695  1.5104  0.6322
  228TIP3    H2  649   5.707   0.403   4.507  0.8546  0.1082 -0.6054
  229TIP3   OH2  650   3.242   5.829   0.250  0.0930  0.4507  0.3330
  229TIP3    H1  651   3.254   5.879   0.169  2.0429 -0.8684 -0.2874
  229TIP3    H2  652   3.213   5.743   0.220 -1.2951  0.5730  1.2399
  230TIP3   OH2  653   6.669   4.287   5.563  0.3308 -0.4985 -0.2952
  230TIP3    H1  654   6.764   4.279   5.573  0.2963  0.1615  0.7088
  230TIP3    H2  655   6.642   4.338   5.639 -0.6869  0.3409 -1.2082
  231TIP3   OH2  656   3.508   0.534   2.833  0.0274 -0.4203 -0.6714
  231TIP3    H1  657   3.456   0.609   2.803  1.5179  0.9557  0.1081
  231TIP3    H2  658   3.542   0.496   2.752  2.1063  1.8768 -0.9852
  232TIP3   OH2  659   2.217   1.681   4.223 -0.3323  0.5091 -0.2497
  232TIP3    H1  660   2.288   1.623   4.197  0.1040  1.3675 -1.0516
  232TIP3    H2  661   2.141   1.650   4.174 -0.4422 -0.2234  0.3760
  233TIP3   OH2  662   1.013   0.541   4.257  0.1173  0.5440 -0.1319
  233TIP3    H1  663   0.923   0.516   4.237 -0.0641  0.5060  0.7055
  233TIP3    H2  664   1.061   0.458   4.263  0.2418  0.5702 -0.7078
  234TIP3   OH2  665   4.499   2.349   4.656 -0.2514  0.1562  0.3129
  234TIP3    H1  666   4.437   2.308   4.717  0.3147 -0.9654  0.1630
  234TIP3    H2  667   4.584   2.312   4.680  0.3838  1.6992  0.5331
  235TIP3   OH2  668   5.211   3.594   0.744 -0.2965  0.4237 -0.3502
  235TIP3    H1  669   5.179   3.583   0.833  0.8744 -1.0782 -0.0685
  235TIP3    H2  670   5.136   3.573   0.689 -0.4397 -0.8939  0.2957
  236TIP3   OH2  671   1.137   3.776   3.166 -0.0120 -0.1277  0.2962
  236TIP3    H1  672   1.182   3.694   3.146  0.0411  0.2414 -1.2151
  236TIP3    H2  673   1.098   3.803   3.083  0.8032  1.8804  0.5160
  237TIP3   OH2  674   3.625   1.696   4.461  0.1189  0.3952 -0.4899
  237TIP3    H1  675   3.619   1.647   4.543 -0.8962 -0.5630 -1.1077
  237TIP3    H2  676   3.713   1.680   4.429 -0.2932 -1.3513 -0.8464
  238TIP3   OH2  677   2.247   6.637   5.218  0.3656  0.0938 -0.0256
  238TIP3    H1  678   2.284   6.642   5.130 -0.9358 -1.3251 -0.6902
  238TIP3    H2  679   2.161   6.599   5.206 -0.4096  1.1586  1.7386
  239TIP3   OH2  680   3.338   5.755   3.709  0.5058 -0.1017 -0.2495
  239TIP3    H1  681   3.395   5.831   3.717 -0.5093  1.0348 -2.5959
  239TIP3    H2  682   3.375   5.705   3.636  0.5582 -1.3039  0.5816
  240TIP3   OH2  683   6.716   2.207   0.062  0.0193 -0.3217  0.4416
  240TIP3    H1  684   6.715   2.194   0.157  1.0594 -0.2060  0.4831
  240TIP3    H2  685   6.798   2.253   0.045 -1.8510  3.0941 -0.1208
  241TIP3   OH2  686   0.597   5.759   3.221  0.1997  0.2751  0.8087
  241TIP3    H1  687   0.629   5.699   3.154  1.9804  0.0466  1.7888
  241TIP3    H2  688   0.628   5.845   3.194 -2.1287  0.7925 -0.4572
  242TIP3   OH2  689   2.546   5.057   0.142  0.3562  0.2972 -0.0080
  242TIP3    H1  690   2.632   5.036   0.178 -0.0863  0.1118  0.9653
  242TIP3    H2  691   2.548   5.152   0.129  0.1130  0.5626  1.6615
  243TIP3   OH2  692   2.141   4.210   1.339  0.4436  0.1891  0.4284
  243TIP3    H1  693   2.083   4.168   1.276  0.9975 -0.1356  0.1262
  243TIP3    H2  694   2.209   4.252   1.286 -0.5804  2.2616  0.6615
  244TIP3   OH2  695   5.156   2.492   2.659  0.2535  0.0469  0.5850
  244TIP3    H1  696   5.099   2.470   2.732  1.2412  0.3164  1.4619
  244TIP3    H2  697   5.142   2.585   2.644  0.1412  0.0184  0.5137
  245TIP3   OH2  698   2.127   5.773   2.911  0.8644 -0.1926  0.0134
  245TIP3    H1  699   2.217   5.742   2.913  0.9762  0.0410 -1.1844
  245TIP3    H2  700   2.114   5.806   2.822  0.1390  1.3809  0.6624
  246TIP3   OH2  701   6.819   2.282   0.668 -0.3226  0.4677 -0.1045
  246TIP3    H1  702   6.856   2.220   0.605 -0.0843 -0.5200  0.9698
  246TIP3    H2  703   6.741   2.317   0.624  0.2015  0.3020 -1.1986
  247TIP3   OH2  704   5.405   1.478   2.806 -0.3225 -0.3312  0.1552
  247TIP3    H1  705   5.462   1.555   2.799  0.3797 -0.9570 -1.8757
  247TIP3    H2  706   5.318   1.512   2.787 -0.3561  0.2902  1.3177
  248TIP3   OH2  707   6.510   0.991   1.075  0.0391  0.1784  0.0434
  248TIP3    H1  708   6.561   1.069   1.053  1.1753 -0.0775  1.5897
  248TIP3    H2  709   6.497   0.996   1.170  1.0443 -1.9891  0.3659
  249TIP3   OH2  710   2.864   2.624   3.322  0.0587  0.1543 -0.0018
  249TIP3    H1  711   2.927   2.654   3.388  1.1340 -0.2792 -0.8124
  249TIP3    H2  712   2.874   2.529   3.320 -0.8917  0.0397  0.1093
  250TIP3   OH2  713   4.243   6.291   1.260  0.6974 -0.0051  0.0981
  250TIP3    H1  714   4.264   6.293   1.166  0.9463  0.0787  0.1557
  250TIP3    H2  715   4.318   6.334   1.302 -0.5114  2.2350  0.1392
  251TIP3   OH2  716   0.779   1.445   5.705  0.0341  0.8180 -0.2071
  251TIP3    H1  717   0.846   1.501   5.744  0.2549 -1.0111  2.3353
  251TIP3    H2  718   0.826   1.390   5.643  0.1009  2.2694 -1.4828
  252TIP3   OH2  719   5.999   6.283   2.791  0.4594  0.3428  0.0458
  252TIP3    H1  720   6.068   6.295   2.857  0.8832  0.4600 -0.4152
  252TIP3    H2  721   5.994   6.188   2.779 -1.3972  0.1104  2.1087
  253TIP3   OH2  722   4.655   1.948   5.201 -0.2036  0.0623  0.1028
  253TIP3    H1  723   4.683   1.877   5.259  2.2657  0.0566 -0.9673
  253TIP3    H2  724   4.635   1.904   5.119 -2.7355  0.1897  0.5809
  254TIP3   OH2  725   4.572   1.016   5.623 -0.1524  0.1401 -0.0689
  254TIP3    H1  726   4.602   1.034   5.712  2.1432  1.6696 -1.0335
  254TIP3    H2  727   4.505   1.082   5.606  0.0892  0.4605  0.2109
  255TIP3   OH2  728   0.882   5.244   5.083 -0.2132  0.2972  0.1624
  255TIP3    H1  729   0.850   5.331   5.060 -0.8152 -0.4184 -1.8853
  255TIP3    H2  730   0.951   5.225   5.019 -1.5506 -1.5531 -0.8287
  256TIP3   OH2  731   3.263   0.868   4.463  0.2408 -0.7658  0.2158
  256TIP3    H1  732   3.317   0.923   4.407 -0.6210  0.4967  0.5650
  256TIP3    H2  733   3.225   0.803   4.404  0.6637 -0.4940 -0.3633
  257TIP3   OH2  734   0.484   4.055   1.934 -0.6828 -0.2702 -0.1639
  257TIP3    H1  735   0.434   3.985   1.891 -0.2236 -1.0211  0.4785
  257TIP3    H2  736   0.442   4.064   2.020 -0.7356  0.2434 -0.2441
  258TIP3   OH2  737   3.301   2.023   0.718  0.5684 -0.0707 -0.3826
  258TIP3    H1  738   3.394   2.016   0.740  0.6085 -1.5818 -0.9200
  258TIP3    H2  739   3.292   1.975   0.636 -0.7941 -0.4814 -0.0163
  259TIP3   OH2  740   0.753   2.610   4.078 -0.1804 -0.3537  0.0482
  259TIP3    H1  741   0.826   2.574   4.128 -0.4698 -1.5006 -0.3237
  259TIP3    H2  742   0.752   2.559   3.998  0.1441  1.3170 -1.0758
  260TIP3   OH2  743   6.301   1.240   2.150 -0.2875  0.3783  0.0998
  260TIP3    H1  744   6.370   1.260   2.213 -1.0782  0.9852  0.7998
  260TIP3    H2  745   6.270   1.325   2.119 -0.7955  0.1231 -0.1133
  261TIP3   OH2  746   0.228   4.433   3.472 -1.0064  0.7337 -0.5083
  261TIP3    H1  747   0.237   4.489   3.549 -0.0560 -0.5511  0.3710
  261TIP3    H2  748   0.261   4.486   3.400 -0.6164  1.4983  0.2092
  262TIP3   OH2  749   6.204   5.572   3.132  0.1062  0.1485 -0.0849
  262TIP3    H1  750   6.202   5.609   3.044  2.5502 -1.7190 -1.0561
  262TIP3    H2  751   6.141   5.500   3.129 -1.0259  1.0946  0.2639
  263TIP3   OH2  752   5.604   4.033   4.285  0.4981  0.1084  0.3508
  263TIP3    H1  753   5.510   4.024   4.269  0.9292 -0.7314 -2.2967
  263TIP3    H2  754   5.618   3.997   4.372 -1.3011 -2.2157 -0.2224
  264TIP3   OH2  755   3.200   4.154   5.094 -0.1505  0.3360  0.3723
  264TIP3    H1  756   3.151   4.106   5.160  0.5267  0.0572  0.6828
  264TIP3    H2  757   3.185   4.106   5.013  0.0684 -0.0756  0.5741
  265TIP3   OH2  758   6.859   0.094   1.033  0.4430 -0.0525  0.3119
  265TIP3    H1  759   6.843   0.131   1.120  0.2236 -1.9269  1.1151
  265TIP3    H2  760   6.945   0.053   1.039  0.9368  0.7747 -0.7347
  266TIP3   OH2  761   2.750   2.470   5.117  0.4986  0.3750  0.3495
  266TIP3    H1  762   2.738   2.538   5.051 -0.2580  1.4008  1.4981
  266TIP3    H2  763   2.837   2.435   5.100  0.1451  0.2905 -1.4568
  267TIP3   OH2  764   2.867   0.010   5.344  0.6252  0.0038  0.4567
  267TIP3    H1  765   2.774   0.030   5.341  1.2045  3.1607 -0.2814
  267TIP3    H2  766   2.890   0.016   5.437  0.4088  1.1742  0.4484
  268TIP3   OH2  767   3.769   5.192   2.040 -0.5919  0.8545  0.0246
  268TIP3    H1  768   3.697   5.143   2.081  0.1207 -0.4004 -0.1557
  268TIP3    H2  769   3.847   5.162   2.088  0.2404 -0.4610 -2.0416
  269TIP3   OH2  770   6.458   0.451   1.992  0.1269  0.0603 -0.3899
  269TIP3    H1  771   6.363   0.439   1.992 -0.1115  1.6172 -1.6032
  269TIP3    H2  772   6.493   0.368   1.958 -0.4072 -2.2142  3.8832
  270TIP3   OH2  773   5.332   6.360   2.980  0.2882 -0.1478  0.0634
  270TIP3    H1  774   5.376   6.347   3.064  0.9168 -0.8453 -0.3605
  270TIP3    H2  775   5.239   6.360   3.001  0.4662  1.7511  1.0344
  271TIP3   OH2  776   3.535   4.083   4.836 -0.1817  0.0242  0.2945
  271TIP3    H1  777   3.534   4.091   4.740 -0.7974 -0.5641  0.2413
  271TIP3    H2  778   3.535   4.174   4.867  0.9720  0.2288 -0.2528
  272TIP3   OH2  779   6.925   3.665   2.389  0.7123  0.0006 -0.1137
  272TIP3    H1  780   6.983   3.676   2.314  1.3268 -0.2190  0.3177
  272TIP3    H2  781   6.933   3.746   2.438  2.1717 -0.7407  0.9635
  273TIP3   OH2  782   2.038   0.620   2.590  0.2370 -0.5951 -0.2281
  273TIP3    H1  783   2.009   0.651   2.504 -0.9858 -0.9451  0.0408
  273TIP3    H2  784   2.094   0.690   2.623 -1.4859  0.8228 -0.1586
  274TIP3   OH2  785   4.560   1.654   2.807  0.2431 -0.0099 -0.2738
  274TIP3    H1  786   4.487   1.625   2.752  0.9798 -0.4836 -1.0072
  274TIP3    H2  787   4.518   1.711   2.872 -0.9230 -1.0212 -0.0918
  275TIP3   OH2  788   1.275   6.482   4.139  0.2631 -0.5656  0.4610
  275TIP3    H1  789   1.334   6.427   4.189  0.0878 -0.9976  0.1997
  275TIP3    H2  790   1.290   6.457   4.048  1.1688  0.7704  0.2080
  276TIP3   OH2  791   0.342   4.180   5.392 -0.0747 -0.3742 -0.5172
  276TIP3    H1  792   0.248   4.174   5.371 -0.2281  1.1281 -0.4290
  276TIP3    H2  793   0.366   4.093   5.422 -1.3877 -0.8612 -0.8058
  277TIP3   OH2  794   4.248   5.763   3.772 -0.2137 -0.2380  0.0803
  277TIP3    H1  795   4.202   5.680   3.780  0.2059 -0.3323  1.9712
  277TIP3    H2  796   4.335   5.739   3.741  0.0492 -0.5782  1.0422
  278TIP3   OH2  797   6.510   1.802   4.705  0.2062 -0.0163  0.1097
  278TIP3    H1  798   6.425   1.775   4.671  0.4296  0.3429 -0.7505
  278TIP3    H2  799   6.558   1.720   4.719  0.5962 -0.1358 -1.7307
  279TIP3   OH2  800   4.165   6.483   1.600  0.4051  0.0342 -0.0091
  279TIP3    H1  801   4.220   6.496   1.678  1.5030 -2.5014 -0.2833
  279TIP3    H2  802   4.136   6.392   1.606  0.5840 -0.2495 -2.5949
  280TIP3   OH2  803   6.788   2.978   1.199 -0.0803 -0.3433  0.6817
  280TIP3    H1  804   6.735   2.933   1.134  0.9725 -1.1885  0.3799
  280TIP3    H2  805   6.771   2.931   1.281 -1.5781  0.8579  1.1235
  281TIP3   OH2  806   0.886   2.037   2.790 -0.4145 -0.0020  0.4938
  281TIP3    H1  807   0.894   1.960   2.846 -2.2234 -0.7314 -0.1862
  281TIP3    H2  808   0.809   2.083   2.824  0.9120  1.8259  1.2095
  282TIP3   OH2  809   2.992   5.921   2.655 -0.4431  0.5143 -0.1255
  282TIP3    H1  810   3.022   5.853   2.714 -3.1610 -1.4432 -0.7966
  282TIP3    H2  811   3.042   5.907   2.574  0.0433  0.2813  0.2116
  283TIP3   OH2  812   4.529   3.877   0.136 -0.4386 -0.0082 -0.0758
  283TIP3    H1  813   4.516   3.938   0.063 -1.9118 -1.1406 -0.8099
  283TIP3    H2  814   4.446   3.831   0.144 -0.1190 -0.3248  1.9758
  284TIP3   OH2  815   6.084   0.612   2.817 -0.0748 -0.1952  0.0739
  284TIP3    H1  816   6.074   0.519   2.797  0.5570 -0.2183 -0.1445
  284TIP3    H2  817   6.003   0.636   2.862 -0.8614 -0.5079 -1.1395
  285TIP3   OH2  818   6.372   1.689   1.404  0.0239 -1.5070 -0.3008
  285TIP3    H1  819   6.317   1.717   1.477  1.3022 -0.4847  0.3196
  285TIP3    H2  820   6.323   1.618   1.362 -2.9852  0.9597 -1.3743
  286TIP3   OH2  821   6.475   4.317   4.487 -0.1899  0.0689 -0.2267
  286TIP3    H1  822   6.516   4.231   4.504 -0.9841 -0.3532 -0.4225
  286TIP3    H2  823   6.543   4.367   4.442  0.4992 -0.2392  0.4475
  287TIP3   OH2  824   3.018   5.608   1.887 -0.2982  0.1047  0.0249
  287TIP3    H1  825   2.980   5.532   1.843  0.5756  0.4212 -1.3345
  287TIP3    H2  826   2.980   5.683   1.842  0.2084  0.4384  0.1491
  288TIP3   OH2  827   6.062   6.058   3.505  0.0578 -0.4357  0.9852
  288TIP3    H1  828   6.106   6.128   3.456  0.0523 -0.8570  0.3719
  288TIP3    H2  829   6.123   6.037   3.576  1.4278 -1.8094 -0.5181
  289TIP3   OH2  830   6.291   4.008   2.177  0.7436 -0.6923 -0.1726
  289TIP3    H1  831   6.327   3.920   2.169  0.6695 -0.8186  0.7303
  289TIP3    H2  832   6.196   3.993   2.187  0.8154 -0.5783  0.8109
  290TIP3   OH2  833   4.349   1.505   1.372  0.4406 -0.2918  0.3064
  290TIP3    H1  834   4.305   1.537   1.294  0.4731  0.8964  0.7434
  290TIP3    H2  835   4.401   1.431   1.342  0.6472  0.2943 -0.8446
  291TIP3   OH2  836   5.435   0.771   5.199  0.3939  0.0269 -0.0899
  291TIP3    H1  837   5.393   0.710   5.260 -0.3008  2.4234  1.9739
  291TIP3    H2  838   5.456   0.717   5.122 -0.7179 -2.6371  1.3441
  292TIP3   OH2  839   0.347   5.416   0.327 -0.9226  0.2831 -0.0479
  292TIP3    H1  840   0.348   5.448   0.237 -1.1136  1.1661  0.2511
  292TIP3    H2  841   0.405   5.476   0.374  0.2576 -0.9815  0.1635
  293TIP3   OH2  842   3.664   1.604   1.433 -0.1960  0.0527  0.5941
  293TIP3    H1  843   3.746   1.558   1.418 -0.9161 -0.5926 -1.6732
  293TIP3    H2  844   3.676   1.647   1.518  2.0169 -0.9748  0.8633
  294TIP3   OH2  845   5.123   3.982   0.797  0.0747  0.0627 -0.6404
  294TIP3    H1  846   5.058   4.046   0.826 -1.6022 -1.2833 -1.2121
  294TIP3    H2  847   5.123   3.915   0.865  0.2877 -0.3335 -1.0259
  295TIP3   OH2  848   6.254   5.812   5.585 -0.2478 -0.0574 -0.0254
  295TIP3    H1  849   6.321   5.768   5.534  0.0400 -0.4820  0.6968
  295TIP3    H2  850   6.198   5.741   5.618 -2.3080  0.3868 -2.2784
  296TIP3   OH2  851   2.109   5.420   3.424 -0.2426 -0.0000 -0.3464
  296TIP3    H1  852   2.179   5.486   3.432 -0.1085 -0.2892  1.2218
  296TIP3    H2  853   2.129   5.357   3.493 -1.6662 -0.4613 -0.3368
  297TIP3   OH2  854   2.706   1.618   4.673  0.3038  0.2355  0.2468
  297TIP3    H1  855   2.706   1.543   4.615 -0.7285 -1.6365  2.4987
  297TIP3    H2  856   2.797   1.646   4.677  0.5575 -0.3014 -1.3407
  298TIP3   OH2  857   5.438   3.379   3.761  0.1715 -0.9628 -0.1184
  298TIP3    H1  858   5.468   3.414   3.845 -1.7775 -1.1161  0.6941
  298TIP3    H2  859   5.463   3.446   3.698 -0.3645  0.2763  0.9249
  299TIP3   OH2  860   5.530   5.091   4.426 -0.1680 -0.5266  0.2680
  299TIP3    H1  861   5.621   5.064   4.436  0.5542  1.6450  0.2519
  299TIP3    H2  862   5.512   5.084   4.333  0.9381  1.5502 -0.1729
  300TIP3   OH2  863   2.239   1.425   0.263  0.4094 -0.3231  0.1582
  300TIP3    H1  864   2.170   1.393   0.206  0.5121 -0.5632  0.1691
  300TIP3    H2  865   2.274   1.347   0.306 -0.0359 -0.0891  0.9681
  301TIP3   OH2  866   6.981   3.945   2.412  0.5505  0.2070 -0.6634
  301TIP3    H1  867   7.058   3.984   2.453  0.5694 -1.1167  0.6378
  301TIP3    H2  868   6.909   3.968   2.471 -0.2284  2.0187 -2.2190
  302TIP3   OH2  869   1.599   3.553   0.324  0.2019  0.3360  0.3912
  302TIP3    H1  870   1.542   3.489   0.367  0.5440 -1.1072 -1.1992
  302TIP3    H2  871   1.649   3.592   0.396  0.5058 -1.7252  1.3877
  303TIP3   OH2  872   3.697   0.083   4.408 -0.1067  0.1824 -0.2396
  303TIP3    H1  873   3.723   0.091   4.500  3.1765 -0.8701 -0.9353
  303TIP3    H2  874   3.714   0.170   4.371 -0.0770  0.2164 -0.1470
  304TIP3   OH2  875   6.973   2.174   2.918 -0.2111  0.4705 -0.9871
  304TIP3    H1  876   7.044   2.109   2.918  0.0511  0.6455  1.8981
  304TIP3    H2  877   6.900   2.130   2.960 -0.7309  1.3531 -0.9488
  305TIP3   OH2  878   1.655   2.126   5.726  0.0596 -0.0685  0.6412
  305TIP3    H1  879   1.565   2.130   5.693 -0.2043 -2.0323  1.0311
  305TIP3    H2  880   1.709   2.112   5.648 -0.1593 -0.5929  0.5789
  306TIP3   OH2  881   3.424   3.536   2.560  0.2584 -0.4686 -0.2534
  306TIP3    H1  882   3.423   3.502   2.649 -1.2319  1.0389  0.3551
  306TIP3    H2  883   3.360   3.482   2.513 -0.3502 -0.0507  0.0883
  307TIP3   OH2  884   3.245   0.832   2.869 -0.5301  0.3745 -0.3950
  307TIP3    H1  885   3.242   0.736   2.865  0.6454  0.2966  0.0656
  307TIP3    H2  886   3.156   0.858   2.895 -0.1993 -0.7802  2.2074
  308TIP3   OH2  887   7.119   0.732   0.346 -0.2981  0.2284  0.3586
  308TIP3    H1  888   7.058   0.787   0.395 -1.0941 -0.5985  0.3160
  308TIP3    H2  889   7.104   0.643   0.380  0.2914 -0.1092 -0.2449
  309TIP3   OH2  890   2.481   5.801   3.561  0.1458 -0.1831 -0.2975
  309TIP3    H1  891   2.415   5.787   3.629  1.6115  1.8284  1.6890
  309TIP3    H2  892   2.546   5.857   3.602  2.3741 -0.8682 -2.6471
  310TIP3   OH2  893   1.262   5.789   2.315 -0.2215  0.2701 -0.4781
  310TIP3    H1  894   1.181   5.795   2.265 -0.9651  0.1751  0.6925
  310TIP3    H2  895   1.236   5.800   2.406  1.2513  1.5908 -0.1658
  311TIP3   OH2  896   6.022   1.686   3.826  0.8037  0.5910 -0.1086
  311TIP3    H1  897   6.058   1.601   3.799 -0.4816  0.5356 -1.8876
  311TIP3    H2  898   5.991   1.672   3.915  0.5303 -0.8657 -0.4036
  312TIP3   OH2  899   1.191   0.214   0.376 -0.4593 -0.0600 -0.3265
  312TIP3    H1  900   1.116   0.272   0.391 -0.4795  0.0850 -0.9694
  312TIP3    H2  901   1.171   0.171   0.293  1.2352  1.6797 -1.7086
  313TIP3   OH2  902   0.437   3.586   3.279 -0.7253  0.5506 -0.2791
  313TIP3    H1  903   0.376   3.566   3.350  0.9148 -0.8532  0.8180
  313TIP3    H2  904   0.474   3.671   3.303  1.7567 -1.0221  2.1284
  314TIP3   OH2  905   1.770   1.353   0.684  0.1614  0.3100 -0.4515
  314TIP3    H1  906   1.774   1.313   0.771  1.1355 -0.3858 -0.7947
  314TIP3    H2  907   1.691   1.316   0.645 -0.9257  1.5074  0.5274
  315TIP3   OH2  908   6.187   4.271   4.767  0.1536  0.2006 -0.1044
  315TIP3    H1  909   6.259   4.281   4.830  0.0583  1.2947 -0.1553
  315TIP3    H2  910   6.201   4.341   4.703 -1.8058  1.4333  0.7261
  316TIP3   OH2  911   5.700   4.877   5.565 -0.9123  0.0846 -0.3659
  316TIP3    H1  912   5.774   4.891   5.624 -0.5444  0.4194 -0.9028
  316TIP3    H2  913   5.696   4.956   5.512 -1.2810 -0.1864 -0.7450
  317TIP3   OH2  914   4.349   0.819   3.909  0.3886 -0.2097  0.3821
  317TIP3    H1  915   4.298   0.792   3.833 -1.3476  0.0475  1.3965
  317TIP3    H2  916   4.286   0.866   3.964  1.7939  0.3143  1.6053
  318TIP3   OH2  917   4.726   1.416   2.767 -0.4656  0.5090 -0.1949
  318TIP3    H1  918   4.764   1.425   2.854 -1.0371  0.7557  0.0336
  318TIP3    H2  919   4.658   1.483   2.763 -0.5008  0.4472 -0.8011
  319TIP3   OH2  920   6.723   5.631   0.958  0.2391 -0.5941  0.8351
  319TIP3    H1  921   6.633   5.612   0.933  0.7967 -1.0020 -1.0335
  319TIP3    H2  922   6.738   5.577   1.036 -0.9971 -0.8133  0.9404
  320TIP3   OH2  923   2.017   5.982   2.673 -0.4762 -0.2319 -0.4414
  320TIP3    H1  924   2.044   6.064   2.631 -1.2535 -0.5636 -1.6495
  320TIP3    H2  925   2.049   5.914   2.614 -0.1200 -0.7885  0.3899
  321TIP3   OH2  926   5.954   5.479   0.201 -0.1731 -0.5680 -0.1184
  321TIP3    H1  927   5.893   5.535   0.153  0.2542  1.5561  1.6487
  321TIP3    H2  928   6.029   5.535   0.219  1.7293 -2.6849 -0.9437
  322TIP3   OH2  929   7.084   4.877   4.692 -0.3349 -0.4432  0.1596
  322TIP3    H1  930   7.168   4.890   4.735 -1.1072  0.9906  1.3347
  322TIP3    H2  931   7.033   4.955   4.714 -2.9636 -2.4521  1.8691
  323TIP3   OH2  932   4.637   6.515   0.380  0.5695  0.0853 -0.0455
  323TIP3    H1  933   4.712   6.558   0.420 -0.4741  0.0003  2.1649
  323TIP3    H2  934   4.600   6.461   0.450 -0.9574 -0.6547 -1.3550
  324TIP3   OH2  935   6.071   0.068   1.480 -0.2484  0.5535  0.0508
  324TIP3    H1  936   6.030   0.012   1.546 -0.2584 -1.1633 -1.3632
  324TIP3    H2  937   6.087   0.011   1.405  0.3330  2.3011 -1.2364
  325TIP3   OH2  938   3.901   3.246   4.008 -0.1102 -0.3518  0.0152
  325TIP3    H1  939   3.832   3.193   3.969 -0.1508 -0.7063  0.5602
  325TIP3    H2  940   3.896   3.330   3.962  1.1740 -1.3807 -2.1857
  326TIP3   OH2  941   4.532   0.443  -0.004  0.0133  0.3511 -0.5655
  326TIP3    H1  942   4.541   0.388   0.074  0.1014  1.2092  0.0460
  326TIP3    H2  943   4.446   0.421  -0.040  0.4026 -0.7949 -0.8224
  327TIP3   OH2  944   5.736   2.870   0.128 -0.0076 -0.3265 -0.5050
  327TIP3    H1  945   5.775   2.953   0.154  0.3129 -0.2201 -1.2780
  327TIP3    H2  946   5.676   2.848   0.199 -0.6808  0.9500 -0.6372
  328TIP3   OH2  947   0.046  -0.008   3.502  0.3764 -0.0192  0.3808
  328TIP3    H1  948  -0.041  -0.016   3.464  0.5331 -1.5943  0.2985
  328TIP3    H2  949   0.094   0.049   3.441 -0.1643 -0.3307 -0.3404
  329TIP3   OH2  950   0.967   0.040   3.563  0.0285  0.1861 -0.7266
  329TIP3    H1  951   0.911   0.000   3.497 -0.1391  1.0514 -1.1246
  329TIP3    H2  952   0.931   0.011   3.647 -0.7235  0.3426 -0.9881
  330TIP3   OH2  953   0.686   4.917   0.835 -0.0288 -0.3925 -0.4779
  330TIP3    H1  954   0.618   4.909   0.767  0.0547 -0.6844 -0.5284
  330TIP3    H2  955   0.704   5.011   0.839 -0.8478 -0.2410 -0.0597
  331TIP3   OH2  956   0.030   5.198   4.492  0.6938 -0.0142 -0.1704
  331TIP3    H1  957   0.060   5.287   4.508  0.8381  0.0494 -0.7847
  331TIP3    H2  958  -0.020   5.175   4.571  1.3669  0.2985  0.3523
  332TIP3   OH2  959   0.965   5.303   0.823 -0.1441  0.2809 -0.3128
  332TIP3    H1  960   0.955   5.210   0.844 -0.4914  0.0430 -1.4566
  332TIP3    H2  961   1.058   5.314   0.804 -0.0899  0.1964 -0.1091
  333TIP3   OH2  962   3.668   1.384   4.163  0.0282  0.0657 -0.3116
  333TIP3    H1  963   3.711   1.309   4.205  0.5674 -0.2499 -1.4066
  333TIP3    H2  964   3.696   1.459   4.216 -0.0899 -0.4388  0.4784
  334TIP3   OH2  965   2.109   2.912   3.835 -0.8533  0.5631  0.1154
  334TIP3    H1  966   2.031   2.857   3.829 -0.0482 -0.7381  0.9630
  334TIP3    H2  967   2.086   2.993   3.789 -2.4871 -0.0183 -0.1356
  335TIP3   OH2  968   6.950   3.136   3.477  0.3956 -0.3067  0.3924
  335TIP3    H1  969   6.895   3.064   3.507  1.1045 -0.8363  0.4524
  335TIP3    H2  970   6.905   3.171   3.400  1.1581 -2.2486 -0.9966
  336TIP3   OH2  971   5.244   2.451   1.638  0.3300 -0.3590  0.3859
  336TIP3    H1  972   5.299   2.424   1.564 -0.7398 -1.3610 -0.0728
  336TIP3    H2  973   5.215   2.540   1.615  0.8393 -0.2662  0.0966
  337TIP3   OH2  974   3.592   1.932   0.400 -0.5586 -0.1019  0.2241
  337TIP3    H1  975   3.559   1.967   0.316  0.1620  0.1220  0.0273
  337TIP3    H2  976   3.586   1.837   0.390  0.4088 -0.1102 -0.4655
  338TIP3   OH2  977   3.762   6.647   4.196 -0.1021 -0.6942 -0.2083
  338TIP3    H1  978   3.760   6.568   4.141  2.8419  0.7804 -2.7236
  338TIP3    H2  979   3.817   6.623   4.270  0.9044 -1.0092 -1.0338
  339TIP3   OH2  980   2.815   1.176   0.334  0.5717 -0.1333 -0.1707
  339TIP3    H1  981   2.816   1.143   0.244 -1.5831 -0.3310 -0.1604
  339TIP3    H2  982   2.732   1.223   0.342 -0.2663 -1.8196  2.2959
  340TIP3   OH2  983   4.016   1.896   4.331 -0.0949 -0.3417 -0.0614
  340TIP3    H1  984   3.957   1.922   4.260 -0.5020  0.0836  0.4224
  340TIP3    H2  985   4.104   1.906   4.294 -0.2924  0.2485 -0.3825
  341TIP3   OH2  986   1.512   1.130   3.428 -0.2601 -0.0995 -0.2408
  341TIP3    H1  987   1.439   1.141   3.368  0.5246  0.1137 -1.1814
  341TIP3    H2  988   1.577   1.194   3.400  0.8997 -1.2860 -0.3930
  342TIP3   OH2  989   6.636   4.576   1.882  0.6748  0.1114  0.0412
  342TIP3    H1  990   6.696   4.580   1.807  1.8529  0.5146  0.9656
  342TIP3    H2  991   6.605   4.666   1.892  0.2132 -0.0179 -0.1829
  343TIP3   OH2  992   0.205   1.765   4.445  0.1592  0.4743 -0.1583
  343TIP3    H1  993   0.185   1.842   4.391 -3.5263 -1.0056 -1.1602
  343TIP3    H2  994   0.169   1.786   4.531 -2.2405 -0.5635 -0.8281
  344TIP3   OH2  995   6.655   2.579   3.807  0.1563 -0.3211  0.1708
  344TIP3    H1  996   6.654   2.538   3.894 -1.3041 -1.5241 -0.3702
  344TIP3    H2  997   6.563   2.592   3.786  0.3572 -2.0669 -2.1008
  345TIP3   OH2  998   3.522   6.326   2.095  0.5617 -0.0316  0.2452
  345TIP3    H1  999   3.534   6.421   2.101  0.3617  0.1452 -1.6005
  345TIP3    H2 1000   3.431   6.312   2.122  1.1565  0.0220  2.4820
  346TIP3   OH2 1001   3.796   2.989   3.651  0.3862 -0.5403  0.0035
  346TIP3    H1 1002   3.770   2.978   3.742 -1.0348 -1.0995 -0.4372
  346TIP3    H2 1003   3.845   3.071   3.649  0.3733 -0.4875  1.2555
  347TIP3   OH2 1004   3.908   4.331   4.808 -0.1657  0.7801 -0.2689
  347TIP3    H1 1005   3.885   4.250   4.762  1.6659 -0.2243  0.4593
  347TIP3    H2 1006   3.960   4.381   4.745 -1.5707  1.5753 -0.8306
  348TIP3   OH2 1007   4.133   5.127   3.227  0.5033 -0.8550 -0.0477
  348TIP3    H1 1008   4.211   5.077   3.202 -0.1221 -0.9659 -1.9700
  348TIP3    H2 1009   4.165   5.215   3.244  1.3366 -1.4078  1.4292
  349TIP3   OH2 1010   5.466   5.079   1.925 -0.2462 -1.0713 -0.0326
  349TIP3    H1 1011   5.396   5.050   1.867  0.1183 -2.1356  0.0356
  349TIP3    H2 1012   5.488   5.166   1.894 -1.1530 -0.9822 -0.4674
  350TIP3   OH2 1013   0.300   4.409   1.153  0.6132 -0.2476 -0.2465
  350TIP3    H1 1014   0.353   4.485   1.130 -1.9162  1.2247 -1.6372
  350TIP3    H2 1015   0.322   4.344   1.087 -0.3885  0.9280 -1.8179
  351TIP3   OH2 1016   3.635   1.149   3.406 -0.0370  0.1639 -0.0830
  351TIP3    H1 1017   3.619   1.218   3.470 -3.3954 -0.4485 -0.1043
  351TIP3    H2 1018   3.600   1.183   3.324  2.6536  0.2505 -1.3091
  352TIP3   OH2 1019   3.238   0.212   3.245  0.1317 -0.4304  0.1448
  352TIP3    H1 1020   3.199   0.246   3.164  1.3837 -0.7609 -0.6336
  352TIP3    H2 1021   3.227   0.282   3.309 -2.1137 -0.6900  0.1077
  353TIP3   OH2 1022   6.690   4.092   5.079 -0.4483  0.1380  0.4248
  353TIP3    H1 1023   6.671   4.102   5.172 -0.0055  0.4707  0.4852
  353TIP3    H2 1024   6.677   4.180   5.043  0.4915  0.2758  0.3871
  354TIP3   OH2 1025   4.994   5.214   3.310 -0.1686 -0.1657 -0.4740
  354TIP3    H1 1026   5.067   5.157   3.286  0.2174  0.5663 -1.0507
  354TIP3    H2 1027   4.918   5.176   3.266 -0.2943 -1.3385  0.6919
  355TIP3   OH2 1028   5.234   0.959   4.728 -0.5213 -0.3956  0.3167
  355TIP3    H1 1029   5.236   1.054   4.713 -1.6195 -0.0810  1.9686
  355TIP3    H2 1030   5.326   0.933   4.724 -0.1418  0.8361  0.4573
  356TIP3   OH2 1031   3.287   1.369   5.604 -0.5532  0.0740  0.2679
  356TIP3    H1 1032   3.368   1.330   5.571  1.6095  1.8818  2.9808
  356TIP3    H2 1033   3.243   1.297   5.650  0.7300 -0.4269  0.7577
  357TIP3   OH2 1034   1.447   2.797   4.300  0.1593  0.0148  0.3233
  357TIP3    H1 1035   1.370   2.758   4.342 -1.0021  0.4999 -1.2563
  357TIP3    H2 1036   1.451   2.886   4.335 -0.1598  0.0667  0.2347
  358TIP3   OH2 1037   2.649  -0.024   3.400 -0.1894 -0.5009  0.0387
  358TIP3    H1 1038   2.690   0.058   3.372  0.7576 -1.1206 -0.4625
  358TIP3    H2 1039   2.573   0.003   3.452 -0.4022  0.6890 -0.8475
  359TIP3   OH2 1040   6.192   4.986   5.829 -0.1292 -0.6568  0.0996
  359TIP3    H1 1041   6.168   5.079   5.826  0.3680 -0.5482 -2.1992
  359TIP3    H2 1042   6.274   4.985   5.879  1.4431  0.5941 -2.2719
  360TIP3   OH2 1043   5.149   1.267   0.888  0.0802 -0.1000 -0.3605
  360TIP3    H1 1044   5.181   1.186   0.847  0.2350 -0.9369  1.3044
  360TIP3    H2 1045   5.083   1.237   0.950 -2.4798  1.4265 -2.2111
  361TIP3   OH2 1046   5.351   5.700   1.988 -0.4337  0.4337 -0.1507
  361TIP3    H1 1047   5.407   5.641   2.039  0.3548  0.5036 -0.9146
  361TIP3    H2 1048   5.262   5.681   2.018  0.0240  0.7197  1.5027
  362TIP3   OH2 1049   5.897   4.456   0.456 -0.3279 -0.1931 -0.3326
  362TIP3    H1 1050   5.848   4.464   0.538  1.4094  1.3994  0.6500
  362TIP3    H2 1051   5.963   4.388   0.474 -0.1461 -0.0660 -0.5110
  363TIP3   OH2 1052   1.045   6.350   5.695  0.1251  0.1573 -0.1160
  363TIP3    H1 1053   0.981   6.419   5.708  0.3129  0.3276 -0.0894
  363TIP3    H2 1054   1.046   6.336   5.600  1.2439  1.3098 -0.2989
  364TIP3   OH2 1055   4.733   1.037   4.348 -0.2250 -0.1362  0.4314
  364TIP3    H1 1056   4.799   1.005   4.286  0.8298 -0.2028  1.5362
  364TIP3    H2 1057   4.651   1.002   4.316  0.4665 -1.2041 -0.2334
  365TIP3   OH2 1058   0.686   5.481   3.096 -0.2650 -0.0282 -0.0300
  365TIP3    H1 1059   0.764   5.505   3.146 -0.6249 -0.1519  0.6058
  365TIP3    H2 1060   0.651   5.404   3.141 -0.2325 -0.5438 -0.8669
  366TIP3   OH2 1061   0.091   4.751   3.260 -0.5448 -0.0786 -0.8720
  366TIP3    H1 1062   0.085   4.839   3.222 -1.5530  1.4205  2.4392
  366TIP3    H2 1063   0.001   4.727   3.280 -0.2117 -1.6385 -1.0897
  367TIP3   OH2 1064   3.764   0.165   3.409  0.4937 -0.1165  0.3449
  367TIP3    H1 1065   3.680   0.203   3.382  0.1072 -0.6089  0.8328
  367TIP3    H2 1066   3.795   0.119   3.331  0.2999  0.0469  0.1688
  368TIP3   OH2 1067   3.731   0.332   4.282 -0.5237  0.7469 -0.1241
  368TIP3    H1 1068   3.689   0.388   4.347 -1.2265  0.2451 -0.1339
  368TIP3    H2 1069   3.754   0.391   4.211 -3.2727  0.7468 -1.1380
  369TIP3   OH2 1070   6.479   1.877   0.250  0.4329 -0.0028 -0.2166
  369TIP3    H1 1071   6.561   1.830   0.259 -0.6869 -2.1251 -0.6098
  369TIP3    H2 1072   6.453   1.864   0.158 -0.1299  1.0375 -0.2259
  370TIP3   OH2 1073   0.919   4.094   1.093 -0.2478  0.2907  0.1086
  370TIP3    H1 1074   0.949   4.006   1.071  0.6071  0.2025  1.4999
  370TIP3    H2 1075   0.823   4.088   1.087 -0.1456 -0.1527 -1.7756
  371TIP3   OH2 1076   3.531   6.011   1.102  0.1096 -0.6836  0.6743
  371TIP3    H1 1077   3.486   5.940   1.147  1.5574 -1.0076  1.6787
  371TIP3    H2 1078   3.614   6.021   1.149  0.7926  0.3541 -0.6685
  372TIP3   OH2 1079   5.012   3.959   0.142  0.2084  0.1684  0.0546
  372TIP3    H1 1080   4.931   3.932   0.186 -1.5364  1.1646 -2.2902
  372TIP3    H2 1081   5.030   4.046   0.176 -1.9065  1.5165 -1.9741
  373TIP3   OH2 1082   5.989   6.036   5.038 -0.0495 -0.3862 -0.5916
  373TIP3    H1 1083   5.906   6.073   5.008  0.2570 -0.0062 -0.9859
  373TIP3    H2 1084   6.011   6.086   5.117 -0.6893 -1.1592  0.0879
  374TIP3   OH2 1085   6.445   0.413   4.532 -0.2304 -0.3250 -0.3351
  374TIP3    H1 1086   6.479   0.373   4.611  2.1922  1.0159 -0.5872
  374TIP3    H2 1087   6.407   0.341   4.482 -0.2662 -1.4550  1.2605
  375TIP3   OH2 1088   3.348   1.859   1.673 -0.1468  0.5894  0.0467
  375TIP3    H1 1089   3.296   1.789   1.633  1.0505 -0.0929 -0.3527
  375TIP3    H2 1090   3.352   1.834   1.766  1.7971 -0.9199 -0.3737
  376TIP3   OH2 1091   5.794  -0.000   3.938 -0.4117  0.3955  0.7527
  376TIP3    H1 1092   5.782   0.093   3.921 -2.5009  0.1585  0.6796
  376TIP3    H2 1093   5.788  -0.008   4.033 -1.2094  0.2550  0.7036
  377TIP3   OH2 1094   6.223   2.587   0.982 -0.1093 -0.4357  0.2904
  377TIP3    H1 1095   6.174   2.575   0.901 -2.2637 -2.9001  1.8096
  377TIP3    H2 1096   6.312   2.606   0.953 -1.0720  0.2458 -2.6144
  378TIP3   OH2 1097   3.317   0.632   2.243 -0.2621  0.3293  0.2181
  378TIP3    H1 1098   3.409   0.657   2.231 -0.0048 -1.1513 -1.2580
  378TIP3    H2 1099   3.321   0.549   2.292 -0.6907 -0.4782 -1.0481
  379TIP3   OH2 1100   3.902   5.124   5.670 -0.1273 -0.4412 -0.0050
  379TIP3    H1 1101   3.865   5.044   5.631  1.6032 -0.1173 -2.5511
  379TIP3    H2 1102   3.993   5.101   5.688 -0.0273  0.5025  0.7555
  380TIP3   OH2 1103   3.642   0.402   4.870  0.6581 -0.0519  0.9317
  380TIP3    H1 1104   3.580   0.397   4.797  1.9278  1.4370 -0.3280
  380TIP3    H2 1105   3.727   0.385   4.830  1.3439  0.4124  2.1467
  381TIP3   OH2 1106   5.147   3.943   5.386 -0.6218  0.2479 -0.6043
  381TIP3    H1 1107   5.058   3.906   5.383 -0.5560  0.0617 -0.2027
  381TIP3    H2 1108   5.171   3.941   5.478 -0.2528  0.4300 -0.6968
  382TIP3   OH2 1109   6.758   4.403   0.213  0.1034 -0.2503 -0.5053
  382TIP3    H1 1110   6.808   4.322   0.220  1.2517  0.4812  0.1994
  382TIP3    H2 1111   6.819   4.465   0.173  0.1923  0.9609  1.3637
  383TIP3   OH2 1112   2.739   5.154   2.458 -0.0573  0.2506 -0.0289
  383TIP3    H1 1113   2.675   5.085   2.476 -1.1000  1.2827  0.3640
  383TIP3    H2 1114   2.699   5.233   2.493  1.0640  1.0820 -0.5657
  384TIP3   OH2 1115   2.126   6.496   5.596 -0.1329  0.3937 -0.3228
  384TIP3    H1 1116   2.107   6.479   5.688  0.0544 -0.8218 -0.4956
  384TIP3    H2 1117   2.057   6.556   5.568  0.9459  2.4385  1.1067
  385TIP3   OH2 1118   3.042   3.739   0.721  0.2078  0.4120  0.3395
  385TIP3    H1 1119   3.129   3.767   0.692 -0.4009  1.6662 -0.4100
  385TIP3    H2 1120   3.002   3.702   0.642  0.6503 -1.7829  1.0961
  386TIP3   OH2 1121   4.592   3.140   5.086  0.3089  0.0155  0.2913
  386TIP3    H1 1122   4.545   3.100   5.159 -0.4257  0.1117 -0.1240
  386TIP3    H2 1123   4.648   3.070   5.052  0.3565 -0.1423  0.6852
  387TIP3   OH2 1124   1.790   6.314   1.810  0.1223 -0.2183 -0.4797
  387TIP3    H1 1125   1.811   6.360   1.891  0.3145 -1.7006  0.3511
  387TIP3    H2 1126   1.765   6.383   1.749  1.5769  1.0889  0.3282
  388TIP3   OH2 1127   6.462   1.969   4.340 -0.1745 -0.6279 -0.4828
  388TIP3    H1 1128   6.488   2.009   4.423  0.6940 -0.3039 -0.8993
  388TIP3    H2 1129   6.543   1.966   4.289 -0.6663 -0.9872 -1.2513
  389TIP3   OH2 1130   0.061   5.568   0.259  0.3592  0.0704 -0.3550
  389TIP3    H1 1131   0.094   5.655   0.283 -1.5848  0.6624  0.3781
  389TIP3    H2 1132   0.133   5.509   0.279  0.9778  1.2681  1.2197
  390TIP3   OH2 1133   2.241   6.547   3.486  0.3005  0.1316 -0.6057
  390TIP3    H1 1134   2.159   6.501   3.468 -0.0505  0.4568  0.1130
  390TIP3    H2 1135   2.289   6.543   3.404 -0.0665 -0.8184 -0.7935
  391TIP3   OH2 1136   7.139   3.199   0.181 -0.2862  0.2342  0.0252
  391TIP3    H1 1137   7.079   3.153   0.123  1.3377 -1.7343 -0.2052
  391TIP3    H2 1138   7.224   3.191   0.137  0.4754  1.3179  1.2433
  392TIP3   OH2 1139   6.702   3.791   5.727 -0.3482 -0.2075 -0.1249
  392TIP3    H1 1140   6.644   3.740   5.784 -1.2132  0.6512 -0.2241
  392TIP3    H2 1141   6.661   3.877   5.722  0.6425  0.2399 -0.6609
  393TIP3   OH2 1142   6.575   4.823   3.677  0.7761  0.6687 -0.1074
  393TIP3    H1 1143   6.516   4.793   3.746 -0.7611  0.0592 -1.6088
  393TIP3    H2 1144   6.599   4.912   3.703 -1.1069  1.0751  0.4048
  394TIP3   OH2 1145   3.974   1.383   4.190  0.1893  0.5069  0.4974
  394TIP3    H1 1146   4.019   1.343   4.116  0.5384  1.2872  0.2811
  394TIP3    H2 1147   3.937   1.309   4.238  2.3094 -0.2224  1.0956
  395TIP3   OH2 1148   0.193   3.509   1.314  0.3835  0.2034  0.5644
  395TIP3    H1 1149   0.102   3.526   1.293  0.3579 -2.7946 -2.4398
  395TIP3    H2 1150   0.242   3.574   1.263  0.0382  0.9274  1.1208
  396TIP3   OH2 1151   2.964   5.844   5.501 -0.5951 -0.2441  0.4334
  396TIP3    H1 1152   3.019   5.906   5.453 -1.0360 -0.6870 -0.6674
  396TIP3    H2 1153   2.901   5.812   5.436 -1.3663 -0.6721  1.3722
  397TIP3   OH2 1154   4.424   5.588   5.330 -0.1508 -0.0889 -0.3521
  397TIP3    H1 1155   4.431   5.666   5.384  0.4984 -1.5834  1.8402
  397TIP3    H2 1156   4.450   5.617   5.243 -1.3270  2.4384  0.0334
  398TIP3   OH2 1157   5.119   2.114   0.292  0.5241 -0.7601  0.4564
  398TIP3    H1 1158   5.138   2.194   0.244 -2.6513  0.0637  0.3399
  398TIP3    H2 1159   5.179   2.115   0.367  0.9334  1.4381  0.1609
  399TIP3   OH2 1160   1.120   1.004   1.388 -0.1535  0.2350  0.1829
  399TIP3    H1 1161   1.158   0.923   1.354 -1.0100  0.0050 -0.2735
  399TIP3    H2 1162   1.175   1.029   1.461  0.4166 -0.4900  0.0033
  400TIP3   OH2 1163   5.285   3.726   2.445 -0.1068  0.6778 -0.4280
  400TIP3    H1 1164   5.336   3.646   2.430 -0.6836  0.1832  0.1597
  400TIP3    H2 1165   5.235   3.738   2.364 -0.1466  0.3386 -0.4569
  401TIP3   OH2 1166   0.026   6.395   5.010  0.0040  0.1696 -0.3908
  401TIP3    H1 1167  -0.041   6.456   5.041  0.3476  1.4248 -1.9802
  401TIP3    H2 1168   0.107   6.447   5.008  0.7014 -0.8664 -0.0511
  402TIP3   OH2 1169   4.295   6.530   0.351  0.4614  0.1727  0.0492
  402TIP3    H1 1170   4.272   6.537   0.443  0.8444  1.2837  0.0746
  402TIP3    H2 1171   4.214   6.548   0.304  0.0831 -1.1538  0.1548
  403TIP3   OH2 1172   2.376   2.765   4.745  0.2366 -0.1119 -0.0868
  403TIP3    H1 1173   2.290   2.732   4.720  0.6916 -0.5631 -1.1259
  403TIP3    H2 1174   2.437   2.696   4.717  0.8207 -0.6033  2.2073
  404TIP3   OH2 1175   3.678   5.026   1.179 -0.4458 -0.5142 -0.0333
  404TIP3    H1 1176   3.727   5.006   1.259  1.2787  0.0639 -0.8944
  404TIP3    H2 1177   3.727   4.983   1.109 -0.1360  1.5364 -1.1518
  405TIP3   OH2 1178   3.844   1.932   1.224  0.5744 -0.6645  0.0441
  405TIP3    H1 1179   3.907   1.983   1.275 -0.3750 -0.1959  0.7887
  405TIP3    H2 1180   3.758   1.961   1.257 -0.1361  0.4609 -2.5596
  406TIP3   OH2 1181   6.558   4.635   3.894 -0.1394 -0.3429 -0.1202
  406TIP3    H1 1182   6.515   4.693   3.958 -0.8570 -0.2237 -0.7039
  406TIP3    H2 1183   6.636   4.684   3.867 -1.4926  1.0422 -1.7054
  407TIP3   OH2 1184   1.483   5.026   3.756  0.4998 -0.3124 -0.1169
  407TIP3    H1 1185   1.497   5.026   3.851  1.7235  2.0842 -0.2079
  407TIP3    H2 1186   1.388   5.027   3.745  0.3458 -0.5359  1.0798
  408TIP3   OH2 1187   4.930   0.684   4.812  0.7721  0.1090  0.3625
  408TIP3    H1 1188   4.911   0.590   4.814  1.4869 -0.0282  1.0893
  408TIP3    H2 1189   5.008   0.692   4.758  0.5399  0.3234  0.0544
  409TIP3   OH2 1190   0.955   0.612   1.732  0.3841  0.3874  0.2843
  409TIP3    H1 1191   0.939   0.611   1.826 -0.0390  1.0543  0.2248
  409TIP3    H2 1192   0.906   0.689   1.700 -0.3285 -0.4143 -0.6212
  410TIP3   OH2 1193   2.625   1.796   1.808  0.3808 -0.4350 -0.3274
  410TIP3    H1 1194   2.680   1.721   1.831  1.9885  1.0173  0.8435
  410TIP3    H2 1195   2.535   1.766   1.823  1.0127 -1.9364  0.6451
  411TIP3   OH2 1196   0.655   0.594   3.853  0.3240  0.2096  0.2362
  411TIP3    H1 1197   0.699   0.517   3.817 -3.1191 -1.7832 -0.0715
  411TIP3    H2 1198   0.635   0.648   3.776 -1.5774 -1.0481 -0.1999
  412TIP3   OH2 1199   2.852   0.548   2.782  0.0966 -0.6445 -0.3374
  412TIP3    H1 1200   2.820   0.639   2.785  1.9959  0.0376  2.2366
  412TIP3    H2 1201   2.780   0.497   2.818  0.1761  0.2897  1.2229
  413TIP3   OH2 1202   1.113   2.617   2.707 -0.4349 -0.4282 -0.1760
  413TIP3    H1 1203   1.042   2.557   2.688 -0.8987 -0.3525  1.1970
  413TIP3    H2 1204   1.080   2.673   2.778  1.0728 -0.5728  0.7010
  414TIP3   OH2 1205   5.141   3.757   0.429 -0.9462  0.1777  0.4930
  414TIP3    H1 1206   5.098   3.685   0.476 -1.8766 -0.0377 -0.6231
  414TIP3    H2 1207   5.124   3.738   0.337  1.3136  0.2730 -0.0028
  415TIP3   OH2 1208   6.648   3.252   0.037  0.1802 -0.0516 -0.3100
  415TIP3    H1 1209   6.623   3.306  -0.039  0.0723  0.5121  0.1182
  415TIP3    H2 1210   6.587   3.280   0.106  0.5993 -0.2100  0.1233
  416TIP3   OH2 1211   5.900   5.694   3.056  0.4365 -0.3427 -0.1867
  416TIP3    H1 1212   5.981   5.714   3.009  1.8186  1.7504  2.7542
  416TIP3    H2 1213   5.843   5.769   3.039  0.8407  0.2953  1.1339
  417TIP3   OH2 1214   1.384   5.451   4.538  0.0182  0.0751  0.7659
  417TIP3    H1 1215   1.476   5.427   4.550  0.6130  0.9359 -1.6087
  417TIP3    H2 1216   1.378   5.540   4.571  0.5954  0.7995 -0.9601
  418TIP3   OH2 1217   5.944   6.494   2.257  0.3729 -0.1351  0.4659
  418TIP3    H1 1218   5.969   6.584   2.278 -1.9894  0.6121  0.3246
  418TIP3    H2 1219   5.952   6.447   2.340 -0.8423  0.8419  1.1766
  419TIP3   OH2 1220   5.265   1.896   0.991 -0.5016  0.3743  0.3133
  419TIP3    H1 1221   5.358   1.872   0.994 -0.2035  1.4736  0.3545
  419TIP3    H2 1222   5.249   1.916   0.899 -0.5123  0.8622  0.4189
  420TIP3   OH2 1223   6.105   0.997   0.761  0.0974  0.0434 -0.1877
  420TIP3    H1 1224   6.079   0.913   0.723 -1.9458  0.4183  0.2578
  420TIP3    H2 1225   6.196   0.984   0.787 -0.3304 -2.2780  0.4736
  421TIP3   OH2 1226   6.294   0.192   4.431  0.7961 -0.3884 -0.0097
  421TIP3    H1 1227   6.219   0.207   4.373  0.8113  2.1125  0.5437
  421TIP3    H2 1228   6.355   0.142   4.377 -0.0908 -0.0079 -1.4309
  422TIP3   OH2 1229   4.773   5.588   3.814 -0.4633 -0.4055 -0.0882
  422TIP3    H1 1230   4.755   5.681   3.802  0.2584 -0.4834 -2.1583
  422TIP3    H2 1231   4.869   5.582   3.818 -0.5187 -0.9967  0.9808
  423TIP3   OH2 1232   0.717   2.878   0.945  0.2829 -0.9306 -0.1084
  423TIP3    H1 1233   0.788   2.831   0.990  0.2866  0.4321  1.4071
  423TIP3    H2 1234   0.710   2.835   0.860  3.6479 -0.4544 -0.7689
  424TIP3   OH2 1235   5.342   5.374   1.397 -0.1112 -0.2133  0.3346
  424TIP3    H1 1236   5.281   5.391   1.325  1.6887  0.4446 -1.1193
  424TIP3    H2 1237   5.332   5.449   1.455  0.1747  0.5147 -0.5365
  425TIP3   OH2 1238   2.769   3.492   0.743 -0.1011 -0.0452 -0.7898
  425TIP3    H1 1239   2.817   3.524   0.820 -2.3842 -0.5288  0.9385
  425TIP3    H2 1240   2.837   3.454   0.687  1.6616  0.3412  0.9598
  426TIP3   OH2 1241   4.575   3.425   5.149 -0.2803  0.6285  0.1076
  426TIP3    H1 1242   4.549   3.466   5.067  0.4145  0.6905 -0.0914
  426TIP3    H2 1243   4.588   3.333   5.128 -0.0959  0.6451  0.1451
  427TIP3   OH2 1244   3.391   3.737   1.789 -0.5132 -0.0677  0.1143
  427TIP3    H1 1245   3.421   3.697   1.707 -2.5790 -1.6915  0.0780
  427TIP3    H2 1246   3.437   3.688   1.857 -0.0114  0.2057 -0.0219
  428TIP3   OH2 1247   1.142   4.178   0.909 -0.1674  0.0753 -0.2081
  428TIP3    H1 1248   1.128   4.272   0.902 -0.8834  0.0191  0.3643
  428TIP3    H2 1249   1.129   4.158   1.001  1.0230 -0.4320 -0.1288
  429TIP3   OH2 1250   5.194   3.891   3.781  0.5359  0.3763  0.0649
  429TIP3    H1 1251   5.106   3.891   3.817  0.2842  0.6092 -0.5283
  429TIP3    H2 1252   5.235   3.970   3.816 -0.1843  1.3796 -1.2571
  430TIP3   OH2 1253   1.422   1.181   4.943  0.3694 -0.1484 -0.9716
  430TIP3    H1 1254   1.355   1.174   4.875  0.6601  1.4230 -1.4694
  430TIP3    H2 1255   1.415   1.272   4.974  0.5304 -0.7017  0.8060
  431TIP3   OH2 1256   3.747   0.795   1.326 -0.0842 -0.0559 -0.2015
  431TIP3    H1 1257   3.657   0.793   1.293  0.4167 -2.2826 -1.6086
  431TIP3    H2 1258   3.777   0.705   1.321  2.0903  0.5378  0.7499
  432TIP3   OH2 1259   0.990   2.472   1.058 -0.2126 -0.3473  0.3961
  432TIP3    H1 1260   0.956   2.421   1.132 -2.5352  0.5006  0.0047
  432TIP3    H2 1261   0.979   2.414   0.983 -2.1603  0.3516  0.0692
  433TIP3   OH2 1262   5.697   5.130   2.070 -0.2250  0.5599 -0.1269
  433TIP3    H1 1263   5.762   5.062   2.048 -0.7833  0.0755 -0.2994
  433TIP3    H2 1264   5.633   5.126   1.999 -1.5708 -0.3947  1.0839
  434TIP3   OH2 1265   4.929   1.222   1.538 -0.3158  0.0857 -0.3758
  434TIP3    H1 1266   4.970   1.256   1.618 -1.9945 -0.5810  0.8146
  434TIP3    H2 1267   4.901   1.301   1.492 -1.4671  0.4581  0.8837
  435TIP3   OH2 1268   6.984   2.778   1.195 -0.5871 -0.8145  0.1688
  435TIP3    H1 1269   6.983   2.858   1.247 -0.4869 -0.8183  0.1773
  435TIP3    H2 1270   7.018   2.805   1.109 -1.7819 -0.5979 -0.2514
  436TIP3   OH2 1271   1.371   3.561   4.766  0.1553 -0.5418  0.3736
  436TIP3    H1 1272   1.441   3.499   4.747  1.6481  1.9068 -3.2644
  436TIP3    H2 1273   1.318   3.562   4.687 -2.6414 -0.4692  2.1089
  437TIP3   OH2 1274   2.184   3.735   0.426 -0.1788  0.0762  0.8576
  437TIP3    H1 1275   2.145   3.763   0.343 -0.2778 -2.1404  0.1054
  437TIP3    H2 1276   2.268   3.781   0.430  0.2053 -0.4119 -0.8915
  438TIP3   OH2 1277   4.404   5.371   3.720  0.3295 -0.1534 -0.1639
  438TIP3    H1 1278   4.449   5.399   3.639  0.2844  1.3503  0.2984
  438TIP3    H2 1279   4.460   5.302   3.755 -0.0186 -1.3409 -1.8334
  439TIP3   OH2 1280   3.143   6.718   2.171 -0.2004 -0.0368 -0.0186
  439TIP3    H1 1281   3.131   6.637   2.221  1.0015 -0.7595 -0.8615
  439TIP3    H2 1282   3.155   6.785   2.238 -0.4537 -0.6732  0.6854
  440TIP3   OH2 1283   4.032   3.550   5.189 -0.2114 -0.0347  0.1815
  440TIP3    H1 1284   4.053   3.585   5.102 -0.1609  1.7128  0.8687
  440TIP3    H2 1285   3.999   3.625   5.238 -1.5754 -1.2848  1.2696
  441TIP3   OH2 1286   0.610   3.460   4.907 -0.0125 -0.4074 -0.0874
  441TIP3    H1 1287   0.685   3.401   4.900 -0.1301 -0.5399 -0.2110
  441TIP3    H2 1288   0.570   3.460   4.820 -0.1865 -0.3743 -0.0079
  442TIP3   OH2 1289   2.615   4.075   4.116  0.1597  0.0297 -0.4426
  442TIP3    H1 1290   2.583   4.164   4.130  2.3455  0.7871  0.0355
  442TIP3    H2 1291   2.663   4.080   4.033 -0.3960 -0.9248 -0.8372
  443TIP3   OH2 1292   3.875   4.150   1.514 -0.4821 -0.1029  0.4839
  443TIP3    H1 1293   3.884   4.087   1.443 -1.5764 -0.8969  1.0257
  443TIP3    H2 1294   3.954   4.205   1.507  0.4718 -1.4768 -0.0291
  444TIP3   OH2 1295   4.888   3.468   1.207  0.1297 -0.6154  0.1177
  444TIP3    H1 1296   4.874   3.493   1.299 -1.4147  0.9386 -0.4721
  444TIP3    H2 1297   4.804   3.433   1.179  0.3149 -0.2329 -0.9462
  445TIP3   OH2 1298   0.706   3.654   1.636  0.0284 -0.3472  0.4965
  445TIP3    H1 1299   0.612   3.658   1.618 -0.0337 -1.5777  0.5116
  445TIP3    H2 1300   0.745   3.712   1.571 -0.7452  0.3013  0.5932
  446TIP3   OH2 1301   6.428   1.291   0.720  0.2559 -0.1571 -0.1490
  446TIP3    H1 1302   6.415   1.349   0.645  1.6286  0.4408  0.0316
  446TIP3    H2 1303   6.511   1.247   0.702 -0.5984 -1.8618 -0.1244
  447TIP3   OH2 1304   3.392   2.062   3.240  0.0757 -0.0374  0.2427
  447TIP3    H1 1305   3.438   2.145   3.236 -0.0787  0.0636  0.5443
  447TIP3    H2 1306   3.387   2.033   3.149  0.5184  0.0681  0.1835
  448TIP3   OH2 1307   6.171   3.652   1.070 -0.1720 -0.3088 -0.3378
  448TIP3    H1 1308   6.116   3.669   0.993  1.1068  1.8356 -0.8554
  448TIP3    H2 1309   6.116   3.679   1.144 -0.3417  0.4943 -0.7399
  449TIP3   OH2 1310   2.846   6.484   3.126  0.2858  0.1103 -0.3585
  449TIP3    H1 1311   2.913   6.552   3.114  0.5688 -0.1407 -0.2045
  449TIP3    H2 1312   2.826   6.453   3.038  0.0494  0.4946 -0.4431
  450TIP3   OH2 1313   2.484   2.491   5.328  0.2549  0.0477 -0.7182
  450TIP3    H1 1314   2.554   2.481   5.393 -0.9749 -0.9941  0.5099
  450TIP3    H2 1315   2.474   2.404   5.290 -0.8435 -0.0109 -0.3408
  451TIP3   OH2 1316   1.863   4.157   4.300  0.2945  0.4552 -0.0630
  451TIP3    H1 1317   1.853   4.243   4.259 -0.7161  0.3196 -0.1313
  451TIP3    H2 1318   1.852   4.174   4.394  0.2653  0.4272 -0.0614
  452TIP3   OH2 1319   3.912   3.590   4.196  0.0023  0.0278  0.3261
  452TIP3    H1 1320   3.950   3.637   4.122 -1.7572 -0.9732 -1.2974
  452TIP3    H2 1321   3.818   3.606   4.189 -0.2534 -0.4224  2.1507
  453TIP3   OH2 1322   5.160   4.108   3.377 -0.3146  0.3133  0.5702
  453TIP3    H1 1323   5.068   4.134   3.375 -0.5216  0.0441  3.1209
  453TIP3    H2 1324   5.160   4.021   3.416  0.9589 -0.2180 -0.5339
  454TIP3   OH2 1325   4.969   6.767   1.347 -0.1520 -0.7544 -0.6920
  454TIP3    H1 1326   5.041   6.812   1.304 -0.2272  0.2517  0.1879
  454TIP3    H2 1327   4.895   6.777   1.287 -0.1236  0.1692 -0.5821
  455TIP3   OH2 1328   5.100   3.692   2.234  0.5318  0.2808 -0.7081
  455TIP3    H1 1329   5.062   3.711   2.148 -1.6293  0.4539  0.2092
  455TIP3    H2 1330   5.046   3.742   2.296  2.9970  1.4220  0.6807
  456TIP3   OH2 1331   1.158   1.365   4.585 -0.3940 -0.0214  0.0971
  456TIP3    H1 1332   1.197   1.433   4.640  1.6359 -0.6854 -0.4278
  456TIP3    H2 1333   1.077   1.405   4.553 -0.1541  1.4725  1.2124
  457TIP3   OH2 1334   4.052   2.424   5.574 -0.8989 -0.1869 -0.3918
  457TIP3    H1 1335   3.998   2.345   5.574 -0.5840 -0.4054 -1.3070
  457TIP3    H2 1336   4.099   2.421   5.657 -0.1635 -1.4554 -0.8386
  458TIP3   OH2 1337   3.303   4.506   4.323  0.0504  0.1591 -0.1011
  458TIP3    H1 1338   3.359   4.438   4.362  0.2048 -0.5980 -1.5574
  458TIP3    H2 1339   3.357   4.544   4.254 -0.5964  0.6969 -0.3199
  459TIP3   OH2 1340   5.449   5.412   4.832 -0.5190 -0.2031 -0.0659
  459TIP3    H1 1341   5.363   5.425   4.793 -0.0821 -0.6323 -1.2025
  459TIP3    H2 1342   5.431   5.372   4.917 -1.3802 -2.7679 -1.3527
  460TIP3   OH2 1343   2.747   4.158   4.591  0.4303  0.3948  0.2528
  460TIP3    H1 1344   2.710   4.105   4.520 -0.7401 -1.1695  1.9252
  460TIP3    H2 1345   2.684   4.229   4.602  1.4032  1.5493 -1.2212
  461TIP3   OH2 1346   2.421   6.023   2.018  0.1205  1.0427 -0.6117
  461TIP3    H1 1347   2.428   5.935   1.982  0.0401  0.8140 -0.0852
  461TIP3    H2 1348   2.478   6.077   1.964 -0.3378  0.7970 -1.3462
  462TIP3   OH2 1349   7.069   0.860   4.004  0.4649 -0.0499 -0.6172
  462TIP3    H1 1350   7.069   0.766   4.022 -0.0232  0.3561  1.8440
  462TIP3    H2 1351   6.990   0.893   4.047  1.2287  1.6482 -0.4234
  463TIP3   OH2 1352   0.639   3.426   5.205 -0.3245  0.1810 -0.0088
  463TIP3    H1 1353   0.625   3.442   5.112  1.2647  2.1021  0.0346
  463TIP3    H2 1354   0.649   3.331   5.211 -3.2407 -0.3281 -1.3243
  464TIP3   OH2 1355   3.006   1.424   4.259 -0.5808  0.5886  1.3543
  464TIP3    H1 1356   2.948   1.496   4.237 -1.0577 -0.3453 -0.7070
  464TIP3    H2 1357   2.947   1.352   4.285 -0.4986 -0.5441 -1.2870
  465TIP3   OH2 1358   1.901   4.900   1.146  0.2930 -0.2516  0.1112
  465TIP3    H1 1359   1.862   4.987   1.147 -1.2398 -0.8974  0.9979
  465TIP3    H2 1360   1.826   4.841   1.157  1.0756 -1.7833 -2.1794
  466TIP3   OH2 1361   1.850   2.128   2.667 -0.2081  0.0147  0.4868
  466TIP3    H1 1362   1.900   2.194   2.618 -0.5475  1.6666  2.2743
  466TIP3    H2 1363   1.886   2.131   2.755 -2.1406 -0.1597  1.3214
  467TIP3   OH2 1364   3.674   5.847   3.748  0.1508  0.3745 -0.0080
  467TIP3    H1 1365   3.623   5.905   3.805 -0.7380  0.2157 -0.6279
  467TIP3    H2 1366   3.676   5.892   3.664 -0.9518 -0.6845 -0.6269
  468TIP3   OH2 1367   0.513   2.427   1.584 -0.3440 -0.2057 -0.8099
  468TIP3    H1 1368   0.528   2.408   1.492 -0.6379  1.2107 -1.1731
  468TIP3    H2 1369   0.420   2.408   1.598 -0.0218 -1.6603 -0.4564
  469TIP3   OH2 1370   3.537   5.722   5.738  0.3330 -0.5221 -0.5086
  469TIP3    H1 1371   3.608   5.787   5.743  0.3048 -0.5682  1.6469
  469TIP3    H2 1372   3.487   5.747   5.661  1.5000  0.7821 -0.8905
  470TIP3   OH2 1373   6.955   4.158   0.096  0.0263 -0.0395  0.5364
  470TIP3    H1 1374   6.960   4.078   0.043 -1.7206  0.1044  0.0880
  470TIP3    H2 1375   6.918   4.129   0.179  1.7740 -0.0862  1.3340
  471TIP3   OH2 1376   1.255   6.222   0.024  0.0497 -0.3286  0.1195
  471TIP3    H1 1377   1.195   6.160  -0.019 -0.0295 -0.9758  1.1350
  471TIP3    H2 1378   1.230   6.220   0.116 -1.1186  2.5538 -0.0159
  472TIP3   OH2 1379   3.700   4.523   4.654  0.2317  0.1248  0.1366
  472TIP3    H1 1380   3.789   4.500   4.626  0.1323 -0.9821  0.6583
  472TIP3    H2 1381   3.711   4.564   4.739  0.2724  0.3258  0.0339
  473TIP3   OH2 1382   0.169   2.417   4.183 -0.5356  0.3117 -0.0409
  473TIP3    H1 1383   0.135   2.442   4.097  1.0285  1.4576 -0.3761
  473TIP3    H2 1384   0.241   2.479   4.199 -0.4269 -0.2499  1.8360
  474TIP3   OH2 1385   5.958   5.606   5.189 -0.0459 -0.4962 -0.2234
  474TIP3    H1 1386   6.006   5.606   5.106  1.1176  0.1200  0.4200
  474TIP3    H2 1387   5.960   5.697   5.218  0.4795 -0.8676  0.9736
  475TIP3   OH2 1388   1.775   4.483   5.342 -0.7936 -0.7079 -0.2753
  475TIP3    H1 1389   1.718   4.558   5.350 -0.7966 -0.8096  0.9634
  475TIP3    H2 1390   1.862   4.520   5.328 -1.2205 -0.5686 -3.0317
  476TIP3   OH2 1391   6.825   0.267   3.990 -0.3638 -0.1487 -0.0085
  476TIP3    H1 1392   6.877   0.200   4.035 -0.5309 -0.7132 -0.6314
  476TIP3    H2 1393   6.746   0.220   3.960  0.4607 -0.2174 -2.2793
  477TIP3   OH2 1394   4.063   6.082   4.687 -0.1970 -0.1990 -0.0513
  477TIP3    H1 1395   4.109   6.000   4.701 -0.9444 -0.3673  1.7055
  477TIP3    H2 1396   3.999   6.063   4.618  0.5923 -0.6657 -0.6665
  478TIP3   OH2 1397   4.446   3.721   5.012 -0.3204  0.1242 -0.9047
  478TIP3    H1 1398   4.524   3.759   5.051  0.8108 -2.2734 -0.6622
  478TIP3    H2 1399   4.478   3.650   4.957 -2.3039 -0.7136 -1.0838
  479TIP3   OH2 1400   1.403   3.867   3.820 -0.0955  0.0833  0.1829
  479TIP3    H1 1401   1.439   3.888   3.734  1.5897 -0.6466  0.6727
  479TIP3    H2 1402   1.310   3.890   3.813 -0.3110 -1.1385 -2.2356
  480TIP3   OH2 1403   5.052   6.210   2.296 -0.4913 -0.2220 -0.1474
  480TIP3    H1 1404   5.108   6.285   2.316 -0.9736  0.5699 -1.6337
  480TIP3    H2 1405   5.083   6.179   2.211 -2.0062 -0.0107 -0.8191
  481TIP3   OH2 1406   2.003   0.337   4.997  0.0485 -0.2399 -0.2553
  481TIP3    H1 1407   2.009   0.245   5.024 -1.9166 -0.9600 -1.9660
  481TIP3    H2 1408   2.036   0.338   4.907 -0.9913  0.4642 -0.6489
  482TIP3   OH2 1409   3.896   1.097   2.060  0.3251  0.7115  0.1124
  482TIP3    H1 1410   3.836   1.164   2.092 -1.6017 -2.0535  2.8622
  482TIP3    H2 1411   3.904   1.115   1.967 -2.3304  3.0420  0.1910
  483TIP3   OH2 1412   7.111   0.365   1.630 -0.2714 -0.0687  0.1570
  483TIP3    H1 1413   7.077   0.446   1.666  1.5281 -0.1797  2.3029
  483TIP3    H2 1414   7.034   0.309   1.619 -1.1659  0.7962  1.7175
  484TIP3   OH2 1415   3.211   6.433   0.828  0.2554  0.7479 -0.4869
  484TIP3    H1 1416   3.151   6.403   0.896 -0.0162 -1.6214 -1.6808
  484TIP3    H2 1417   3.153   6.465   0.758  0.4823  1.2266 -0.4615
  485TIP3   OH2 1418   5.774   4.253   5.412  0.2785 -0.6643 -0.0784
  485TIP3    H1 1419   5.792   4.175   5.360  0.2992 -1.0694  0.5239
  485TIP3    H2 1420   5.859   4.277   5.449  0.3107 -0.2310 -0.4332
  486TIP3   OH2 1421   2.447   3.286   5.098  0.3697  0.1173  0.2170
  486TIP3    H1 1422   2.368   3.304   5.047 -0.0496  1.0499  1.1555
  486TIP3    H2 1423   2.420   3.219   5.161  0.5403 -0.1139  0.0458
  487TIP3   OH2 1424   6.940   3.057   5.511 -0.5001 -0.5876  1.0382
  487TIP3    H1 1425   6.851   3.023   5.514 -1.0140  0.5888 -0.0986
  487TIP3    H2 1426   6.938   3.135   5.567 -0.1091 -0.7218  1.2432
  488TIP3   OH2 1427   6.750   6.510   3.533 -0.0546  0.0853 -0.6809
  488TIP3    H1 1428   6.665   6.481   3.567  0.6715 -1.4192 -0.0706
  488TIP3    H2 1429   6.745   6.606   3.537 -1.1630  0.0154  0.7663
  489TIP3   OH2 1430   3.212   6.490   2.941 -0.4310  0.3875 -0.2174
  489TIP3    H1 1431   3.136   6.532   2.901  1.0816  0.8359 -2.8845
  489TIP3    H2 1432   3.204   6.509   3.035 -2.4123  2.3375 -0.6964
  490TIP3   OH2 1433   2.062   5.979   3.094 -0.6713 -0.6053  0.2098
  490TIP3    H1 1434   2.059   5.908   3.030  0.4800 -2.0891  1.7251
  490TIP3    H2 1435   1.988   5.962   3.152 -1.2053  0.2485 -0.1956
  491TIP3   OH2 1436   4.164   5.952   1.741  0.1606 -0.0723  0.0772
  491TIP3    H1 1437   4.201   6.004   1.669  1.3381 -1.8489 -0.6749
  491TIP3    H2 1438   4.240   5.927   1.794 -0.3295 -1.2515  0.2561
  492TIP3   OH2 1439   6.654   4.702   1.562  0.5823 -0.0005 -0.4097
  492TIP3    H1 1440   6.665   4.796   1.579 -0.5925  0.2497 -0.9412
  492TIP3    H2 1441   6.704   4.659   1.632  0.8077  1.0141  0.0695
  493TIP3   OH2 1442   0.131   6.568   0.306 -0.8066 -0.5371 -0.0053
  493TIP3    H1 1443   0.113   6.485   0.350 -0.5864 -0.2902  0.5652
  493TIP3    H2 1444   0.152   6.628   0.377 -0.4192 -0.1329 -0.4575
  494TIP3   OH2 1445   0.124   3.702   0.868 -0.0126 -0.3338 -0.0128
  494TIP3    H1 1446   0.155   3.783   0.828 -1.5069 -0.5635 -1.7730
  494TIP3    H2 1447   0.042   3.683   0.822  0.0946 -2.6271  0.6387
  495TIP3   OH2 1448   2.714   1.250   1.722 -0.3291 -0.1192 -0.2648
  495TIP3    H1 1449   2.776   1.258   1.649 -1.3877  0.9966 -1.0745
  495TIP3    H2 1450   2.628   1.249   1.681 -0.9265 -0.0768  0.9393
  496TIP3   OH2 1451   1.309   0.854   1.958  0.3967  0.0433  0.2578
  496TIP3    H1 1452   1.388   0.853   1.903 -0.4312 -1.3151 -0.9646
  496TIP3    H2 1453   1.241   0.889   1.902  0.0703  1.1149  1.2821
  497TIP3   OH2 1454   6.567   5.642   2.060  1.0007  0.2175 -0.0131
  497TIP3    H1 1455   6.614   5.725   2.071 -0.9379  1.3131  0.6473
  497TIP3    H2 1456   6.592   5.590   2.136 -2.0834  2.5401  2.9187
  498TIP3   OH2 1457   5.128   5.802   0.215  0.3539  0.6917 -0.4581
  498TIP3    H1 1458   5.093   5.715   0.199  0.5529  0.5010  0.1229
  498TIP3    H2 1459   5.189   5.818   0.142 -0.4934  0.7945 -1.1611
  499TIP3   OH2 1460   2.266   1.187   2.736 -0.5723 -0.3005 -0.1825
  499TIP3    H1 1461   2.181   1.219   2.765  0.3729  2.9211 -0.5034
  499TIP3    H2 1462   2.327   1.215   2.806  0.5855  0.1771 -1.3394
  500TIP3   OH2 1463   0.130   5.531   1.129 -1.1090  0.7119 -0.1956
  500TIP3    H1 1464   0.164   5.620   1.120 -2.8466  1.6428  1.5592
  500TIP3    H2 1465   0.127   5.516   1.224 -0.5904 -1.3482 -0.4694
  501TIP3   OH2 1466   4.961   3.387   3.693 -0.3443  0.7219 -0.0953
  501TIP3    H1 1467   4.935   3.438   3.770  0.7919  1.1672  0.0198
  501TIP3    H2 1468   5.034   3.334   3.723 -0.2991  0.4257 -0.7112
  502TIP3   OH2 1469   5.297   6.383   1.028 -0.2290  0.2262 -0.3872
  502TIP3    H1 1470   5.366   6.402   0.965  0.9628  2.1471  1.3854
  502TIP3    H2 1471   5.319   6.297   1.063  1.2975  0.7850  0.1133
  503TIP3   OH2 1472   2.504   4.297   5.154  0.6051  0.2525  0.1437
  503TIP3    H1 1473   2.536   4.353   5.225  0.9243  0.5813 -0.2525
  503TIP3    H2 1474   2.410   4.312   5.152  0.3733 -0.8053  1.3961
  504TIP3   OH2 1475   0.413   1.213   3.392 -0.1969  0.1011  0.1122
  504TIP3    H1 1476   0.484   1.157   3.361 -0.1644  0.7575 -1.0513
  504TIP3    H2 1477   0.380   1.256   3.313 -0.2707  1.6610  0.9470
  505TIP3   OH2 1478   5.403   5.455   2.382  0.0989 -0.1925 -0.1746
  505TIP3    H1 1479   5.387   5.393   2.311 -1.5220 -1.6933  1.3875
  505TIP3    H2 1480   5.474   5.416   2.432 -1.5785 -1.4462  1.3816
  506TIP3   OH2 1481   7.176   1.482   3.228  0.5288  0.0954  0.1646
  506TIP3    H1 1482   7.082   1.500   3.225  0.6705  0.9844  0.8167
  506TIP3    H2 1483   7.211   1.520   3.147  0.2572 -0.7512 -0.3667
  507TIP3   OH2 1484   2.181   4.908   0.066  0.2382 -0.2384 -0.3545
  507TIP3    H1 1485   2.189   4.824   0.110  2.1241 -0.0767 -0.3413
  507TIP3    H2 1486   2.157   4.970   0.136  1.8090 -0.2446  0.2305
  508TIP3   OH2 1487   0.414   3.748   4.850 -0.3378 -0.5321 -0.2686
  508TIP3    H1 1488   0.376   3.830   4.819 -0.1746 -0.2901  0.1542
  508TIP3    H2 1489   0.508   3.757   4.834 -0.4842 -1.3237 -1.7513
  509TIP3   OH2 1490   5.778   3.404   5.480  0.6497 -0.8241  0.1611
  509TIP3    H1 1491   5.807   3.467   5.546 -1.2140  0.3200 -0.0460
  509TIP3    H2 1492   5.825   3.431   5.401 -1.3157  1.4336 -0.3423
  510TIP3   OH2 1493   2.287   1.774   3.066 -0.0221  0.1262  0.4440
  510TIP3    H1 1494   2.356   1.742   3.125  0.8545  0.7573 -0.2178
  510TIP3    H2 1495   2.265   1.860   3.101 -0.5693 -0.1290  0.7284
  511TIP3   OH2 1496   0.209   0.442   1.398 -0.8095  0.9071  0.7958
  511TIP3    H1 1497   0.229   0.516   1.342  0.8194  1.5995  2.1986
  511TIP3    H2 1498   0.115   0.448   1.412 -1.0757  1.3356 -0.9431
  512TIP3   OH2 1499   2.251   4.711   5.396  0.1210 -0.5049 -0.1354
  512TIP3    H1 1500   2.296   4.631   5.423 -0.4457 -1.0777 -0.8359
  512TIP3    H2 1501   2.277   4.776   5.461  0.2214 -1.3724  0.7253
  513TIP3   OH2 1502   3.547   4.023   4.108  0.5261  0.0084 -0.2299
  513TIP3    H1 1503   3.505   4.086   4.167 -1.0047 -1.3517  0.2357
  513TIP3    H2 1504   3.515   4.047   4.021 -0.2973 -0.2695 -0.0183
  514TIP3   OH2 1505   3.968   2.652   5.436  0.2358 -0.1054  0.2921
  514TIP3    H1 1506   4.040   2.710   5.462  0.8796 -0.1185 -1.3650
  514TIP3    H2 1507   3.995   2.566   5.467  0.9050 -0.0898 -0.2169
  515TIP3   OH2 1508   6.595   5.700   3.894  0.1894 -0.2453  0.0054
  515TIP3    H1 1509   6.542   5.683   3.815 -1.0254  0.1204  0.7123
  515TIP3    H2 1510   6.620   5.613   3.925 -0.6983 -0.4766  0.1092
  516TIP3   OH2 1511   6.219   0.595   0.175 -0.2222  0.4362 -0.0874
  516TIP3    H1 1512   6.305   0.556   0.188 -0.1062  0.7446  0.0820
  516TIP3    H2 1513   6.158   0.521   0.177 -0.0854  0.3448  1.0315
  517TIP3   OH2 1514   4.844   1.094   0.619 -0.0972 -0.0933 -0.3731
  517TIP3    H1 1515   4.924   1.055   0.654 -1.0010 -0.5981  1.2249
  517TIP3    H2 1516   4.874   1.154   0.550  1.7482  0.7652  1.1117
  518TIP3   OH2 1517   0.443   2.417   4.920  0.1806 -0.6003 -0.2306
  518TIP3    H1 1518   0.358   2.424   4.962  0.6709 -0.0262  0.6949
  518TIP3    H2 1519   0.505   2.410   4.992  0.9498 -0.6918 -0.8867
  519TIP3   OH2 1520   1.431   6.513   5.035 -0.9174 -0.5666  0.0368
  519TIP3    H1 1521   1.342   6.545   5.045  0.0496  1.9890  1.5061
  519TIP3    H2 1522   1.437   6.486   4.944 -2.6083  1.3016 -0.7075
  520TIP3   OH2 1523   1.511   5.913   3.292  0.2589  0.2206 -0.0746
  520TIP3    H1 1524   1.517   5.819   3.277  2.0876  0.0824  1.1811
  520TIP3    H2 1525   1.568   5.952   3.225 -0.7143  0.4749 -0.7706
  521TIP3   OH2 1526   4.976   0.561   0.337 -0.4382 -0.0754  0.2138
  521TIP3    H1 1527   5.042   0.615   0.292 -0.7547 -1.0629 -1.5183
  521TIP3    H2 1528   4.913   0.625   0.371  0.7006  0.8006  0.7493
  522TIP3   OH2 1529   5.730   2.138   0.387  0.3751  0.0689  0.2008
  522TIP3    H1 1530   5.749   2.128   0.480 -1.2685 -0.3488  0.5354
  522TIP3    H2 1531   5.786   2.210   0.358  1.9059 -0.6906  1.1804
  523TIP3   OH2 1532   4.525   4.127   0.686 -0.5416 -0.5282 -0.9264
  523TIP3    H1 1533   4.463   4.105   0.618 -2.8298 -1.7148  1.3647
  523TIP3    H2 1534   4.507   4.065   0.757  0.0498  2.0568  1.7034
  524TIP3   OH2 1535   1.093   4.889   2.107 -0.1893  0.5811 -0.5246
  524TIP3    H1 1536   1.117   4.797   2.114  1.3067  1.0732  1.4889
  524TIP3    H2 1537   1.141   4.920   2.030  0.4203  0.0244 -0.3765
  525TIP3   OH2 1538   3.484   3.187   1.239  0.2674 -0.2006 -0.0025
  525TIP3    H1 1539   3.488   3.226   1.327  1.2292 -0.6507  0.1578
  525TIP3    H2 1540   3.538   3.245   1.185 -0.0750 -0.0978 -0.2395
  526TIP3   OH2 1541   5.354   2.877   4.450  0.3812  0.3149 -0.0432
  526TIP3    H1 1542   5.287   2.945   4.459  2.2765  2.2978 -0.3163
  526TIP3    H2 1543   5.315   2.800   4.493 -2.7707  0.8034 -1.7208
  527TIP3   OH2 1544   5.740   1.071   1.669  0.8058 -0.3865  0.2660
  527TIP3    H1 1545   5.754   1.085   1.575  0.1732  1.6882  0.4247
  527TIP3    H2 1546   5.826   1.080   1.708  1.1890 -1.9351 -0.1420
  528TIP3   OH2 1547   1.828   0.118   3.757  0.0418 -0.0700 -0.5864
  528TIP3    H1 1548   1.766   0.190   3.745  2.3065  1.7389 -2.2470
  528TIP3    H2 1549   1.909   0.160   3.785  0.2966 -2.4753  2.8658
  529TIP3   OH2 1550   1.178   4.976   4.619 -0.0439  0.4650  0.3919
  529TIP3    H1 1551   1.179   5.072   4.609  0.3045  0.7146  2.4399
  529TIP3    H2 1552   1.266   4.949   4.593  0.7713  1.0590  2.3422
  530TIP3   OH2 1553   4.138   2.267   3.934 -0.2245 -0.2996 -0.4394
  530TIP3    H1 1554   4.224   2.243   3.969 -0.0568  1.9513  0.8745
  530TIP3    H2 1555   4.075   2.220   3.989  0.1447 -0.9016 -0.5324
  531TIP3   OH2 1556   3.104   2.908   3.810 -0.9467 -0.5902  0.2837
  531TIP3    H1 1557   3.118   2.902   3.904 -1.9322 -0.2894  0.4539
  531TIP3    H2 1558   3.030   2.968   3.800  0.8895  1.6913 -0.7992
  532TIP3   OH2 1559   6.929   2.504   4.333  0.0577 -0.1564  0.4997
  532TIP3    H1 1560   6.835   2.507   4.349 -0.1233  0.1673 -0.5329
  532TIP3    H2 1561   6.955   2.595   4.322  0.1673 -0.3341 -0.8823
  533TIP3   OH2 1562   4.490   5.363   2.111 -0.0368  0.0391  0.3532
  533TIP3    H1 1563   4.396   5.354   2.124 -0.1610  1.2431  0.3700
  533TIP3    H2 1564   4.500   5.381   2.017  0.1836 -0.1341  0.3419
  534TIP3   OH2 1565   0.669   0.752   3.267 -0.5146 -0.2051 -0.4621
  534TIP3    H1 1566   0.617   0.793   3.197 -0.3257  0.2986 -0.3122
  534TIP3    H2 1567   0.642   0.660   3.266 -0.5608 -0.1891 -1.1578
  535TIP3   OH2 1568   3.249   3.032   1.352  0.1212  0.4542 -0.3064
  535TIP3    H1 1569   3.316   3.051   1.286  0.8028  1.1075  0.5443
  535TIP3    H2 1570   3.287   2.963   1.406 -0.6006 -0.3665 -0.8250
  536TIP3   OH2 1571   1.339   1.065   1.573  0.0717  0.5183  0.0881
  536TIP3    H1 1572   1.283   1.016   1.634  0.1773 -2.5093 -2.0124
  536TIP3    H2 1573   1.425   1.067   1.616 -0.3761  0.5120  1.0196
  537TIP3   OH2 1574   1.934   4.288   3.496 -0.2772  0.6868 -0.1051
  537TIP3    H1 1575   1.966   4.377   3.513 -1.0915  0.8065  0.8869
  537TIP3    H2 1576   1.900   4.258   3.580  3.1631 -1.9935  0.5703
  538TIP3   OH2 1577   4.360   4.681   1.501  0.6638  0.0512 -0.3381
  538TIP3    H1 1578   4.351   4.674   1.596 -0.8169 -0.6331 -0.5081
  538TIP3    H2 1579   4.289   4.739   1.474  1.2228  0.4412 -1.0188
  539TIP3   OH2 1580   3.622   3.027   0.587  0.0993  0.1739 -0.4707
  539TIP3    H1 1581   3.545   3.010   0.642 -1.0319  0.8272 -1.7732
  539TIP3    H2 1582   3.672   2.945   0.590  0.6006  0.4744  2.2250
  540TIP3   OH2 1583   3.505   2.732   5.657 -0.0534 -0.4367  0.0713
  540TIP3    H1 1584   3.496   2.637   5.656 -1.2150 -0.5682  4.2470
  540TIP3    H2 1585   3.596   2.747   5.683 -0.4340 -0.5418  1.5486
  541TIP3   OH2 1586   2.319   2.458   0.658 -0.3168 -0.6110  0.1539
  541TIP3    H1 1587   2.391   2.489   0.712  0.0315 -0.1207 -0.5754
  541TIP3    H2 1588   2.299   2.371   0.692  1.1973 -1.1140 -0.1925
  542TIP3   OH2 1589   3.333   5.354   3.374 -0.4106  0.6563  0.4840
  542TIP3    H1 1590   3.258   5.387   3.325 -1.1777  0.4071  1.4464
  542TIP3    H2 1591   3.297   5.331   3.460  0.8229  0.7842  1.0582
  543TIP3   OH2 1592   5.121   1.710   1.617 -0.2542  0.5883  0.4166
  543TIP3    H1 1593   5.156   1.756   1.693 -0.7047  2.0413 -0.2324
  543TIP3    H2 1594   5.028   1.700   1.635 -0.1249 -0.3044  0.6512
  544TIP3   OH2 1595   3.171   2.370   5.237 -0.0661 -0.7124  0.1530
  544TIP3    H1 1596   3.140   2.374   5.146  0.5039 -1.5108 -0.0854
  544TIP3    H2 1597   3.105   2.417   5.287  0.0831  0.5695 -0.7974
  545TIP3   OH2 1598   1.173   1.140   1.839 -0.6254 -0.0407 -0.0783
  545TIP3    H1 1599   1.253   1.185   1.864 -1.0599  0.8840 -0.3298
  545TIP3    H2 1600   1.110   1.161   1.908 -0.6855 -0.6890  0.0730
  546TIP3   OH2 1601   6.784   4.411   4.616 -0.0690 -0.3022 -0.0568
  546TIP3    H1 1602   6.835   4.427   4.536  0.6920  3.7453  0.9802
  546TIP3    H2 1603   6.695   4.435   4.592  0.2852  1.6322  0.3622
  547TIP3   OH2 1604   4.337   2.664   1.769 -0.2826  0.2964  0.1104
  547TIP3    H1 1605   4.375   2.591   1.720  0.6305  0.0004  1.2123
  547TIP3    H2 1606   4.386   2.741   1.739 -1.0926  0.4566 -0.8844
  548TIP3   OH2 1607   3.277   0.564   2.597  0.5924  0.3664  0.4279
  548TIP3    H1 1608   3.217   0.601   2.533 -2.0397 -1.9111  1.3922
  548TIP3    H2 1609   3.350   0.626   2.600 -0.8043  2.3193 -2.1713
  549TIP3   OH2 1610   4.867   3.073   5.423  0.4474  0.2059 -0.2208
  549TIP3    H1 1611   4.944   3.037   5.468  1.5902  1.1354 -1.3533
  549TIP3    H2 1612   4.848   3.010   5.354 -0.0045 -0.1708  0.2409
  550TIP3   OH2 1613   4.031   6.394   0.977  0.0488 -0.5665  0.0712
  550TIP3    H1 1614   4.023   6.470   0.919  0.1108 -1.4624 -1.1672
  550TIP3    H2 1615   4.125   6.380   0.986  0.0401 -1.1619 -0.6455
  551TIP3   OH2 1616   0.118   1.263   5.054 -0.3215  0.0122  0.6601
  551TIP3    H1 1617   0.156   1.179   5.027 -0.9115  0.1407 -0.6351
  551TIP3    H2 1618   0.052   1.240   5.120 -0.5691 -0.5535  0.2214
  552TIP3   OH2 1619   6.930   2.114   0.885 -0.2820  0.1416 -0.2884
  552TIP3    H1 1620   6.891   2.175   0.823  0.0795 -1.3617 -2.0708
  552TIP3    H2 1621   7.022   2.140   0.890 -0.0000 -0.5431 -1.4804
  553TIP3   OH2 1622   6.372  -0.000   3.593 -0.5044  0.9102 -0.1946
  553TIP3    H1 1623   6.293   0.052   3.603  0.4215  2.5906 -1.2263
  553TIP3    H2 1624   6.441   0.052   3.634  0.6946  1.2107 -2.4072
  554TIP3   OH2 1625   3.043   3.673   4.408 -0.4013 -0.3665 -0.0852
  554TIP3    H1 1626   3.026   3.767   4.415  0.1942 -0.2448 -0.2581
  554TIP3    H2 1627   3.136   3.663   4.429 -0.3663 -0.8689 -0.4548
  555TIP3   OH2 1628   6.367   0.914   2.844 -0.4087  0.2748  0.4031
  555TIP3    H1 1629   6.376   0.993   2.791 -0.9720  1.1759  1.5878
  555TIP3    H2 1630   6.280   0.881   2.824  0.2781 -0.7791 -1.0090
  556TIP3   OH2 1631   5.105   1.064   0.176  0.2124 -0.2142  0.1549
  556TIP3    H1 1632   5.185   1.024   0.210 -0.3129 -1.2922  0.1657
  556TIP3    H2 1633   5.134   1.113   0.099  0.7955 -1.2285 -0.2990
  557TIP3   OH2 1634   0.102   2.619   4.569 -0.3557  0.7258 -0.6466
  557TIP3    H1 1635   0.183   2.601   4.618 -1.4281  0.2422  1.0322
  557TIP3    H2 1636   0.132   2.645   4.482  1.5824 -0.0225 -0.2531
  558TIP3   OH2 1637   2.349   1.520   3.835 -0.1244 -0.8999 -0.4936
  558TIP3    H1 1638   2.273   1.571   3.807 -0.4189 -1.1851 -0.2131
  558TIP3    H2 1639   2.321   1.429   3.828 -0.0872 -0.9843  0.4240
  559TIP3   OH2 1640   0.285   5.647   1.870 -0.1567 -0.4996  0.2490
  559TIP3    H1 1641   0.359   5.703   1.891  0.3506 -1.4693  1.1493
  559TIP3    H2 1642   0.258   5.611   1.954  2.3453 -5.0566 -0.5836
  560TIP3   OH2 1643   0.164   5.671   5.717  0.3797  0.3535 -0.2817
  560TIP3    H1 1644   0.093   5.734   5.726  0.1163 -0.0431  0.4563
  560TIP3    H2 1645   0.145   5.604   5.782  0.1099 -1.0051 -1.7016
  561TIP3   OH2 1646   4.987   1.672   3.596  0.2366 -0.3675  0.7633
  561TIP3    H1 1647   5.014   1.655   3.687  1.1310 -1.1163  0.3776
  561TIP3    H2 1648   5.028   1.602   3.546 -1.2735 -0.6856 -0.0693
  562TIP3   OH2 1649   2.993   6.269   1.779  0.0221  0.1556  0.1335
  562TIP3    H1 1650   2.989   6.259   1.684 -0.1961 -0.4712  0.1995
  562TIP3    H2 1651   2.910   6.310   1.803 -0.5203 -0.9308  0.1824
  563TIP3   OH2 1652   0.426   1.023   2.293 -0.2574 -0.0267 -0.4606
  563TIP3    H1 1653   0.428   1.078   2.371  1.5422 -1.2566  0.4075
  563TIP3    H2 1654   0.363   1.067   2.235 -0.1734  1.9723  0.8685
  564TIP3   OH2 1655   3.340   2.036   4.207  0.5749  0.4238 -0.9584
  564TIP3    H1 1656   3.273   2.000   4.149 -0.5679  1.2420 -0.1936
  564TIP3    H2 1657   3.306   2.122   4.232 -0.0826 -0.7139  2.6338
  565TIP3   OH2 1658   6.856   1.890   5.690 -0.6804 -0.1758  0.4558
  565TIP3    H1 1659   6.778   1.882   5.745  0.0055 -1.3454  1.3259
  565TIP3    H2 1660   6.867   1.803   5.652 -0.4178  0.2821 -0.5424
  566TIP3   OH2 1661   0.698   0.181   4.932  0.6686  0.8096  0.4787
  566TIP3    H1 1662   0.664   0.186   4.843 -0.2456 -1.2155  0.6420
  566TIP3    H2 1663   0.788   0.151   4.922  0.2214 -0.5356  0.2187
  567TIP3   OH2 1664   2.402   0.117   3.137 -0.4766  0.3986  0.2345
  567TIP3    H1 1665   2.310   0.119   3.113 -0.3533  0.6964 -0.2298
  567TIP3    H2 1666   2.445   0.072   3.063 -0.1640  0.8436  0.1407
  568TIP3   OH2 1667   1.394   3.179   0.710  0.2339 -0.3418 -0.5385
  568TIP3    H1 1668   1.413   3.236   0.636 -0.3903 -0.6392 -0.9401
  568TIP3    H2 1669   1.327   3.226   0.760  0.9172  0.0255  0.0458
  569TIP3   OH2 1670   6.543   3.300   1.636 -0.0689  0.0954  0.1107
  569TIP3    H1 1671   6.573   3.214   1.605  0.3507 -0.7901  2.7718
  569TIP3    H2 1672   6.453   3.307   1.603  0.0418 -1.1631 -0.5330
  570TIP3   OH2 1673   6.662   2.130   2.821 -0.2383 -0.2377  0.1161
  570TIP3    H1 1674   6.656   2.215   2.864  0.0446 -0.4576  0.5952
  570TIP3    H2 1675   6.747   2.132   2.775 -0.5017 -0.0356 -0.3730
  571TIP3   OH2 1676   4.932   0.775   2.352  0.1847  0.0539 -0.4235
  571TIP3    H1 1677   4.869   0.738   2.414  1.3513  1.4310  1.7384
  571TIP3    H2 1678   4.905   0.866   2.342  0.0812 -0.1164 -1.9196
  572TIP3   OH2 1679   3.234   6.002   0.053  0.4172  0.1541  0.3101
  572TIP3    H1 1680   3.164   6.063   0.076 -0.6272 -1.5388  1.9184
  572TIP3    H2 1681   3.212   5.974  -0.036  0.3789  1.3608 -0.0851
  573TIP3   OH2 1682   2.965   4.025   1.315 -0.2549  0.0764 -0.2455
  573TIP3    H1 1683   2.899   4.093   1.306  0.0512  0.3320 -0.5705
  573TIP3    H2 1684   2.991   4.005   1.225  0.3153  0.1771 -0.1053
  574TIP3   OH2 1685   6.626   1.902   0.625 -0.1947  0.5839 -0.7496
  574TIP3    H1 1686   6.625   1.877   0.718  0.3722  1.1769 -0.5726
  574TIP3    H2 1687   6.718   1.924   0.608 -0.5530  1.9702 -1.0384
  575TIP3   OH2 1688   2.617   2.376   0.729 -0.0460 -0.1952 -0.4248
  575TIP3    H1 1689   2.660   2.336   0.654  1.1024 -0.1212  0.1666
  575TIP3    H2 1690   2.631   2.470   0.716  0.2191 -0.1868 -0.0896
  576TIP3   OH2 1691   5.547   6.203   5.781 -0.2708 -0.3916  0.1365
  576TIP3    H1 1692   5.486   6.242   5.844  1.2961 -0.2495  1.6346
  576TIP3    H2 1693   5.593   6.136   5.831  1.4531  0.1314 -0.6855
  577TIP3   OH2 1694   6.625   3.008   4.968  0.2741 -0.1155  0.0918
  577TIP3    H1 1695   6.638   3.075   4.900  0.3633  0.0731  0.2924
  577TIP3    H2 1696   6.657   3.049   5.048  0.6422 -0.5251  0.1574
  578TIP3   OH2 1697   6.430   6.741   2.435 -0.3012  0.1656  0.3190
  578TIP3    H1 1698   6.346   6.771   2.401 -0.3057  0.4314  0.5587
  578TIP3    H2 1699   6.407   6.672   2.497 -0.5483  1.8970  2.2768
  579TIP3   OH2 1700   4.698   4.366   2.701  0.5474 -0.2882  0.1244
  579TIP3    H1 1701   4.615   4.398   2.736  0.3678 -0.4853 -0.1122
  579TIP3    H2 1702   4.725   4.296   2.760  0.5404 -0.2298  0.1964
  580TIP3   OH2 1703   2.791   0.746   1.478  0.7011 -0.1162 -0.1957
  580TIP3    H1 1704   2.850   0.720   1.549  0.8061 -0.3565 -0.3667
  580TIP3    H2 1705   2.766   0.836   1.498  0.4708 -0.2911  0.3173
  581TIP3   OH2 1706   1.813   2.940   0.593 -0.2857  0.0064 -0.2368
  581TIP3    H1 1707   1.742   2.967   0.651 -0.3806  0.9407 -0.7586
  581TIP3    H2 1708   1.812   3.005   0.523  2.4110  1.3391  0.7911
  582TIP3   OH2 1709   3.772   4.963   1.449 -0.0072  0.2026 -0.5066
  582TIP3    H1 1710   3.777   4.985   1.542  0.3799 -0.4053 -0.3753
  582TIP3    H2 1711   3.787   4.868   1.446 -1.5188 -0.0447 -1.0586
  583TIP3   OH2 1712   4.695   4.928   2.816 -0.0766  0.1675  0.2702
  583TIP3    H1 1713   4.685   5.014   2.857  1.1299  0.4024  0.1227
  583TIP3    H2 1714   4.786   4.905   2.834 -0.7668 -1.7690  1.6186
  584TIP3   OH2 1715   3.918   1.020   4.049 -0.1370 -0.5246  0.1726
  584TIP3    H1 1716   3.827   1.018   4.078 -0.0123  0.8707  0.7750
  584TIP3    H2 1717   3.918   0.974   3.965 -1.0015 -2.3355  1.1265
  585TIP3   OH2 1718   7.053   0.610   4.916  0.9366 -0.0357  0.2483
  585TIP3    H1 1719   7.098   0.549   4.974  0.4714  1.4610  2.2829
  585TIP3    H2 1720   6.972   0.564   4.892  2.2015 -1.6397 -1.2579
  586TIP3   OH2 1721   1.167   6.618   1.665 -0.0653  0.0507  0.0448
  586TIP3    H1 1722   1.216   6.537   1.652  1.5313  0.9055  0.5359
  586TIP3    H2 1723   1.095   6.612   1.602 -0.2306 -1.9084  0.3353
  587TIP3   OH2 1724   2.108   2.598   2.375  0.6103 -0.4281 -0.1112
  587TIP3    H1 1725   2.104   2.694   2.369  0.6900 -0.2822  1.7121
  587TIP3    H2 1726   2.119   2.580   2.468 -0.0878 -2.2435 -0.3401
  588TIP3   OH2 1727   2.503   5.433   1.437  0.3917  0.2726  0.7850
  588TIP3    H1 1728   2.558   5.424   1.515  1.1409 -3.7153 -0.0158
  588TIP3    H2 1729   2.426   5.379   1.455  0.4830 -0.5693 -1.1244
  589TIP3   OH2 1730   6.517   1.380   3.036  0.4446 -0.4387 -0.0599
  589TIP3    H1 1731   6.494   1.287   3.049 -0.7149 -0.1566  0.0638
  589TIP3    H2 1732   6.449   1.413   2.978 -0.6665  0.9318  1.8996
  590TIP3   OH2 1733   0.322   3.318   5.658 -0.1721  0.2760  0.5400
  590TIP3    H1 1734   0.306   3.334   5.751  0.6572 -2.0129  1.1397
  590TIP3    H2 1735   0.382   3.388   5.632 -0.6743  1.1480  1.6039
  591TIP3   OH2 1736   5.143   5.407   1.208 -0.1342 -0.2693 -0.1881
  591TIP3    H1 1737   5.150   5.446   1.121  0.0008  0.3376  0.0911
  591TIP3    H2 1738   5.050   5.413   1.230  0.0827  1.2242  0.4453
  592TIP3   OH2 1739   1.337   4.331   5.521 -0.5580  0.1133  0.4037
  592TIP3    H1 1740   1.250   4.298   5.499  0.7459 -1.8557 -2.3110
  592TIP3    H2 1741   1.388   4.253   5.540  1.3004  0.9585 -0.8189
  593TIP3   OH2 1742   4.827   4.008   3.436  0.4210 -0.2981 -0.6793
  593TIP3    H1 1743   4.824   4.097   3.469 -1.8783 -0.9362  1.0658
  593TIP3    H2 1744   4.814   3.953   3.513  0.5321 -2.1051 -1.8874
  594TIP3   OH2 1745   4.539   5.080   2.513 -0.0642 -0.1484  0.4437
  594TIP3    H1 1746   4.461   5.134   2.495  0.7019  0.7184 -0.4108
  594TIP3    H2 1747   4.511   4.990   2.496 -0.9294  0.1331  0.3372
  595TIP3   OH2 1748   1.871   2.841   2.402  0.2596  0.1204  0.3512
  595TIP3    H1 1749   1.956   2.834   2.360 -0.3016 -2.2166 -0.5091
  595TIP3    H2 1750   1.889   2.886   2.485  1.8753  1.9428 -0.8929
  596TIP3   OH2 1751   6.715   4.958   5.847  0.0518 -0.1651 -0.8013
  596TIP3    H1 1752   6.623   4.961   5.822 -0.1577 -2.4328 -0.5442
  596TIP3    H2 1753   6.714   4.958   5.942  0.1268 -2.1066 -0.7502
  597TIP3   OH2 1754   3.875   3.760   0.829  0.3368 -0.2193  0.1778
  597TIP3    H1 1755   3.824   3.841   0.836 -1.2279 -1.1961  0.7860
  597TIP3    H2 1756   3.883   3.744   0.735  0.0225  0.2543  0.0678
  598TIP3   OH2 1757   1.378   5.713   5.520 -0.1938  0.2481  0.3431
  598TIP3    H1 1758   1.386   5.802   5.487  1.5334 -0.2199 -0.6668
  598TIP3    H2 1759   1.293   5.710   5.564  0.4701  2.8906  2.0148
  599TIP3   OH2 1760   1.521   4.539   0.164 -0.4617 -0.2028  0.8904
  599TIP3    H1 1761   1.510   4.538   0.259 -1.7278 -0.1296  0.7565
  599TIP3    H2 1762   1.442   4.580   0.130  0.1220  0.0894 -0.1923
  600TIP3   OH2 1763   3.189   4.082   0.308  0.3492  0.4268  0.1903
  600TIP3    H1 1764   3.178   3.987   0.301 -2.8060  0.7853 -1.4205
  600TIP3    H2 1765   3.181   4.113   0.218 -0.2090  2.3283  0.8620
  601TIP3   OH2 1766   0.121   2.617   3.598  0.0101  0.3218  0.2244
  601TIP3    H1 1767   0.165   2.627   3.682 -1.6913 -0.6116  1.2857
  601TIP3    H2 1768   0.060   2.691   3.594 -1.9192 -1.1424  1.1703
  602TIP3   OH2 1769   4.646   5.481   3.586  0.1743  0.8289 -0.4345
  602TIP3    H1 1770   4.696   5.418   3.534  0.3440  1.1383 -0.6455
  602TIP3    H2 1771   4.705   5.507   3.656  0.6772  1.9440 -1.2467
  603TIP3   OH2 1772   6.776   5.404   1.373 -0.3553  0.3805  0.4285
  603TIP3    H1 1773   6.821   5.320   1.387  1.0349  1.2601  1.5207
  603TIP3    H2 1774   6.714   5.410   1.446  0.8852  1.1025  1.4880
  604TIP3   OH2 1775   4.077   1.653   1.794  0.6734 -0.0081  0.0960
  604TIP3    H1 1776   4.106   1.603   1.717  0.0845  0.1784 -0.2527
  604TIP3    H2 1777   4.001   1.702   1.763  1.3046  1.2043  0.3920
  605TIP3   OH2 1778   0.389   2.352   3.917 -0.1892  0.0151  0.4305
  605TIP3    H1 1779   0.427   2.277   3.871  0.6018  1.2609 -1.0453
  605TIP3    H2 1780   0.452   2.372   3.987  0.5992  0.4867 -0.3996
  606TIP3   OH2 1781   4.188   2.730   2.000 -0.6439  0.0013 -0.0279
  606TIP3    H1 1782   4.238   2.683   1.933 -0.2872 -0.5789  0.6372
  606TIP3    H2 1783   4.125   2.783   1.950 -0.1334 -0.1361 -0.8299
  607TIP3   OH2 1784   4.473   4.373   4.665  0.0293  0.3484  0.5299
  607TIP3    H1 1785   4.558   4.363   4.708  0.8018  0.6935 -0.8514
  607TIP3    H2 1786   4.495   4.399   4.576 -1.3847 -2.7270 -0.8625
  608TIP3   OH2 1787   5.633   6.137   2.492 -0.1850 -0.0263  0.0108
  608TIP3    H1 1788   5.546   6.171   2.509  0.0631  0.5815  0.0930
  608TIP3    H2 1789   5.692   6.210   2.512  0.3065 -0.2652 -0.5265
  609TIP3   OH2 1790   5.634   1.647   1.034 -0.8179 -0.5359  0.4158
  609TIP3    H1 1791   5.685   1.566   1.038 -0.1672 -0.1418  0.2228
  609TIP3    H2 1792   5.591   1.645   0.948  0.8715  0.2967 -0.4986
  610TIP3   OH2 1793   3.142   2.154   2.402 -0.5772 -0.3591 -0.6280
  610TIP3    H1 1794   3.140   2.250   2.402 -1.0730 -0.3683 -0.8874
  610TIP3    H2 1795   3.058   2.128   2.363 -0.8165 -0.9069  0.2259
  611TIP3   OH2 1796   1.889   0.605   5.599  0.0253  0.1152 -0.0875
  611TIP3    H1 1797   1.827   0.597   5.671  0.6743 -1.4199  0.3463
  611TIP3    H2 1798   1.942   0.525   5.604  3.2453  2.1391  0.6500
  612TIP3   OH2 1799   2.686   3.191   3.534 -0.0984  0.1969  0.1336
  612TIP3    H1 1800   2.690   3.263   3.598  0.1505  1.7621 -1.5453
  612TIP3    H2 1801   2.766   3.201   3.482  1.1680 -2.7923  1.2721
  613TIP3   OH2 1802   3.656   6.692   4.891  0.6800  0.3860 -0.2619
  613TIP3    H1 1803   3.649   6.781   4.926 -0.2702  1.0191 -1.9059
  613TIP3    H2 1804   3.750   6.674   4.888  0.8351  0.7989  1.3110
  614TIP3   OH2 1805   3.527   6.128   1.689  0.3156 -0.2480  0.1274
  614TIP3    H1 1806   3.589   6.164   1.753 -0.5474  0.0811  0.8002
  614TIP3    H2 1807   3.537   6.033   1.696  0.5194 -0.2036  0.4628
  615TIP3   OH2 1808   2.715   4.454   1.347 -0.2348 -0.0279 -0.2999
  615TIP3    H1 1809   2.656   4.416   1.411  0.6999 -0.1927  0.4950
  615TIP3    H2 1810   2.701   4.548   1.354  0.2402 -0.0088  0.5522
  616TIP3   OH2 1811   4.623   3.900   5.088 -0.2521 -0.1361  0.0990
  616TIP3    H1 1812   4.705   3.864   5.053  0.3044 -0.0598  1.2684
  616TIP3    H2 1813   4.593   3.960   5.020  0.9733  0.2842 -0.1074
  617TIP3   OH2 1814   3.287   3.886   1.329  0.8399 -0.3867  0.2410
  617TIP3    H1 1815   3.298   3.895   1.234  1.4699  0.0384  0.3444
  617TIP3    H2 1816   3.375   3.867   1.361  0.9382  1.0834  0.9127
  618TIP3   OH2 1817   1.726   5.229   0.850  0.2780  0.2288 -0.0049
  618TIP3    H1 1818   1.779   5.269   0.781  0.6521 -1.0037 -0.4660
  618TIP3    H2 1819   1.636   5.233   0.817  0.4732 -0.4877 -0.6485
  619TIP3   OH2 1820   0.725   2.310   3.410 -0.1508  0.3958 -0.0548
  619TIP3    H1 1821   0.724   2.219   3.380 -1.9119  0.5035 -0.4300
  619TIP3    H2 1822   0.632   2.334   3.417  0.2807  2.1005  0.2551
  620TIP3   OH2 1823   3.324   2.939   4.324 -0.5706 -0.1899  0.1189
  620TIP3    H1 1824   3.386   2.990   4.271  0.7731 -0.7387  1.0947
  620TIP3    H2 1825   3.380   2.880   4.374 -1.7410  0.6789  2.5756
  621TIP3   OH2 1826   4.987   4.797   1.081  0.3382  0.5331 -0.0572
  621TIP3    H1 1827   5.066   4.850   1.070 -0.6523  2.1701  0.2911
  621TIP3    H2 1828   4.921   4.860   1.109 -1.0518 -0.8305 -0.1805
  622TIP3   OH2 1829   3.103   6.753   5.005  0.0323  0.0456 -0.2650
  622TIP3    H1 1830   3.112   6.848   5.011  0.2474  0.2645 -2.7351
  622TIP3    H2 1831   3.131   6.732   4.916  1.8216 -2.6009  0.7850
  623TIP3   OH2 1832   0.619   3.898   4.037 -0.7635  0.3008  0.0810
  623TIP3    H1 1833   0.572   3.979   4.013 -1.0903  0.0408 -0.1652
  623TIP3    H2 1834   0.639   3.909   4.130 -2.8774 -0.3407  0.6572
  624TIP3   OH2 1835   3.272   3.395   5.201 -0.3018 -0.2421 -0.1264
  624TIP3    H1 1836   3.291   3.445   5.280  0.6735 -0.5464 -0.1629
  624TIP3    H2 1837   3.249   3.308   5.232 -5.0011  0.8365  0.1931
  625TIP3   OH2 1838   3.113   5.680   5.678  0.7740 -0.1512  0.3356
  625TIP3    H1 1839   3.055   5.717   5.612  0.4451  0.2596  0.8415
  625TIP3    H2 1840   3.124   5.750   5.742 -0.8828 -1.2876  1.9843
  626TIP3   OH2 1841   0.966   5.347   1.601  0.4793  0.8279  0.6704
  626TIP3    H1 1842   1.049   5.385   1.627  1.6771 -0.0018 -1.6796
  626TIP3    H2 1843   0.912   5.350   1.681  2.3742  2.3013  1.9806
  627TIP3   OH2 1844   1.233   1.458   3.171  0.6653  0.1575 -0.2359
  627TIP3    H1 1845   1.281   1.529   3.215  0.7640 -0.8988  1.4495
  627TIP3    H2 1846   1.251   1.471   3.078  2.6626  0.9319  0.2020
  628TIP3   OH2 1847   0.771   3.298   5.442  0.3493 -0.0660  0.2053
  628TIP3    H1 1848   0.730   3.360   5.502  0.4496 -0.4025  0.6273
  628TIP3    H2 1849   0.701   3.237   5.420  0.0956  0.5252 -0.6685
  629TIP3   OH2 1850   4.582   6.303   3.466 -0.3216 -0.9473  0.0307
  629TIP3    H1 1851   4.556   6.363   3.536  0.1324 -0.2880 -0.3598
  629TIP3    H2 1852   4.592   6.358   3.389  2.0533 -1.1495  0.1101
  630TIP3   OH2 1853   5.691   3.330   0.048 -0.0474 -0.2248 -0.3401
  630TIP3    H1 1854   5.665   3.417   0.078 -1.4483 -0.6017 -0.4221
  630TIP3    H2 1855   5.764   3.307   0.106  0.8438  1.2874 -0.8036
  631TIP3   OH2 1856   0.963   4.698   4.734 -0.1610  0.1211 -0.6489
  631TIP3    H1 1857   1.032   4.645   4.773  0.6699  0.2362 -1.9179
  631TIP3    H2 1858   0.907   4.635   4.689 -0.0276  0.1779 -0.8928
  632TIP3   OH2 1859   5.525   1.345   4.812  0.3730  0.0253 -0.1996
  632TIP3    H1 1860   5.518   1.263   4.763  1.0133  1.2435 -2.4659
  632TIP3    H2 1861   5.442   1.390   4.796  1.4520  1.4338 -2.1724
  633TIP3   OH2 1862   4.529   1.357   4.445  0.1534 -0.0699 -0.5295
  633TIP3    H1 1863   4.503   1.289   4.382  0.3087  0.8994 -1.6813
  633TIP3    H2 1864   4.620   1.336   4.466  0.0188 -0.5513 -0.4225
  634TIP3   OH2 1865   0.652   4.527   3.910 -0.3325  0.0532  0.3059
  634TIP3    H1 1866   0.599   4.469   3.855  0.8068 -1.7137  0.9568
  634TIP3    H2 1867   0.741   4.518   3.875 -0.2246  2.0649 -0.0598
  635TIP3   OH2 1868   5.233   4.879   2.782  0.5560 -0.3288 -0.1379
  635TIP3    H1 1869   5.277   4.950   2.829  0.3935 -0.2310 -0.1299
  635TIP3    H2 1870   5.156   4.921   2.743  1.2434 -0.1774 -1.3649
  636TIP3   OH2 1871   1.818   4.066   3.395 -0.4730  0.1355  0.0209
  636TIP3    H1 1872   1.745   4.041   3.452  1.1434 -0.1438  2.0843
  636TIP3    H2 1873   1.851   4.148   3.432  1.2434 -0.5662  0.1229
  637TIP3   OH2 1874   1.118   3.693   1.525  0.5578  0.5288  0.1490
  637TIP3    H1 1875   1.062   3.630   1.570 -1.4013  1.3430 -1.0145
  637TIP3    H2 1876   1.093   3.685   1.433  1.1479  2.1088 -0.1741
  638TIP3   OH2 1877   0.357   0.230   2.623  0.1540  0.0186  0.0546
  638TIP3    H1 1878   0.376   0.275   2.541  1.0443  0.2730  0.3952
  638TIP3    H2 1879   0.436   0.181   2.644  0.4777  1.0764  1.4718
  639TIP3   OH2 1880   4.224   3.909   1.449 -0.1123 -0.3138  0.0878
  639TIP3    H1 1881   4.155   3.922   1.385 -0.7907 -0.6407  0.7425
  639TIP3    H2 1882   4.282   3.984   1.438 -1.9321  1.3688  1.2728
  640TIP3   OH2 1883   0.190   2.910   0.342 -0.5113  0.1328 -0.2824
  640TIP3    H1 1884   0.187   2.852   0.266  2.0287 -2.1344  1.1893
  640TIP3    H2 1885   0.231   2.990   0.310 -0.4410 -0.3745 -1.5145
  641TIP3   OH2 1886   2.309   4.519   1.627 -0.4364  0.4734  0.1769
  641TIP3    H1 1887   2.287   4.426   1.614 -0.3230  0.2419  1.5155
  641TIP3    H2 1888   2.229   4.558   1.660 -0.8351  1.1384 -1.4559
  642TIP3   OH2 1889   3.618   5.334   5.075 -0.5883 -0.4759  0.2450
  642TIP3    H1 1890   3.605   5.274   5.148 -1.5443 -1.1008 -0.4070
  642TIP3    H2 1891   3.570   5.294   5.003 -1.2978  1.1096 -0.1977
  643TIP3   OH2 1892   1.707   1.048   1.127  0.2066  0.2704  0.1378
  643TIP3    H1 1893   1.633   1.093   1.167 -0.3168  1.6065 -2.1325
  643TIP3    H2 1894   1.674   1.018   1.042  1.3208 -2.1834  0.4894
  644TIP3   OH2 1895   2.165   4.377   5.649 -0.0718 -0.7555  0.0139
  644TIP3    H1 1896   2.219   4.397   5.573 -0.0029 -0.8722  0.0336
  644TIP3    H2 1897   2.079   4.412   5.626 -1.1143 -4.0310 -1.7083
  645TIP3   OH2 1898   5.439   5.580   4.058 -0.4770 -0.1938  0.8193
  645TIP3    H1 1899   5.512   5.599   4.117 -0.9904  1.3820  0.9847
  645TIP3    H2 1900   5.472   5.605   3.971 -0.0471 -1.6368  0.5414
  646TIP3   OH2 1901   4.251   2.581   3.597 -0.2720 -0.0727 -0.2912
  646TIP3    H1 1902   4.165   2.557   3.632 -0.4159  0.1559 -0.4871
  646TIP3    H2 1903   4.311   2.516   3.634 -0.2021  0.9330  1.4265
  647TIP3   OH2 1904   5.922   3.890   1.879 -0.3497  0.4121 -0.5850
  647TIP3    H1 1905   5.948   3.831   1.950 -2.6289  0.2903  0.2618
  647TIP3    H2 1906   5.843   3.849   1.843 -0.9057  1.9835 -1.2277
  648TIP3   OH2 1907   4.447   2.326   0.548 -0.5314 -0.5598  0.2715
  648TIP3    H1 1908   4.489   2.241   0.561 -0.5593 -0.4448  1.2384
  648TIP3    H2 1909   4.461   2.373   0.631 -0.0063  0.6087 -0.4463
  649TIP3   OH2 1910   0.350   1.984   2.892 -0.4728  0.5225  0.1790
  649TIP3    H1 1911   0.391   2.002   2.977  1.3606  2.2043 -0.9708
  649TIP3    H2 1912   0.419   1.940   2.842 -0.7867  1.4200 -1.0881
  650TIP3   OH2 1913   3.827   5.258   3.359  0.3589  0.1411  0.0666
  650TIP3    H1 1914   3.774   5.318   3.412  2.0035  2.3714 -0.6560
  650TIP3    H2 1915   3.870   5.315   3.295  2.6601 -1.7329 -0.1712
  651TIP3   OH2 1916   5.072   3.511   4.007 -0.3665  0.0249  0.2514
  651TIP3    H1 1917   5.015   3.435   4.007  1.4928 -1.6610 -3.4439
  651TIP3    H2 1918   5.013   3.586   3.997 -2.0924 -1.5283 -2.1342
  652TIP3   OH2 1919   0.878   5.031   2.145  0.5162 -0.0946 -0.1123
  652TIP3    H1 1920   0.955   4.974   2.143  1.2882  0.9289 -1.3637
  652TIP3    H2 1921   0.862   5.053   2.053  0.3403  1.8134  0.3334
  653TIP3   OH2 1922   3.344   3.145   1.945  0.2184  0.1746 -0.5995
  653TIP3    H1 1923   3.291   3.161   2.023  2.6110 -0.2114  1.2181
  653TIP3    H2 1924   3.296   3.189   1.874 -2.3317  0.0517  0.9218
  654TIP3   OH2 1925   4.071   5.990   3.787  0.0356  0.5492  0.4299
  654TIP3    H1 1926   4.100   5.899   3.792 -1.7849 -0.1117 -0.1533
  654TIP3    H2 1927   4.022   6.005   3.868 -1.8003  0.1618 -0.5463
  655TIP3   OH2 1928   4.904   2.180   4.470 -0.2584  0.0283  0.2696
  655TIP3    H1 1929   4.986   2.231   4.474  0.0446 -0.2851 -1.3028
  655TIP3    H2 1930   4.912   2.128   4.390 -0.6725 -2.3368  1.6725
  656TIP3   OH2 1931   5.199   0.775   5.640  0.1383  0.1282  0.1869
  656TIP3    H1 1932   5.108   0.783   5.613  0.3419 -0.5611 -0.7449
  656TIP3    H2 1933   5.249   0.790   5.560  0.8561  0.6485  0.7196
  657TIP3   OH2 1934   0.756   1.273   3.101  0.5090  0.0467  0.7851
  657TIP3    H1 1935   0.732   1.219   3.176  1.1713 -2.0930 -0.4531
  657TIP3    H2 1936   0.849   1.293   3.115  1.0355 -1.5535 -0.0584
  658TIP3   OH2 1937   4.817   4.536   5.386 -0.1665  0.0316 -0.1615
  658TIP3    H1 1938   4.824   4.598   5.458 -0.4331 -1.8858  1.5883
  658TIP3    H2 1939   4.733   4.556   5.344 -0.2433  0.8327  0.3608
  659TIP3   OH2 1940   2.477   0.658   2.757 -0.0455  0.8422  0.4922
  659TIP3    H1 1941   2.560   0.695   2.788  0.5766  1.4516 -1.7158
  659TIP3    H2 1942   2.461   0.702   2.674 -1.3584 -0.9914 -0.2935
  660TIP3   OH2 1943   2.388   1.327   1.136  0.1995  0.0233 -0.1570
  660TIP3    H1 1944   2.470   1.351   1.180 -0.6402  2.3178  0.3175
  660TIP3    H2 1945   2.395   1.369   1.050  0.3672 -1.5344 -0.9283
  661TIP3   OH2 1946   1.950   0.629   0.078  0.2141 -0.2538 -0.2553
  661TIP3    H1 1947   1.953   0.601   0.170  0.0068 -1.3561 -0.5616
  661TIP3    H2 1948   2.041   0.636   0.051  0.3394  2.1377  0.5975
  662TIP3   OH2 1949   3.444   0.569   0.464  0.9662  0.0901 -0.5162
  662TIP3    H1 1950   3.392   0.497   0.500 -1.6344  0.0914 -3.7302
  662TIP3    H2 1951   3.511   0.526   0.411 -0.6115 -0.1198 -2.4673
  663TIP3   OH2 1952   4.064   2.996   4.700 -0.1164 -0.2807  0.1882
  663TIP3    H1 1953   4.012   3.036   4.769  0.0713 -1.7284  1.2028
  663TIP3    H2 1954   4.126   3.064   4.674 -1.2988  0.8503  0.2246
  664TIP3   OH2 1955   2.411   5.733   1.610  0.2439  0.2519 -0.1928
  664TIP3    H1 1956   2.349   5.671   1.649  1.2061  0.7160  2.2633
  664TIP3    H2 1957   2.376   5.751   1.523 -2.9136  0.2934  0.9606
  665TIP3   OH2 1958   1.006   0.733   5.030  0.5490  0.4398  0.0140
  665TIP3    H1 1959   0.962   0.664   5.080 -0.4815 -0.3121 -1.8605
  665TIP3    H2 1960   0.936   0.777   4.982  1.5040  1.1912 -0.7370
  666TIP3   OH2 1961   1.218   5.298   4.209 -0.0077  0.0828  0.1227
  666TIP3    H1 1962   1.168   5.223   4.178  2.0931 -0.6763 -1.6490
  666TIP3    H2 1963   1.169   5.374   4.176  0.1874 -0.6451 -1.9696
  667TIP3   OH2 1964   5.900   3.114   5.576 -0.1377  0.1891 -0.7033
  667TIP3    H1 1965   5.851   3.166   5.513  1.0545  1.4709 -0.6244
  667TIP3    H2 1966   5.910   3.172   5.652  0.4158 -0.5026 -0.2344
  668TIP3   OH2 1967   4.551   0.019   2.112 -0.6171 -0.0684  0.1289
  668TIP3    H1 1968   4.638  -0.020   2.116 -0.4166  0.0405 -1.9005
  668TIP3    H2 1969   4.522   0.024   2.203  1.6910  0.3664  0.8972
  669TIP3   OH2 1970   4.541   5.403   1.080  0.1495 -0.2713  0.1778
  669TIP3    H1 1971   4.482   5.444   1.016  0.7601  0.6802  0.2060
  669TIP3    H2 1972   4.513   5.438   1.164  0.0870 -0.6333  0.3079
  670TIP3   OH2 1973   6.751   6.213   3.203 -0.6739  0.5405 -0.2684
  670TIP3    H1 1974   6.814   6.257   3.260 -0.0956  1.9996 -1.9724
  670TIP3    H2 1975   6.701   6.156   3.263 -0.0558  1.9332  1.6718
  671TIP3   OH2 1976   6.965   6.540   0.885  0.6956 -0.1535  0.3032
  671TIP3    H1 1977   6.995   6.559   0.974  0.1046 -0.0018  0.4738
  671TIP3    H2 1978   6.920   6.619   0.857  0.1693 -0.4891  0.1790
  672TIP3   OH2 1979   1.195   5.493   3.449  0.5265 -0.2595 -0.4644
  672TIP3    H1 1980   1.212   5.571   3.397  0.3278 -1.7145 -2.8396
  672TIP3    H2 1981   1.224   5.516   3.537 -0.4426  2.8024 -0.8435
  673TIP3   OH2 1982   5.226   4.760   4.900  0.4669 -0.2653 -0.1641
  673TIP3    H1 1983   5.308   4.809   4.913  0.3158  0.0764 -0.4689
  673TIP3    H2 1984   5.166   4.797   4.964  0.6077 -0.6613  0.2038
  674TIP3   OH2 1985   1.196   4.977   0.664  0.2015 -0.3028 -0.0168
  674TIP3    H1 1986   1.156   4.957   0.580 -0.7429  2.1466 -0.2491
  674TIP3    H2 1987   1.282   4.936   0.661  0.2103 -0.2036 -2.2102
  675TIP3   OH2 1988   2.828   6.707   1.838 -0.4627  0.2781 -0.2008
  675TIP3    H1 1989   2.873   6.786   1.807  0.4956 -0.7260 -1.4762
  675TIP3    H2 1990   2.785   6.671   1.760 -0.1265 -0.9427  0.1507
  676TIP3   OH2 1991   3.764   3.698   1.293  0.0577 -0.2570  0.5640
  676TIP3    H1 1992   3.831   3.766   1.293  1.7666 -1.7699 -1.5585
  676TIP3    H2 1993   3.773   3.657   1.207 -0.7459 -3.2723  1.7983
  677TIP3   OH2 1994   2.349   2.746   3.192 -0.5200 -0.1783  0.3771
  677TIP3    H1 1995   2.313   2.696   3.119 -0.7312  1.0345 -0.3769
  677TIP3    H2 1996   2.425   2.791   3.156  0.2972 -0.7443  1.3148
  678TIP3   OH2 1997   5.162   0.100   2.836 -0.1990 -0.7005  0.0990
  678TIP3    H1 1998   5.132   0.189   2.857  0.3801 -0.3011 -0.7019
  678TIP3    H2 1999   5.128   0.046   2.907 -1.0510  0.0679  0.3027
  679TIP3   OH2 2000   4.054   1.002   0.704  0.3907  0.5937 -0.8912
  679TIP3    H1 2001   4.124   1.067   0.713 -1.4205  2.6714 -0.9584
  679TIP3    H2 2002   4.015   0.996   0.791 -0.0097  0.2480 -1.0888
  680TIP3   OH2 2003   5.319   0.985   3.740 -0.1390  0.6254 -0.3188
  680TIP3    H1 2004   5.358   1.039   3.670  0.8546  1.9678  1.2034
  680TIP3    H2 2005   5.252   0.933   3.695  0.2088  1.6958 -2.2077
  681TIP3   OH2 2006   0.654   4.499   0.978  0.0479 -0.5366 -0.0948
  681TIP3    H1 2007   0.646   4.500   1.073 -1.7180 -1.2799 -0.2104
  681TIP3    H2 2008   0.738   4.455   0.962  0.4307 -0.2787  1.1056
  682TIP3   OH2 2009   5.405   0.854   1.532  0.0470 -0.3549 -0.7089
  682TIP3    H1 2010   5.353   0.795   1.587  0.0152  1.0828  0.8797
  682TIP3    H2 2011   5.495   0.841   1.561 -0.2363  2.5720  2.0030
  683TIP3   OH2 2012   4.541   3.970   0.900  0.5350  0.0013 -0.0773
  683TIP3    H1 2013   4.528   4.000   0.990  0.6731  0.3274 -0.1667
  683TIP3    H2 2014   4.491   3.888   0.895 -1.0781  0.9546 -0.2567
  684TIP3   OH2 2015   1.389   3.735   1.641 -0.1911  0.6354 -0.1871
  684TIP3    H1 2016   1.299   3.705   1.628 -0.5715  1.7991 -0.3757
  684TIP3    H2 2017   1.441   3.678   1.585 -0.9013  0.4319 -0.6598
  685TIP3   OH2 2018   1.143   6.574   0.215  0.3896  0.0391 -0.4212
  685TIP3    H1 2019   1.048   6.575   0.227  0.2915 -0.8256 -1.0363
  685TIP3    H2 2020   1.171   6.496   0.262  0.7107 -0.1009 -0.8466
  686TIP3   OH2 2021   4.157   1.878   3.461  0.0978 -0.5689  0.0578
  686TIP3    H1 2022   4.207   1.892   3.541 -0.0728 -0.6986  0.1885
  686TIP3    H2 2023   4.112   1.962   3.446  0.2672 -0.4881  0.0008
  687TIP3   OH2 2024   2.033   5.343   1.983  0.4345  0.0509  0.5446
  687TIP3    H1 2025   2.015   5.363   1.891 -1.8872 -0.1072  0.9005
  687TIP3    H2 2026   2.057   5.250   1.982 -1.2236 -0.3986  0.2526
  688TIP3   OH2 2027   6.073   5.051   0.063  0.0640 -0.2127  0.5631
  688TIP3    H1 2028   6.004   5.018   0.005  0.8948  0.8268 -1.1303
  688TIP3    H2 2029   6.045   5.141   0.083  1.0584  0.3552 -0.4624
  689TIP3   OH2 2030   1.127   1.545   2.179 -0.2114 -0.0546 -0.5122
  689TIP3    H1 2031   1.218   1.575   2.181 -0.3788  0.6850 -2.1015
  689TIP3    H2 2032   1.133   1.450   2.182  0.6104 -0.0045 -0.3313
  690TIP3   OH2 2033   5.404   5.850   5.597  0.2021  0.0156 -0.5594
  690TIP3    H1 2034   5.415   5.941   5.568 -2.5955  0.2526 -1.1266
  690TIP3    H2 2035   5.393   5.801   5.516 -4.7783  0.2514 -0.2847
  691TIP3   OH2 2036   3.198   2.486   3.392 -0.3591  0.3359  0.4341
  691TIP3    H1 2037   3.184   2.578   3.417  0.0244  0.5670 -0.1789
  691TIP3    H2 2038   3.227   2.491   3.301 -2.6710 -0.5273 -0.4182
  692TIP3   OH2 2039   3.004   5.006   3.509 -0.2070 -0.3045 -0.2287
  692TIP3    H1 2040   2.948   5.077   3.541 -0.1831  0.0171 -0.8964
  692TIP3    H2 2041   3.016   5.024   3.416  0.5429 -0.6863 -0.2157
  693TIP3   OH2 2042   3.313   4.850   1.374  0.0229  0.3795  0.1540
  693TIP3    H1 2043   3.307   4.899   1.292  0.8906  0.7490  0.2950
  693TIP3    H2 2044   3.353   4.766   1.349 -1.6418 -0.3645 -0.1184
  694TIP3   OH2 2045   5.201   4.977   2.090  0.1550 -0.3509 -0.1504
  694TIP3    H1 2046   5.106   4.976   2.081  0.2274  1.7399 -2.1960
  694TIP3    H2 2047   5.233   4.942   2.006  1.1902 -0.8963  0.4537
  695TIP3   OH2 2048   6.237   2.096   5.579  0.0356  0.0478  0.0699
  695TIP3    H1 2049   6.187   2.097   5.661 -1.5581  0.4193 -0.8496
  695TIP3    H2 2050   6.223   2.183   5.542 -1.0127 -0.7679 -1.5661
  696TIP3   OH2 2051   2.528   4.702   0.877  0.4931 -0.4833 -0.4172
  696TIP3    H1 2052   2.455   4.641   0.864 -0.8274  1.1328 -0.8376
  696TIP3    H2 2053   2.533   4.750   0.795  0.2467  1.2710  0.5580
  697TIP3   OH2 2054   2.171   2.153   1.766  0.1887  0.5423  0.1954
  697TIP3    H1 2055   2.084   2.113   1.756  0.6258 -2.4027  4.9718
  697TIP3    H2 2056   2.158   2.223   1.831  1.0777  1.8002 -0.9256
  698TIP3   OH2 2057   0.627   6.638   0.633 -0.5900  0.3133  0.4966
  698TIP3    H1 2058   0.636   6.565   0.571  0.2654  0.0183  0.9524
  698TIP3    H2 2059   0.542   6.625   0.674 -1.7390  1.1970 -1.4669
  699TIP3   OH2 2060   1.244   5.294   2.347  0.2094 -0.2747 -0.2872
  699TIP3    H1 2061   1.185   5.224   2.377 -0.0458  0.4373  0.9464
  699TIP3    H2 2062   1.254   5.350   2.423  1.3783  0.3870 -0.9135
  700TIP3   OH2 2063   3.681   3.044   1.419 -0.0094 -0.9287  0.1908
  700TIP3    H1 2064   3.651   3.119   1.471 -1.2301 -1.4949  0.3388
  700TIP3    H2 2065   3.607   2.983   1.420  0.7139 -1.8450 -0.4968
  701TIP3   OH2 2066   6.210   2.357   1.133 -0.6737  0.0742  0.1532
  701TIP3    H1 2067   6.247   2.279   1.091 -1.8058 -0.4236  0.0433
  701TIP3    H2 2068   6.206   2.422   1.062  0.4349  0.3112  0.2874
  702TIP3   OH2 2069   5.146   0.069   1.482 -0.2006 -0.0580  0.1668
  702TIP3    H1 2070   5.221   0.127   1.474  0.3946 -0.8974 -0.5071
  702TIP3    H2 2071   5.092   0.108   1.551  0.2747  1.1778 -0.1435
  703TIP3   OH2 2072   5.075   6.102   1.730  0.3070  0.0734 -0.3714
  703TIP3    H1 2073   5.039   6.014   1.735  2.1776 -0.6744  2.4473
  703TIP3    H2 2074   5.125   6.103   1.647 -1.3688 -0.7472 -1.4406
  704TIP3   OH2 2075   2.276   3.699   0.817 -0.0990  0.7818 -0.1272
  704TIP3    H1 2076   2.359   3.662   0.847  1.0832  2.1918 -1.5445
  704TIP3    H2 2077   2.223   3.622   0.796  0.7426 -0.1481  1.0076
  705TIP3   OH2 2078   3.972   6.454   4.690  0.4636 -0.3153 -0.8733
  705TIP3    H1 2079   3.921   6.375   4.712  1.7337 -0.7339  0.7810
  705TIP3    H2 2080   3.980   6.500   4.773  1.6929  0.3873 -1.3699
  706TIP3   OH2 2081   3.081   4.867   2.145 -0.4016  0.8231 -0.0883
  706TIP3    H1 2082   3.175   4.863   2.165 -0.7888  0.4792  1.8189
  706TIP3    H2 2083   3.047   4.782   2.174 -1.2109  0.6346 -1.4885
  707TIP3   OH2 2084   2.200   2.297   0.996 -0.1217  0.2022 -0.1125
  707TIP3    H1 2085   2.195   2.282   0.901 -2.6749  0.5505 -0.1047
  707TIP3    H2 2086   2.241   2.217   1.030  0.6343 -0.0283 -1.4596
  708TIP3   OH2 2087   2.420   4.395   3.911  0.0769  0.0114  0.3109
  708TIP3    H1 2088   2.463   4.475   3.942  0.2213  0.0018  0.1377
  708TIP3    H2 2089   2.429   4.333   3.983  0.5800 -0.0732  0.1760
  709TIP3   OH2 2090   5.263   2.460   4.741  0.4771 -0.1194 -0.1426
  709TIP3    H1 2091   5.289   2.464   4.649  0.6418  0.6178 -0.0721
  709TIP3    H2 2092   5.210   2.381   4.748 -2.0601  1.3591 -1.5307
  710TIP3   OH2 2093   4.679   5.153   2.960 -0.4505 -0.0164 -0.0158
  710TIP3    H1 2094   4.721   5.230   2.922 -0.2281  0.3866  0.9944
  710TIP3    H2 2095   4.595   5.185   2.993 -0.7061 -0.3857 -0.3061
  711TIP3   OH2 2096   5.700   3.294   3.645  0.7757 -0.1054  0.0744
  711TIP3    H1 2097   5.678   3.381   3.611  1.9163  0.0178 -0.4142
  711TIP3    H2 2098   5.633   3.236   3.610  0.0277  0.5633  0.3698
  712TIP3   OH2 2099   3.615   1.646   3.359 -0.1610  0.0735 -0.1230
  712TIP3    H1 2100   3.577   1.632   3.445 -2.5894 -0.3220 -1.1648
  712TIP3    H2 2101   3.644   1.559   3.330  0.9268  0.2538  0.3718
  713TIP3   OH2 2102   3.226   2.172   0.084  0.4570 -0.4986  0.4906
  713TIP3    H1 2103   3.174   2.125   0.019  1.7609 -0.9461 -0.2661
  713TIP3    H2 2104   3.247   2.255   0.041  0.7009 -0.4833  0.6433
  714TIP3   OH2 2105   6.007   2.047   0.199 -0.2143  0.5212  0.2915
  714TIP3    H1 2106   5.940   2.093   0.249 -2.4772 -0.3545 -1.7643
  714TIP3    H2 2107   6.062   2.117   0.163 -1.1113  1.3663  0.5392
  715TIP3   OH2 2108   2.851   6.285   2.587 -0.2082  0.4390  0.6558
  715TIP3    H1 2109   2.824   6.371   2.619 -0.2500  0.1976  1.2894
  715TIP3    H2 2110   2.887   6.241   2.664 -1.7734 -0.7526  0.7705
  716TIP3   OH2 2111   4.252   0.295   5.794  0.0102  0.0527  0.1324
  716TIP3    H1 2112   4.338   0.320   5.829 -0.0915  0.9998 -0.2610
  716TIP3    H2 2113   4.262   0.204   5.768  0.9568  0.2116 -0.0815
  717TIP3   OH2 2114   2.335   4.636   4.504  0.1448  0.4386 -0.0476
  717TIP3    H1 2115   2.310   4.727   4.515  0.6337  0.5256  0.3739
  717TIP3    H2 2116   2.351   4.604   4.593  0.6396  0.1343 -0.2404
  718TIP3   OH2 2117   5.798   0.570   1.372 -0.2259  0.3145  0.2882
  718TIP3    H1 2118   5.892   0.577   1.357 -0.5073  0.2049 -1.8045
  718TIP3    H2 2119   5.777   0.478   1.352 -0.7283  0.2060  1.2275
  719TIP3   OH2 2120   2.211   4.330   2.216  0.4147  0.0195  0.0444
  719TIP3    H1 2121   2.260   4.385   2.277  0.2023  1.9787 -1.4769
  719TIP3    H2 2122   2.120   4.337   2.245  0.3175  0.9286 -0.4580
  720TIP3   OH2 2123   7.176   0.503   2.358 -0.0098  0.1458  0.6753
  720TIP3    H1 2124   7.216   0.556   2.426  1.5604  0.5214 -0.5045
  720TIP3    H2 2125   7.189   0.552   2.277 -0.4722 -1.0110 -0.1323
  721TIP3   OH2 2126   3.484   5.280   2.600  0.2498 -0.1095 -0.6185
  721TIP3    H1 2127   3.494   5.232   2.518 -2.0010 -1.5585 -0.1183
  721TIP3    H2 2128   3.436   5.221   2.658  0.3121  1.4989  1.2044
  722TIP3   OH2 2129   2.098   6.690   2.905 -0.8899  0.4025  0.3413
  722TIP3    H1 2130   2.013   6.657   2.878 -1.3881  1.8468  0.0482
  722TIP3    H2 2131   2.090   6.785   2.900  0.4944  0.5942  1.0732
  723TIP3   OH2 2132   5.528   0.929   2.826 -0.4512 -0.3950  0.3247
  723TIP3    H1 2133   5.468   0.886   2.765  0.5223  0.2137 -1.1172
  723TIP3    H2 2134   5.510   1.022   2.816  0.7166 -0.1966 -0.1651
  724TIP3   OH2 2135   6.807   0.684   2.218  1.1969 -0.7812  0.0668
  724TIP3    H1 2136   6.758   0.766   2.228  0.7115 -0.9189 -1.0479
  724TIP3    H2 2137   6.814   0.650   2.308 -0.6252 -0.6700  0.3015
  725TIP3   OH2 2138   6.278   4.248   0.656  0.0549 -0.1119 -0.2241
  725TIP3    H1 2139   6.252   4.282   0.570 -3.4561 -0.7164  0.4428
  725TIP3    H2 2140   6.298   4.325   0.708 -2.0427  0.5943 -0.4024
  726TIP3   OH2 2141   3.168   3.720   0.968 -0.0824 -0.0180  0.0136
  726TIP3    H1 2142   3.165   3.814   0.982 -0.7785 -0.2056  1.3929
  726TIP3    H2 2143   3.083   3.699   0.929 -0.3007 -0.1665  0.5495
  727TIP3   OH2 2144   0.138   0.222   0.148 -0.3036 -0.4747  0.1971
  727TIP3    H1 2145   0.173   0.310   0.134  1.0698 -1.0972 -0.4628
  727TIP3    H2 2146   0.043   0.232   0.136 -0.0784  0.7507 -0.8110
  728TIP3   OH2 2147   1.425   2.441   3.489 -0.4691 -0.0234  0.0403
  728TIP3    H1 2148   1.460   2.451   3.400  0.1435  0.5447  0.3428
  728TIP3    H2 2149   1.443   2.349   3.511  0.7506  0.2319  0.1527
  729TIP3   OH2 2150   2.015   6.558   0.298  0.0325 -0.7802 -0.4162
  729TIP3    H1 2151   2.013   6.463   0.309 -0.1417 -0.8436 -0.9595
  729TIP3    H2 2152   1.924   6.585   0.307 -0.0713 -0.7973 -1.3203
  730TIP3   OH2 2153   3.715   3.497   1.459 -0.4088 -0.2672  0.5800
  730TIP3    H1 2154   3.742   3.562   1.394  1.5428 -1.2813  0.3297
  730TIP3    H2 2155   3.793   3.446   1.477 -1.5446 -1.6633  1.8372
  731TIP3   OH2 2156   7.024   2.648   4.047  0.5520  0.4829  0.1790
  731TIP3    H1 2157   6.948   2.702   4.067  0.2719  0.1609 -0.0207
  731TIP3    H2 2158   7.057   2.621   4.133  0.4250  0.5966  0.2642
  732TIP3   OH2 2159   4.720   3.027   4.198 -0.0502 -0.0737  0.1610
  732TIP3    H1 2160   4.682   2.994   4.279 -0.3393 -1.2722 -0.4419
  732TIP3    H2 2161   4.761   2.951   4.158 -1.5845  0.0488 -1.7648
  733TIP3   OH2 2162   7.087   1.682   2.569  0.1915  0.4963  0.2346
  733TIP3    H1 2163   7.013   1.691   2.630  0.1497  1.0743  0.1064
  733TIP3    H2 2164   7.136   1.764   2.579  0.7767  0.1473  0.2639
  734TIP3   OH2 2165   0.990   0.101   1.584 -0.2292 -0.3602 -0.0151
  734TIP3    H1 2166   1.023   0.150   1.659  1.7010  1.8539 -2.1446
  734TIP3    H2 2167   0.896   0.119   1.583 -0.0041  1.0014  0.8562
  735TIP3   OH2 2168   1.401   2.899   3.234 -0.9715  0.6985  0.2755
  735TIP3    H1 2169   1.485   2.864   3.202 -0.4673  0.6643  1.5751
  735TIP3    H2 2170   1.400   2.990   3.204 -0.4001  0.7406  0.3693
  736TIP3   OH2 2171   1.443   4.745   1.588  0.4091 -0.0932 -0.2143
  736TIP3    H1 2172   1.455   4.651   1.576  0.8522  0.0034 -0.5957
  736TIP3    H2 2173   1.505   4.768   1.658 -0.3609 -0.2361  0.5199
  737TIP3   OH2 2174   5.841   5.911   3.429 -0.2065 -0.3529 -0.7210
  737TIP3    H1 2175   5.933   5.938   3.420 -1.0070  3.2333  0.2410
  737TIP3    H2 2176   5.827   5.907   3.523 -1.7856  2.8432 -0.6606
  738TIP3   OH2 2177   0.694   5.325   2.812 -0.1486 -0.5897 -0.0881
  738TIP3    H1 2178   0.780   5.286   2.828  0.8780  1.4427 -0.3754
  738TIP3    H2 2179   0.634   5.276   2.869  1.3295 -1.4813  0.7442
  739TIP3   OH2 2180   1.887   6.762   2.743  0.2827  0.0179 -0.1260
  739TIP3    H1 2181   1.840   6.680   2.728  1.3135 -0.5292 -0.4819
  739TIP3    H2 2182   1.967   6.754   2.691 -0.3231  1.9210 -1.4648
  740TIP3   OH2 2183   6.248   2.646   4.636  0.2052  0.1951  0.3889
  740TIP3    H1 2184   6.194   2.719   4.603 -0.7996 -1.2120 -1.2986
  740TIP3    H2 2185   6.297   2.616   4.559  0.7406 -0.7924  1.0891
  741TIP3   OH2 2186   3.006   0.628   5.003 -0.5654  0.2441  0.2110
  741TIP3    H1 2187   3.038   0.658   4.918 -0.5911  0.4608  0.2770
  741TIP3    H2 2188   2.967   0.706   5.043  0.1553  0.3400  0.7499
  742TIP3   OH2 2189   5.404   2.457   1.379  0.3553  0.3490  0.5555
  742TIP3    H1 2190   5.420   2.365   1.398 -0.7780  0.1480  0.5758
  742TIP3    H2 2191   5.492   2.497   1.378  1.1067 -1.1518 -1.7256
  743TIP3   OH2 2192   2.786   4.159   5.638 -0.4242  0.5952 -0.0803
  743TIP3    H1 2193   2.789   4.205   5.722  1.6436 -2.5406  1.8066
  743TIP3    H2 2194   2.709   4.103   5.643 -0.2581  0.3488 -0.2316
  744TIP3   OH2 2195   2.146   6.470   1.446 -0.3865 -0.2357  0.0363
  744TIP3    H1 2196   2.122   6.526   1.371  0.7899  1.6706  1.0056
  744TIP3    H2 2197   2.063   6.452   1.490 -1.3323 -2.6302 -2.4308
  745TIP3   OH2 2198   5.696   1.673   3.237 -0.1842 -0.7156 -0.1198
  745TIP3    H1 2199   5.719   1.580   3.250 -2.8938 -1.3145  1.1173
  745TIP3    H2 2200   5.744   1.719   3.306  0.2602 -1.3703  0.0196
  746TIP3   OH2 2201   1.001   5.499   4.272  0.2313 -0.3709  0.1052
  746TIP3    H1 2202   0.922   5.444   4.272  1.1252 -1.7034 -0.3056
  746TIP3    H2 2203   0.990   5.557   4.347  0.1692 -2.5052  1.8483
  747TIP3   OH2 2204   0.450   3.546   0.513 -0.2339  0.0564  0.0072
  747TIP3    H1 2205   0.507   3.623   0.513  2.2879 -1.6560 -1.5318
  747TIP3    H2 2206   0.399   3.554   0.432 -1.8486  1.2726  1.0774
  748TIP3   OH2 2207   4.514   6.329   1.352  0.0821 -0.4924 -0.0948
  748TIP3    H1 2208   4.603   6.365   1.347  0.8604 -2.4260 -1.7365
  748TIP3    H2 2209   4.506   6.296   1.441  0.9255 -0.0817  0.1409
  749TIP3   OH2 2210   0.464   5.605   1.456  0.0915  0.4084  0.0995
  749TIP3    H1 2211   0.372   5.582   1.441  0.1265  0.1778  0.2365
  749TIP3    H2 2212   0.461   5.689   1.503 -0.0392  0.6151 -0.2711
  750TIP3   OH2 2213   5.084   3.882   3.083  0.0214  0.0661 -0.1722
  750TIP3    H1 2214   5.044   3.963   3.052 -1.2335  0.7670  2.9332
  750TIP3    H2 2215   5.012   3.819   3.084  0.1893 -0.1134  0.6539
  751TIP3   OH2 2216   4.982   6.337   4.254  0.6445  0.1609 -0.1599
  751TIP3    H1 2217   4.943   6.362   4.337  1.2473 -1.2141  0.5731
  751TIP3    H2 2218   5.069   6.302   4.278  0.1985 -1.7894 -1.1524
  752TIP3   OH2 2219   4.513   1.350   4.744 -0.1387 -0.1841 -0.0272
  752TIP3    H1 2220   4.480   1.270   4.703  1.3372 -0.6769 -0.3304
  752TIP3    H2 2221   4.518   1.414   4.673  0.0406 -0.2735 -0.0968
  753TIP3   OH2 2222   1.560   3.870   1.791 -0.5354 -0.5884 -0.1629
  753TIP3    H1 2223   1.510   3.809   1.737 -0.7195 -0.3043 -0.3172
  753TIP3    H2 2224   1.579   3.822   1.872 -0.0725 -1.0902 -0.5636
  754TIP3   OH2 2225   3.206   5.321   4.654  0.2894  0.1311  0.2391
  754TIP3    H1 2226   3.188   5.404   4.609 -0.0348 -0.2956 -0.4279
  754TIP3    H2 2227   3.193   5.341   4.747 -3.8841 -0.1358 -0.1072
  755TIP3   OH2 2228   5.351   6.586   2.197  0.0271 -0.2089  0.0974
  755TIP3    H1 2229   5.341   6.635   2.116  1.0796 -1.3369 -0.7488
  755TIP3    H2 2230   5.435   6.615   2.232  0.1534 -0.6257  0.1428
  756TIP3   OH2 2231   7.058   4.794   1.999 -0.2458 -0.1536 -0.4422
  756TIP3    H1 2232   7.014   4.764   1.920  1.3095 -0.7777 -1.0966
  756TIP3    H2 2233   7.099   4.877   1.975  1.7895 -1.2388 -0.8882
  757TIP3   OH2 2234   2.611   4.414   2.569 -0.4976  0.5832  0.0517
  757TIP3    H1 2235   2.584   4.499   2.535 -1.8747 -0.6927 -2.2981
  757TIP3    H2 2236   2.529   4.369   2.589  0.2245 -0.0762  1.7090
  758TIP3   OH2 2237   3.733   0.616   5.664  0.0350 -0.1833  0.0149
  758TIP3    H1 2238   3.776   0.539   5.701 -0.1333 -0.7625 -0.9578
  758TIP3    H2 2239   3.677   0.581   5.594 -0.7410  0.7275  0.1595
  759TIP3   OH2 2240   4.903   0.763   0.871  0.5208 -0.6541 -0.0562
  759TIP3    H1 2241   4.821   0.784   0.827  0.1287 -1.9055  0.0267
  759TIP3    H2 2242   4.891   0.795   0.960  0.8552  0.8168 -0.5225
  760TIP3   OH2 2243   0.926   6.274   3.935  0.1231 -0.5075 -0.1444
  760TIP3    H1 2244   0.889   6.361   3.925  0.1604 -0.2072  1.9292
  760TIP3    H2 2245   0.975   6.259   3.854 -0.1131  1.2777 -0.6504
  761TIP3   OH2 2246   0.245   2.419   5.172 -0.0066  0.5094 -0.0556
  761TIP3    H1 2247   0.275   2.478   5.241  2.9556 -0.4186 -0.4294
  761TIP3    H2 2248   0.279   2.333   5.196  0.3791 -0.0036 -2.2049
  762TIP3   OH2 2249   1.004   6.483   2.996 -0.1424  0.2136  0.3792
  762TIP3    H1 2250   1.060   6.499   3.072  0.3606 -0.9940  0.2785
  762TIP3    H2 2251   0.989   6.389   2.997  1.5470 -0.1648 -2.1510
  763TIP3   OH2 2252   5.212   6.716   4.323  0.5036  0.0151 -0.1004
  763TIP3    H1 2253   5.195   6.760   4.240  0.1802  0.7327  0.3408
  763TIP3    H2 2254   5.240   6.785   4.382  0.9779 -0.5322  0.3238
  764TIP3   OH2 2255   1.829   2.536   0.345 -0.7333  0.0609  0.1945
  764TIP3    H1 2256   1.771   2.568   0.276 -0.2714  0.3167 -0.0827
  764TIP3    H2 2257   1.850   2.446   0.319  0.7270  0.6726 -0.8759
  765TIP3   OH2 2258   7.161   3.617   3.746 -0.0450  0.5383 -0.1029
  765TIP3    H1 2259   7.200   3.667   3.674  0.6171  1.7825  1.0660
  765TIP3    H2 2260   7.192   3.528   3.733 -0.6746  0.5327 -1.8565
  766TIP3   OH2 2261   0.652   2.446   2.377  0.2775  0.0780 -0.3676
  766TIP3    H1 2262   0.630   2.457   2.285 -0.8302  0.3061 -0.0902
  766TIP3    H2 2263   0.691   2.529   2.403  2.0969 -0.5203 -1.0054
  767TIP3   OH2 2264   1.871   5.428   0.707 -0.1795 -0.0554  0.0268
  767TIP3    H1 2265   1.891   5.500   0.647 -1.3551  0.8000  0.6135
  767TIP3    H2 2266   1.810   5.466   0.770 -1.1361 -1.6784  0.1324
  768TIP3   OH2 2267   5.756   6.190   3.346 -0.1525 -0.1828  0.3873
  768TIP3    H1 2268   5.722   6.225   3.429  0.3106  0.2572  0.3941
  768TIP3    H2 2269   5.779   6.099   3.366 -0.3925 -0.1889  0.6417
  769TIP3   OH2 2270   3.442   3.717   4.745 -0.2784  0.1179  0.2551
  769TIP3    H1 2271   3.491   3.675   4.815  0.9322 -1.2148 -1.3222
  769TIP3    H2 2272   3.411   3.800   4.784  1.2141 -0.0857  2.0131
  770TIP3   OH2 2273   3.028   1.339   0.232 -0.1241  0.0768 -0.1396
  770TIP3    H1 2274   3.034   1.413   0.292 -1.4610  0.7632 -0.7856
  770TIP3    H2 2275   2.969   1.277   0.276  1.8313 -1.1374  0.8786
  771TIP3   OH2 2276   5.139   6.342   0.370  0.5103  0.1811  0.8933
  771TIP3    H1 2277   5.198   6.330   0.444  2.1838 -0.2287 -0.4588
  771TIP3    H2 2278   5.132   6.255   0.330  0.3007  0.5606  0.0827
  772TIP3   OH2 2279   5.537   3.918   5.816  0.7381  0.2287  0.1160
  772TIP3    H1 2280   5.523   3.986   5.751  1.4421  0.3327  0.0667
  772TIP3    H2 2281   5.468   3.933   5.881 -1.4514 -1.3077 -1.7231
  773TIP3   OH2 2282   0.725   1.603   1.882  0.1854 -0.0862  0.0098
  773TIP3    H1 2283   0.708   1.541   1.952 -0.0190 -0.1407 -0.0857
  773TIP3    H2 2284   0.803   1.650   1.909  0.8975 -1.0279 -0.3531
  774TIP3   OH2 2285   5.440   0.308   5.280  0.0445  1.0636  0.4067
  774TIP3    H1 2286   5.467   0.217   5.289  1.4414  1.4110  0.0071
  774TIP3    H2 2287   5.374   0.321   5.348 -1.8177 -0.8255 -0.9395
  775TIP3   OH2 2288   5.120   0.811   1.095  0.2596  0.6333 -0.9878
  775TIP3    H1 2289   5.066   0.733   1.085  2.9236 -1.7688  1.5174
  775TIP3    H2 2290   5.058   0.882   1.114 -2.0919 -1.4437 -0.4598
  776TIP3   OH2 2291   4.260   0.757   2.786  0.0378 -0.1223 -0.3056
  776TIP3    H1 2292   4.281   0.664   2.782  0.9282  0.0996 -1.1422
  776TIP3    H2 2293   4.292   0.792   2.703  1.8349  1.3569  0.9269
  777TIP3   OH2 2294   1.094   6.203   5.021 -0.1551  0.2718 -0.1651
  777TIP3    H1 2295   1.086   6.142   5.095 -0.5380  0.5949  0.0639
  777TIP3    H2 2296   1.188   6.210   5.006  0.0999  1.7904  1.6693
  778TIP3   OH2 2297   0.603   0.253   0.394  0.0868  0.1091  0.5338
  778TIP3    H1 2298   0.560   0.318   0.450  1.4497 -0.4976  2.3478
  778TIP3    H2 2299   0.534   0.190   0.374 -0.6341  0.7941  0.7885
  779TIP3   OH2 2300   3.227   4.026   0.030  0.4157 -0.1717 -0.9810
  779TIP3    H1 2301   3.161   3.971  -0.010  0.3038  0.8995 -2.3369
  779TIP3    H2 2302   3.309   3.980   0.016  0.1324 -0.8289 -0.5284
  780TIP3   OH2 2303   5.979   5.181   0.285  0.2983 -0.1727 -0.2910
  780TIP3    H1 2304   5.957   5.274   0.278 -1.0992 -0.4307  0.3067
  780TIP3    H2 2305   6.048   5.177   0.351 -0.6168  0.3292  0.7328
  781TIP3   OH2 2306   5.482   5.563   0.913  0.0241 -0.1016 -0.1739
  781TIP3    H1 2307   5.404   5.510   0.931 -1.0810  0.7486 -2.0946
  781TIP3    H2 2308   5.526   5.517   0.842  2.0949 -1.2944  1.7655
  782TIP3   OH2 2309   5.909   3.264   5.816 -0.1591 -0.0499 -0.3803
  782TIP3    H1 2310   5.813   3.268   5.815 -0.1267  1.9968 -0.9055
  782TIP3    H2 2311   5.930   3.203   5.887 -1.8352 -1.3334 -0.9196
  783TIP3   OH2 2312   5.946   4.919   1.178 -0.2821 -0.2147 -0.3745
  783TIP3    H1 2313   5.902   4.947   1.259  0.8754  1.6428 -0.3103
  783TIP3    H2 2314   5.986   4.835   1.200 -1.3009 -0.5039  0.4680
  784TIP3   OH2 2315   4.776   5.693   0.302 -0.7763  0.3660  0.3887
  784TIP3    H1 2316   4.772   5.789   0.293 -1.6198  0.2912 -0.2794
  784TIP3    H2 2317   4.724   5.661   0.228  1.5923 -0.6848 -0.9158
  785TIP3   OH2 2318   1.497   0.846   5.683 -0.2082 -0.1910  0.3953
  785TIP3    H1 2319   1.509   0.935   5.652 -1.0139 -0.1993  0.0499
  785TIP3    H2 2320   1.498   0.853   5.779 -1.7560  0.4107  0.3915
  786TIP3   OH2 2321   5.519   5.348   1.898  0.1456  0.3417  0.2828
  786TIP3    H1 2322   5.470   5.387   1.826  1.8582 -1.3322 -1.9410
  786TIP3    H2 2323   5.579   5.416   1.927 -0.6535  1.0743  0.2363
  787TIP3   OH2 2324   0.942   2.164   3.654 -0.5001  0.0962 -0.0517
  787TIP3    H1 2325   0.936   2.120   3.569 -1.4326  0.0081  0.0475
  787TIP3    H2 2326   0.857   2.206   3.665 -0.2956  0.3173  0.7251
  788TIP3   OH2 2327   4.397   1.271   3.261 -0.4037  0.1063 -0.2617
  788TIP3    H1 2328   4.324   1.232   3.214 -2.2387  4.1439 -1.1745
  788TIP3    H2 2329   4.449   1.315   3.194  1.3001 -0.2643  0.7320
  789TIP3   OH2 2330   3.456   5.281   4.858 -0.8883  0.2617 -0.2868
  789TIP3    H1 2331   3.456   5.321   4.771 -1.8958  2.0433  0.4722
  789TIP3    H2 2332   3.436   5.189   4.842  0.0510  0.3120 -2.0038
  790TIP3   OH2 2333   4.311   4.835   0.834  0.6087  0.5063  0.3341
  790TIP3    H1 2334   4.228   4.813   0.876  1.2959 -1.0728  0.9584
  790TIP3    H2 2335   4.305   4.929   0.817 -1.1583  0.4912  0.6522
  791TIP3   OH2 2336   4.072   3.477   0.271 -0.1198 -0.0997  0.3658
  791TIP3    H1 2337   4.031   3.525   0.198 -3.3293 -1.8190  0.8421
  791TIP3    H2 2338   4.048   3.527   0.349 -2.8152 -1.8273  0.7873
  792TIP3   OH2 2339   1.379   4.689   5.184  0.0557 -0.2221 -0.6861
  792TIP3    H1 2340   1.393   4.712   5.276  0.8091  0.8664 -1.0559
  792TIP3    H2 2341   1.292   4.649   5.183  0.1223 -0.4651  0.5283
  793TIP3   OH2 2342   4.652   3.839   0.663 -0.1275 -0.4059 -0.0208
  793TIP3    H1 2343   4.687   3.906   0.603 -0.0112 -0.1566  0.3225
  793TIP3    H2 2344   4.679   3.869   0.750  0.7725 -1.4134  0.0633
  794TIP3   OH2 2345   1.314   2.716   3.428 -0.0300  0.2713 -0.3401
  794TIP3    H1 2346   1.359   2.754   3.352  0.8788  2.0136  0.9924
  794TIP3    H2 2347   1.367   2.640   3.452 -0.2584 -0.2260 -1.3448
  795TIP3   OH2 2348   3.226   6.343   5.893  0.7267  0.0102  0.0347
  795TIP3    H1 2349   3.133   6.366   5.895  0.8664  0.6167  1.7914
  795TIP3    H2 2350   3.263   6.399   5.825  0.0896  1.0258  0.5016
  796TIP3   OH2 2351   3.236   3.294   4.853  0.0289 -0.3376 -0.1689
  796TIP3    H1 2352   3.278   3.276   4.937 -1.2333  0.2638  0.6208
  796TIP3    H2 2353   3.220   3.388   4.854  1.7054  0.0163 -1.9254
  797TIP3   OH2 2354   3.644   0.083   1.799 -0.3785 -0.3183  0.6294
  797TIP3    H1 2355   3.729   0.049   1.773 -0.8067 -1.3960  0.5742
  797TIP3    H2 2356   3.581   0.035   1.745 -1.0154  0.4957  0.6310
  798TIP3   OH2 2357   3.477   4.703   5.067  0.0200  0.0549  0.1996
  798TIP3    H1 2358   3.439   4.786   5.039 -0.7282 -0.5723 -0.7617
  798TIP3    H2 2359   3.446   4.691   5.156 -0.8997  0.2340 -0.0845
  799TIP3   OH2 2360   3.090   3.260   5.586 -0.1172 -0.0104 -0.1604
  799TIP3    H1 2361   3.072   3.319   5.659  0.6120 -2.0765  1.7962
  799TIP3    H2 2362   3.004   3.228   5.559 -0.3594  0.4296  0.0892
  800TIP3   OH2 2363   2.516   0.408   5.830 -0.1012 -0.4824  0.5434
  800TIP3    H1 2364   2.522   0.463   5.752 -1.8313  0.4530  1.0252
  800TIP3    H2 2365   2.562   0.456   5.898  0.4334 -0.7746  0.3991
  801TIP3   OH2 2366   4.484   1.136   0.610  0.2699 -0.0618 -0.0689
  801TIP3    H1 2367   4.552   1.099   0.553  0.4206  0.2375 -0.0825
  801TIP3    H2 2368   4.496   1.230   0.603 -0.1489 -0.0093 -0.0679
  802TIP3   OH2 2369   3.043   2.044   2.940  0.3551 -0.1590  0.2009
  802TIP3    H1 2370   3.076   2.107   2.876  1.1664 -0.5487  0.2255
  802TIP3    H2 2371   3.118   1.987   2.958 -0.1496 -0.6524  0.7602
  803TIP3   OH2 2372   4.661   1.439   5.506 -0.0787 -0.0297  0.2077
  803TIP3    H1 2373   4.717   1.372   5.466 -0.0699  0.4217 -0.5517
  803TIP3    H2 2374   4.572   1.403   5.499 -0.2829  0.7341 -1.7306
  804TIP3   OH2 2375   3.363   1.168   2.340  0.4225  0.6925  0.1326
  804TIP3    H1 2376   3.271   1.192   2.331 -0.0175 -1.2720 -1.3669
  804TIP3    H2 2377   3.361   1.073   2.353  2.1622  0.9065  2.5557
  805TIP3   OH2 2378   2.636   6.174   5.152 -0.4484 -0.3750 -0.1616
  805TIP3    H1 2379   2.615   6.123   5.230 -2.3130  0.2078 -0.2225
  805TIP3    H2 2380   2.554   6.220   5.131  0.9269  2.1139 -0.4731
  806TIP3   OH2 2381   3.743   2.579   3.530 -0.3261  0.0982 -0.1453
  806TIP3    H1 2382   3.813   2.515   3.521 -2.1845 -2.0965 -0.1646
  806TIP3    H2 2383   3.757   2.641   3.459  2.3403  0.5818  0.6979
  807TIP3   OH2 2384   2.905   0.562   0.097  0.0277  0.1824 -0.0731
  807TIP3    H1 2385   2.903   0.479   0.145  0.4444  0.6599  0.7820
  807TIP3    H2 2386   2.877   0.628   0.161  2.7987  1.1633  0.2577
  808TIP3   OH2 2387   2.457   5.174   3.234 -0.3043  0.1872 -0.5853
  808TIP3    H1 2388   2.477   5.134   3.319 -0.2406 -2.5973 -1.7877
  808TIP3    H2 2389   2.437   5.265   3.255 -0.2080 -0.3460  2.3897
  809TIP3   OH2 2390   0.328   4.480   3.719 -0.2121  0.0839  0.2394
  809TIP3    H1 2391   0.291   4.520   3.798  0.0690  1.2394 -0.1840
  809TIP3    H2 2392   0.378   4.551   3.678  0.7279 -0.8491 -0.2973
  810TIP3   OH2 2393   3.225   2.805   2.308  0.3269  0.7257  0.0834
  810TIP3    H1 2394   3.271   2.826   2.227  0.9426  0.3495  0.3350
  810TIP3    H2 2395   3.278   2.737   2.350  0.0932  1.0150  0.8707
  811TIP3   OH2 2396   5.311   3.180   3.024  0.0075  1.0153  0.1208
  811TIP3    H1 2397   5.274   3.122   2.958 -1.5382  1.7036  0.3217
  811TIP3    H2 2398   5.353   3.250   2.974 -0.7174  1.2697 -0.1374
  812TIP3   OH2 2399   3.439   0.008   3.935 -0.2516  0.5754 -0.6011
  812TIP3    H1 2400   3.448   0.046   4.023  0.6289 -2.1334  0.6106
  812TIP3    H2 2401   3.366   0.056   3.896 -0.6411  1.9328  1.5814
  813TIP3   OH2 2402   4.744   4.050   5.629 -0.7113  0.3254 -0.6514
  813TIP3    H1 2403   4.805   4.112   5.589  0.1795 -0.1628 -0.0842
  813TIP3    H2 2404   4.695   4.013   5.556  0.8492 -0.5179 -1.3075
  814TIP3   OH2 2405   1.728   3.511   4.150  0.4079 -0.1334 -0.3201
  814TIP3    H1 2406   1.792   3.575   4.179  0.4978  0.4846 -1.8187
  814TIP3    H2 2407   1.753   3.490   4.060 -1.1154 -0.3438 -0.7258
  815TIP3   OH2 2408   5.848   0.874   0.912 -0.3120  0.4413  0.5699
  815TIP3    H1 2409   5.846   0.920   0.828  0.5192  1.3161  1.0095
  815TIP3    H2 2410   5.796   0.795   0.897  1.7777 -0.6431 -1.4739
  816TIP3   OH2 2411   6.598   5.107   0.407 -0.2080 -0.2509 -0.7973
  816TIP3    H1 2412   6.534   5.166   0.447  0.6265  0.2410 -0.1548
  816TIP3    H2 2413   6.551   5.024   0.397 -0.3630 -0.5290  1.6047
  817TIP3   OH2 2414   0.457   2.770   1.081  0.3307  0.4691  0.2835
  817TIP3    H1 2415   0.505   2.783   1.163  0.6773 -0.2819  0.2090
  817TIP3    H2 2416   0.499   2.694   1.041 -0.3554  0.3452 -0.2079
  818TIP3   OH2 2417   2.022   0.021   1.507 -0.1280 -0.5829 -0.0145
  818TIP3    H1 2418   2.100   0.026   1.451 -1.5872 -1.2610 -2.2093
  818TIP3    H2 2419   2.037   0.089   1.574  2.4035 -0.8137 -0.2221
  819TIP3   OH2 2420   2.418   5.911   4.880 -0.0921 -0.2415  0.2584
  819TIP3    H1 2421   2.357   5.846   4.916 -1.3074  0.2398 -0.8768
  819TIP3    H2 2422   2.493   5.907   4.939 -0.5263 -2.0050  0.7696
  820TIP3   OH2 2423   6.181   2.344   1.993 -0.0754 -0.0974 -0.5585
  820TIP3    H1 2424   6.194   2.253   2.019 -0.4577  0.3705  1.3983
  820TIP3    H2 2425   6.267   2.374   1.964  0.7638 -0.2867  1.5531
  821TIP3   OH2 2426   0.218   4.459   1.634  0.3226 -0.1287  0.1515
  821TIP3    H1 2427   0.242   4.423   1.548  0.3742 -1.2523  0.6137
  821TIP3    H2 2428   0.166   4.536   1.614  1.2895  0.2831 -0.8897
  822TIP3   OH2 2429   0.947   1.318   1.924  0.2553  0.0353 -0.2902
  822TIP3    H1 2430   0.873   1.354   1.874  0.6874  0.3163 -0.7316
  822TIP3    H2 2431   0.920   1.325   2.015 -0.3533 -0.0583 -0.4596
  823TIP3   OH2 2432   1.877   5.678   3.915  0.1979  0.1845 -0.1520
  823TIP3    H1 2433   1.945   5.680   3.848  1.4062 -1.6609  0.9482
  823TIP3    H2 2434   1.839   5.766   3.913  0.2769  0.2719 -3.1005
  824TIP3   OH2 2435   3.613   2.199   5.624  0.2707  0.0951 -0.2610
  824TIP3    H1 2436   3.675   2.155   5.565  1.0475 -0.1908  0.7344
  824TIP3    H2 2437   3.660   2.207   5.707 -0.9167  0.1808  0.4318
  825TIP3   OH2 2438   2.852   3.816   5.452  0.3348 -0.6857  0.0318
  825TIP3    H1 2439   2.875   3.897   5.405  3.0876 -0.3951  1.6503
  825TIP3    H2 2440   2.854   3.748   5.386 -0.9297  0.3516 -1.1519
  826TIP3   OH2 2441   1.577   5.358   1.901  0.4998 -0.4790  0.1826
  826TIP3    H1 2442   1.621   5.298   1.841  3.1311  0.6187  0.8760
  826TIP3    H2 2443   1.601   5.326   1.988  2.5889  1.8412  0.5782
  827TIP3   OH2 2444   1.689   5.410   3.842 -0.0668 -0.3446  0.2010
  827TIP3    H1 2445   1.712   5.477   3.778 -1.1706 -0.2682 -0.1296
  827TIP3    H2 2446   1.610   5.444   3.885  0.2222 -0.7454  1.0794
  828TIP3   OH2 2447   0.924   4.084   3.098  0.1637  0.2515  0.3510
  828TIP3    H1 2448   0.945   4.045   3.183  1.9464 -1.6394 -0.8413
  828TIP3    H2 2449   0.833   4.110   3.105  0.1940 -0.0695  2.7558
  829TIP3   OH2 2450   5.463   0.901   1.987  0.2141  0.0344 -0.1636
  829TIP3    H1 2451   5.452   0.996   1.992  2.2409  0.2617  1.0782
  829TIP3    H2 2452   5.412   0.875   1.910 -0.6329  2.0720 -0.3474
  830TIP3   OH2 2453   5.651   4.410   0.094  0.4746 -0.0626  0.4340
  830TIP3    H1 2454   5.688   4.322   0.091 -2.9649 -1.7341 -2.5431
  830TIP3    H2 2455   5.561   4.397   0.126 -0.1547  2.3482 -0.1169
  831TIP3   OH2 2456   6.551   0.632   3.077 -0.6472  0.1950  0.4076
  831TIP3    H1 2457   6.628   0.585   3.047 -0.0043  1.1524  0.5343
  831TIP3    H2 2458   6.483   0.565   3.082  0.1696 -0.6575  0.3050
  832TIP3   OH2 2459   6.957   5.845   5.173 -0.4549  0.1664 -0.0692
  832TIP3    H1 2460   6.891   5.894   5.125 -0.3408  0.5795  0.1847
  832TIP3    H2 2461   7.041   5.874   5.137 -0.4057 -0.3040 -0.3441
  833TIP3   OH2 2462   4.729   6.302   4.117 -0.8869  0.9901 -0.0506
  833TIP3    H1 2463   4.720   6.396   4.134 -0.6485  1.0218 -0.0913
  833TIP3    H2 2464   4.814   6.279   4.155 -0.7830  0.8637 -0.3562
  834TIP3   OH2 2465   4.633   4.387   4.421 -0.2922  0.0006  0.4645
  834TIP3    H1 2466   4.634   4.453   4.351  3.2353  0.2270  0.5918
  834TIP3    H2 2467   4.719   4.346   4.417 -2.1480 -4.4896  0.6133
  835TIP3   OH2 2468   2.618   1.430   3.643 -0.2746  0.0018 -0.1661
  835TIP3    H1 2469   2.620   1.429   3.738 -2.5508 -0.1069 -0.0751
  835TIP3    H2 2470   2.583   1.345   3.618  1.5049 -0.4943 -1.2070
  836TIP3   OH2 2471   3.779   0.930   1.644 -0.3330 -0.4477 -0.0061
  836TIP3    H1 2472   3.802   0.924   1.551  0.9292  0.7557  0.1938
  836TIP3    H2 2473   3.779   0.839   1.674 -0.2445 -0.8171 -1.0582
  837TIP3   OH2 2474   0.994   6.069   0.115 -0.2327  0.0429  0.1895
  837TIP3    H1 2475   0.938   6.132   0.162  0.6105  0.3779  0.7724
  837TIP3    H2 2476   0.944   6.047   0.037 -0.2535  2.0255 -0.4231
  838TIP3   OH2 2477   0.698   4.397   3.626  0.0885 -0.5070 -0.4357
  838TIP3    H1 2478   0.759   4.386   3.552 -0.9120 -1.2827 -1.1878
  838TIP3    H2 2479   0.690   4.309   3.664 -0.8278 -0.5088 -0.5914
  839TIP3   OH2 2480   3.548   4.173   2.272 -0.0776 -0.1474 -0.6690
  839TIP3    H1 2481   3.560   4.232   2.197 -0.6946  0.7105 -0.1153
  839TIP3    H2 2482   3.493   4.223   2.333  0.6324 -0.7254  0.4751
  840TIP3   OH2 2483   5.845   2.399   2.029  0.2059 -0.2922  0.1156
  840TIP3    H1 2484   5.794   2.372   1.953  2.3307 -1.7083 -0.8999
  840TIP3    H2 2485   5.857   2.318   2.079  2.6340 -0.3441 -0.4536
  841TIP3   OH2 2486   2.597   4.872   4.688  0.3829 -0.0354 -0.0864
  841TIP3    H1 2487   2.569   4.963   4.677 -0.0459  0.0469  1.4346
  841TIP3    H2 2488   2.523   4.829   4.732  1.9149 -0.2142  2.5295
  842TIP3   OH2 2489   4.901   3.596   4.295  0.1386 -0.2793  0.2003
  842TIP3    H1 2490   4.841   3.619   4.223 -0.8318 -2.0583  0.3584
  842TIP3    H2 2491   4.963   3.535   4.255  0.1957 -0.5077  0.6335
  843TIP3   OH2 2492   2.370   4.946   3.426  0.2114 -0.6403 -0.5136
  843TIP3    H1 2493   2.279   4.970   3.411  0.6384  2.8539  1.3821
  843TIP3    H2 2494   2.368   4.851   3.442 -2.9964 -0.7380 -0.8350
  844TIP3   OH2 2495   2.625   4.995   3.485  0.0058 -0.1295 -0.3602
  844TIP3    H1 2496   2.533   4.973   3.498  0.0705  0.0935  0.5381
  844TIP3    H2 2497   2.645   5.060   3.553  0.4883  0.8146 -1.3774
  845TIP3   OH2 2498   6.909   4.173   3.400  0.0182  0.1939 -0.1305
  845TIP3    H1 2499   6.941   4.187   3.311  0.0251 -0.1998 -0.1910
  845TIP3    H2 2500   6.982   4.198   3.457  0.5632 -1.0198 -0.2728
  846TIP3   OH2 2501   0.645   4.733   1.460  0.3512  0.1626  0.7779
  846TIP3    H1 2502   0.677   4.656   1.412  1.7527  0.6495  0.9006
  846TIP3    H2 2503   0.594   4.696   1.532  0.2222 -0.6258  0.3042
  847TIP3   OH2 2504   5.862   5.699   4.126 -0.4966  0.3168  0.2561
  847TIP3    H1 2505   5.955   5.709   4.147 -0.6533  2.2656  0.2583
  847TIP3    H2 2506   5.816   5.740   4.199 -1.3054  0.3808 -0.2712
  848TIP3   OH2 2507   0.173   4.858   1.290 -0.1510 -0.1605  0.4327
  848TIP3    H1 2508   0.161   4.950   1.267  0.6049 -0.2612 -0.4346
  848TIP3    H2 2509   0.263   4.838   1.263 -0.8447 -1.6007 -1.0005
  849TIP3   OH2 2510   2.376   3.450   1.245 -0.0361  0.1243 -0.2599
  849TIP3    H1 2511   2.350   3.407   1.164  0.7963  1.9572 -1.5467
  849TIP3    H2 2512   2.294   3.479   1.284 -0.3099  2.4963 -2.3655
  850TIP3   OH2 2513   2.244   4.760   0.422 -0.0628 -0.1608  0.2600
  850TIP3    H1 2514   2.249   4.855   0.415  3.0528 -0.3458 -2.0616
  850TIP3    H2 2515   2.181   4.735   0.354 -1.1025  0.1786  1.0602
  851TIP3   OH2 2516   3.482   0.069   0.687 -0.3849 -0.6521 -0.0161
  851TIP3    H1 2517   3.436   0.099   0.609 -0.2415  1.0861  0.5217
  851TIP3    H2 2518   3.413   0.051   0.750 -0.4514 -1.0090 -0.1887
  852TIP3   OH2 2519   4.172   2.208   0.895  0.3635 -0.3828 -0.0366
  852TIP3    H1 2520   4.235   2.280   0.888 -1.3965  1.1506 -0.8237
  852TIP3    H2 2521   4.168   2.171   0.807 -0.0778 -0.2653 -0.0655
  853TIP3   OH2 2522   3.766   0.455   4.028  0.2660  0.1775 -0.6027
  853TIP3    H1 2523   3.791   0.424   3.941  0.1029  1.3966 -1.1066
  853TIP3    H2 2524   3.740   0.546   4.015 -2.0469 -0.2874  0.3226
  854TIP3   OH2 2525   1.424   1.723   4.812  0.0688  0.6172 -0.5590
  854TIP3    H1 2526   1.439   1.789   4.744 -1.6907  1.3063 -0.3407
  854TIP3    H2 2527   1.389   1.647   4.766 -1.1132  1.0804 -0.4515
  855TIP3   OH2 2528   5.010   3.793   5.119 -0.4485 -0.1380 -0.2362
  855TIP3    H1 2529   5.088   3.815   5.069  1.9839 -3.1020  1.8534
  855TIP3    H2 2530   5.011   3.852   5.194 -0.2286 -0.1665 -0.2181
  856TIP3   OH2 2531   3.995   5.321   5.231  0.2135 -0.1560  0.0128
  856TIP3    H1 2532   3.942   5.297   5.308 -0.4226 -0.7179 -0.5873
  856TIP3    H2 2533   3.958   5.268   5.160 -1.1381  2.4521 -1.3582
  857TIP3   OH2 2534   6.798   5.679   1.257  0.0297  0.4153  0.0522
  857TIP3    H1 2535   6.742   5.744   1.214 -0.1252  0.7126  0.6816
  857TIP3    H2 2536   6.747   5.598   1.255  0.1098  0.3746 -0.4956
  858TIP3   OH2 2537   4.342   1.680   5.269 -0.6750  0.5718  0.7409
  858TIP3    H1 2538   4.400   1.629   5.213 -2.7543 -1.1264  0.0477
  858TIP3    H2 2539   4.347   1.637   5.355 -0.1388  1.0935  0.9872
  859TIP3   OH2 2540   4.339   1.961   0.790  0.2809  0.5862 -0.1140
  859TIP3    H1 2541   4.360   1.976   0.698 -0.4464 -1.7577 -0.7353
  859TIP3    H2 2542   4.422   1.932   0.829 -0.0938 -1.8550 -0.9336
  860TIP3   OH2 2543   3.479   2.249   1.399 -0.0506  0.4722 -0.4115
  860TIP3    H1 2544   3.439   2.217   1.480 -0.1620  0.8503 -0.3170
  860TIP3    H2 2545   3.540   2.317   1.427  0.1302  0.3960 -0.6183
  861TIP3   OH2 2546   1.964   5.924   5.330  0.1541  0.1051  0.2781
  861TIP3    H1 2547   1.901   5.996   5.331  1.2789  1.1247 -0.1291
  861TIP3    H2 2548   2.049   5.966   5.342  1.2264 -0.7015 -3.2393
  862TIP3   OH2 2549   1.455   2.837   4.027  0.0476  0.0909  0.2363
  862TIP3    H1 2550   1.486   2.757   3.985 -0.9677  0.3380 -1.0613
  862TIP3    H2 2551   1.467   2.822   4.121  0.9061 -1.1228 -0.0500
  863TIP3   OH2 2552   2.764   4.755   1.047  0.1672 -0.1278  0.1204
  863TIP3    H1 2553   2.804   4.684   0.996  0.3320 -0.2978  0.4858
  863TIP3    H2 2554   2.684   4.776   0.998  1.3389  1.1284 -1.3719
  864TIP3   OH2 2555   1.493   1.885   2.341  0.4219 -0.1700  0.1633
  864TIP3    H1 2556   1.585   1.886   2.367  0.6233  2.1224 -0.4597
  864TIP3    H2 2557   1.467   1.977   2.342 -2.0329 -0.8036  0.8508
  865TIP3   OH2 2558   0.668   5.989   3.059 -0.2384  0.4376 -0.8201
  865TIP3    H1 2559   0.759   6.013   3.074 -0.2824  0.2664 -0.2799
  865TIP3    H2 2560   0.671   5.920   2.993 -0.0324  0.9967 -1.4151
  866TIP3   OH2 2561   4.318   5.523   5.747 -0.0448  0.0656 -0.1634
  866TIP3    H1 2562   4.355   5.442   5.710 -0.8695 -1.5915  2.4002
  866TIP3    H2 2563   4.393   5.582   5.756  1.1299 -1.4538  0.4867
  867TIP3   OH2 2564   0.588   6.195   2.272 -0.2926 -0.8013 -0.1640
  867TIP3    H1 2565   0.621   6.275   2.231  1.4663 -0.4842  1.7117
  867TIP3    H2 2566   0.606   6.207   2.365 -2.4001 -2.2784  0.5096
  868TIP3   OH2 2567   2.867   4.127   1.909 -0.2824  0.1459  0.5106
  868TIP3    H1 2568   2.865   4.045   1.958 -0.8373 -0.0223  0.2135
  868TIP3    H2 2569   2.776   4.142   1.883 -0.6820  2.2220  2.8089
  869TIP3   OH2 2570   0.994   6.046   5.225  0.0288 -0.0759  0.0484
  869TIP3    H1 2571   0.908   6.060   5.185  0.5104  3.8596  0.0890
  869TIP3    H2 2572   0.981   5.971   5.283 -2.7526 -0.9847 -1.5484
  870TIP3   OH2 2573   5.670   0.761   1.568 -0.3209 -0.2065 -0.0892
  870TIP3    H1 2574   5.751   0.811   1.565 -0.2037 -0.4205 -0.6893
  870TIP3    H2 2575   5.686   0.686   1.511 -0.2397 -1.3158  1.3412
  871TIP3   OH2 2576   2.725   4.782   1.774 -0.5634 -0.0395 -0.2231
  871TIP3    H1 2577   2.668   4.730   1.717 -0.9451 -0.3500  0.4246
  871TIP3    H2 2578   2.812   4.774   1.736 -0.5540 -1.4369  0.0423
  872TIP3   OH2 2579   5.303   3.652   5.460  0.2605 -0.9047 -0.2174
  872TIP3    H1 2580   5.381   3.695   5.493  0.3218 -0.0983 -1.3596
  872TIP3    H2 2581   5.255   3.720   5.413 -0.5372 -1.6645 -0.5570
  873TIP3   OH2 2582   4.575   2.161   3.508 -0.1007 -0.0574  0.1081
  873TIP3    H1 2583   4.596   2.184   3.417  2.3297  0.7636  0.8231
  873TIP3    H2 2584   4.551   2.068   3.504 -1.4168  0.3047 -1.5421
  874TIP3   OH2 2585   6.788   1.424   2.386 -0.1011 -0.2416 -0.0844
  874TIP3    H1 2586   6.798   1.519   2.393 -1.2418 -0.0914 -0.2547
  874TIP3    H2 2587   6.756   1.410   2.297  2.2855 -1.0160 -0.8905
  875TIP3   OH2 2588   4.235   2.014   1.077  0.0404  0.0642 -0.1021
  875TIP3    H1 2589   4.327   1.998   1.055 -0.5798 -3.6268 -0.7216
  875TIP3    H2 2590   4.209   2.089   1.024  1.6455 -1.4020 -3.1781
  876TIP3   OH2 2591   4.316   1.867   2.658  0.3584  0.0155  0.4053
  876TIP3    H1 2592   4.367   1.891   2.581 -0.6179  3.2691  0.6133
  876TIP3    H2 2593   4.320   1.771   2.661  1.8665 -0.1319 -2.6383
  877TIP3   OH2 2594   0.606   6.518   0.032 -0.0400  0.0566  0.8383
  877TIP3    H1 2595   0.523   6.564   0.045 -0.4731 -0.6234  0.5346
  877TIP3    H2 2596   0.634   6.493   0.120  0.0716  0.6670  0.9805
  878TIP3   OH2 2597   6.978   5.367   4.554 -0.0194 -0.0465 -0.4968
  878TIP3    H1 2598   6.976   5.462   4.560  1.8669  0.0472 -0.7747
  878TIP3    H2 2599   6.980   5.350   4.459  1.0917 -0.2967 -0.4337
  879TIP3   OH2 2600   4.444   3.912   2.358  0.0700  0.0473 -0.2143
  879TIP3    H1 2601   4.352   3.939   2.364 -0.1861 -0.7603 -0.3543
  879TIP3    H2 2602   4.494   3.988   2.390 -0.6780  0.2018  0.6255
  880TIP3   OH2 2603   0.394   0.045   0.090 -0.2076 -0.3656  0.4654
  880TIP3    H1 2604   0.341   0.120   0.116 -1.6341 -1.3448  0.4412
  880TIP3    H2 2605   0.414  -0.000   0.172  0.0142 -0.3935  0.3981
  881TIP3   OH2 2606   6.019   5.244   3.577 -0.3483  0.0646 -0.3362
  881TIP3    H1 2607   6.028   5.162   3.624 -2.1554  0.0446  0.0727
  881TIP3    H2 2608   5.924   5.252   3.561 -0.1738  1.8472 -0.7383
  882TIP3   OH2 2609   2.442   4.757   1.150 -0.0213  0.4717 -0.0022
  882TIP3    H1 2610   2.473   4.746   1.060  0.0283 -1.1932  0.1845
  882TIP3    H2 2611   2.351   4.788   1.140  0.0543  0.5061 -0.6135
  883TIP3   OH2 2612   3.271   1.619   3.359  0.5373 -0.1644 -0.0023
  883TIP3    H1 2613   3.208   1.677   3.402 -1.4585 -1.4783 -0.9526
  883TIP3    H2 2614   3.342   1.677   3.330 -0.3658  1.4461  0.8481
  884TIP3   OH2 2615   4.590   2.911   0.378 -0.5821 -0.2922 -0.2040
  884TIP3    H1 2616   4.654   2.945   0.441  1.9514 -1.8511 -1.7238
  884TIP3    H2 2617   4.506   2.915   0.423  0.9815 -0.6895  3.0002
  885TIP3   OH2 2618   5.762   6.187   0.442 -0.1191  0.0968  0.8527
  885TIP3    H1 2619   5.754   6.161   0.534 -1.3271  1.4762  1.1743
  885TIP3    H2 2620   5.676   6.166   0.404  0.1026  0.2864  0.2427
  886TIP3   OH2 2621   6.935   3.810   4.799 -0.2232  0.0228  0.4344
  886TIP3    H1 2622   6.937   3.905   4.800 -1.0043  0.0532 -0.1704
  886TIP3    H2 2623   6.873   3.786   4.868  0.8291 -0.1030  1.3794
  887TIP3   OH2 2624   6.879   5.751   0.763 -0.2159 -0.0857 -0.1655
  887TIP3    H1 2625   6.935   5.686   0.723 -0.2760  0.6653 -1.5377
  887TIP3    H2 2626   6.829   5.703   0.829  0.7923 -1.0976 -0.1159
  888TIP3   OH2 2627   3.280   6.131   3.497 -0.0422 -0.0346 -0.3460
  888TIP3    H1 2628   3.369   6.119   3.464 -0.3189 -0.0153 -1.1208
  888TIP3    H2 2629   3.279   6.221   3.531  0.4607 -0.3097  0.4293
  889TIP3   OH2 2630   3.972   3.406   2.140  0.3292 -0.1019  0.0973
  889TIP3    H1 2631   3.907   3.392   2.208 -0.1831  0.4146 -0.2753
  889TIP3    H2 2632   3.927   3.460   2.075  1.6306  1.7336  0.6344
  890TIP3   OH2 2633   5.990   5.562   2.297 -0.1025 -0.7012  0.2440
  890TIP3    H1 2634   6.085   5.556   2.289  0.3147  1.8136  1.9411
  890TIP3    H2 2635   5.958   5.478   2.265  2.7155 -1.9339  0.3037
  891TIP3   OH2 2636   5.674   6.764   0.088 -0.2497  0.0413  0.3357
  891TIP3    H1 2637   5.614   6.693   0.113  0.0649 -0.4512 -0.2977
  891TIP3    H2 2638   5.749   6.719   0.049  0.6354  0.6373  1.3073
  892TIP3   OH2 2639   1.857   2.683   4.693  0.1969 -0.6390 -0.3446
  892TIP3    H1 2640   1.831   2.762   4.645 -1.0698 -0.6011  0.3645
  892TIP3    H2 2641   1.798   2.615   4.660 -2.2267 -0.1581  2.5718
  893TIP3   OH2 2642   3.314   1.409   1.728  0.1139  0.1032  0.0151
  893TIP3    H1 2643   3.324   1.369   1.814 -0.6472 -1.1067 -0.4464
  893TIP3    H2 2644   3.404   1.428   1.700  0.6245 -2.3224 -0.2209
  894TIP3   OH2 2645   5.825   4.168   5.851 -0.1689 -0.1842 -0.6004
  894TIP3    H1 2646   5.813   4.123   5.768  0.2688  1.3266 -1.5342
  894TIP3    H2 2647   5.913   4.141   5.880 -0.1904 -0.4682 -0.7977
  895TIP3   OH2 2648   0.533   0.172   1.923  0.4750  0.2290 -0.0041
  895TIP3    H1 2649   0.534   0.077   1.911  0.9137  0.3016 -0.5718
  895TIP3    H2 2650   0.611   0.190   1.975 -0.4362  0.1186  1.4417
  896TIP3   OH2 2651   7.130   3.415   3.129 -0.3127 -0.5789 -0.1520
  896TIP3    H1 2652   7.126   3.385   3.220 -1.6586 -0.0416 -0.0117
  896TIP3    H2 2653   7.194   3.486   3.130  0.2489 -1.0731  0.2085
  897TIP3   OH2 2654   4.867   3.473   5.430 -0.5000  0.2298  0.2997
  897TIP3    H1 2655   4.828   3.418   5.498  1.3014 -0.5597  0.7553
  897TIP3    H2 2656   4.921   3.412   5.379 -1.6683  0.8329 -1.7590
  898TIP3   OH2 2657   6.401   5.604   0.993  0.5742 -0.0991 -0.5591
  898TIP3    H1 2658   6.312   5.623   1.025  0.2292 -0.1726 -1.4583
  898TIP3    H2 2659   6.451   5.586   1.073 -0.2311 -0.1199 -0.0412
  899TIP3   OH2 2660   1.277   6.784   2.799 -0.5314  0.0534 -0.0795
  899TIP3    H1 2661   1.343   6.732   2.844  0.0860  1.1129  0.2719
  899TIP3    H2 2662   1.197   6.769   2.849 -0.5313 -1.0883 -0.3949
  900TIP3   OH2 2663   5.045   4.345   5.105 -0.2747  0.4036 -0.2001
  900TIP3    H1 2664   5.134   4.381   5.109 -0.5876  1.0698  2.0232
  900TIP3    H2 2665   5.000   4.401   5.042  0.3725  1.3033  0.1075
  901TIP3   OH2 2666   5.377   2.041   5.461 -0.1851  0.8652  0.6699
  901TIP3    H1 2667   5.287   2.009   5.450  0.0319  0.6366 -0.5631
  901TIP3    H2 2668   5.411   1.992   5.536  0.4977 -2.6826 -1.7260
  902TIP3   OH2 2669   6.738   1.105   0.153  0.4331 -0.7656 -0.1816
  902TIP3    H1 2670   6.655   1.057   0.159  0.4395 -0.9946 -1.6741
  902TIP3    H2 2671   6.749   1.123   0.060  2.4487 -1.4373 -0.1261
  903TIP3   OH2 2672   1.916   0.789   5.403  0.2792 -0.4933 -0.4883
  903TIP3    H1 2673   2.005   0.817   5.423  0.4250 -1.7907  0.8653
  903TIP3    H2 2674   1.894   0.726   5.472 -2.9425  2.1889  1.2314
  904TIP3   OH2 2675   1.302   3.140   5.843  0.4726 -0.2576  0.2405
  904TIP3    H1 2676   1.232   3.192   5.884 -0.0845 -0.9487  0.1824
  904TIP3    H2 2677   1.287   3.150   5.749 -0.3206 -1.4055  0.2269
  905TIP3   OH2 2678   3.347   2.587   3.899  0.0496 -0.4740  0.1833
  905TIP3    H1 2679   3.385   2.505   3.930 -1.4342 -0.0202  3.5126
  905TIP3    H2 2680   3.400   2.655   3.940  1.0835  0.3475 -2.3089
  906TIP3   OH2 2681   2.481   1.558   4.118  0.2891  0.4174  0.2924
  906TIP3    H1 2682   2.422   1.551   4.044 -0.6855  0.7567  1.0141
  906TIP3    H2 2683   2.554   1.612   4.086  0.5211 -0.5144 -0.7833
  907TIP3   OH2 2684   3.910   2.623   1.876 -0.0070 -0.4010  0.5342
  907TIP3    H1 2685   3.919   2.694   1.812 -0.4777 -1.8563 -1.2189
  907TIP3    H2 2686   3.817   2.599   1.871  0.0321 -0.7813  1.5108
  908TIP3   OH2 2687   4.308   2.093   1.861  0.5773 -0.2188  0.1492
  908TIP3    H1 2688   4.216   2.088   1.836  0.4991  0.2323  0.3294
  908TIP3    H2 2689   4.318   2.180   1.900  0.7894 -0.7339  1.2901
  909TIP3   OH2 2690   4.275   4.963   2.047  0.3390  0.2753 -0.0622
  909TIP3    H1 2691   4.206   4.912   2.089  1.5614 -1.0784  0.3670
  909TIP3    H2 2692   4.355   4.912   2.061  1.1068  0.7337 -2.3471
  910TIP3   OH2 2693   3.699   0.512   1.325 -0.5867  0.6755  0.1993
  910TIP3    H1 2694   3.606   0.533   1.329 -0.7093  0.2222 -0.2757
  910TIP3    H2 2695   3.705   0.423   1.361 -0.4555  0.3533 -0.6090
  911TIP3   OH2 2696   0.356   6.409   2.108 -0.2000  0.1162 -0.8377
  911TIP3    H1 2697   0.391   6.447   2.027  0.9572 -2.9653 -1.9252
  911TIP3    H2 2698   0.381   6.472   2.176  3.1158  0.5389 -2.2646
  912TIP3   OH2 2699   0.065   0.411   0.723 -0.4332 -0.2482 -0.2896
  912TIP3    H1 2700   0.022   0.385   0.642 -0.0611 -1.2360 -0.1834
  912TIP3    H2 2701  -0.007   0.427   0.785 -0.9525  3.5841 -1.5856
  913TIP3   OH2 2702   0.650   3.471   2.555  0.5657 -0.1446  0.3251
  913TIP3    H1 2703   0.663   3.566   2.549 -0.5333  0.1092  1.5706
  913TIP3    H2 2704   0.557   3.460   2.575  1.2223 -1.2906  3.3549
  914TIP3   OH2 2705   0.350   1.703   0.626 -0.6455  0.2570 -0.1572
  914TIP3    H1 2706   0.398   1.683   0.546  0.4947  0.9328  0.3327
  914TIP3    H2 2707   0.260   1.678   0.607  0.1642 -2.8863 -0.4436
  915TIP3   OH2 2708   6.375   5.742   3.394  0.4636 -0.1065  0.1227
  915TIP3    H1 2709   6.342   5.652   3.403 -0.5515  0.4387  2.5140
  915TIP3    H2 2710   6.297   5.794   3.378  0.6619  0.6740  1.5595
  916TIP3   OH2 2711   2.737   4.853   3.902 -0.6552 -0.3708 -0.1889
  916TIP3    H1 2712   2.725   4.934   3.952  0.2788 -1.3719  1.7472
  916TIP3    H2 2713   2.660   4.848   3.846 -0.5952  1.9910 -0.5998
  917TIP3   OH2 2714   2.627   2.228   1.023 -0.4545 -0.5096  0.2422
  917TIP3    H1 2715   2.571   2.195   0.952  0.7201 -1.7333 -0.1678
  917TIP3    H2 2716   2.583   2.308   1.053 -2.1325 -1.1389 -0.3937
  918TIP3   OH2 2717   0.216   4.690   5.347 -0.2636  0.1856  0.0973
  918TIP3    H1 2718   0.126   4.692   5.313  0.2702 -0.6761 -1.4471
  918TIP3    H2 2719   0.233   4.597   5.361  0.2964  0.3729  0.7153
  919TIP3   OH2 2720   2.577   0.220   1.770  0.0616  0.0127  0.8775
  919TIP3    H1 2721   2.526   0.203   1.849  0.1729 -1.2715  0.6973
  919TIP3    H2 2722   2.512   0.234   1.701 -0.0542 -0.6703  0.8416
  920TIP3   OH2 2723   3.649   3.202   2.665 -0.2006  0.1893 -0.1005
  920TIP3    H1 2724   3.557   3.222   2.683 -0.0809  1.5000 -0.8466
  920TIP3    H2 2725   3.649   3.108   2.645 -1.2073 -0.0471  0.8641
  921TIP3   OH2 2726   6.627   4.662   5.470  0.2589  0.2226  1.0153
  921TIP3    H1 2727   6.594   4.670   5.560 -0.6643  0.0786  0.7059
  921TIP3    H2 2728   6.548   4.656   5.417  0.8037  0.0305  0.2162
  922TIP3   OH2 2729   6.787   6.003   1.405 -0.3695  0.0640 -0.2225
  922TIP3    H1 2730   6.849   5.976   1.338  0.1791 -2.9151  1.3375
  922TIP3    H2 2731   6.837   6.005   1.486 -1.8244 -0.2147  0.7271
  923TIP3   OH2 2732   3.381   3.847   3.112 -0.8057  0.2913 -0.0357
  923TIP3    H1 2733   3.461   3.873   3.066 -1.0032  0.6897 -0.1620
  923TIP3    H2 2734   3.402   3.859   3.205 -0.3428 -0.6974 -0.0070
  924TIP3   OH2 2735   0.304   1.203   4.432 -0.3264 -0.1993 -0.0797
  924TIP3    H1 2736   0.338   1.120   4.398  0.9055  0.5409 -0.7639
  924TIP3    H2 2737   0.218   1.182   4.467 -0.5298 -1.5488 -1.2938
  925TIP3   OH2 2738   4.189   5.787   0.795  0.2489 -0.0066 -0.1693
  925TIP3    H1 2739   4.163   5.875   0.822  0.5899 -0.3074  1.2609
  925TIP3    H2 2740   4.275   5.799   0.754  1.8359  0.0526  2.8614
  926TIP3   OH2 2741   5.062   6.568   0.640 -0.3296 -0.4916  0.6121
  926TIP3    H1 2742   5.084   6.480   0.672 -1.5888 -1.8734 -1.9658
  926TIP3    H2 2743   5.144   6.617   0.645  0.3843 -1.7471  2.1892
  927TIP3   OH2 2744   3.191   4.081   3.025 -0.0503 -0.0982  0.0862
  927TIP3    H1 2745   3.271   4.038   3.056 -0.3213  0.5763  1.7982
  927TIP3    H2 2746   3.128   4.011   3.014  0.5230 -0.5384 -0.5222
  928TIP3   OH2 2747   0.823   2.087   3.172  0.0574 -0.2597 -0.1989
  928TIP3    H1 2748   0.729   2.103   3.160  0.1858  1.4484  0.7097
  928TIP3    H2 2749   0.850   2.044   3.091 -1.3491  0.0234 -0.8567
  929TIP3   OH2 2750   2.722   2.669   1.560 -0.1918 -0.0174  0.2139
  929TIP3    H1 2751   2.739   2.668   1.465 -0.4703 -2.4169  0.1235
  929TIP3    H2 2752   2.749   2.756   1.588  1.6139  0.1607 -1.7877
  930TIP3   OH2 2753   4.285   0.962   5.378 -0.2116  0.6588  0.3699
  930TIP3    H1 2754   4.324   0.903   5.313  1.6213  1.8037  0.3558
  930TIP3    H2 2755   4.277   0.908   5.457  0.1283  0.0037 -0.0299
  931TIP3   OH2 2756   2.435   3.348   2.238 -0.1257 -0.6732  0.0383
  931TIP3    H1 2757   2.403   3.408   2.171 -0.1821  0.1210  0.7548
  931TIP3    H2 2758   2.366   3.346   2.304  0.5653 -0.2431  0.7980
  932TIP3   OH2 2759   5.579   0.280   1.617 -0.0661 -0.1095 -0.1376
  932TIP3    H1 2760   5.622   0.291   1.703 -1.1197 -1.5356  0.6135
  932TIP3    H2 2761   5.612   0.196   1.585 -0.2147  0.0899 -0.8227
  933TIP3   OH2 2762   3.350   0.742   5.799  0.4127  0.1630 -0.2673
  933TIP3    H1 2763   3.329   0.723   5.708 -1.0807  1.4222 -0.2356
  933TIP3    H2 2764   3.271   0.718   5.847  0.0906  2.1550  0.2948
  934TIP3   OH2 2765   4.894   2.978   1.785  0.6134  0.2134 -0.1687
  934TIP3    H1 2766   4.861   2.971   1.875 -4.8893  0.3799 -1.7893
  934TIP3    H2 2767   4.875   2.893   1.746 -0.7619  1.2968 -2.0445
  935TIP3   OH2 2768   6.893   6.056   3.517  0.2857 -0.2633 -0.0346
  935TIP3    H1 2769   6.820   6.011   3.561  0.0052  0.9174  0.7308
  935TIP3    H2 2770   6.912   6.000   3.441 -0.7760 -1.0980  0.2790
  936TIP3   OH2 2771   0.081   3.412   1.007  0.4603 -0.6208 -0.1694
  936TIP3    H1 2772   0.004   3.438   1.058  1.5086 -0.6674  1.4941
  936TIP3    H2 2773   0.124   3.494   0.986 -0.2493 -0.5585 -1.5152
  937TIP3   OH2 2774   1.327   1.259   2.408 -0.3198 -0.2385  0.2539
  937TIP3    H1 2775   1.355   1.204   2.481 -0.3055 -1.0326 -0.3414
  937TIP3    H2 2776   1.397   1.252   2.344 -0.2524  0.5915  0.2222
  938TIP3   OH2 2777   3.195   5.080   1.941  0.2248  0.0047  0.1724
  938TIP3    H1 2778   3.281   5.039   1.950 -0.0672 -0.3715  1.3935
  938TIP3    H2 2779   3.138   5.028   1.997 -0.7106  0.5181 -0.2913
  939TIP3   OH2 2780   6.218   4.955   2.543  0.0217  0.7238  0.3538
  939TIP3    H1 2781   6.127   4.927   2.556 -0.5825  1.9378 -0.9590
  939TIP3    H2 2782   6.221   4.985   2.452  2.0448 -0.3525 -0.0056
  940TIP3   OH2 2783   0.324   3.029   2.714  0.6917 -0.7612 -0.4397
  940TIP3    H1 2784   0.403   2.985   2.681  1.7731 -0.3339  1.4549
  940TIP3    H2 2785   0.355   3.114   2.746 -0.6393 -0.3797 -0.0866
  941TIP3   OH2 2786   3.175   0.243   4.050 -0.2235  0.2929  0.1358
  941TIP3    H1 2787   3.250   0.224   4.106  1.0198  0.8864 -1.2599
  941TIP3    H2 2788   3.120   0.302   4.102 -0.0747 -0.6780  1.4237
  942TIP3   OH2 2789   3.776   4.399   1.487  0.4675 -0.4813  0.0250
  942TIP3    H1 2790   3.829   4.322   1.507 -0.6387 -0.7013  2.4734
  942TIP3    H2 2791   3.711   4.402   1.558  0.8404  3.0372  0.3647
  943TIP3   OH2 2792   2.681   3.792   4.033  0.3891  0.0761  0.0212
  943TIP3    H1 2793   2.609   3.837   4.077 -0.4662 -1.0193 -0.2101
  943TIP3    H2 2794   2.722   3.739   4.102  1.7934  1.6217  0.4400
  944TIP3   OH2 2795   2.817   2.657   5.629  0.0854  0.1220  0.0499
  944TIP3    H1 2796   2.763   2.734   5.613 -0.1582  0.0172  0.3435
  944TIP3    H2 2797   2.895   2.691   5.672  1.5360  0.6333 -2.7337
  945TIP3   OH2 2798   0.386   2.568   5.632 -0.1487 -0.6615  0.4229
  945TIP3    H1 2799   0.315   2.521   5.676 -0.5520  0.1659  0.6707
  945TIP3    H2 2800   0.396   2.649   5.682 -0.9846  0.5693 -1.2932
  946TIP3   OH2 2801   2.678   0.173   2.153 -0.0971  0.0844 -0.3294
  946TIP3    H1 2802   2.733   0.095   2.150  0.6817  0.6508 -1.5767
  946TIP3    H2 2803   2.635   0.177   2.067 -0.4160  0.8212 -0.1486
  947TIP3   OH2 2804   5.227   2.207   3.622 -0.3993 -0.8623 -0.1298
  947TIP3    H1 2805   5.213   2.246   3.708  0.2486  0.9156 -0.7831
  947TIP3    H2 2806   5.316   2.233   3.599  0.4523 -3.5740 -0.2334
  948TIP3   OH2 2807   3.695   0.153   5.463 -0.4560 -0.0967  0.2630
  948TIP3    H1 2808   3.764   0.216   5.485 -0.1119 -0.3084 -0.2127
  948TIP3    H2 2809   3.721   0.117   5.379 -0.2424 -1.4500  0.8890
  949TIP3   OH2 2810   6.951   0.368   2.287  0.0464  0.1024 -0.1785
  949TIP3    H1 2811   7.011   0.441   2.301 -1.4578  1.0128  2.0592
  949TIP3    H2 2812   6.970   0.307   2.359 -0.2384 -0.6720 -0.7366
  950TIP3   OH2 2813   3.961   4.683   0.483 -0.1137  0.5786 -0.0813
  950TIP3    H1 2814   4.045   4.700   0.524 -0.2337  1.3085 -0.1141
  950TIP3    H2 2815   3.947   4.589   0.493  0.7615  0.4318 -0.1910
  951TIP3   OH2 2816   3.631   6.266   5.221 -0.5003  0.0584 -0.0280
  951TIP3    H1 2817   3.621   6.285   5.128 -2.5553 -0.2859  0.0769
  951TIP3    H2 2818   3.634   6.352   5.263  1.7766  0.2542 -0.4696
  952TIP3   OH2 2819   5.987   0.165   4.944 -0.4793 -0.1338  0.7825
  952TIP3    H1 2820   6.048   0.237   4.928 -0.9184  0.7257  2.6610
  952TIP3    H2 2821   5.901   0.205   4.937 -0.7484 -0.6254  1.1929
  953TIP3   OH2 2822   6.247   2.336   5.441 -0.0790  0.4239 -0.7657
  953TIP3    H1 2823   6.318   2.399   5.441  1.1563 -0.8900  0.8524
  953TIP3    H2 2824   6.177   2.378   5.491  0.8843  0.3961  0.6618
  954TIP3   OH2 2825   2.695   2.828   4.575 -0.4374 -0.2051 -0.0298
  954TIP3    H1 2826   2.601   2.820   4.590 -0.3615  0.7272  1.0258
  954TIP3    H2 2827   2.731   2.744   4.605 -0.6422  0.4712  2.2670
  955TIP3   OH2 2828   4.147   3.869   0.875 -0.0101 -0.3495  0.0813
  955TIP3    H1 2829   4.159   3.936   0.943  0.1536 -0.7971  0.4999
  955TIP3    H2 2830   4.088   3.805   0.915 -2.2504  0.8045 -1.2256
  956TIP3   OH2 2831   5.161   5.500   1.720 -0.6293  0.1217 -0.1644
  956TIP3    H1 2832   5.164   5.465   1.809  1.7443  0.0382 -0.2157
  956TIP3    H2 2833   5.120   5.431   1.669 -0.1902 -0.6751  0.5339
  957TIP3   OH2 2834   1.493   0.902   1.765  0.9453 -0.0545 -0.1073
  957TIP3    H1 2835   1.539   0.985   1.753  1.4607 -0.0862  1.5121
  957TIP3    H2 2836   1.496   0.860   1.679 -0.4631  2.1477 -1.3277
  958TIP3   OH2 2837   3.025   5.557   4.171  0.3611  0.6065  0.2150
  958TIP3    H1 2838   2.955   5.590   4.115  1.7203 -0.0658 -2.0118
  958TIP3    H2 2839   3.084   5.632   4.181  0.7137  0.4052 -0.2918
  959TIP3   OH2 2840   3.114   4.234   0.657  0.0536  0.5150  0.4948
  959TIP3    H1 2841   3.093   4.317   0.699 -1.9969 -0.2887  1.2061
  959TIP3    H2 2842   3.031   4.186   0.657  0.6205 -0.6180 -2.0356
  960TIP3   OH2 2843   6.593   4.323   1.527  0.0316  0.3123  0.1600
  960TIP3    H1 2844   6.537   4.367   1.591 -0.4441  0.6784 -0.4930
  960TIP3    H2 2845   6.578   4.229   1.541 -0.8269  0.4105 -0.0713
  961TIP3   OH2 2846   5.902   4.234   1.486  0.2189 -0.4970 -0.2436
  961TIP3    H1 2847   5.887   4.322   1.450  1.1065 -0.2560 -0.0377
  961TIP3    H2 2848   5.814   4.200   1.503 -0.1166  0.7751  0.6945
  962TIP3   OH2 2849   0.409   1.948   3.186 -0.0212  0.3700  0.7362
  962TIP3    H1 2850   0.313   1.954   3.195  0.0390 -0.7396  2.7362
  962TIP3    H2 2851   0.438   2.039   3.179 -1.2911  0.6915 -1.4322
  963TIP3   OH2 2852   2.464   1.953   5.364 -0.9292  0.0576  0.0682
  963TIP3    H1 2853   2.395   2.020   5.362  0.3064  1.4349  1.4370
  963TIP3    H2 2854   2.546   2.003   5.364  0.0585 -1.5122 -0.2971
  964TIP3   OH2 2855   2.076   4.495   3.084 -0.2995  0.0599 -0.3315
  964TIP3    H1 2856   2.152   4.534   3.128  0.0403 -0.4858 -0.4256
  964TIP3    H2 2857   2.112   4.458   3.004 -0.7825  0.3622 -0.6945
  965TIP3   OH2 2858   4.980   5.971   5.853  1.1625 -0.5147  0.1607
  965TIP3    H1 2859   4.978   5.949   5.760  1.8931 -1.4387  0.3586
  965TIP3    H2 2860   4.944   6.060   5.856 -0.4929 -1.0952 -0.8066
  966TIP3   OH2 2861   0.756   1.338   0.122 -0.1729  0.2285 -0.0613
  966TIP3    H1 2862   0.836   1.362   0.074 -0.8336 -0.7454 -1.7532
  966TIP3    H2 2863   0.780   1.258   0.168 -0.2407 -0.2162 -0.7883
  967TIP3   OH2 2864   2.397   4.717   2.007  0.2200  0.1881 -0.0797
  967TIP3    H1 2865   2.470   4.778   2.018  1.4585 -0.9859 -1.3696
  967TIP3    H2 2866   2.438   4.631   2.000 -0.9842 -0.2897 -3.1651
  968TIP3   OH2 2867   1.286   0.045   4.923 -0.0241 -0.0825 -1.0121
  968TIP3    H1 2868   1.270  -0.007   4.845 -2.5915  0.0688 -0.6620
  968TIP3    H2 2869   1.253   0.133   4.901 -1.1378 -0.1327  0.3165
  969TIP3   OH2 2870   7.107   2.021   5.214  0.1197  0.2381 -0.5035
  969TIP3    H1 2871   7.069   2.036   5.128 -0.0678 -0.6169 -0.5804
  969TIP3    H2 2872   7.089   1.929   5.233 -0.5309  0.6065  0.7906
  970TIP3   OH2 2873   2.733   1.793   5.301  0.3524  0.0964 -0.0880
  970TIP3    H1 2874   2.648   1.835   5.308  0.8166  1.4079 -1.7273
  970TIP3    H2 2875   2.790   1.842   5.361  1.0634  2.4487 -2.4866
  971TIP3   OH2 2876   1.444   0.505   3.302  0.2767  0.6508  0.2291
  971TIP3    H1 2877   1.476   0.418   3.277 -2.6614 -0.5277  0.2140
  971TIP3    H2 2878   1.505   0.565   3.259  1.0859 -1.3676 -1.6749
  972TIP3   OH2 2879   1.129   4.595   1.420 -0.1899  0.0746  0.2470
  972TIP3    H1 2880   1.132   4.691   1.426 -2.2920  0.3736 -1.8253
  972TIP3    H2 2881   1.185   4.574   1.345  2.0500 -0.6129  2.0140
  973TIP3   OH2 2882   4.064   4.782   2.498  0.2396  0.1277  0.4886
  973TIP3    H1 2883   3.976   4.746   2.492 -0.0373  0.4891  2.0631
  973TIP3    H2 2884   4.051   4.877   2.505  0.6492  0.0776  2.2371
  974TIP3   OH2 2885   4.584   1.490   2.330 -0.3121  0.6029  0.2581
  974TIP3    H1 2886   4.622   1.548   2.396  0.0347  0.0412  0.5617
  974TIP3    H2 2887   4.499   1.466   2.366  0.1450 -0.2175  0.8166
  975TIP3   OH2 2888   6.787   1.226   1.349  0.1211 -0.3497 -0.4428
  975TIP3    H1 2889   6.759   1.236   1.440 -1.4658 -2.0304 -0.6871
  975TIP3    H2 2890   6.867   1.173   1.354 -0.3573 -1.0475 -0.0493
  976TIP3   OH2 2891   2.306   2.087   5.127 -0.0377  0.4166  0.8827
  976TIP3    H1 2892   2.258   2.005   5.123  1.1244 -0.2503 -0.0284
  976TIP3    H2 2893   2.296   2.116   5.218 -1.0744 -0.3453  1.0230
  977TIP3   OH2 2894   6.305   6.495   5.281  0.2362  0.1109  0.4702
  977TIP3    H1 2895   6.254   6.499   5.200 -0.9797 -0.0467  1.2083
  977TIP3    H2 2896   6.395   6.516   5.254 -0.3613  1.2636 -0.7207
  978TIP3   OH2 2897   2.827   5.459   1.739 -0.5006 -0.1165  0.2667
  978TIP3    H1 2898   2.851   5.442   1.648 -0.0944  0.3562  0.2840
  978TIP3    H2 2899   2.771   5.536   1.736  0.4769  0.6223  0.5243
  979TIP3   OH2 2900   0.222   3.805   2.864  0.5396 -0.1862  0.4390
  979TIP3    H1 2901   0.127   3.797   2.855  0.3668  2.5853 -1.3052
  979TIP3    H2 2902   0.236   3.805   2.959 -1.0413 -1.7209  0.7330
  980TIP3   OH2 2903   3.511   0.556   3.437  0.4425 -0.6978 -0.0754
  980TIP3    H1 2904   3.428   0.589   3.402 -0.3602 -0.5342  1.8764
  980TIP3    H2 2905   3.570   0.631   3.433  0.1568 -0.4866 -0.3934
  981TIP3   OH2 2906   6.428   6.815   5.413  0.0375  0.1558 -0.8354
  981TIP3    H1 2907   6.344   6.776   5.438  0.4785 -1.0785 -1.2153
  981TIP3    H2 2908   6.494   6.754   5.446  0.7329  0.3029 -1.8920
  982TIP3   OH2 2909   1.826   0.840   2.196  0.2964 -0.0586 -0.3752
  982TIP3    H1 2910   1.868   0.914   2.152 -0.0387  0.3159 -0.0704
  982TIP3    H2 2911   1.898   0.790   2.234  0.5327  0.0488 -0.6803
  983TIP3   OH2 2912   1.946   6.670   0.579  0.1042 -0.3797  0.0149
  983TIP3    H1 2913   1.900   6.753   0.594 -1.9972 -1.2267 -1.2288
  983TIP3    H2 2914   2.036   6.695   0.561 -0.8115  1.8108 -2.0045
  984TIP3   OH2 2915   6.614   4.082   4.540 -0.0103 -0.0857 -0.5790
  984TIP3    H1 2916   6.703   4.117   4.548 -0.4026  1.0944 -1.2827
  984TIP3    H2 2917   6.624   4.005   4.484  0.5767 -0.0128 -0.5842
  985TIP3   OH2 2918   0.031   6.661   4.721  0.1777 -0.2168 -0.5703
  985TIP3    H1 2919   0.044   6.751   4.693  2.1868 -0.0090  0.7424
  985TIP3    H2 2920  -0.014   6.668   4.806 -3.4353 -0.7175 -2.2504
  986TIP3   OH2 2921   0.159   3.664   1.853 -0.6009 -0.2703  0.1158
  986TIP3    H1 2922   0.075   3.663   1.900  0.0936  3.3118  1.7736
  986TIP3    H2 2923   0.206   3.588   1.886 -2.3131 -1.0696  0.8679
  987TIP3   OH2 2924   0.213   5.521   3.610  0.2593  0.3514 -0.4287
  987TIP3    H1 2925   0.207   5.608   3.570 -0.0822  0.1443 -0.8301
  987TIP3    H2 2926   0.132   5.512   3.660  0.3369  0.3011 -0.3124
  988TIP3   OH2 2927   1.150   4.534   5.185  0.2234  0.2748 -0.0446
  988TIP3    H1 2928   1.070   4.559   5.230 -0.3902 -0.6450 -0.6009
  988TIP3    H2 2929   1.195   4.475   5.245 -1.0250 -1.6651 -0.9415
  989TIP3   OH2 2930   1.520   3.792   5.194 -0.4907 -0.2187  0.0376
  989TIP3    H1 2931   1.451   3.858   5.205  1.0410  1.5652 -0.6155
  989TIP3    H2 2932   1.472   3.711   5.172 -2.4048  0.7349  0.4405
  990TIP3   OH2 2933   2.710   4.567   3.515 -0.6816  0.8477 -0.4210
  990TIP3    H1 2934   2.673   4.480   3.504 -0.2187  0.6246 -0.2708
  990TIP3    H2 2935   2.780   4.572   3.449  1.3499 -0.0786  1.5082
  991TIP3   OH2 2936   3.522   6.297   3.444  0.3479  0.1372  0.0371
  991TIP3    H1 2937   3.506   6.388   3.468  1.7138  0.4604 -0.1625
  991TIP3    H2 2938   3.561   6.302   3.357  0.5882 -0.6256  0.0907
  992TIP3   OH2 2939   5.638   6.026   4.631 -0.0606 -0.3090 -0.2617
  992TIP3    H1 2940   5.604   6.071   4.709  0.5297  0.4663 -0.4375
  992TIP3    H2 2941   5.683   5.949   4.666 -1.9128 -1.3394 -0.0216
  993TIP3   OH2 2942   6.742   6.089   1.036  0.3108 -0.3379  0.3866
  993TIP3    H1 2943   6.729   6.063   0.945  1.8834 -1.4209  0.4339
  993TIP3    H2 2944   6.833   6.119   1.040  0.3200 -0.4595  1.6250
  994TIP3   OH2 2945   6.389   6.488   0.679  0.5230 -0.1832 -0.6345
  994TIP3    H1 2946   6.477   6.504   0.712  1.4834 -1.5084 -2.3482
  994TIP3    H2 2947   6.348   6.433   0.746  0.9186  0.5983  0.2624
  995TIP3   OH2 2948   0.994   6.510   3.294  0.3079 -0.3515 -0.1842
  995TIP3    H1 2949   0.985   6.600   3.324 -0.5353  0.2393 -2.0596
  995TIP3    H2 2950   0.912   6.468   3.320  1.2172 -0.9923  1.8420
  996TIP3   OH2 2951   5.304   4.208   4.187  0.5030 -0.3098 -0.1239
  996TIP3    H1 2952   5.303   4.125   4.234  0.3881 -0.0199  0.3871
  996TIP3    H2 2953   5.255   4.268   4.243  1.0492  0.2469 -0.2343
  997TIP3   OH2 2954   4.053   0.110   3.722 -0.2101  0.6294  0.1159
  997TIP3    H1 2955   4.054   0.153   3.636 -2.3309  1.4773  0.4467
  997TIP3    H2 2956   4.121   0.155   3.772  0.8501  0.3257 -1.0016
  998TIP3   OH2 2957   5.542   1.175   4.550 -0.3348 -0.3033  0.0551
  998TIP3    H1 2958   5.615   1.173   4.489  0.4105 -1.4479  0.9450
  998TIP3    H2 2959   5.555   1.098   4.605  0.8166  2.2419  3.7069
  999TIP3   OH2 2960   2.241   5.442   5.710 -0.0847 -0.3026  0.1640
  999TIP3    H1 2961   2.334   5.422   5.696  0.3440  1.3507  0.4538
  999TIP3    H2 2962   2.230   5.438   5.805  0.0345  0.8091  0.2394
 1000TIP3   OH2 2963   6.154   5.803   0.834 -0.2933 -0.4284 -0.2015
 1000TIP3    H1 2964   6.072   5.845   0.860 -0.8858 -0.9327 -1.1729
 1000TIP3    H2 2965   6.130   5.711   0.820  0.1763 -0.3591 -1.5881
 1001TIP3   OH2 2966   6.890   4.983   3.426  0.7718  0.0656 -0.1545
 1001TIP3    H1 2967   6.893   5.077   3.407  2.8435 -0.4213 -2.9926
 1001TIP3    H2 2968   6.813   4.952   3.378  0.2282  0.2606  0.5812
 1002TIP3   OH2 2969   4.149   2.880   1.282 -0.5279 -0.0517 -0.4838
 1002TIP3    H1 2970   4.127   2.863   1.190  0.9168 -0.4818 -0.7878
 1002TIP3    H2 2971   4.065   2.891   1.326 -1.2371  2.9473 -2.3345
 1003TIP3   OH2 2972   5.781   6.453   0.453  0.0203  0.2468  0.0797
 1003TIP3    H1 2973   5.783   6.369   0.407 -0.4053 -0.2445  0.9194
 1003TIP3    H2 2974   5.712   6.503   0.410 -0.0458 -0.0213 -0.1286
 1004TIP3   OH2 2975   1.411   0.190   5.295  0.0554 -0.0611  0.0403
 1004TIP3    H1 2976   1.491   0.140   5.283 -0.1602 -0.9655  2.0947
 1004TIP3    H2 2977   1.436   0.281   5.276  2.0117 -0.0688  2.2039
 1005TIP3   OH2 2978   0.481   1.924   5.795  0.7674 -0.1374  0.5073
 1005TIP3    H1 2979   0.525   2.003   5.826  0.5633  0.8290 -1.4763
 1005TIP3    H2 2980   0.543   1.853   5.813  1.5337  0.6631  1.1076
 1006TIP3   OH2 2981   3.018   2.386   4.745  0.0707 -0.5202 -0.1717
 1006TIP3    H1 2982   3.097   2.425   4.782  0.0168  0.6506 -1.2152
 1006TIP3    H2 2983   2.991   2.447   4.676 -1.3798 -1.2243 -0.2745
 1007TIP3   OH2 2984   2.304   6.092   2.788  0.0319  0.2908  0.1957
 1007TIP3    H1 2985   2.262   6.103   2.703  0.3743  2.2670  0.2332
 1007TIP3    H2 2986   2.332   6.000   2.790 -0.1224  0.1722 -1.7458
 1008TIP3   OH2 2987   5.057   1.423   5.137  0.0420  0.2425  0.9309
 1008TIP3    H1 2988   5.119   1.359   5.174 -0.4102 -0.3141  0.7316
 1008TIP3    H2 2989   5.065   1.499   5.194  2.0386  0.7772  0.0391
 1009TIP3   OH2 2990   1.625   0.862   4.574 -0.0737 -0.9257 -0.1775
 1009TIP3    H1 2991   1.672   0.842   4.493 -0.0929 -2.8690  0.2414
 1009TIP3    H2 2992   1.654   0.795   4.636 -0.7392 -0.0238  1.1576
 1010TIP3   OH2 2993   5.737   2.625   0.952  0.3212  0.0051  0.3700
 1010TIP3    H1 2994   5.726   2.685   0.878  1.4743 -0.1812  0.0312
 1010TIP3    H2 2995   5.675   2.657   1.017 -0.5846  0.2916 -0.5990
 1011TIP3   OH2 2996   5.389   1.299   3.755 -0.0723 -0.5933  0.0347
 1011TIP3    H1 2997   5.460   1.249   3.796  0.3899 -0.8729 -1.0809
 1011TIP3    H2 2998   5.433   1.373   3.713 -0.6544  0.2655  0.8866
 1012TIP3   OH2 2999   5.414   1.658   3.530 -0.2256  0.1775 -0.4653
 1012TIP3    H1 3000   5.508   1.677   3.523 -0.5116  2.7178  1.3018
 1012TIP3    H2 3001   5.374   1.710   3.460 -0.6172  3.1276  1.7290
 1013TIP3   OH2 3002   1.735   6.665   1.231 -0.3094  0.0174 -0.4123
 1013TIP3    H1 3003   1.745   6.756   1.202 -1.9687  0.4075  0.1188
 1013TIP3    H2 3004   1.643   6.659   1.257  0.1586 -1.3862  1.0429
 1014TIP3   OH2 3005   6.136   0.148   3.639  0.0306 -0.3589 -0.0592
 1014TIP3    H1 3006   6.147   0.238   3.671  1.0313 -0.5927  0.2790
 1014TIP3    H2 3007   6.122   0.097   3.719 -1.9701 -0.3311 -0.3389
 1015TIP3   OH2 3008   3.613   6.251   0.321 -0.6706  0.1037 -0.2294
 1015TIP3    H1 3009   3.586   6.198   0.247 -0.5475  2.4663 -2.0752
 1015TIP3    H2 3010   3.531   6.274   0.365 -0.8822 -0.0610 -0.5302
 1016TIP3   OH2 3011   4.850   2.527   2.919  0.0069  0.7161  0.2474
 1016TIP3    H1 3012   4.930   2.485   2.950  0.4624  2.1178  1.0493
 1016TIP3    H2 3013   4.859   2.530   2.824  1.2287  1.4461  0.3642
 1017TIP3   OH2 3014   1.988   2.799   4.917 -0.0420  0.6943 -0.2871
 1017TIP3    H1 3015   1.930   2.775   4.845  1.1318 -0.4599 -0.8797
 1017TIP3    H2 3016   2.021   2.886   4.893 -2.0970  1.7763  0.4737
 1018TIP3   OH2 3017   0.283   0.771   2.329  0.1632 -0.2928 -0.5199
 1018TIP3    H1 3018   0.318   0.860   2.317 -0.2597 -0.1434 -0.6700
 1018TIP3    H2 3019   0.193   0.777   2.297  0.1481 -0.7892 -0.5684
 1019TIP3   OH2 3020   6.055   4.044   2.498  0.8121 -0.1936 -0.3262
 1019TIP3    H1 3021   5.990   4.113   2.484  0.3978 -0.4732  0.2030
 1019TIP3    H2 3022   6.138   4.084   2.472  0.6092  0.5767  0.1650
 1020TIP3   OH2 3023   0.662   0.955   0.655 -0.0453  0.3046  0.4014
 1020TIP3    H1 3024   0.569   0.935   0.658  0.0589 -0.4360 -0.7493
 1020TIP3    H2 3025   0.705   0.871   0.638  0.6418  0.9457 -1.3134
 1021TIP3   OH2 3026   4.205   4.371   2.334 -0.3854  0.4421  0.4902
 1021TIP3    H1 3027   4.214   4.319   2.255  2.0510  0.7585  0.4686
 1021TIP3    H2 3028   4.214   4.308   2.406 -2.8028  0.1232  0.5880
 1022TIP3   OH2 3029   3.313   0.362   4.403  0.5670 -0.2372  0.4243
 1022TIP3    H1 3030   3.405   0.336   4.401  0.4881 -0.5790  1.0043
 1022TIP3    H2 3031   3.267   0.284   4.435  0.1731  0.1991  0.9425
 1023TIP3   OH2 3032   0.214   0.634   3.848 -0.1190 -0.3522  0.7521
 1023TIP3    H1 3033   0.247   0.558   3.801  1.1682 -0.0282  1.0953
 1023TIP3    H2 3034   0.162   0.682   3.783 -4.3122 -3.3727  1.4164
 1024TIP3   OH2 3035   2.985   5.180   2.552 -0.2484  0.4740  0.3644
 1024TIP3    H1 3036   2.931   5.164   2.629 -0.7208 -3.1951 -0.5447
 1024TIP3    H2 3037   2.925   5.169   2.478  1.2822 -1.9352 -0.6137
 1025TIP3   OH2 3038   1.003   1.921   0.459 -0.3152 -0.4754 -0.2999
 1025TIP3    H1 3039   1.034   1.992   0.404 -0.3929  0.6720  1.0603
 1025TIP3    H2 3040   1.058   1.925   0.537 -1.5053 -0.7295  0.5883
 1026TIP3   OH2 3041   4.802   3.921   1.218 -0.0383 -0.3662  0.1970
 1026TIP3    H1 3042   4.858   3.915   1.296  1.3821 -1.0512 -0.8261
 1026TIP3    H2 3043   4.717   3.888   1.247  0.8717 -2.0302  1.1046
 1027TIP3   OH2 3044   2.101   0.956   0.902  0.3689 -0.3856  0.1437
 1027TIP3    H1 3045   2.194   0.954   0.922  0.8609 -1.1082 -1.9614
 1027TIP3    H2 3046   2.064   0.885   0.955  1.1212 -0.5153  0.5116
 1028TIP3   OH2 3047   3.069   4.831   1.733  0.1544  0.3452 -0.0545
 1028TIP3    H1 3048   3.017   4.761   1.694  0.6902  1.2020 -2.4514
 1028TIP3    H2 3049   3.150   4.788   1.760  0.3011 -0.0743 -1.0951
 1029TIP3   OH2 3050   6.768   2.379   1.847  0.0006 -0.0084 -0.1494
 1029TIP3    H1 3051   6.735   2.429   1.772 -0.6340  0.1235  0.2110
 1029TIP3    H2 3052   6.769   2.288   1.817 -0.9149 -0.0436 -0.0978
 1030TIP3   OH2 3053   2.317   1.557   5.086  0.7971  0.0555  0.4823
 1030TIP3    H1 3054   2.358   1.591   5.006 -0.9239 -1.2231 -1.0467
 1030TIP3    H2 3055   2.386   1.562   5.152  2.0451  1.9375 -0.8536
 1031TIP3   OH2 3056   0.009   5.306   0.492  0.4561  0.2765  0.0789
 1031TIP3    H1 3057   0.064   5.382   0.513  0.2869  0.7076 -0.9906
 1031TIP3    H2 3058  -0.056   5.340   0.431 -0.1785 -0.5325  0.2942
 1032TIP3   OH2 3059   2.541   5.518   4.875  0.9044  0.3396  0.0538
 1032TIP3    H1 3060   2.480   5.527   4.802  0.4542 -2.2473  0.0055
 1032TIP3    H2 3061   2.625   5.548   4.840 -0.0087  2.7099 -0.2877
 1033TIP3   OH2 3062   0.965   0.437   0.145 -0.3640 -0.0930 -0.4852
 1033TIP3    H1 3063   0.994   0.346   0.142  0.5779  0.2169 -2.3005
 1033TIP3    H2 3064   0.887   0.439   0.090 -0.6128  0.1326 -0.1285
 1034TIP3   OH2 3065   4.009   6.705   4.553 -0.3105 -0.2034 -0.2040
 1034TIP3    H1 3066   4.086   6.699   4.497 -0.0934  0.6697 -0.0132
 1034TIP3    H2 3067   3.989   6.614   4.576  0.9816 -0.4215  0.1608
 1035TIP3   OH2 3068   4.415   5.779   0.634 -0.1801  0.7768  0.6066
 1035TIP3    H1 3069   4.497   5.813   0.671  1.5503 -2.5023  0.1739
 1035TIP3    H2 3070   4.428   5.787   0.539 -0.5481  0.6341  0.5456
 1036TIP3   OH2 3071   6.469   6.552   1.868  0.2224  0.3440 -0.2463
 1036TIP3    H1 3072   6.544   6.570   1.925 -0.4413  0.9325  0.4687
 1036TIP3    H2 3073   6.396   6.541   1.929  0.0598 -2.1878 -0.7888
 1037TIP3   OH2 3074   7.051   1.766   5.247  0.0020  0.5286 -0.2183
 1037TIP3    H1 3075   7.061   1.739   5.338  0.6460  0.5210 -0.2921
 1037TIP3    H2 3076   6.976   1.714   5.216  1.0242 -0.9734 -0.2634
 1038TIP3   OH2 3077   1.473   5.606   2.276  0.0071  0.2377 -0.2279
 1038TIP3    H1 3078   1.449   5.576   2.188 -0.6124 -2.6327  0.8075
 1038TIP3    H2 3079   1.410   5.676   2.295 -1.8463 -1.1240 -0.9809
 1039TIP3   OH2 3080   0.177   4.966   0.844  0.0784 -0.4945 -0.3302
 1039TIP3    H1 3081   0.221   4.978   0.928  0.0757  0.1781 -0.4224
 1039TIP3    H2 3082   0.219   5.029   0.785  0.0166 -0.8947 -0.8131
 1040TIP3   OH2 3083   5.622   5.557   4.251 -1.3476  0.2242 -1.0784
 1040TIP3    H1 3084   5.668   5.640   4.257  2.1321 -1.6035  0.4841
 1040TIP3    H2 3085   5.583   5.545   4.338  2.9415 -2.0522  0.8134
 1041TIP3   OH2 3086   2.528   6.543   0.483 -0.1723 -0.3309 -0.0446
 1041TIP3    H1 3087   2.451   6.525   0.429 -0.5212  0.5908  0.1332
 1041TIP3    H2 3088   2.590   6.585   0.423  0.2761 -1.2330 -0.2314
 1042TIP3   OH2 3089   6.593   6.284   3.638 -0.3585 -0.2741 -0.1389
 1042TIP3    H1 3090   6.623   6.275   3.729 -0.8349  0.5940  0.1186
 1042TIP3    H2 3091   6.654   6.230   3.587  0.1078 -0.5185  0.6544
 1043TIP3   OH2 3092   4.636   6.692   2.613 -0.7575 -0.3718  0.3161
 1043TIP3    H1 3093   4.662   6.602   2.634 -0.2980 -0.4191 -0.4394
 1043TIP3    H2 3094   4.714   6.744   2.628 -0.1163 -0.5302 -2.0399
 1044TIP3   OH2 3095   6.277   4.750   4.591 -0.5504  0.2062  0.5213
 1044TIP3    H1 3096   6.182   4.755   4.590 -0.5812 -0.2590 -0.5890
 1044TIP3    H2 3097   6.297   4.657   4.580  0.0289  0.3222  0.5202
 1045TIP3   OH2 3098   4.586   4.875   5.389 -0.0855 -0.3131  0.3596
 1045TIP3    H1 3099   4.672   4.850   5.423 -0.2738 -0.4652  0.7225
 1045TIP3    H2 3100   4.545   4.792   5.364  1.2123 -0.0932 -3.1264
 1046TIP3   OH2 3101   5.466   6.609   1.142 -0.3818 -0.1117 -0.3528
 1046TIP3    H1 3102   5.446   6.525   1.101  0.5103 -1.4512  1.7530
 1046TIP3    H2 3103   5.398   6.620   1.209 -0.7514  1.0802 -0.9020
 1047TIP3   OH2 3104   4.476   1.241   2.705 -0.4333  0.2374 -0.2413
 1047TIP3    H1 3105   4.555   1.292   2.687 -1.3931  1.8040 -0.1979
 1047TIP3    H2 3106   4.436   1.227   2.619 -0.7670  0.5873 -0.1485
 1048TIP3   OH2 3107   2.882   0.660   4.635 -0.1190 -0.0093  0.2458
 1048TIP3    H1 3108   2.970   0.666   4.671 -0.1850  4.0273  0.1995
 1048TIP3    H2 3109   2.824   0.675   4.710 -0.6086  0.3636 -0.1942
 1049TIP3   OH2 3110   4.264   6.639   4.431  0.2710 -0.3442 -1.2012
 1049TIP3    H1 3111   4.281   6.567   4.370  0.5137 -2.1345  0.8587
 1049TIP3    H2 3112   4.343   6.693   4.427  1.0226 -1.4126 -1.2340
 1050TIP3   OH2 3113   5.115   5.263   2.336 -0.7846 -0.6231 -0.5480
 1050TIP3    H1 3114   5.181   5.194   2.349  2.4452  1.8763 -2.1337
 1050TIP3    H2 3115   5.126   5.321   2.411 -1.8965 -0.6592 -0.3446
 1051TIP3   OH2 3116   3.626   5.043   3.427  0.0387 -0.2309 -0.2934
 1051TIP3    H1 3117   3.605   5.038   3.520 -0.5460 -0.6219 -0.4400
 1051TIP3    H2 3118   3.689   5.115   3.420  1.5118 -1.3689  0.6559
 1052TIP3   OH2 3119   2.268   4.904   2.615 -0.5898 -0.1346  0.4375
 1052TIP3    H1 3120   2.174   4.895   2.629 -0.2303 -1.1252  2.6032
 1052TIP3    H2 3121   2.281   4.998   2.602 -1.7143  0.2234  1.6358
 1053TIP3   OH2 3122   2.815   0.590   4.371  0.6217 -0.0844  0.1727
 1053TIP3    H1 3123   2.727   0.557   4.385 -1.3625  3.9422 -1.1930
 1053TIP3    H2 3124   2.847   0.612   4.459 -0.6343  0.3555  0.5327
 1054TIP3   OH2 3125   1.618   0.281   1.048  0.4564  0.2977 -0.3408
 1054TIP3    H1 3126   1.611   0.199   0.999 -1.1201 -0.2699  0.7782
 1054TIP3    H2 3127   1.528   0.302   1.075  0.9377  1.9422  0.1442
 1055TIP3   OH2 3128   1.954   5.820   1.491 -0.3579 -0.3636  0.1476
 1055TIP3    H1 3129   1.969   5.726   1.485  0.6226 -0.1776 -0.6198
 1055TIP3    H2 3130   2.021   5.858   1.435  0.7440  0.8940  2.1748
 1056TIP3   OH2 3131   2.021   0.449   1.312 -0.0584  0.1089 -0.1629
 1056TIP3    H1 3132   2.065   0.491   1.386 -0.0573  0.1079 -0.1629
 1056TIP3    H2 3133   1.928   0.447   1.337 -0.3227  1.7063 -0.9058
 1057TIP3   OH2 3134   6.517   4.276   3.608  0.0535 -0.0673  0.5185
 1057TIP3    H1 3135   6.499   4.241   3.521 -1.7596 -0.7466  1.1314
 1057TIP3    H2 3136   6.592   4.335   3.595 -0.5223  0.2830 -1.5817
 1058TIP3   OH2 3137   6.102   6.607   3.832  0.0389  0.1314 -0.1261
 1058TIP3    H1 3138   6.109   6.512   3.826 -1.7175 -0.1231  0.9347
 1058TIP3    H2 3139   6.062   6.633   3.749 -0.1851 -0.1727 -0.1174
 1059TIP3   OH2 3140   4.747   0.776   1.781  0.3210  0.1004 -0.2773
 1059TIP3    H1 3141   4.840   0.760   1.795  0.2509 -0.9013 -0.8647
 1059TIP3    H2 3142   4.726   0.728   1.701 -1.0047 -0.8385  0.5914
 1060TIP3   OH2 3143   6.585   5.487   1.543  0.4656 -0.4265  0.0026
 1060TIP3    H1 3144   6.503   5.442   1.526  0.9066 -0.8985 -0.9310
 1060TIP3    H2 3145   6.565   5.547   1.614 -1.3881  1.3889 -1.9217
 1061TIP3   OH2 3146   5.944   1.314   5.325  0.5345  0.0212  0.1179
 1061TIP3    H1 3147   6.012   1.319   5.258  0.3971  0.4937  0.0085
 1061TIP3    H2 3148   5.873   1.370   5.291  0.3102 -0.0472  0.4739
 1062TIP3   OH2 3149   7.045   1.319   2.980 -0.2985 -0.6531  0.0145
 1062TIP3    H1 3150   7.081   1.408   2.977 -0.4279 -0.5191  1.5131
 1062TIP3    H2 3151   6.964   1.324   2.929 -0.1894  0.0244 -0.1020
 1063TIP3   OH2 3152   2.265   4.163   0.933  0.1832 -0.3600  0.4803
 1063TIP3    H1 3153   2.295   4.253   0.939  0.5607 -0.2937 -1.5389
 1063TIP3    H2 3154   2.171   4.170   0.913  0.2310 -0.4068  0.2359
 1064TIP3   OH2 3155   0.105   3.484   4.932 -0.1396 -0.4868 -0.2961
 1064TIP3    H1 3156   0.171   3.544   4.966 -1.6370  0.6787  0.6875
 1064TIP3    H2 3157   0.063   3.532   4.860 -3.0543  0.8288  2.0857
 1065TIP3   OH2 3158   3.019   1.432   2.024  0.0207  0.8102  0.5535
 1065TIP3    H1 3159   2.948   1.417   2.086  0.2598  1.0914  0.9001
 1065TIP3    H2 3160   3.040   1.525   2.034  0.0443  0.8652  0.0301
 1066TIP3   OH2 3161   3.230   1.271   2.879 -0.7629  0.4613 -0.4307
 1066TIP3    H1 3162   3.273   1.194   2.916  1.4609  0.8703 -1.9558
 1066TIP3    H2 3163   3.155   1.237   2.831 -1.0371 -0.5013  0.6466
 1067TIP3   OH2 3164   1.957   4.676   2.322 -0.0114  0.8008  0.1059
 1067TIP3    H1 3165   1.886   4.738   2.305 -1.0102 -0.0100  1.1314
 1067TIP3    H2 3166   2.022   4.694   2.254 -0.8472  2.0932 -0.3806
 1068TIP3   OH2 3167   3.179   6.304   4.614  0.5899  0.0976  0.8663
 1068TIP3    H1 3168   3.137   6.385   4.643  1.6958  2.0707 -2.4776
 1068TIP3    H2 3169   3.268   6.310   4.648 -0.0957 -1.2055  3.0242
 1069TIP3   OH2 3170   0.041   1.095   3.976  0.0630 -0.0690  0.6687
 1069TIP3    H1 3171  -0.028   1.162   3.981  1.3709  1.5674 -1.1793
 1069TIP3    H2 3172   0.006   1.020   4.023 -2.0313  1.4771  1.7367
 1070TIP3   OH2 3173   1.643   3.817   3.332  0.2763  0.4909 -0.3743
 1070TIP3    H1 3174   1.566   3.863   3.298 -0.2133 -1.4623 -2.1115
 1070TIP3    H2 3175   1.717   3.858   3.287 -0.3325 -1.7964 -3.8485
 1071TIP3   OH2 3176   3.778   4.523   3.602 -0.3764 -0.1560 -0.0792
 1071TIP3    H1 3177   3.872   4.530   3.589 -0.2856  0.7377  0.8470
 1071TIP3    H2 3178   3.741   4.593   3.548 -0.4191  0.1162  0.2945
 1072TIP3   OH2 3179   5.582   4.908   2.682 -0.1746  0.2956 -1.0672
 1072TIP3    H1 3180   5.490   4.905   2.658 -0.0970  0.3226 -1.3788
 1072TIP3    H2 3181   5.616   4.984   2.636 -0.0647  0.4636 -0.7081
 1073TIP3   OH2 3182   6.049   5.371   4.537  0.2923  0.3691 -0.3672
 1073TIP3    H1 3183   6.133   5.417   4.536 -0.1291  1.2549  1.3022
 1073TIP3    H2 3184   6.072   5.278   4.537  1.2583  0.5996 -0.2431
 1074TIP3   OH2 3185   2.384   6.668   2.185 -0.5220 -0.8178  0.3878
 1074TIP3    H1 3186   2.393   6.591   2.241  0.9489  0.4484  1.9801
 1074TIP3    H2 3187   2.459   6.723   2.207 -0.4616  0.2302 -2.0966
 1075TIP3   OH2 3188   2.584   2.154   1.327  0.3204 -0.3107 -0.0647
 1075TIP3    H1 3189   2.590   2.120   1.238 -1.2577  0.8279 -0.6450
 1075TIP3    H2 3190   2.523   2.094   1.371  1.4121 -1.1152  0.4126
 1076TIP3   OH2 3191   5.606   5.984   4.268  0.1355  0.2897 -0.4288
 1076TIP3    H1 3192   5.579   5.951   4.183 -0.7677 -0.4359  0.1222
 1076TIP3    H2 3193   5.689   6.028   4.252 -1.6875  3.3808 -2.3698
 1077TIP3   OH2 3194   6.852   2.031   2.347 -0.6652 -0.1464 -0.6047
 1077TIP3    H1 3195   6.795   2.038   2.270  0.1537 -0.3105 -1.2511
 1077TIP3    H2 3196   6.811   2.086   2.413 -1.2572  0.2010 -1.2509
 1078TIP3   OH2 3197   7.055   1.998   4.454  0.3570  0.4510 -0.0658
 1078TIP3    H1 3198   7.088   2.019   4.541  0.8088  0.3062 -0.1996
 1078TIP3    H2 3199   7.133   1.978   4.403  0.0380 -0.1731 -0.3129
 1079TIP3   OH2 3200   5.649   6.205   0.990 -0.5137 -0.1526 -0.6458
 1079TIP3    H1 3201   5.718   6.269   1.008 -0.4775 -0.0536 -1.1256
 1079TIP3    H2 3202   5.651   6.146   1.065 -0.0327 -0.0418 -0.5696
 1080TIP3   OH2 3203   3.973   6.328   1.242 -0.3818 -0.3758  0.9011
 1080TIP3    H1 3204   4.067   6.312   1.247 -0.2082  0.2377 -0.1909
 1080TIP3    H2 3205   3.959   6.368   1.156 -2.1014 -3.3824 -0.3582
 1081TIP3   OH2 3206   6.042   1.132   3.104  0.0608  0.5736  0.4498
 1081TIP3    H1 3207   6.059   1.052   3.055 -1.9464  0.6654 -0.5112
 1081TIP3    H2 3208   6.047   1.106   3.196  1.3640 -0.1744  0.1863
 1082TIP3   OH2 3209   1.527   4.774   2.963 -0.3126 -0.3590  0.0881
 1082TIP3    H1 3210   1.521   4.754   2.869 -0.1517  0.4152 -0.0924
 1082TIP3    H2 3211   1.554   4.692   3.003 -0.4288 -0.7112 -0.5395
 1083TIP3   OH2 3212   5.323   5.390   0.240  0.0535  0.2518  0.6484
 1083TIP3    H1 3213   5.374   5.438   0.305  0.3078  0.1330  0.5370
 1083TIP3    H2 3214   5.387   5.364   0.174  0.2818 -1.9525  1.6653
 1084TIP3   OH2 3215   5.345   0.119   3.672 -0.8014  0.9198 -0.2477
 1084TIP3    H1 3216   5.414   0.153   3.728  0.0743  1.0785 -1.3920
 1084TIP3    H2 3217   5.282   0.079   3.733  1.1384 -0.8264  0.7426
 1085TIP3   OH2 3218   0.532   5.243   3.682 -0.0859  0.0082 -0.4130
 1085TIP3    H1 3219   0.534   5.234   3.777  2.2927  2.0045 -0.1828
 1085TIP3    H2 3220   0.439   5.237   3.659 -0.6942 -0.7600  1.9697
 1086TIP3   OH2 3221   0.835   3.571   4.397  0.0785  0.6791 -0.1924
 1086TIP3    H1 3222   0.860   3.616   4.477  0.7746 -0.3355  0.1917
 1086TIP3    H2 3223   0.811   3.641   4.336 -0.7585  1.4476  0.9821
 1087TIP3   OH2 3224   4.337   3.911   5.559 -0.2343  0.0540 -0.3063
 1087TIP3    H1 3225   4.279   3.837   5.538  0.3596 -0.1696 -1.2298
 1087TIP3    H2 3226   4.414   3.897   5.504  0.5247  0.5724  0.5984
 1088TIP3   OH2 3227   4.690   6.123   1.052  0.2806 -0.3105 -0.6503
 1088TIP3    H1 3228   4.694   6.027   1.054 -1.0774 -0.3758  0.6011
 1088TIP3    H2 3229   4.608   6.143   1.008 -1.5296  0.1207  2.5996
 1089TIP3   OH2 3230   6.412   2.680   3.762  0.0508  0.2769 -0.1778
 1089TIP3    H1 3231   6.379   2.755   3.811 -0.3469 -0.0951  0.1246
 1089TIP3    H2 3232   6.413   2.710   3.671  1.4659  1.2176  0.1129
 1090TIP3   OH2 3233   4.824   5.246   3.580 -0.6398  0.3320 -0.0116
 1090TIP3    H1 3234   4.887   5.252   3.652  1.6377 -1.0578 -1.7283
 1090TIP3    H2 3235   4.840   5.160   3.542 -0.8720  1.4541 -2.8998
 1091TIP3   OH2 3236   4.567   0.959   1.679  0.1511  0.8655  0.0145
 1091TIP3    H1 3237   4.497   0.948   1.744 -0.8003  1.9644 -0.7880
 1091TIP3    H2 3238   4.644   0.919   1.720 -1.1257 -1.1579  0.5825
 1092TIP3   OH2 3239   6.290   6.808   3.773  0.5815  0.4569  0.9800
 1092TIP3    H1 3240   6.285   6.800   3.678 -0.7141  2.5107  0.8009
 1092TIP3    H2 3241   6.226   6.744   3.805  1.8371 -1.0739  0.5993
 1093TIP3   OH2 3242   1.493   3.586   2.311  0.0613 -0.2882 -0.3898
 1093TIP3    H1 3243   1.439   3.662   2.292  0.3612 -0.0467 -0.2898
 1093TIP3    H2 3244   1.433   3.522   2.348 -0.1886 -0.0911 -0.4548
 1094TIP3   OH2 3245   3.310   2.923   5.434 -0.4756 -0.1760 -0.1295
 1094TIP3    H1 3246   3.323   2.952   5.524  0.2012 -0.2567 -0.1957
 1094TIP3    H2 3247   3.376   2.971   5.384 -0.0926 -0.9817 -0.4147
 1095TIP3   OH2 3248   5.064   6.645   1.866 -0.7704  0.2454 -0.3085
 1095TIP3    H1 3249   5.051   6.740   1.863 -0.2581  0.4092  1.5297
 1095TIP3    H2 3250   4.991   6.612   1.918 -0.7348 -0.3360 -0.6209
 1096TIP3   OH2 3251   6.400   1.342   1.868 -0.5053 -0.6265  0.3329
 1096TIP3    H1 3252   6.391   1.247   1.859  0.0747 -0.6217 -0.3905
 1096TIP3    H2 3253   6.492   1.356   1.888 -0.4963 -0.1862  0.0008
 1097TIP3   OH2 3254   4.138   1.348   5.233 -0.0948  0.0669  0.4109
 1097TIP3    H1 3255   4.115   1.263   5.195  0.8898 -0.3555  0.7344
 1097TIP3    H2 3256   4.148   1.406   5.157 -1.2160  0.0290  0.2115
 1098TIP3   OH2 3257   6.319   4.946   0.664 -0.1433 -0.0988  0.0711
 1098TIP3    H1 3258   6.251   4.926   0.729 -0.3791 -2.3266 -0.7715
 1098TIP3    H2 3259   6.302   5.036   0.638 -0.5271  0.6001  2.4968
 1099TIP3   OH2 3260   0.258   3.919   0.760 -0.1387  0.2124 -0.1829
 1099TIP3    H1 3261   0.208   4.000   0.756  1.1516  1.0067 -0.8003
 1099TIP3    H2 3262   0.274   3.896   0.669 -1.6112 -1.4962 -0.0679
 1100TIP3   OH2 3263   3.440   1.434   2.843 -0.1672  0.1531 -0.0511
 1100TIP3    H1 3264   3.359   1.389   2.867  0.7393 -0.6314  1.6895
 1100TIP3    H2 3265   3.465   1.395   2.759  0.8122 -3.0558  1.5546
 1101TIP3   OH2 3266   1.611   6.368   5.270  0.3290  0.3034  0.3032
 1101TIP3    H1 3267   1.567   6.429   5.211  2.5687  1.6782 -0.0680
 1101TIP3    H2 3268   1.608   6.284   5.224 -0.8340  0.6130 -0.2210
 1102TIP3   OH2 3269   5.773   4.467   2.349 -0.6719 -0.3845 -0.0754
 1102TIP3    H1 3270   5.758   4.551   2.307 -0.5089 -0.7142 -0.8050
 1102TIP3    H2 3271   5.698   4.413   2.322 -0.3689 -0.7170 -0.2669
 1103TIP3   OH2 3272   2.186   5.262   0.980  0.1511  0.0274  0.2084
 1103TIP3    H1 3273   2.124   5.279   1.051 -0.1542 -0.6238  0.1059
 1103TIP3    H2 3274   2.250   5.332   0.986 -0.4047  0.5112  0.5371
 1104TIP3   OH2 3275   1.911   6.332   1.503  0.5978  0.6555 -0.1363
 1104TIP3    H1 3276   1.904   6.414   1.553  1.0445  0.5161  0.1667
 1104TIP3    H2 3277   1.821   6.314   1.474  0.6645  1.8246 -1.1524
 1105TIP3   OH2 3278   1.514   5.543   5.032 -0.1445  0.0746  0.1990
 1105TIP3    H1 3279   1.472   5.521   5.115  0.1190  0.2531  0.3798
 1105TIP3    H2 3280   1.523   5.459   4.987 -1.2461  0.0997 -0.1102
 1106TIP3   OH2 3281   7.017   4.748   3.351  0.4658  0.1573 -0.4554
 1106TIP3    H1 3282   6.982   4.834   3.326 -1.1776 -0.5375 -0.5987
 1106TIP3    H2 3283   6.956   4.715   3.416 -0.5917 -2.1592 -2.5047
 1107TIP3   OH2 3284   5.559   1.825   3.896  0.5124  0.3630 -0.5089
 1107TIP3    H1 3285   5.606   1.759   3.845  1.6352  1.3794 -0.8243
 1107TIP3    H2 3286   5.577   1.907   3.851  0.7687  1.1557  0.9932
 1108TIP3   OH2 3287   4.470   2.777   4.789  0.2563 -0.4974 -0.3530
 1108TIP3    H1 3288   4.424   2.734   4.717 -1.7554 -0.5627  0.9048
 1108TIP3    H2 3289   4.425   2.747   4.868  1.5452  0.6093  0.8526
 1109TIP3   OH2 3290   3.283   2.569   1.687  0.3210  0.3455  0.3125
 1109TIP3    H1 3291   3.216   2.635   1.667  0.0318  0.0490  0.2963
 1109TIP3    H2 3292   3.273   2.504   1.617  0.2290  0.0003  0.6467
 1110TIP3   OH2 3293   4.525   3.564   5.440 -0.4056 -0.0474 -0.6352
 1110TIP3    H1 3294   4.573   3.515   5.373  1.2978 -1.0162  1.1747
 1110TIP3    H2 3295   4.433   3.544   5.423  0.1113 -2.1411 -1.2809
 1111TIP3   OH2 3296   3.801   5.518   5.173 -0.3291  0.2791 -0.3591
 1111TIP3    H1 3297   3.854   5.456   5.223 -0.3535  2.0683  2.0704
 1111TIP3    H2 3298   3.727   5.466   5.141  0.9309 -1.4487 -0.5871
 1112TIP3   OH2 3299   3.566   4.201   1.306  0.2564 -0.2690 -0.2762
 1112TIP3    H1 3300   3.493   4.237   1.257 -0.9940  0.2083  1.8187
 1112TIP3    H2 3301   3.575   4.259   1.381  0.7096 -2.1277  1.1721
 1113TIP3   OH2 3302   1.381   0.255   1.178  0.1870 -0.1184  0.0430
 1113TIP3    H1 3303   1.292   0.285   1.198 -0.1386 -0.8683 -0.2577
 1113TIP3    H2 3304   1.375   0.160   1.182  0.6022 -0.2348 -1.5324
 1114TIP3   OH2 3305   3.319   5.718   4.719  0.1481 -0.0611 -0.5904
 1114TIP3    H1 3306   3.377   5.794   4.720  2.8866 -1.9565 -2.1402
 1114TIP3    H2 3307   3.330   5.680   4.631 -0.3184 -2.7726  0.4164
 1115TIP3   OH2 3308   0.725   4.628   0.198  0.5635  0.3888 -0.6341
 1115TIP3    H1 3309   0.672   4.666   0.267  0.9436  0.1106 -0.1785
 1115TIP3    H2 3310   0.737   4.537   0.224  0.9493  0.3525 -0.9187
 1116TIP3   OH2 3311   2.590   5.978   5.349  0.2598 -0.0227  0.1694
 1116TIP3    H1 3312   2.641   5.897   5.353 -0.3189 -0.4762 -1.1761
 1116TIP3    H2 3313   2.501   5.950   5.329 -0.0818  0.9131  0.3121
 1117TIP3   OH2 3314   3.722   4.109   3.502 -0.5035 -0.2466 -0.2406
 1117TIP3    H1 3315   3.713   4.145   3.414  1.6394 -0.5158 -0.6143
 1117TIP3    H2 3316   3.693   4.018   3.494 -0.8675 -0.1081 -0.5244
 1118TIP3   OH2 3317   4.985   0.964   3.310 -0.7876 -0.2284 -0.1156
 1118TIP3    H1 3318   4.993   1.057   3.330 -3.1541 -0.0933  0.5307
 1118TIP3    H2 3319   5.000   0.958   3.215 -0.2826  0.7417 -0.1063
 1119TIP3   OH2 3320   2.376   0.806   2.294  0.2569 -0.1388  0.0613
 1119TIP3    H1 3321   2.320   0.866   2.244  1.1208  2.4366  1.9979
 1119TIP3    H2 3322   2.464   0.825   2.263  0.6405  0.3793  1.4279
 1120TIP3   OH2 3323   2.938   5.669   0.609 -0.6684 -0.1940 -0.2374
 1120TIP3    H1 3324   2.959   5.762   0.601 -2.1428  0.3345  1.4450
 1120TIP3    H2 3325   3.023   5.625   0.610  0.0489  1.0698 -1.3559
 1121TIP3   OH2 3326   5.060   1.341   4.854 -0.5645 -0.2998  0.0036
 1121TIP3    H1 3327   4.976   1.347   4.809 -0.4383 -1.0306 -0.3519
 1121TIP3    H2 3328   5.048   1.390   4.935 -0.8478  0.8850 -0.7328
 1122TIP3   OH2 3329   6.805   2.856   4.420  0.3135 -0.6241  0.4204
 1122TIP3    H1 3330   6.833   2.814   4.502  0.7773 -0.7535  0.1992
 1122TIP3    H2 3331   6.885   2.866   4.369 -0.0321 -0.9507 -0.2054
 1123TIP3   OH2 3332   2.122   0.608   1.555  0.3257 -0.5131 -0.5245
 1123TIP3    H1 3333   2.054   0.649   1.610  1.2095  0.8781 -0.4020
 1123TIP3    H2 3334   2.193   0.588   1.616 -0.4980 -3.3809 -0.3764
 1124TIP3   OH2 3335   3.386   2.488   3.176 -0.3849  0.1848  0.1375
 1124TIP3    H1 3336   3.443   2.563   3.155  0.2124 -0.0354  0.9067
 1124TIP3    H2 3337   3.443   2.429   3.225 -1.4970  0.3423  1.6899
 1125TIP3   OH2 3338   5.291   5.387   4.154 -0.0881  0.4900  0.1795
 1125TIP3    H1 3339   5.230   5.374   4.082  0.5803  0.3286 -0.3628
 1125TIP3    H2 3340   5.351   5.456   4.125  0.3366  0.2566  0.4745
 1126TIP3   OH2 3341   6.363   4.721   1.678 -0.3229 -0.0503 -0.0000
 1126TIP3    H1 3342   6.421   4.699   1.605  0.3357  0.4681  0.3502
 1126TIP3    H2 3343   6.329   4.637   1.708  1.4134 -0.5481  0.7241
 1127TIP3   OH2 3344   6.415   6.160   5.703  0.1928  0.2329  0.0146
 1127TIP3    H1 3345   6.397   6.203   5.619 -0.7750 -1.2443 -0.5867
 1127TIP3    H2 3346   6.453   6.076   5.678 -1.2266 -0.7459  0.9815
 1128TIP3   OH2 3347   1.697   1.026   0.031 -0.4164  0.1281  0.1766
 1128TIP3    H1 3348   1.750   0.968  -0.023 -0.2106  1.1986 -0.8055
 1128TIP3    H2 3349   1.672   0.972   0.107  1.3139 -0.6627  0.2239
 1129TIP3   OH2 3350   0.470   4.818   4.342  0.2260 -0.0907 -0.6159
 1129TIP3    H1 3351   0.491   4.911   4.334 -0.8353  0.0376 -2.6133
 1129TIP3    H2 3352   0.468   4.801   4.436 -0.5189  2.1559 -0.1759
 1130TIP3   OH2 3353   0.208   4.999   2.126  0.0421  0.1144 -0.4980
 1130TIP3    H1 3354   0.231   4.919   2.079 -0.3228  0.7534 -1.7948
 1130TIP3    H2 3355   0.282   5.013   2.186  0.3626 -0.8879 -0.6402
 1131TIP3   OH2 3356   2.870   0.362   4.711  0.0236 -0.4450 -0.4079
 1131TIP3    H1 3357   2.856   0.380   4.804  0.2881 -1.8666 -0.0535
 1131TIP3    H2 3358   2.881   0.448   4.671 -0.6142  0.2259  0.7825
 1132TIP3   OH2 3359   1.229   2.373   2.332 -0.1181 -0.5623 -0.0749
 1132TIP3    H1 3360   1.280   2.395   2.255  1.0054  0.1993  0.8611
 1132TIP3    H2 3361   1.143   2.413   2.317  0.4162  0.4610 -0.4875
 1133TIP3   OH2 3362   3.242   0.260   0.978 -0.1152 -0.0219 -0.1733
 1133TIP3    H1 3363   3.155   0.250   0.939  0.2278 -0.2290 -0.9088
 1133TIP3    H2 3364   3.273   0.345   0.946 -0.1786  0.2137  0.3717
 1134TIP3   OH2 3365   6.639   4.738   5.019  0.0082 -0.0496 -0.1323
 1134TIP3    H1 3366   6.684   4.665   5.063  1.0810  2.9323  4.4605
 1134TIP3    H2 3367   6.547   4.725   5.039  0.1155 -0.5306  0.0696
 1135TIP3   OH2 3368   2.990   4.149   4.718  0.0455  0.2079  0.3103
 1135TIP3    H1 3369   3.025   4.183   4.636  0.1770  1.8982  1.0372
 1135TIP3    H2 3370   2.896   4.141   4.702  0.1195  0.1514 -0.1152
 1136TIP3   OH2 3371   6.665   1.267   1.651  0.3703 -0.2338  0.1787
 1136TIP3    H1 3372   6.739   1.235   1.702 -0.7494 -1.3777  1.1587
 1136TIP3    H2 3373   6.593   1.208   1.673 -0.0437 -1.2388 -3.2800
 1137TIP3   OH2 3374   4.643   4.791   0.111 -0.3573 -0.0542  0.6356
 1137TIP3    H1 3375   4.647   4.870   0.164 -0.5524 -1.4586  2.8753
 1137TIP3    H2 3376   4.716   4.737   0.142  0.4869 -0.3271 -1.6463
 1138TIP3   OH2 3377   0.908   0.159   5.306  0.3070  0.1505 -0.2933
 1138TIP3    H1 3378   0.974   0.154   5.237  0.6358 -1.1067  0.1063
 1138TIP3    H2 3379   0.932   0.237   5.356  1.5280 -0.3227 -0.1180
 1139TIP3   OH2 3380   4.749   4.433   3.133 -0.1015 -0.1193  0.0510
 1139TIP3    H1 3381   4.700   4.505   3.171  0.6136  0.4506 -0.0789
 1139TIP3    H2 3382   4.802   4.473   3.064 -1.3685 -1.1197 -1.5721
 1140TIP3   OH2 3383   0.221   1.439   3.370 -0.0581  0.5356 -0.4022
 1140TIP3    H1 3384   0.131   1.457   3.345 -0.3395  0.6703  0.6439
 1140TIP3    H2 3385   0.253   1.378   3.304 -1.5604 -1.1381  0.3475
 1141TIP3   OH2 3386   1.956   3.509   1.065  0.3433  0.1113  0.0023
 1141TIP3    H1 3387   2.032   3.565   1.084  0.4273  0.0242 -0.0732
 1141TIP3    H2 3388   1.979   3.424   1.104  0.8240 -0.2770 -1.0750
 1142TIP3   OH2 3389   1.444   6.671   1.199 -0.5015  0.1341 -0.2155
 1142TIP3    H1 3390   1.448   6.767   1.198  0.0953  0.1364  0.8556
 1142TIP3    H2 3391   1.423   6.647   1.109 -0.6326  1.2719 -0.5042
 1143TIP3   OH2 3392   5.945   4.842   5.337 -0.1929  0.6325  0.3046
 1143TIP3    H1 3393   5.891   4.921   5.330 -0.0962  1.0097  3.0025
 1143TIP3    H2 3394   5.992   4.852   5.419 -0.1323 -2.1979  0.7048
 1144TIP3   OH2 3395   5.877   1.502   3.541 -0.1185 -0.1835 -0.1423
 1144TIP3    H1 3396   5.918   1.416   3.533 -0.7328 -0.4018 -1.1933
 1144TIP3    H2 3397   5.949   1.564   3.535  0.0310 -0.4476 -4.2174
 1145TIP3   OH2 3398   5.852   5.357   2.215 -0.5221 -0.0472  0.2012
 1145TIP3    H1 3399   5.839   5.266   2.188 -0.7868 -0.2034  0.8420
 1145TIP3    H2 3400   5.801   5.408   2.151 -0.5878 -0.3663 -0.0046
 1146TIP3   OH2 3401   4.213   1.775   4.890  1.2684 -0.4878  0.0210
 1146TIP3    H1 3402   4.183   1.774   4.799  0.8273  0.4002  0.1455
 1146TIP3    H2 3403   4.170   1.700   4.930  0.7205 -0.3408 -0.2761
 1147TIP3   OH2 3404   3.008   1.157   3.447 -0.0011 -0.3921  0.0034
 1147TIP3    H1 3405   3.043   1.236   3.406 -0.6088  0.1638  0.5125
 1147TIP3    H2 3406   2.940   1.127   3.387 -0.0620 -0.2730  0.0115
 1148TIP3   OH2 3407   0.307   4.593   3.292  0.1763  0.1667  0.1064
 1148TIP3    H1 3408   0.377   4.641   3.247 -1.0830 -0.2197 -2.3845
 1148TIP3    H2 3409   0.226   4.630   3.257 -0.8465 -2.2710 -0.2324
 1149TIP3   OH2 3410   3.731   4.477   3.182  0.4955 -0.0529 -0.4000
 1149TIP3    H1 3411   3.779   4.543   3.233 -0.7961  1.0957 -0.6133
 1149TIP3    H2 3412   3.639   4.494   3.201  0.0911 -1.2503 -1.1520
 1150TIP3   OH2 3413   6.457   1.557   3.707 -0.2470 -1.0239 -0.0381
 1150TIP3    H1 3414   6.474   1.626   3.643  1.5964 -2.0422 -0.7058
 1150TIP3    H2 3415   6.495   1.478   3.669 -1.0880 -2.1501  1.3243
 1151TIP3   OH2 3416   0.087   4.733   3.575 -0.3705 -0.5551  0.0947
 1151TIP3    H1 3417   0.100   4.721   3.480 -1.4286  2.5920 -0.5709
 1151TIP3    H2 3418  -0.003   4.704   3.591 -0.7923  0.5181 -0.2510
 1152TIP3   OH2 3419   0.336   0.136   3.442 -0.7480  0.1324  0.4164
 1152TIP3    H1 3420   0.419   0.175   3.469 -0.1214 -0.7331 -0.1979
 1152TIP3    H2 3421   0.270   0.200   3.467  0.1658  1.1664  0.2675
 1153TIP3   OH2 3422   5.796   4.820   3.427  0.0597  0.3212  0.4623
 1153TIP3    H1 3423   5.800   4.840   3.521 -1.9325  0.1197  0.6370
 1153TIP3    H2 3424   5.713   4.774   3.416  0.5624 -0.2436 -1.3205
 1154TIP3   OH2 3425   6.013   0.411   0.222 -0.6408 -0.3767  0.0367
 1154TIP3    H1 3426   5.957   0.333   0.224 -1.8785  0.4846  2.2384
 1154TIP3    H2 3427   5.954   0.482   0.197 -0.1828  0.2960  0.8395
 1155TIP3   OH2 3428   1.073   1.385   1.183 -0.0803  0.0395 -0.2856
 1155TIP3    H1 3429   1.007   1.346   1.127 -0.4290 -1.5640  1.1576
 1155TIP3    H2 3430   1.026   1.452   1.233 -0.2766 -0.0490 -0.3537
 1156TIP3   OH2 3431   5.606   2.538   4.592  0.1697  0.1718 -0.0032
 1156TIP3    H1 3432   5.701   2.529   4.598  0.2287  0.8311  0.1304
 1156TIP3    H2 3433   5.586   2.614   4.647 -0.5390 -0.5044  0.6995
 1157TIP3   OH2 3434   0.686   3.222   4.656 -0.2350  0.4363 -0.8262
 1157TIP3    H1 3435   0.626   3.292   4.632  0.6527  1.6694  0.3544
 1157TIP3    H2 3436   0.756   3.266   4.704 -0.6951 -1.4847  1.8376
 1158TIP3   OH2 3437   0.274   0.779   4.984  0.1869 -0.0970  0.7327
 1158TIP3    H1 3438   0.362   0.745   4.969  0.9113  1.7033  0.6389
 1158TIP3    H2 3439   0.218   0.726   4.927  1.7997  1.4091 -2.5264
 1159TIP3   OH2 3440   3.525   4.815   2.871  0.1063 -0.3045  0.5632
 1159TIP3    H1 3441   3.511   4.895   2.920 -2.2930 -0.0951 -0.3653
 1159TIP3    H2 3442   3.481   4.747   2.922  1.9210 -1.0528  1.2215
 1160TIP3   OH2 3443   6.038   3.749   0.835 -0.6473 -0.1249 -0.1167
 1160TIP3    H1 3444   6.074   3.730   0.748  0.4187 -0.5035  0.3887
 1160TIP3    H2 3445   6.056   3.842   0.848  1.4293 -0.5696  0.6605
 1161TIP3   OH2 3446   5.761   6.772   0.821 -0.0289  0.0611  0.5637
 1161TIP3    H1 3447   5.734   6.781   0.913  0.1520 -0.3818  0.6609
 1161TIP3    H2 3448   5.777   6.678   0.810 -1.6020 -0.1328 -0.3560
 1162TIP3   OH2 3449   5.969   0.994   5.656  0.1320 -0.1194  0.1778
 1162TIP3    H1 3450   6.040   1.058   5.661  0.8254 -0.8121 -0.5521
 1162TIP3    H2 3451   5.954   0.980   5.563 -2.1061  1.1993  0.2498
 1163TIP3   OH2 3452   3.325   5.529   2.633  0.5711  0.0774  0.2604
 1163TIP3    H1 3453   3.364   5.442   2.631  3.8255  1.3884  0.4683
 1163TIP3    H2 3454   3.355   5.571   2.552 -1.8976  0.7186 -0.4259
 1164TIP3   OH2 3455   2.836   6.766   3.469  0.6150  0.6018  0.0047
 1164TIP3    H1 3456   2.887   6.834   3.514  1.0464 -0.2481  0.8151
 1164TIP3    H2 3457   2.876   6.684   3.496  2.4992  0.0342 -3.7208
 1165TIP3   OH2 3458   4.872   0.515   3.288 -0.5404 -0.2101  0.8635
 1165TIP3    H1 3459   4.804   0.582   3.275  0.1952  0.3340 -0.3782
 1165TIP3    H2 3460   4.954   0.562   3.277  0.0775 -0.8231  2.5585
 1166TIP3   OH2 3461   4.652   4.342   2.001  0.3490  0.0795 -0.1005
 1166TIP3    H1 3462   4.629   4.312   1.914  3.5942 -0.6160 -0.8699
 1166TIP3    H2 3463   4.670   4.436   1.990 -0.9844  0.4030  0.2800
 1167TIP3   OH2 3464   6.553   2.943   1.862 -0.1055 -0.3908 -0.2626
 1167TIP3    H1 3465   6.581   2.917   1.950 -0.5772 -0.0938 -0.0217
 1167TIP3    H2 3466   6.475   2.996   1.876  0.0254 -0.0321 -0.8414
 1168TIP3   OH2 3467   5.799   4.364   2.810 -0.3509  0.7322  0.5377
 1168TIP3    H1 3468   5.710   4.395   2.794 -0.7573 -0.3681  0.5642
 1168TIP3    H2 3469   5.796   4.324   2.898 -0.0831 -0.1535  0.1607
 1169TIP3   OH2 3470   0.732   3.702   0.422 -0.6177  0.0409 -0.3501
 1169TIP3    H1 3471   0.672   3.752   0.477 -0.6905 -2.0622  1.5995
 1169TIP3    H2 3472   0.784   3.769   0.377 -2.5285  1.8739  0.0121
 1170TIP3   OH2 3473   5.133   1.420   3.729 -0.7379 -0.1241 -0.2142
 1170TIP3    H1 3474   5.060   1.400   3.788 -1.8513 -1.3627 -1.8861
 1170TIP3    H2 3475   5.151   1.337   3.684  2.4734 -0.1392  0.8661
 1171TIP3   OH2 3476   3.964   3.402   3.284 -0.3399 -0.2058  0.1902
 1171TIP3    H1 3477   3.921   3.458   3.219 -0.2932 -0.9727 -0.5167
 1171TIP3    H2 3478   3.930   3.432   3.368 -1.2003  0.1106 -0.2625
 1172TIP3   OH2 3479   4.935   5.918   4.341  0.3174  0.2902 -0.0577
 1172TIP3    H1 3480   4.914   5.832   4.304 -1.8866  0.7207  0.0588
 1172TIP3    H2 3481   5.017   5.942   4.299 -0.2748 -0.8000 -2.0072
 1173TIP3   OH2 3482   0.374   5.843   2.102  0.0972  0.1177  0.3388
 1173TIP3    H1 3483   0.410   5.927   2.132 -1.6583  0.5887  1.2680
 1173TIP3    H2 3484   0.280   5.850   2.118 -0.3671 -1.3051 -1.3703
 1174TIP3   OH2 3485   1.969   3.889   1.396 -0.0407  0.5453  0.2860
 1174TIP3    H1 3486   2.059   3.922   1.397  0.6333 -1.1244 -0.8734
 1174TIP3    H2 3487   1.923   3.947   1.335  1.0849 -0.4381 -1.6053
 1175TIP3   OH2 3488   3.261   1.531   4.187 -0.2833 -0.5611 -0.0889
 1175TIP3    H1 3489   3.171   1.517   4.216 -1.0466  1.7842 -1.1365
 1175TIP3    H2 3490   3.254   1.592   4.113  2.2924  2.1219  1.6519
 1176TIP3   OH2 3491   4.476   4.822   2.960 -0.3403  0.3952 -0.1668
 1176TIP3    H1 3492   4.547   4.824   2.896  0.1277 -2.1374  0.1869
 1176TIP3    H2 3493   4.398   4.804   2.909 -0.1077 -0.7062 -0.1472
 1177TIP3   OH2 3494   0.130   6.697   4.301 -0.1168  0.0440 -0.2677
 1177TIP3    H1 3495   0.221   6.690   4.332 -0.0497  0.1641 -0.4337
 1177TIP3    H2 3496   0.138   6.721   4.209 -0.3198  0.9924 -0.0532
 1178TIP3   OH2 3497   2.775   0.019   1.846  0.8535  0.2074  0.0505
 1178TIP3    H1 3498   2.847   0.020   1.783 -0.9158  0.9336 -2.1060
 1178TIP3    H2 3499   2.711   0.080   1.810 -1.6883 -1.8144  0.8335
 1179TIP3   OH2 3500   6.933   5.975   4.560  0.2602  0.0796  0.0752
 1179TIP3    H1 3501   6.848   5.988   4.519  0.3484  1.8207  0.3582
 1179TIP3    H2 3502   6.969   5.898   4.516 -2.0079 -1.5716  0.9332
 1180TIP3   OH2 3503   3.130   0.581   4.734 -0.3554 -0.0005 -0.1377
 1180TIP3    H1 3504   3.219   0.609   4.751 -0.7396  0.9408  0.4007
 1180TIP3    H2 3505   3.139   0.495   4.694  0.7217 -0.8395  1.7909
 1181TIP3   OH2 3506   1.848   4.429   0.618 -0.9631 -0.0130  0.1371
 1181TIP3    H1 3507   1.878   4.366   0.552 -2.1416  0.6824 -1.1015
 1181TIP3    H2 3508   1.757   4.404   0.635 -1.0265  0.5354  0.6285
 1182TIP3   OH2 3509   1.572   2.405   2.539 -0.8853  0.5930  0.1444
 1182TIP3    H1 3510   1.479   2.421   2.552 -0.6209  1.4785  1.0459
 1182TIP3    H2 3511   1.615   2.486   2.566  0.0973  0.5391 -1.1256
 1183TIP3   OH2 3512   2.001   2.220   0.283  0.0391  0.1142 -0.0415
 1183TIP3    H1 3513   2.024   2.127   0.278 -0.4561 -0.0401  0.4709
 1183TIP3    H2 3514   2.084   2.265   0.293  0.2112 -0.3401  0.5888
 1184TIP3   OH2 3515   5.372   3.030   5.318 -0.5531  0.3808  0.8281
 1184TIP3    H1 3516   5.388   2.938   5.299 -2.9539  0.3594 -1.7752
 1184TIP3    H2 3517   5.456   3.063   5.350  0.3271 -2.6930  1.9984
 1185TIP3   OH2 3518   6.593   5.469   4.989 -0.4238 -0.1766 -0.5583
 1185TIP3    H1 3519   6.643   5.528   5.045  0.3720  0.4014 -1.8414
 1185TIP3    H2 3520   6.630   5.383   5.005 -0.0623  0.0171 -0.3425
 1186TIP3   OH2 3521   2.847   0.653   0.693 -0.3251 -0.5272  0.0876
 1186TIP3    H1 3522   2.919   0.664   0.631 -0.2333  0.2079  0.3051
 1186TIP3    H2 3523   2.884   0.681   0.777 -1.1907  1.0724 -0.0119
 1187TIP3   OH2 3524   4.361   1.711   2.366  0.7926  0.1936  0.2377
 1187TIP3    H1 3525   4.283   1.743   2.321 -0.3110 -0.7485  1.4138
 1187TIP3    H2 3526   4.433   1.735   2.308 -0.4653 -0.1577 -1.5714
 1188TIP3   OH2 3527   5.546   3.551   3.564  0.3880  0.5016  0.6578
 1188TIP3    H1 3528   5.515   3.638   3.589  0.5934  0.6923  0.2527
 1188TIP3    H2 3529   5.532   3.546   3.470  1.6201  0.6130  0.4559
 1189TIP3   OH2 3530   4.479   5.812   5.509  0.0964  0.1415  0.3777
 1189TIP3    H1 3531   4.423   5.886   5.487  1.3146  0.1889 -3.0070
 1189TIP3    H2 3532   4.559   5.851   5.544  0.2021  0.3810 -0.1233
 1190TIP3   OH2 3533   5.927   1.521   1.279  0.8531 -0.3540  0.3901
 1190TIP3    H1 3534   5.873   1.452   1.241 -0.4068  1.3242 -1.0191
 1190TIP3    H2 3535   6.007   1.476   1.307  0.4235 -2.2512 -1.1950
 1191TIP3   OH2 3536   4.297   3.774   3.407 -0.3026  0.4582  0.0332
 1191TIP3    H1 3537   4.328   3.801   3.321  1.7677 -1.2615  0.1535
 1191TIP3    H2 3538   4.258   3.688   3.392 -1.5942  0.9313  0.5524
 1192TIP3   OH2 3539   6.519   6.075   0.731 -0.0352 -0.5455 -0.1691
 1192TIP3    H1 3540   6.614   6.081   0.739  0.0295 -2.1146  0.6853
 1192TIP3    H2 3541   6.495   5.998   0.782 -1.8335  0.0965  0.0516
 1193TIP3   OH2 3542   5.916   0.511   1.869  0.1144 -0.4364  0.1672
 1193TIP3    H1 3543   5.963   0.577   1.920 -2.1089  1.1133  0.3762
 1193TIP3    H2 3544   5.845   0.559   1.828  0.3650 -2.1168 -2.4638
 1194TIP3   OH2 3545   6.660   6.039   4.469  0.0184 -0.7470  0.1659
 1194TIP3    H1 3546   6.630   6.034   4.379  0.9806  3.1569 -0.5646
 1194TIP3    H2 3547   6.586   6.075   4.518  1.0666  2.2987 -0.2786
 1195TIP3   OH2 3548   5.644   5.139   2.557  0.4490 -0.2251 -0.4589
 1195TIP3    H1 3549   5.647   5.235   2.555 -1.6471 -0.1362 -1.4312
 1195TIP3    H2 3550   5.629   5.113   2.466 -1.9187 -1.2987  0.1607
 1196TIP3   OH2 3551   4.397   4.035   4.210 -0.5657 -0.1051 -0.9426
 1196TIP3    H1 3552   4.330   4.063   4.147 -2.6827 -1.5582  0.5375
 1196TIP3    H2 3553   4.394   4.102   4.278  1.4533  1.2572 -2.0983
 1197TIP3   OH2 3554   6.406   2.849   5.018 -0.1559  0.3779  0.1173
 1197TIP3    H1 3555   6.409   2.783   4.949 -0.9850  0.5388 -0.0771
 1197TIP3    H2 3556   6.472   2.913   4.992 -1.8904  1.5421 -1.6785
 1198TIP3   OH2 3557   6.514   4.320   4.017  0.0607 -0.1373  0.4737
 1198TIP3    H1 3558   6.607   4.328   4.035  0.0490  0.0989  0.4421
 1198TIP3    H2 3559   6.484   4.411   4.006 -0.1470 -0.2180  0.3603
 1199TIP3   OH2 3560   2.580   2.312   1.967 -0.5089 -0.0158 -0.2752
 1199TIP3    H1 3561   2.524   2.342   1.895 -0.4955 -1.3305 -0.8666
 1199TIP3    H2 3562   2.607   2.392   2.012 -1.6347  0.7427 -0.8979
 1200TIP3   OH2 3563   6.025   4.270   5.549 -0.5754 -0.3073 -0.4556
 1200TIP3    H1 3564   6.106   4.244   5.505  1.4040  2.0698  1.5066
 1200TIP3    H2 3565   6.032   4.236   5.637 -1.5739  0.1819 -0.1619
 1201TIP3   OH2 3566   2.743   4.633   1.981  0.0266 -0.5524  0.1580
 1201TIP3    H1 3567   2.748   4.707   1.920 -0.2750 -1.1913 -0.6581
 1201TIP3    H2 3568   2.651   4.608   1.981 -0.3337  0.5498  2.2685
 1202TIP3   OH2 3569   5.955   6.695   2.862 -0.1494 -0.0283 -0.4459
 1202TIP3    H1 3570   5.887   6.637   2.896 -1.0976  1.1158 -0.3306
 1202TIP3    H2 3571   6.036   6.644   2.870 -0.9023 -1.2017 -0.0486
 1203TIP3   OH2 3572   4.857   0.983   0.236 -0.5473  0.0758 -0.3331
 1203TIP3    H1 3573   4.943   1.014   0.206 -0.4541  0.0215 -0.1207
 1203TIP3    H2 3574   4.810   0.962   0.155 -0.8373  1.3593 -0.5338
 1204TIP3   OH2 3575   2.641   1.704   2.144 -0.5332 -0.0954 -0.7518
 1204TIP3    H1 3576   2.728   1.744   2.150 -1.5002  2.1987 -1.0266
 1204TIP3    H2 3577   2.580   1.778   2.146 -2.4866 -1.6140 -0.8712
 1205TIP3   OH2 3578   6.531   1.186   4.433 -0.1257  0.2005  0.0621
 1205TIP3    H1 3579   6.476   1.209   4.357  1.0072 -0.7401 -1.0933
 1205TIP3    H2 3580   6.619   1.216   4.408  0.4977 -1.2346  0.4651
 1206TIP3   OH2 3581   5.556   4.473   3.744 -0.3061 -0.4342 -0.1283
 1206TIP3    H1 3582   5.553   4.411   3.817  0.3684  0.6262  0.8256
 1206TIP3    H2 3583   5.643   4.462   3.707  0.1436  0.5455  0.6036
 1207TIP3   OH2 3584   6.638   2.625   0.451 -0.3667 -0.1302  0.1391
 1207TIP3    H1 3585   6.702   2.587   0.391 -0.9646 -0.3593 -0.3739
 1207TIP3    H2 3586   6.678   2.707   0.480  0.9770 -1.1508  1.3238
 1208TIP3   OH2 3587   6.768   4.218   2.337 -0.3192  0.1613  0.2167
 1208TIP3    H1 3588   6.793   4.217   2.244 -0.8617 -0.8053  0.0563
 1208TIP3    H2 3589   6.826   4.282   2.377 -0.5768  1.1487 -0.9287
 1209TIP3   OH2 3590   3.931   4.440   4.532  0.0677  0.3634 -0.0246
 1209TIP3    H1 3591   3.929   4.358   4.483 -1.2863 -0.3321  1.1067
 1209TIP3    H2 3592   3.985   4.498   4.480  1.1589 -1.2808 -0.8188
 1210TIP3   OH2 3593   7.046   4.046   2.867  0.1681  1.0965  0.3207
 1210TIP3    H1 3594   7.127   4.069   2.913  1.8884  0.8227 -2.3704
 1210TIP3    H2 3595   7.006   3.977   2.921  2.6020  0.0339  0.8828
 1211TIP3   OH2 3596   3.743   3.466   2.654 -0.0130  0.2428  0.3520
 1211TIP3    H1 3597   3.689   3.396   2.619  1.1052  0.2365 -1.5409
 1211TIP3    H2 3598   3.775   3.434   2.738 -2.2415 -0.0640  1.1390
 1212TIP3   OH2 3599   0.539   1.067   5.225 -0.1105 -0.0274 -0.6157
 1212TIP3    H1 3600   0.580   1.076   5.310 -0.8684  0.6513 -0.3081
 1212TIP3    H2 3601   0.451   1.104   5.236  0.0112  0.7092 -1.8593
 1213TIP3   OH2 3602   5.222   5.647   4.495  0.2815  0.0186 -0.5937
 1213TIP3    H1 3603   5.266   5.720   4.451 -0.8289 -0.0847 -1.9550
 1213TIP3    H2 3604   5.156   5.618   4.432 -0.6540 -0.8575  0.7450
 1214TIP3   OH2 3605   1.268   4.188   2.852 -0.0880 -0.4334  0.0341
 1214TIP3    H1 3606   1.303   4.106   2.888  1.7084 -0.4811 -1.6649
 1214TIP3    H2 3607   1.317   4.257   2.897  0.0799 -0.3858 -0.2203
 1215TIP3   OH2 3608   0.470   1.158   0.200 -0.0236  0.3004 -0.6728
 1215TIP3    H1 3609   0.399   1.222   0.192 -1.0284 -0.8487 -1.3041
 1215TIP3    H2 3610   0.486   1.153   0.294 -1.3712 -0.0260 -0.4361
 1216TIP3   OH2 3611   2.865   1.666   0.590  0.5952  0.5781  0.0360
 1216TIP3    H1 3612   2.773   1.680   0.614  0.6607 -0.0130  0.6763
 1216TIP3    H2 3613   2.908   1.749   0.608  0.2366  0.7700  0.0069
 1217TIP3   OH2 3614   5.275   6.779   0.363  0.4756 -0.4105  0.0330
 1217TIP3    H1 3615   5.242   6.784   0.453  0.8326 -1.6174  0.2568
 1217TIP3    H2 3616   5.340   6.709   0.366 -2.0017 -3.0138 -1.8811
 1218TIP3   OH2 3617   0.871   2.070   4.400 -0.0737  0.1183 -0.4538
 1218TIP3    H1 3618   0.847   2.100   4.487  0.0274 -0.3792 -0.2514
 1218TIP3    H2 3619   0.961   2.101   4.387  0.2852 -0.6723  0.0347
 1219TIP3   OH2 3620   3.354   2.489   0.356  0.0967 -0.3512 -0.5482
 1219TIP3    H1 3621   3.365   2.400   0.387  0.5159 -0.4329 -0.9170
 1219TIP3    H2 3622   3.271   2.518   0.393 -1.5002 -1.8705 -2.7110
 1220TIP3   OH2 3623   4.606   1.669   2.534 -0.2252  0.0682  0.0136
 1220TIP3    H1 3624   4.515   1.676   2.504  0.2030  1.1545 -1.0845
 1220TIP3    H2 3625   4.599   1.672   2.630 -1.3714 -0.2906 -0.0361
 1221TIP3   OH2 3626   0.301   5.982   2.407  0.4333  0.2817  0.1984
 1221TIP3    H1 3627   0.278   6.007   2.317  0.2264  1.3505  0.5341
 1221TIP3    H2 3628   0.317   6.065   2.452  2.8472 -0.2980  0.5712
 1222TIP3   OH2 3629   4.756   3.810   0.954 -0.3815 -0.0476 -0.0823
 1222TIP3    H1 3630   4.779   3.836   1.044  1.9576  1.3681 -0.9938
 1222TIP3    H2 3631   4.678   3.862   0.933  0.8428  1.9976  0.1443
 1223TIP3   OH2 3632   6.686   4.837   4.533 -0.0439  0.2639  0.7150
 1223TIP3    H1 3633   6.644   4.826   4.448  1.4873 -0.5386  0.0069
 1223TIP3    H2 3634   6.621   4.881   4.587 -0.4007  2.6101 -1.4318
 1224TIP3   OH2 3635   0.543   6.790   3.035 -0.3512  0.5827 -0.3641
 1224TIP3    H1 3636   0.638   6.779   3.043 -0.5203 -0.0087  1.5131
 1224TIP3    H2 3637   0.510   6.702   3.017 -0.4199  1.1560 -3.5400
 1225TIP3   OH2 3638   6.028   3.020   3.080 -0.1403  0.0305 -0.4047
 1225TIP3    H1 3639   6.113   3.022   3.036  0.4440 -1.3228  0.5794
 1225TIP3    H2 3640   5.965   3.001   3.011  0.4969 -0.0265 -0.9749
 1226TIP3   OH2 3641   6.308   6.784   3.487  0.1175 -0.6680 -0.2734
 1226TIP3    H1 3642   6.341   6.754   3.402  1.2970 -0.5741  0.1268
 1226TIP3    H2 3643   6.215   6.799   3.473  0.2574 -0.8420 -1.4997
 1227TIP3   OH2 3644   2.933   6.062   3.360 -0.1741 -0.2019 -0.2227
 1227TIP3    H1 3645   2.874   6.002   3.314  1.1215 -0.0507 -2.1616
 1227TIP3    H2 3646   3.019   6.048   3.320  0.9096  0.4329  1.7123
 1228TIP3   OH2 3647   5.714   6.567   1.265 -0.0406 -0.4845 -0.0734
 1228TIP3    H1 3648   5.628   6.592   1.232  0.2152 -0.4162 -0.7015
 1228TIP3    H2 3649   5.697   6.489   1.318 -0.3972 -0.9367 -0.8234
 1229TIP3   OH2 3650   3.604   3.522   4.033 -0.4395 -0.1398  0.4133
 1229TIP3    H1 3651   3.604   3.508   4.127 -1.2712 -1.7925  0.2040
 1229TIP3    H2 3652   3.512   3.520   4.007 -0.2967  1.2903 -0.3330
 1230TIP3   OH2 3653   0.650   2.465   1.337 -0.3892  0.2331  0.4034
 1230TIP3    H1 3654   0.669   2.423   1.254 -0.3934  0.6884  0.1723
 1230TIP3    H2 3655   0.709   2.421   1.400 -0.3436 -0.0659  0.1544
 1231TIP3   OH2 3656   6.279   2.939   2.285 -0.1160 -0.0667 -0.0856
 1231TIP3    H1 3657   6.371   2.966   2.287  0.1701 -1.0322  2.1787
 1231TIP3    H2 3658   6.258   2.916   2.375 -2.4090 -0.5278 -0.6665
 1232TIP3   OH2 3659   2.048   0.368   4.078 -0.2706  0.1777  0.3852
 1232TIP3    H1 3660   1.968   0.317   4.068 -0.0586 -0.1142  0.1658
 1232TIP3    H2 3661   2.075   0.388   3.988 -0.1796  0.4022  0.4618
 1233TIP3   OH2 3662   5.591   0.823   0.353 -0.4764  0.2920  0.7134
 1233TIP3    H1 3663   5.617   0.733   0.337 -1.5765  0.1073 -0.1714
 1233TIP3    H2 3664   5.518   0.816   0.414 -2.9977  0.2373 -2.0592
 1234TIP3   OH2 3665   5.028   5.781   3.578 -0.4011  0.2424  0.3117
 1234TIP3    H1 3666   5.027   5.875   3.597 -0.5667  0.7381 -1.9276
 1234TIP3    H2 3667   4.944   5.764   3.535  1.3978  0.1289 -3.5832
 1235TIP3   OH2 3668   2.295   2.664   4.079  0.6578  0.1886  0.1874
 1235TIP3    H1 3669   2.304   2.734   4.144 -0.1127  0.4102  0.0718
 1235TIP3    H2 3670   2.210   2.624   4.098  0.5437  0.0816 -0.5030
 1236TIP3   OH2 3671   2.591   0.420   2.827 -0.0010 -0.2614  0.5313
 1236TIP3    H1 3672   2.541   0.496   2.798 -1.6659 -1.6134 -0.2781
 1236TIP3    H2 3673   2.556   0.400   2.914  0.5936 -0.0015  0.8396
 1237TIP3   OH2 3674   2.834   4.986   2.144 -0.3768  0.0519  0.7941
 1237TIP3    H1 3675   2.830   5.018   2.234  1.6535  0.2169  0.8866
 1237TIP3    H2 3676   2.921   4.946   2.137 -0.4366  0.1683 -1.1337
 1238TIP3   OH2 3677   2.402   5.986   4.444 -0.6836 -0.1158 -0.6126
 1238TIP3    H1 3678   2.439   6.075   4.448  0.6433 -0.6619  3.1838
 1238TIP3    H2 3679   2.318   5.994   4.489  0.7255 -1.1805  2.4339
 1239TIP3   OH2 3680   3.153   0.284   5.001 -0.0069 -0.6572  0.0716
 1239TIP3    H1 3681   3.063   0.286   5.035  0.2439 -0.6714  0.7307
 1239TIP3    H2 3682   3.205   0.248   5.072  0.7949  0.8999  0.3015
 1240TIP3   OH2 3683   3.843   5.544   3.234  0.3813  0.1947 -0.2458
 1240TIP3    H1 3684   3.835   5.628   3.190  0.4036 -0.7198 -2.0944
 1240TIP3    H2 3685   3.766   5.539   3.290  0.5222  1.5411  0.0994
 1241TIP3   OH2 3686   7.196   4.952   0.207  0.3458  0.4109 -0.2827
 1241TIP3    H1 3687   7.169   4.990   0.290 -0.2275 -0.1558 -0.1997
 1241TIP3    H2 3688   7.131   4.885   0.189  0.3543  0.6478 -1.2830
 1242TIP3   OH2 3689   6.480   0.550   2.365 -0.2815  0.3707  0.3145
 1242TIP3    H1 3690   6.409   0.600   2.405 -0.1486  1.1256 -0.3555
 1242TIP3    H2 3691   6.551   0.614   2.355  0.0240 -0.0441 -0.2185
 1243TIP3   OH2 3692   7.119   1.686   1.402 -0.0708 -0.5413 -0.1612
 1243TIP3    H1 3693   7.139   1.604   1.447  2.2524 -1.1898 -2.1636
 1243TIP3    H2 3694   7.052   1.663   1.338 -0.0527 -0.6779 -0.1307
 1244TIP3   OH2 3695   0.225   4.575   0.096  0.5670  0.2165 -0.5458
 1244TIP3    H1 3696   0.240   4.498   0.042  1.5721  1.0729 -1.5544
 1244TIP3    H2 3697   0.282   4.563   0.172 -0.4290 -0.7260  0.0804
 1245TIP3   OH2 3698   4.287   5.160   0.831  0.4083  0.4457  0.0419
 1245TIP3    H1 3699   4.240   5.197   0.756 -1.1310  0.5064  0.9835
 1245TIP3    H2 3700   4.379   5.179   0.814 -0.0359  1.6900 -1.1639
 1246TIP3   OH2 3701   7.052   4.758   1.684 -0.4310 -0.6168 -0.4569
 1246TIP3    H1 3702   7.139   4.766   1.645  0.0419  1.2031  0.8104
 1246TIP3    H2 3703   6.992   4.787   1.616 -0.0048 -1.2601 -1.1217
 1247TIP3   OH2 3704   3.008   4.175   2.480 -0.1596  0.3943 -0.1614
 1247TIP3    H1 3705   2.920   4.188   2.515  0.1074  1.7350  0.0680
 1247TIP3    H2 3706   2.997   4.183   2.385 -0.3124  0.4788 -0.1371
 1248TIP3   OH2 3707   5.459   5.955   5.082  0.1510  0.0645  0.2569
 1248TIP3    H1 3708   5.488   5.870   5.115 -1.2894 -0.7992 -0.5924
 1248TIP3    H2 3709   5.464   6.013   5.158  0.8308 -0.8524  0.9411
 1249TIP3   OH2 3710   0.963   0.786   4.555  0.2965 -0.1430  0.1489
 1249TIP3    H1 3711   0.922   0.790   4.641  0.0801 -0.0030  0.0410
 1249TIP3    H2 3712   0.982   0.878   4.534 -0.1140 -0.1278 -0.1702
 1250TIP3   OH2 3713   2.599   0.944   0.823  0.2029  0.1264  0.1603
 1250TIP3    H1 3714   2.596   0.854   0.856  0.4619  0.2629  0.5590
 1250TIP3    H2 3715   2.631   0.935   0.733  0.8575 -0.1321  0.4071
 1251TIP3   OH2 3716   3.443   2.833   4.928 -0.1644 -0.3072 -0.2907
 1251TIP3    H1 3717   3.428   2.772   4.999 -0.3083  0.1083  0.0386
 1251TIP3    H2 3718   3.529   2.872   4.946  0.0303 -0.5778 -0.6223
 1252TIP3   OH2 3719   0.541   0.562   0.042 -0.8299  0.8105  0.2526
 1252TIP3    H1 3720   0.576   0.483   0.082  0.3094  0.9034 -0.5244
 1252TIP3    H2 3721   0.504   0.532  -0.042 -1.3102  0.9457  0.4129
 1253TIP3   OH2 3722   1.750   1.887   5.882 -0.3318 -0.0130 -0.4130
 1253TIP3    H1 3723   1.803   1.845   5.814  0.6313  1.2238 -0.4541
 1253TIP3    H2 3724   1.722   1.969   5.843  0.6057  0.9290  0.8138
 1254TIP3   OH2 3725   6.511   0.961   3.493 -0.0904  0.0024  0.7794
 1254TIP3    H1 3726   6.530   0.868   3.482  2.4986  0.5941 -0.6969
 1254TIP3    H2 3727   6.432   0.976   3.442  0.0564 -1.2135  0.1657
 1255TIP3   OH2 3728   3.358   3.613   3.949 -0.2212 -0.0569  0.0212
 1255TIP3    H1 3729   3.362   3.675   3.877 -0.9092 -0.9991 -0.8615
 1255TIP3    H2 3730   3.283   3.642   4.002 -0.5076 -0.1054 -0.3562
 1256TIP3   OH2 3731   3.238   2.306   4.264  0.7669  0.0527 -0.8033
 1256TIP3    H1 3732   3.149   2.321   4.298  0.4887 -1.6186 -0.7193
 1256TIP3    H2 3733   3.244   2.364   4.188  1.2073  3.4724  1.6057
 1257TIP3   OH2 3734   6.137   6.538   5.486  0.0300  0.0270 -0.0332
 1257TIP3    H1 3735   6.165   6.621   5.523  0.7108  0.4118 -1.3508
 1257TIP3    H2 3736   6.202   6.518   5.419 -1.2801 -0.5140 -1.2026
 1258TIP3   OH2 3737   6.391   6.082   3.005 -0.6538  0.9184  0.4396
 1258TIP3    H1 3738   6.380   5.987   3.005 -2.4251  1.0850 -0.1632
 1258TIP3    H2 3739   6.464   6.098   3.065  0.4333 -0.8880 -0.3285
 1259TIP3   OH2 3740   0.868   3.115   1.550  0.1753 -0.3742  0.2626
 1259TIP3    H1 3741   0.798   3.050   1.553 -0.1653 -0.1109 -1.0926
 1259TIP3    H2 3742   0.822   3.198   1.531  0.8326 -0.1819 -0.5283
 1260TIP3   OH2 3743   0.652   6.405   2.712  0.3116 -0.1297 -0.0329
 1260TIP3    H1 3744   0.665   6.373   2.623 -1.1001  0.9045 -0.6534
 1260TIP3    H2 3745   0.687   6.336   2.768 -0.9584 -1.9010 -1.3261
 1261TIP3   OH2 3746   1.795   3.074   2.122 -0.3180  0.2281 -0.0686
 1261TIP3    H1 3747   1.723   3.125   2.084  0.2616 -0.3944 -2.1233
 1261TIP3    H2 3748   1.856   3.140   2.157 -0.2020  0.9220 -1.5187
 1262TIP3   OH2 3749   1.081   0.240   4.392  0.3646 -1.0510  0.2479
 1262TIP3    H1 3750   0.987   0.236   4.407  0.1680  0.4796 -0.4282
 1262TIP3    H2 3751   1.090   0.264   4.300  1.3468  1.8139  0.9940
 1263TIP3   OH2 3752   5.012   6.091   4.552  1.0164  0.0717  0.2219
 1263TIP3    H1 3753   4.974   6.037   4.482 -0.1029  0.7712  0.2577
 1263TIP3    H2 3754   4.995   6.042   4.632 -0.6855  0.7769  0.3406
 1264TIP3   OH2 3755   2.914   0.733   0.956 -0.0829  0.0035 -0.1425
 1264TIP3    H1 3756   2.864   0.728   1.037 -0.0455 -0.8613 -0.1652
 1264TIP3    H2 3757   3.004   0.717   0.982  0.5033  3.0960  0.1374
 1265TIP3   OH2 3758   3.373   3.116   3.070 -0.0047  0.3731 -0.8777
 1265TIP3    H1 3759   3.352   3.052   3.002  2.7648  0.8931 -2.3755
 1265TIP3    H2 3760   3.432   3.178   3.027  1.1501  1.2633  1.7662
 1266TIP3   OH2 3761   1.412   4.444   1.703 -0.5487 -0.3272  0.5590
 1266TIP3    H1 3762   1.361   4.507   1.753 -0.2835 -0.3632  0.8822
 1266TIP3    H2 3763   1.348   4.396   1.651 -0.9734 -1.1449  1.8079
 1267TIP3   OH2 3764   6.506   0.480   0.229  0.1083  0.5293 -0.5088
 1267TIP3    H1 3765   6.511   0.436   0.314 -0.0906  0.8782 -0.3135
 1267TIP3    H2 3766   6.581   0.447   0.180 -1.0590 -1.4425 -1.0555
 1268TIP3   OH2 3767   1.977   3.920   3.220 -0.3698 -0.0299 -0.0040
 1268TIP3    H1 3768   1.952   3.966   3.301  0.1724  1.4697 -0.6559
 1268TIP3    H2 3769   1.978   3.988   3.153  1.1292 -0.8664 -0.8855
 1269TIP3   OH2 3770   5.438   4.199   0.520 -0.1878 -0.0540  0.1505
 1269TIP3    H1 3771   5.526   4.182   0.554  0.8596  0.0354 -2.2507
 1269TIP3    H2 3772   5.427   4.294   0.529 -0.7462 -0.2631  1.9320
 1270TIP3   OH2 3773   6.902   0.460   1.134  0.0123  0.1045 -0.1607
 1270TIP3    H1 3774   6.856   0.379   1.154 -1.4284  0.4522 -1.7830
 1270TIP3    H2 3775   6.993   0.442   1.156 -0.5867 -1.2212  1.4725
 1271TIP3   OH2 3776   4.847   1.621   5.469 -0.4455  0.2427 -0.1417
 1271TIP3    H1 3777   4.905   1.568   5.414 -1.6210  0.8884 -2.1231
 1271TIP3    H2 3778   4.766   1.572   5.474 -0.0683 -0.2711  1.9439
 1272TIP3   OH2 3779   4.437   5.566   0.858 -0.6223 -0.8403 -0.5324
 1272TIP3    H1 3780   4.358   5.603   0.897 -1.2319  0.2324 -2.6257
 1272TIP3    H2 3781   4.437   5.598   0.768  1.8883 -1.3256 -0.7913
 1273TIP3   OH2 3782   3.951   1.415   1.415 -0.2716 -0.1024 -0.9327
 1273TIP3    H1 3783   4.010   1.343   1.393 -0.2492  0.0357 -1.3424
 1273TIP3    H2 3784   3.872   1.397   1.363 -0.3071  0.1090 -0.9518
 1274TIP3   OH2 3785   5.507   4.789   4.239 -0.1175 -0.2932 -0.5878
 1274TIP3    H1 3786   5.526   4.720   4.301  2.5546  1.2742  0.5103
 1274TIP3    H2 3787   5.413   4.807   4.250 -0.1626 -1.5303  1.3801
 1275TIP3   OH2 3788   2.547   1.154   3.554  0.2962  0.2839 -0.1381
 1275TIP3    H1 3789   2.458   1.157   3.519  0.1808  1.8855  0.2483
 1275TIP3    H2 3790   2.558   1.063   3.583 -0.8298 -0.1931 -1.1305
 1276TIP3   OH2 3791   3.321   5.289   3.915  0.1075 -0.3523 -0.0619
 1276TIP3    H1 3792   3.240   5.302   3.965 -0.6889 -1.2002 -1.0822
 1276TIP3    H2 3793   3.331   5.371   3.865  0.7134  0.3537  1.1774
 1277TIP3   OH2 3794   6.886   6.554   1.438  0.2684  0.0024  0.1052
 1277TIP3    H1 3795   6.837   6.615   1.493 -0.2667  1.2656 -1.7147
 1277TIP3    H2 3796   6.978   6.579   1.449 -0.0017  1.7242 -1.2478
 1278TIP3   OH2 3797   0.992   5.288   1.259 -0.5848  0.0822  0.7047
 1278TIP3    H1 3798   0.908   5.260   1.222  0.2091 -0.8795 -0.4584
 1278TIP3    H2 3799   1.015   5.220   1.321  0.1125 -0.5524 -0.2186
 1279TIP3   OH2 3800   3.340   4.647   3.038  0.2569  0.0556  0.6845
 1279TIP3    H1 3801   3.352   4.555   3.013 -0.2685  0.4696 -1.2788
 1279TIP3    H2 3802   3.249   4.653   3.066  0.2610  0.0024  0.7093
 1280TIP3   OH2 3803   0.340   2.552   0.755 -0.7757 -0.2820  0.1167
 1280TIP3    H1 3804   0.284   2.496   0.702 -0.3243 -0.0450 -0.6169
 1280TIP3    H2 3805   0.425   2.551   0.711 -0.0124 -1.1300  1.5582
 1281TIP3   OH2 3806   5.778   2.813   3.767 -0.3503  0.1692  0.0694
 1281TIP3    H1 3807   5.862   2.788   3.807  0.4257  1.3991 -0.7371
 1281TIP3    H2 3808   5.728   2.851   3.840  0.6576  1.4530  0.1338
 1282TIP3   OH2 3809   0.142   0.830   4.216 -0.0477 -0.2759  0.4144
 1282TIP3    H1 3810   0.174   0.742   4.192 -0.2329 -0.3984  0.6130
 1282TIP3    H2 3811   0.201   0.858   4.286  0.4608  0.0601 -0.1395
 1283TIP3   OH2 3812   6.800   2.122   5.434  0.0543  0.4363 -0.0482
 1283TIP3    H1 3813   6.717   2.090   5.470  0.0052  0.5816 -0.0304
 1283TIP3    H2 3814   6.855   2.138   5.510 -0.5684  2.2029  0.0928
 1284TIP3   OH2 3815   0.195   4.739   4.491 -0.9410 -0.4137  0.3351
 1284TIP3    H1 3816   0.180   4.799   4.564 -2.3474  1.2083 -1.1985
 1284TIP3    H2 3817   0.254   4.786   4.432 -1.0650 -1.0383 -0.3078
 1285TIP3   OH2 3818   1.923   1.866   4.898  0.5658 -0.4823  0.2209
 1285TIP3    H1 3819   1.880   1.888   4.816  0.5494 -1.2581  0.0096
 1285TIP3    H2 3820   1.869   1.796   4.936  1.6286 -1.5041 -0.0676
 1286TIP3   OH2 3821   5.551   4.370   5.504  0.1759 -0.8280 -0.5290
 1286TIP3    H1 3822   5.568   4.455   5.543 -0.1198 -0.9775 -0.0648
 1286TIP3    H2 3823   5.637   4.329   5.498  0.2407 -0.7406 -0.1798
 1287TIP3   OH2 3824   0.989   1.509   0.022  0.1713 -0.3700  0.5078
 1287TIP3    H1 3825   1.064   1.521  -0.036  0.0695 -0.2807  0.3946
 1287TIP3    H2 3826   0.958   1.598   0.040 -1.2167 -0.4721 -1.1527
 1288TIP3   OH2 3827   3.846   4.237   5.150 -0.3821 -0.6016  0.2263
 1288TIP3    H1 3828   3.845   4.254   5.244 -2.6617  0.4826  0.0845
 1288TIP3    H2 3829   3.798   4.154   5.140 -0.2670 -0.6433  0.0175
 1289TIP3   OH2 3830   1.227   3.130   5.582  0.1854 -0.2483  0.5999
 1289TIP3    H1 3831   1.147   3.173   5.613  1.6565  5.3717 -1.9741
 1289TIP3    H2 3832   1.204   3.093   5.497  0.1902  1.5491 -0.2359
 1290TIP3   OH2 3833   0.742   6.590   1.089  0.3586 -0.0423  0.1135
 1290TIP3    H1 3834   0.756   6.517   1.029  2.2529 -1.3989  2.0360
 1290TIP3    H2 3835   0.825   6.639   1.087  0.0477  0.5377  0.7519
 1291TIP3   OH2 3836   3.999   1.309   3.562 -0.1575  0.0077 -0.2304
 1291TIP3    H1 3837   3.966   1.232   3.607  0.7820  0.1783  0.7731
 1291TIP3    H2 3838   4.093   1.295   3.555 -0.2189  0.1906 -1.7737
 1292TIP3   OH2 3839   1.660   4.373   1.786  0.3334  0.0577 -0.1778
 1292TIP3    H1 3840   1.571   4.387   1.755  0.0632 -0.6144  0.2664
 1292TIP3    H2 3841   1.673   4.278   1.781  0.2333 -0.1053  1.8093
 1293TIP3   OH2 3842   6.456   0.681   0.047 -0.1088 -0.2897 -0.1720
 1293TIP3    H1 3843   6.362   0.672   0.032 -0.0145  1.1270 -1.8969
 1293TIP3    H2 3844   6.475   0.618   0.117 -2.6738  0.8260  1.6891
 1294TIP3   OH2 3845   3.135   5.060   4.012 -0.2555  0.1442  0.1370
 1294TIP3    H1 3846   3.139   5.047   4.107  0.1008  0.3533  0.1518
 1294TIP3    H2 3847   3.076   5.135   4.002 -1.1115 -0.5157  0.1324
 1295TIP3   OH2 3848   1.699   4.250   0.898 -0.5376  0.0461  0.4959
 1295TIP3    H1 3849   1.643   4.302   0.955  0.3209  0.8411  0.6466
 1295TIP3    H2 3850   1.680   4.283   0.810 -1.0023 -0.3635  0.4364
 1296TIP3   OH2 3851   2.911   4.477   5.540 -0.0736  0.3951  0.0354
 1296TIP3    H1 3852   2.902   4.562   5.498  0.2133  0.1281 -0.5828
 1296TIP3    H2 3853   2.986   4.487   5.599  0.8595  0.1797 -1.0752
 1297TIP3   OH2 3854   1.103   3.728   4.404 -0.5458 -0.2974  0.5201
 1297TIP3    H1 3855   1.029   3.789   4.408 -0.6688 -0.4249  0.2542
 1297TIP3    H2 3856   1.124   3.709   4.495 -0.8432 -0.2615  0.5973
 1298TIP3   OH2 3857   3.746   2.278   4.538  0.4924  0.3448  0.1660
 1298TIP3    H1 3858   3.671   2.226   4.567  0.6541 -0.4566 -0.8238
 1298TIP3    H2 3859   3.720   2.369   4.555 -1.4770  0.2370 -1.8452
 1299TIP3   OH2 3860   1.484   4.701   2.697 -0.2630 -0.8024  0.2697
 1299TIP3    H1 3861   1.536   4.716   2.618 -1.1722  1.9620  0.1079
 1299TIP3    H2 3862   1.420   4.771   2.697  0.5298  0.1357  4.1600
 1300TIP3   OH2 3863   0.804   6.716   4.966  0.0738  0.0091  0.6688
 1300TIP3    H1 3864   0.714   6.707   4.995  0.1385 -1.2584  0.5345
 1300TIP3    H2 3865   0.854   6.655   5.021  0.5486 -0.6988 -0.4858
 1301TIP3   OH2 3866   0.209   2.142   0.413  0.2404  0.1982 -0.1121
 1301TIP3    H1 3867   0.225   2.076   0.481 -1.4450 -3.2933 -2.7835
 1301TIP3    H2 3868   0.253   2.108   0.336  0.3360  2.9237 -1.3532
 1302TIP3   OH2 3869   1.563   1.528   0.423  0.9477  0.0764 -0.1896
 1302TIP3    H1 3870   1.588   1.563   0.509 -2.4785 -0.0934  1.0242
 1302TIP3    H2 3871   1.561   1.433   0.435  2.2992 -0.0823 -1.0682
 1303TIP3   OH2 3872   3.680   4.559   0.670 -0.1371  0.3193  0.0639
 1303TIP3    H1 3873   3.596   4.586   0.634  0.0463  0.6756 -0.1017
 1303TIP3    H2 3874   3.719   4.640   0.703 -0.1666  0.0415  0.7795
 1304TIP3   OH2 3875   5.312   6.589   1.355 -0.3541 -0.2289 -0.5870
 1304TIP3    H1 3876   5.223   6.557   1.369  0.1967 -1.5748 -0.0930
 1304TIP3    H2 3877   5.332   6.638   1.435  0.6439 -2.9902  0.9513
 1305TIP3   OH2 3878   0.558   5.873   0.235  0.0831  0.1289  0.8757
 1305TIP3    H1 3879   0.635   5.926   0.254  0.2013  0.2148  0.1560
 1305TIP3    H2 3880   0.497   5.933   0.194 -0.0091 -0.1598  0.5910
 1306TIP3   OH2 3881   6.839   5.417   3.650  0.2439  0.2549 -0.2217
 1306TIP3    H1 3882   6.896   5.344   3.672  1.0794  1.3890  1.6536
 1306TIP3    H2 3883   6.893   5.474   3.595  0.5641  0.7755  0.6121
 1307TIP3   OH2 3884   2.267   1.003   0.079  0.7413 -0.3752 -0.8572
 1307TIP3    H1 3885   2.257   0.962   0.165  0.1466  1.1948 -0.1403
 1307TIP3    H2 3886   2.184   1.049   0.065  1.2271  0.2444 -1.7920
 1308TIP3   OH2 3887   6.143   2.814   0.611 -0.2475 -0.0075 -0.1776
 1308TIP3    H1 3888   6.197   2.864   0.672 -1.4155 -0.8073  1.5818
 1308TIP3    H2 3889   6.202   2.747   0.576  0.4559  0.4856  0.0553
 1309TIP3   OH2 3890   4.692   2.065   2.568 -0.1947  0.5201 -0.0770
 1309TIP3    H1 3891   4.598   2.084   2.564 -0.6066 -1.1463  0.7778
 1309TIP3    H2 3892   4.733   2.151   2.581 -1.6058  1.2415 -0.1706
 1310TIP3   OH2 3893   3.631   4.893   3.936 -0.3113 -0.3680  1.0323
 1310TIP3    H1 3894   3.696   4.963   3.944 -0.1129 -0.2733 -0.9030
 1310TIP3    H2 3895   3.569   4.909   4.007 -0.0465  1.5063  0.8871
 1311TIP3   OH2 3896   4.734   2.648   4.657 -0.4796  0.7916 -0.2391
 1311TIP3    H1 3897   4.800   2.717   4.656  0.4383  0.0809  2.4748
 1311TIP3    H2 3898   4.659   2.686   4.704 -1.0095  0.7536 -1.0281
 1312TIP3   OH2 3899   1.477   2.100   2.019 -0.5709  0.4427 -0.4199
 1312TIP3    H1 3900   1.564   2.137   2.033  0.0862 -0.8162 -1.0438
 1312TIP3    H2 3901   1.488   2.006   2.029 -1.9117  0.2688 -0.2939
 1313TIP3   OH2 3902   4.359   2.713   1.013  0.1133 -0.5831  0.1924
 1313TIP3    H1 3903   4.286   2.774   1.001 -0.2481 -0.9877  0.2904
 1313TIP3    H2 3904   4.430   2.766   1.050  0.5144  0.2189 -1.6532
 1314TIP3   OH2 3905   4.540   2.794   2.533 -0.2964  0.5501  0.0421
 1314TIP3    H1 3906   4.590   2.860   2.484 -3.3305  1.3827 -2.2787
 1314TIP3    H2 3907   4.553   2.713   2.484 -1.2132  0.7930 -0.6333
 1315TIP3   OH2 3908   6.504   2.055   4.589 -0.4374 -0.0289 -0.5350
 1315TIP3    H1 3909   6.488   1.976   4.640 -0.9526  0.2537 -0.2557
 1315TIP3    H2 3910   6.557   2.111   4.647 -1.9999  0.7818  0.1713
 1316TIP3   OH2 3911   3.357   3.922   2.755 -0.5139 -0.2887  0.2323
 1316TIP3    H1 3912   3.284   3.968   2.713 -1.3641 -1.3107  0.5545
 1316TIP3    H2 3913   3.319   3.841   2.788  0.9599 -1.2636 -0.3489
 1317TIP3   OH2 3914   3.123   2.448   2.354  0.4537  0.5094 -0.0394
 1317TIP3    H1 3915   3.209   2.439   2.314  0.0682 -0.9133 -0.6220
 1317TIP3    H2 3916   3.061   2.441   2.281 -0.1775  1.1917  0.4074
 1318TIP3   OH2 3917   2.960   1.770   0.211 -0.6207 -0.1134 -0.2454
 1318TIP3    H1 3918   2.957   1.687   0.257 -0.3855  0.4754  0.8603
 1318TIP3    H2 3919   3.054   1.785   0.194 -0.4911  0.6971  1.0405
 1319TIP3   OH2 3920   1.077   5.065   0.932  0.3069 -0.2585 -0.5333
 1319TIP3    H1 3921   1.038   4.991   0.979  1.8080 -0.8252 -0.1202
 1319TIP3    H2 3922   1.134   5.024   0.867  2.6917  0.4518  0.9779
 1320TIP3   OH2 3923   1.608   0.697   3.163 -0.2402  0.1116 -0.1191
 1320TIP3    H1 3924   1.599   0.646   3.083  1.8144 -0.8231  0.1801
 1320TIP3    H2 3925   1.663   0.772   3.138  1.7287 -0.9840  0.6561
 1321TIP3   OH2 3926   6.061   2.627   2.189  0.0781  0.2895 -0.0560
 1321TIP3    H1 3927   6.147   2.635   2.232 -0.5898 -3.9984  2.7364
 1321TIP3    H2 3928   6.000   2.670   2.250 -0.1156  0.5259 -0.4146
 1322TIP3   OH2 3929   0.485   4.300   5.838 -0.0324  0.0175 -0.0038
 1322TIP3    H1 3930   0.400   4.257   5.834  0.4179 -1.0309  1.1768
 1322TIP3    H2 3931   0.467   4.388   5.871 -0.6656 -0.1616  0.1313
 1323TIP3   OH2 3932   0.585   6.432   5.032 -0.5221 -0.1062  0.0149
 1323TIP3    H1 3933   0.551   6.519   5.015 -2.4823 -0.7315  0.4798
 1323TIP3    H2 3934   0.524   6.393   5.094 -0.2392 -2.1350 -0.8813
 1324TIP3   OH2 3935   4.848   4.294   3.559 -0.1789 -0.2954  0.0371
 1324TIP3    H1 3936   4.851   4.275   3.653 -1.3409 -1.9999 -0.2435
 1324TIP3    H2 3937   4.800   4.377   3.553 -0.9556 -0.6674  0.9000
 1325TIP3   OH2 3938   1.254   0.811   0.064  0.4396 -0.2019  0.2101
 1325TIP3    H1 3939   1.161   0.801   0.088  0.7946  0.2764  1.9132
 1325TIP3    H2 3940   1.262   0.904   0.041  0.8435  0.2320  1.9198
 1326TIP3   OH2 3941   1.189   0.630   0.981  0.1117  0.4312 -0.1917
 1326TIP3    H1 3942   1.186   0.604   1.073 -0.2415 -2.2972 -0.8722
 1326TIP3    H2 3943   1.097   0.644   0.957 -0.1584 -2.0369 -0.8486
 1327TIP3   OH2 3944   5.497   5.115   4.137 -0.0504 -0.5386 -0.1148
 1327TIP3    H1 3945   5.557   5.053   4.094 -2.0226 -1.1066 -2.2580
 1327TIP3    H2 3946   5.531   5.201   4.113  1.4765 -0.7805  1.0644
 1328TIP3   OH2 3947   2.875   2.146   2.345 -0.3306 -0.4813 -0.2106
 1328TIP3    H1 3948   2.827   2.222   2.379  1.7916  0.8345  0.0644
 1328TIP3    H2 3949   2.836   2.130   2.259 -2.4350 -0.6643  0.7146
 1329TIP3   OH2 3950   1.491   4.469   2.183  0.1928  0.4126 -0.0862
 1329TIP3    H1 3951   1.533   4.554   2.170  0.7792  0.1703  0.2117
 1329TIP3    H2 3952   1.482   4.461   2.278  0.6971 -0.1216 -0.0764
 1330TIP3   OH2 3953   0.513   2.393   2.720  0.8560 -0.0620  0.2147
 1330TIP3    H1 3954   0.431   2.351   2.748 -1.2141  3.8677  0.6748
 1330TIP3    H2 3955   0.502   2.404   2.625  2.2235 -2.0500 -0.2255
 1331TIP3   OH2 3956   6.892   2.699   3.736 -0.2377  0.5109  0.0593
 1331TIP3    H1 3957   6.804   2.664   3.748 -0.2143  0.9110  1.5775
 1331TIP3    H2 3958   6.940   2.669   3.814  1.2446 -0.4918 -1.1787
 1332TIP3   OH2 3959   5.001   5.525   5.656  0.1840  0.5486 -0.1554
 1332TIP3    H1 3960   4.939   5.454   5.638  0.1577  0.3257  0.7670
 1332TIP3    H2 3961   4.952   5.586   5.711  0.7133  0.4716  0.4086
 1333TIP3   OH2 3962   2.828   6.070   4.495  0.2892  0.1282 -0.4390
 1333TIP3    H1 3963   2.812   6.147   4.551  2.2053  0.5463 -0.3968
 1333TIP3    H2 3964   2.899   6.097   4.437 -0.5458 -0.8656 -2.0065
 1334TIP3   OH2 3965   5.067   2.048   4.822 -0.2465 -0.2443 -0.4524
 1334TIP3    H1 3966   5.128   2.103   4.871 -0.2394 -0.0429 -0.6896
 1334TIP3    H2 3967   4.981   2.073   4.856 -0.1898 -0.6102 -0.0360
 1335TIP3   OH2 3968   1.435   1.759   0.303  0.4639 -0.0952  0.2568
 1335TIP3    H1 3969   1.480   1.752   0.388  0.8410 -0.6925  0.0157
 1335TIP3    H2 3970   1.413   1.851   0.296  0.5688 -0.0101  0.9400
 1336TIP3   OH2 3971   5.217   3.873   1.516 -0.1287  0.4468  0.2934
 1336TIP3    H1 3972   5.179   3.790   1.546  1.8019 -2.0010 -3.2945
 1336TIP3    H2 3973   5.141   3.929   1.500 -1.8006 -1.7760 -0.1175
 1337TIP3   OH2 3974   1.267   1.840   0.903  0.0770  0.0399 -0.3993
 1337TIP3    H1 3975   1.180   1.878   0.888  0.8359  1.5702 -1.1051
 1337TIP3    H2 3976   1.264   1.808   0.993 -0.3459  2.5507  0.5521
 1338TIP3   OH2 3977   0.105   0.798   2.764 -0.2522 -0.0174  0.1399
 1338TIP3    H1 3978   0.159   0.874   2.742  0.7747 -0.4458  1.0453
 1338TIP3    H2 3979   0.080   0.812   2.855 -0.4513 -0.5399  0.1708
 1339TIP3   OH2 3980   0.617   0.178   2.623  0.0713 -0.5785 -0.7013
 1339TIP3    H1 3981   0.673   0.105   2.598  0.8943 -0.0673 -0.3946
 1339TIP3    H2 3982   0.657   0.254   2.582  0.6955  0.0793  1.0169
 1340TIP3   OH2 3983   2.186   1.038   2.374 -0.2099 -0.4141  0.0085
 1340TIP3    H1 3984   2.253   1.107   2.382 -0.5871 -0.2125  1.7079
 1340TIP3    H2 3985   2.168   1.034   2.280  0.6141  1.0402 -0.2469
 1341TIP3   OH2 3986   1.092   1.477   3.518 -0.1972  0.9990  0.2623
 1341TIP3    H1 3987   1.044   1.510   3.442  1.1636  1.7399 -0.3143
 1341TIP3    H2 3988   1.149   1.549   3.544  1.7154 -0.2933 -0.0611
 1342TIP3   OH2 3989   4.871   2.195   0.852  0.0772 -0.1506 -0.1778
 1342TIP3    H1 3990   4.916   2.141   0.918 -0.4986 -1.1255 -0.5604
 1342TIP3    H2 3991   4.888   2.150   0.769 -2.5137 -1.2237 -0.2153
 1343TIP3   OH2 3992   2.850   4.327   3.060 -0.3352 -0.2866 -0.0427
 1343TIP3    H1 3993   2.891   4.308   2.975  0.6457  1.7379 -0.0683
 1343TIP3    H2 3994   2.756   4.322   3.041 -0.1388 -0.8481 -0.9915
 1344TIP3   OH2 3995   4.586   3.522   4.898 -0.1515  0.4232 -0.7265
 1344TIP3    H1 3996   4.620   3.513   4.809  0.9741  0.0595 -0.2800
 1344TIP3    H2 3997   4.664   3.535   4.953 -0.5556 -1.9808  0.5496
 1345TIP3   OH2 3998   2.280   1.799   2.299  0.0601  0.1253 -0.3901
 1345TIP3    H1 3999   2.203   1.814   2.353  0.0501 -1.2470  0.0212
 1345TIP3    H2 4000   2.270   1.709   2.268  1.1614  0.1617 -0.8940
 1346TIP3   OH2 4001   4.781   5.177   2.585  0.3286  0.2535  0.2061
 1346TIP3    H1 4002   4.776   5.272   2.598  0.1413  0.2910 -0.1242
 1346TIP3    H2 4003   4.691   5.150   2.569  0.1230 -0.2524  2.0722
 1347TIP3   OH2 4004   0.105   3.867   1.100  0.2303  0.5358 -0.8184
 1347TIP3    H1 4005   0.173   3.835   1.158 -1.4754  0.1067  1.0549
 1347TIP3    H2 4006   0.103   3.804   1.028  0.3351 -0.6903  0.2259
 1348TIP3   OH2 4007   3.662   3.768   3.886 -0.3904  0.4823 -0.0951
 1348TIP3    H1 4008   3.737   3.800   3.936 -0.1210 -2.6959  1.8470
 1348TIP3    H2 4009   3.615   3.713   3.948 -1.0153 -2.3505 -2.8453
 1349TIP3   OH2 4010   6.197   2.916   3.387  0.1648 -0.1040 -0.5053
 1349TIP3    H1 4011   6.160   2.942   3.471 -0.1472 -1.8086 -0.0863
 1349TIP3    H2 4012   6.188   2.994   3.332 -1.7374  0.3215  0.3370
 1350TIP3   OH2 4013   5.612   5.903   2.317 -0.0601  0.0097 -0.0493
 1350TIP3    H1 4014   5.620   5.996   2.341 -0.2070 -0.0103  0.0800
 1350TIP3    H2 4015   5.576   5.862   2.395  3.0165 -0.7503  1.1339
 1351TIP3   OH2 4016   4.020   2.202   5.753  0.1892 -0.3728  0.1904
 1351TIP3    H1 4017   4.064   2.223   5.835  0.7791 -1.5125  0.1853
 1351TIP3    H2 4018   4.077   2.138   5.711 -0.7887 -0.8334 -0.4698
 1352TIP3   OH2 4019   0.514   5.611   0.403 -0.2584  0.3405 -0.4613
 1352TIP3    H1 4020   0.550   5.687   0.358 -0.0692  0.9328  0.6353
 1352TIP3    H2 4021   0.555   5.613   0.490  0.8701 -1.8467 -0.8529
 1353TIP3   OH2 4022   2.448   2.312   0.013 -0.4966  0.5366 -0.5322
 1353TIP3    H1 4023   2.404   2.275   0.089 -1.5016  1.1405 -0.8083
 1353TIP3    H2 4024   2.516   2.368   0.050  1.1300 -1.6026 -0.1061
 1354TIP3   OH2 4025   5.348   1.618   0.709 -0.5327  0.2223 -0.2935
 1354TIP3    H1 4026   5.439   1.646   0.718 -0.7139  0.7967 -0.1602
 1354TIP3    H2 4027   5.335   1.554   0.778 -0.4208  0.6448  0.1202
 1355TIP3   OH2 4028   4.614   6.435   2.431  0.2839  0.1788  0.1959
 1355TIP3    H1 4029   4.538   6.492   2.444 -0.5776 -1.0576  0.8713
 1355TIP3    H2 4030   4.667   6.448   2.510  1.7777  2.3874 -1.0471
 1356TIP3   OH2 4031   2.973   5.724   2.880 -0.0310 -0.2390 -0.2960
 1356TIP3    H1 4032   2.932   5.792   2.933  0.6897 -0.3806  0.4783
 1356TIP3    H2 4033   3.045   5.692   2.934  0.8878 -0.2317 -1.4701
 1357TIP3   OH2 4034   0.178   5.960   5.728  0.0245 -0.6102  0.0804
 1357TIP3    H1 4035   0.191   5.882   5.782  0.9423  1.3836  2.9679
 1357TIP3    H2 4036   0.265   5.983   5.696 -0.0868 -0.2175  0.0551
 1358TIP3   OH2 4037   0.535   5.154   1.291  0.6556 -0.5366  0.2124
 1358TIP3    H1 4038   0.489   5.172   1.373 -1.2621 -0.3308 -0.8480
 1358TIP3    H2 4039   0.510   5.064   1.269 -0.5875  0.1088 -1.1676
 1359TIP3   OH2 4040   0.227   4.151   2.650 -0.4859  0.1582 -0.3076
 1359TIP3    H1 4041   0.269   4.183   2.730 -0.5549  0.7635 -0.5092
 1359TIP3    H2 4042   0.245   4.218   2.585 -1.6364  0.3635 -0.4434
 1360TIP3   OH2 4043   1.558   3.596   3.506 -0.3708 -0.1831  0.0204
 1360TIP3    H1 4044   1.621   3.610   3.576 -0.8915  2.8488  0.0127
 1360TIP3    H2 4045   1.591   3.649   3.433 -0.0488 -2.9241 -1.9740
 1361TIP3   OH2 4046   5.126   4.031   1.097  0.1571  0.3129  0.7103
 1361TIP3    H1 4047   5.088   4.076   1.022 -0.7788 -0.6623  0.5838
 1361TIP3    H2 4048   5.091   3.942   1.093  2.4091 -0.6604  0.6007
 1362TIP3   OH2 4049   0.913   4.717   1.296 -0.5142  0.0036  1.0922
 1362TIP3    H1 4050   0.994   4.666   1.303  0.9255  1.3279 -2.9029
 1362TIP3    H2 4051   0.843   4.651   1.300  1.1530 -2.1860 -1.7558
 1363TIP3   OH2 4052   1.810   1.956   5.252  0.1017  0.4017  0.2080
 1363TIP3    H1 4053   1.857   1.873   5.262  0.2006  0.4676  0.2923
 1363TIP3    H2 4054   1.734   1.934   5.199 -0.9989 -0.1782  1.9415
 1364TIP3   OH2 4055   6.049   5.697   3.610 -0.6672 -0.0326 -0.3639
 1364TIP3    H1 4056   6.108   5.771   3.626 -1.7516  0.6357  0.8209
 1364TIP3    H2 4057   6.106   5.620   3.609  0.3863  0.7344 -0.7255
 1365TIP3   OH2 4058   0.581   2.929   0.380 -0.2834 -0.2001  0.0667
 1365TIP3    H1 4059   0.648   2.976   0.330 -2.2575  1.8927 -0.8114
 1365TIP3    H2 4060   0.533   2.879   0.314 -1.3674  0.6390  0.1804
 1366TIP3   OH2 4061   4.829   4.290   2.425  0.3236 -0.6150 -0.3363
 1366TIP3    H1 4062   4.864   4.265   2.339  2.5875 -0.9449  0.6077
 1366TIP3    H2 4063   4.831   4.209   2.476 -0.1448 -0.2329  0.3046
 1367TIP3   OH2 4064   2.820   1.863   4.848  0.3457 -0.4120  0.2773
 1367TIP3    H1 4065   2.873   1.784   4.857 -0.7452 -0.9634  2.4733
 1367TIP3    H2 4066   2.865   1.914   4.780  0.9600 -2.9524 -1.3750
 1368TIP3   OH2 4067   4.356   0.866   4.467  0.1679  0.4197  0.6160
 1368TIP3    H1 4068   4.441   0.879   4.509  1.0668 -0.1741 -0.9582
 1368TIP3    H2 4069   4.312   0.801   4.523  0.9835  0.2739  1.1101
 1369TIP3   OH2 4070   3.290   0.274   1.862  0.5436 -0.2400 -0.7188
 1369TIP3    H1 4071   3.245   0.211   1.918  2.5548  0.2994  1.6946
 1369TIP3    H2 4072   3.382   0.269   1.888  1.1283  2.1262 -1.9686
 1370TIP3   OH2 4073   6.832   4.467   2.483  0.1413  0.3839  0.4151
 1370TIP3    H1 4074   6.927   4.463   2.474  0.1099  0.0792  0.2263
 1370TIP3    H2 4075   6.817   4.469   2.578  0.3095 -0.3111  0.4608
 1371TIP3   OH2 4076   1.428   0.781   0.275  0.2757  0.1692  0.2307
 1371TIP3    H1 4077   1.515   0.763   0.239  0.0215  1.1512 -0.9503
 1371TIP3    H2 4078   1.369   0.772   0.200 -0.3839  1.4364  0.5583
 1372TIP3   OH2 4079   2.960   6.545   3.547  0.0473 -0.4035 -0.1358
 1372TIP3    H1 4080   2.983   6.462   3.505  0.5266  0.4019 -1.5223
 1372TIP3    H2 4081   3.006   6.543   3.631 -1.7886 -2.5166  0.9348
 1373TIP3   OH2 4082   3.925   6.005   4.017  0.3592 -0.0195  0.1552
 1373TIP3    H1 4083   3.952   6.057   4.092  0.3024  3.0821 -1.8087
 1373TIP3    H2 4084   3.830   6.015   4.013  0.2249 -1.0941  0.2532
 1374TIP3   OH2 4085   0.007   2.037   4.674  0.0988 -0.1376  0.2197
 1374TIP3    H1 4086   0.033   1.946   4.661  0.3979  0.1352 -1.3382
 1374TIP3    H2 4087   0.072   2.072   4.735  0.8758 -0.5980 -0.3208
 1375TIP3   OH2 4088   2.586   4.499   5.329 -0.4353 -0.3069  0.0501
 1375TIP3    H1 4089   2.673   4.462   5.313  0.0344  0.8742 -0.1633
 1375TIP3    H2 4090   2.601   4.570   5.391 -0.9411  1.2335 -1.5240
 1376TIP3   OH2 4091   1.414   6.208   2.103 -0.1131 -0.0267  0.0659
 1376TIP3    H1 4092   1.322   6.185   2.118 -0.0952 -0.4761 -0.4854
 1376TIP3    H2 4093   1.433   6.274   2.170 -0.7160 -0.2309  0.4502
 1377TIP3   OH2 4094   6.457   4.109   2.611 -0.2557  0.1112  0.1248
 1377TIP3    H1 4095   6.404   4.099   2.532 -1.6217 -2.5419  1.2252
 1377TIP3    H2 4096   6.404   4.071   2.680  1.9068  0.0482  1.8695
 1378TIP3   OH2 4097   6.161   1.650   2.257  0.1841 -0.5034 -0.0231
 1378TIP3    H1 4098   6.191   1.625   2.169 -0.8791 -0.4407 -0.4146
 1378TIP3    H2 4099   6.122   1.570   2.292 -0.8908 -0.0877 -0.2626
 1379TIP3   OH2 4100   1.946   2.902   1.675 -0.2312 -0.3667 -0.1850
 1379TIP3    H1 4101   1.906   2.986   1.653  0.7343  0.5951  1.5005
 1379TIP3    H2 4102   1.956   2.858   1.591  0.3546  1.7326 -1.2960
 1380TIP3   OH2 4103   2.949   0.932   2.972  0.1982  0.5001 -0.5201
 1380TIP3    H1 4104   2.954   1.003   3.037  0.6759 -1.1813  1.3756
 1380TIP3    H2 4105   2.882   0.874   3.006  0.4872 -0.4521 -1.5405
 1381TIP3   OH2 4106   4.554   3.878   5.394  0.0692 -0.1091 -0.4919
 1381TIP3    H1 4107   4.595   3.797   5.422  1.1318  0.3889 -0.5549
 1381TIP3    H2 4108   4.593   3.897   5.309 -0.2055  0.4303 -0.5023
 1382TIP3   OH2 4109   2.742   6.626   4.116 -0.2677 -0.2014  0.6144
 1382TIP3    H1 4110   2.829   6.639   4.155  0.6861  0.5015 -1.5785
 1382TIP3    H2 4111   2.731   6.531   4.113  0.6306 -0.3117  0.5274
 1383TIP3   OH2 4112   1.777   2.432   4.582 -0.2110 -0.7248  0.3297
 1383TIP3    H1 4113   1.821   2.359   4.539 -0.3278 -1.8018  1.9811
 1383TIP3    H2 4114   1.685   2.406   4.588 -0.5422  0.2139 -0.3907
 1384TIP3   OH2 4115   4.314   3.770   3.101 -0.1196 -0.8543  0.4498
 1384TIP3    H1 4116   4.409   3.761   3.096 -0.0265  0.5371 -2.4672
 1384TIP3    H2 4117   4.281   3.709   3.035 -1.3043 -1.4040  1.5053
 1385TIP3   OH2 4118   2.526   5.585   1.217  0.4852 -0.4512  0.4046
 1385TIP3    H1 4119   2.525   5.523   1.290 -1.9417  0.6425  1.4264
 1385TIP3    H2 4120   2.481   5.540   1.146 -0.5981 -0.1786  0.8972
 1386TIP3   OH2 4121   6.344   4.528   3.664 -0.3455 -0.2607 -0.7458
 1386TIP3    H1 4122   6.337   4.549   3.757 -2.6542 -0.5669 -0.7910
 1386TIP3    H2 4123   6.379   4.439   3.662  2.0001  0.5597 -0.3235
 1387TIP3   OH2 4124   1.649   5.773   4.537 -0.5403 -0.4638 -0.2820
 1387TIP3    H1 4125   1.562   5.757   4.575 -0.6078 -1.9497 -0.9768
 1387TIP3    H2 4126   1.683   5.685   4.520  1.7754  0.0046  1.4261
 1388TIP3   OH2 4127   1.983   3.764   3.861  0.2555  0.0964  0.0184
 1388TIP3    H1 4128   2.066   3.804   3.835 -0.0403  0.9695  0.3601
 1388TIP3    H2 4129   2.008   3.680   3.899  1.0590  0.6411  0.7444
 1389TIP3   OH2 4130   0.069   4.739   3.859 -0.2807 -0.2209  0.3009
 1389TIP3    H1 4131   0.108   4.801   3.797 -0.5740 -0.2551  0.0747
 1389TIP3    H2 4132   0.011   4.685   3.804 -1.7423  0.7436  0.8353
 1390TIP3   OH2 4133   6.127   4.011   4.340  0.2568  0.7057 -0.2351
 1390TIP3    H1 4134   6.166   3.924   4.345 -0.8293  0.2291  0.1023
 1390TIP3    H2 4135   6.178   4.064   4.402  1.2329  0.4495 -0.7971
 1391TIP3   OH2 4136   1.518   0.004   2.874  0.6924  0.0467  0.3555
 1391TIP3    H1 4137   1.599   0.000   2.824 -0.6669  0.1514 -2.0389
 1391TIP3    H2 4138   1.462   0.064   2.824 -1.5770 -1.6136  0.7013
 1392TIP3   OH2 4139   1.171   1.504   5.708  0.4200 -0.3291  0.7337
 1392TIP3    H1 4140   1.127   1.446   5.771  1.1674 -2.0008 -0.1931
 1392TIP3    H2 4141   1.211   1.444   5.645  1.0376  1.2412 -0.4386
 1393TIP3   OH2 4142   0.574   4.824   3.879 -0.2177  0.3464 -0.2850
 1393TIP3    H1 4143   0.642   4.891   3.884 -0.1499  0.2161  1.2625
 1393TIP3    H2 4144   0.620   4.741   3.897 -0.8886  0.3817  1.9479
 1394TIP3   OH2 4145   0.837   5.587   2.766  0.6769 -0.2138 -0.5469
 1394TIP3    H1 4146   0.882   5.537   2.698 -3.0803 -1.5834 -2.2965
 1394TIP3    H2 4147   0.810   5.522   2.831  1.0503  0.5578  0.4224
 1395TIP3   OH2 4148   6.523   3.178   2.112  0.5668  0.1500 -0.3980
 1395TIP3    H1 4149   6.545   3.085   2.118 -0.8357 -0.2862 -1.3600
 1395TIP3    H2 4150   6.505   3.205   2.202 -2.5815 -1.4987 -0.3979
 1396TIP3   OH2 4151   0.959   1.224   1.422  0.3419  0.6067 -0.1623
 1396TIP3    H1 4152   1.022   1.164   1.382  0.9675  1.6541 -0.7841
 1396TIP3    H2 4153   1.001   1.310   1.418  0.3923  0.7891  2.7239
 1397TIP3   OH2 4154   4.749   3.587   2.511  0.1657 -0.1847  0.1412
 1397TIP3    H1 4155   4.686   3.548   2.451  1.0119 -2.1031  0.4144
 1397TIP3    H2 4156   4.715   3.566   2.598 -0.1032  0.9709  0.3238
 1398TIP3   OH2 4157   6.872   1.422   1.845 -0.2969 -0.3677 -0.0286
 1398TIP3    H1 4158   6.890   1.445   1.754  1.4501  1.2879  0.6620
 1398TIP3    H2 4159   6.920   1.340   1.859  1.3594  0.5516 -0.0357
 1399TIP3   OH2 4160   1.445   5.154   4.259 -0.8504  0.4932 -0.3414
 1399TIP3    H1 4161   1.529   5.197   4.246  0.1375 -0.9098  0.9641
 1399TIP3    H2 4162   1.380   5.224   4.251  0.4368  1.6195 -1.2844
 1400TIP3   OH2 4163   0.028   0.117   2.166  0.2772  0.2214 -0.0197
 1400TIP3    H1 4164  -0.026   0.077   2.234 -1.7604  1.6675 -0.7061
 1400TIP3    H2 4165   0.023   0.055   2.093 -1.2854  0.7622 -0.4091
 1401TIP3   OH2 4166   4.899   2.844   4.979  0.4743  0.0684  0.3155
 1401TIP3    H1 4167   4.926   2.755   4.959 -1.5391 -0.1678 -1.7039
 1401TIP3    H2 4168   4.972   2.898   4.947  0.8395 -0.7573 -0.2963
 1402TIP3   OH2 4169   3.420   0.198   1.203  0.0208  0.5491 -0.0457
 1402TIP3    H1 4170   3.437   0.273   1.260 -2.3679 -0.4125  2.1560
 1402TIP3    H2 4171   3.351   0.229   1.144 -0.3189  0.3851  0.2594
 1403TIP3   OH2 4172   4.455   4.555   2.208  0.0211 -0.1367  0.5623
 1403TIP3    H1 4173   4.531   4.544   2.266  1.4534  0.5507 -1.1100
 1403TIP3    H2 4174   4.379   4.543   2.266  1.3421  1.4098  2.8037
 1404TIP3   OH2 4175   5.249   6.359   5.765 -0.0500  0.1407 -0.4326
 1404TIP3    H1 4176   5.320   6.355   5.829 -0.4671 -0.1535  0.0167
 1404TIP3    H2 4177   5.232   6.453   5.754  0.9503  0.2598 -1.1679
 1405TIP3   OH2 4178   0.776   2.938   2.194  0.0570  0.3871 -0.0255
 1405TIP3    H1 4179   0.860   2.930   2.239  0.2513  0.4047 -0.3847
 1405TIP3    H2 4180   0.771   3.031   2.169 -0.2464  0.4706  0.3421
 1406TIP3   OH2 4181   3.466   6.220   0.551 -0.8518 -0.1413  0.7524
 1406TIP3    H1 4182   3.480   6.269   0.632  0.6197  2.1653 -0.7710
 1406TIP3    H2 4183   3.554   6.197   0.521 -1.1934  0.7232 -1.1005
 1407TIP3   OH2 4184   7.003   6.371   0.514 -0.4825  0.5750 -0.4269
 1407TIP3    H1 4185   6.987   6.463   0.493 -1.5059  1.1007  2.2024
 1407TIP3    H2 4186   6.941   6.351   0.584  0.8521 -1.6389  0.2496
 1408TIP3   OH2 4187   3.684   5.866   1.461 -0.6224 -0.1390 -0.1363
 1408TIP3    H1 4188   3.634   5.894   1.537 -3.5606 -0.7701 -1.6767
 1408TIP3    H2 4189   3.657   5.775   1.447  1.2822 -0.6543 -0.8957
 1409TIP3   OH2 4190   3.328   2.116   1.577 -0.2532  0.2260 -0.4463
 1409TIP3    H1 4191   3.235   2.117   1.555 -0.9478  1.2120  2.1360
 1409TIP3    H2 4192   3.345   2.029   1.611 -0.0561 -0.1350 -1.4300
 1410TIP3   OH2 4193   3.034   2.850   1.897  0.5169  0.6355  0.0415
 1410TIP3    H1 4194   3.069   2.840   1.808  3.9831  0.7203  1.2647
 1410TIP3    H2 4195   3.020   2.944   1.907 -2.3074  0.4555 -1.1113
 1411TIP3   OH2 4196   3.088   5.161   0.146 -0.1990 -0.7607  0.8720
 1411TIP3    H1 4197   3.050   5.081   0.108 -1.9867 -0.2427  1.4471
 1411TIP3    H2 4198   3.158   5.130   0.202 -0.8030 -1.9343  1.0153
 1412TIP3   OH2 4199   4.198   4.179   2.514 -0.1584 -0.4855  0.2595
 1412TIP3    H1 4200   4.198   4.090   2.479 -0.6599 -0.6749  0.7266
 1412TIP3    H2 4201   4.272   4.182   2.574  0.1133 -0.4564 -0.0734
 1413TIP3   OH2 4202   6.348   3.007   0.724  0.6964  0.1693 -0.5584
 1413TIP3    H1 4203   6.443   3.015   0.718  0.7857  1.5587  1.5362
 1413TIP3    H2 4204   6.317   3.097   0.734 -0.6098 -0.4073  0.9674
 1414TIP3   OH2 4205   0.550   1.036   2.657  0.4667 -0.4324 -0.3823
 1414TIP3    H1 4206   0.612   1.051   2.729 -0.2856  0.5040  0.0956
 1414TIP3    H2 4207   0.605   1.024   2.580  1.2964 -1.7489  0.3841
 1415TIP3   OH2 4208   4.882   5.443   1.298 -0.1548  0.4724  0.3724
 1415TIP3    H1 4209   4.895   5.489   1.380 -0.8172  0.4711  0.4898
 1415TIP3    H2 4210   4.807   5.487   1.257 -1.5909 -1.1947  1.0366
 1416TIP3   OH2 4211   4.817   2.164   0.537  0.1234 -0.6062  0.1818
 1416TIP3    H1 4212   4.912   2.166   0.552  0.0895 -0.1399  0.3355
 1416TIP3    H2 4213   4.808   2.135   0.447  0.4979  1.5161 -0.6033
 1417TIP3   OH2 4214   1.319   0.539   2.951 -0.2463 -0.0602 -0.1699
 1417TIP3    H1 4215   1.298   0.510   2.863  0.3918 -0.3259 -0.2372
 1417TIP3    H2 4216   1.410   0.512   2.965 -0.2573  0.2056  0.4718
 1418TIP3   OH2 4217   3.851   2.963   0.282 -0.4423  0.5470 -0.0671
 1418TIP3    H1 4218   3.829   3.053   0.256  0.5110  0.5063 -1.1415
 1418TIP3    H2 4219   3.767   2.919   0.290 -0.8614  1.0584 -1.3917
 1419TIP3   OH2 4220   4.661   1.222   1.590 -0.0214 -0.6824 -0.0098
 1419TIP3    H1 4221   4.618   1.142   1.621  0.4680 -1.2639 -0.7970
 1419TIP3    H2 4222   4.755   1.201   1.592  0.2934  0.5739  1.7077
 1420TIP3   OH2 4223   6.574   5.137   2.361 -0.0719 -0.4462  0.0887
 1420TIP3    H1 4224   6.527   5.098   2.435  0.0541 -1.2568 -0.2467
 1420TIP3    H2 4225   6.663   5.149   2.394 -0.4004  0.7138  0.5922
 1421TIP3   OH2 4226   6.361   2.089   3.997 -0.1770  0.4149 -0.5338
 1421TIP3    H1 4227   6.268   2.066   4.000  0.1533 -1.0230 -0.5408
 1421TIP3    H2 4228   6.401   2.022   3.941  0.8615  1.0160 -0.5375
 1422TIP3   OH2 4229   7.034   0.703   2.740  0.3151 -0.4972 -0.1685
 1422TIP3    H1 4230   6.997   0.783   2.778 -0.0660 -0.6999 -0.1120
 1422TIP3    H2 4231   7.128   0.720   2.736  0.3114 -0.2955  0.4439
 1423TIP3   OH2 4232   5.093   4.304   3.077  0.5715 -0.4386  0.0910
 1423TIP3    H1 4233   5.033   4.293   3.151 -2.2947  0.2403 -1.9272
 1423TIP3    H2 4234   5.165   4.355   3.111 -0.2436 -0.8232  2.5747
 1424TIP3   OH2 4235   0.542   6.021   5.509 -0.1839  0.1344 -0.2990
 1424TIP3    H1 4236   0.491   5.942   5.490  1.2979 -0.8200 -0.5087
 1424TIP3    H2 4237   0.477   6.090   5.518 -1.5158 -1.0612 -0.3513
 1425TIP3   OH2 4238   2.008   4.197   3.079  0.0965 -0.1130  0.2393
 1425TIP3    H1 4239   1.993   4.263   3.147 -1.3906 -0.2910  0.1158
 1425TIP3    H2 4240   1.991   4.243   2.997  1.0705 -0.1196  0.0271
 1426TIP3   OH2 4241   0.472   4.043   1.490  0.1299 -0.5560  0.2139
 1426TIP3    H1 4242   0.398   4.053   1.550  0.5037 -0.7527  0.7177
 1426TIP3    H2 4243   0.451   3.966   1.437  0.4535 -1.2478  1.0736
 1427TIP3   OH2 4244   5.666   5.223   4.707  0.0929 -0.2249 -0.1304
 1427TIP3    H1 4245   5.601   5.272   4.757 -0.0586 -0.0969 -0.4467
 1427TIP3    H2 4246   5.719   5.290   4.665  0.1581 -0.3319 -0.2189
 1428TIP3   OH2 4247   2.980   2.221   1.185 -0.4399 -0.0583 -0.0428
 1428TIP3    H1 4248   2.952   2.156   1.249  0.1585 -1.9413 -1.6147
 1428TIP3    H2 4249   3.075   2.222   1.192 -0.3637 -0.3529 -0.9639
 1429TIP3   OH2 4250   6.472   3.955   4.756  0.1844 -0.2332  0.6584
 1429TIP3    H1 4251   6.390   3.996   4.726  0.0505  1.0719  2.5716
 1429TIP3    H2 4252   6.537   3.982   4.691 -0.6531 -0.1955 -0.1948
 1430TIP3   OH2 4253   0.587   1.446   0.985  0.6212 -0.2917 -0.2943
 1430TIP3    H1 4254   0.534   1.524   0.968 -1.1178 -1.5915 -1.1354
 1430TIP3    H2 4255   0.613   1.415   0.899  2.5509  0.1216  0.0899
 1431TIP3   OH2 4256   2.742   4.182   1.239 -1.0269 -0.1360 -0.6289
 1431TIP3    H1 4257   2.700   4.265   1.259 -0.7416  0.1090 -1.0393
 1431TIP3    H2 4258   2.733   4.173   1.144 -1.0757 -0.5842 -0.5837
 1432TIP3   OH2 4259   0.571   2.385   5.591  0.2329 -0.0835 -0.5194
 1432TIP3    H1 4260   0.499   2.440   5.559  1.6627  0.8252 -2.3600
 1432TIP3    H2 4261   0.587   2.416   5.680 -1.6411 -0.3345 -0.0588
 1433TIP3   OH2 4262   1.691   5.124   4.536  0.3903 -0.0783 -0.3098
 1433TIP3    H1 4263   1.692   5.115   4.440  0.6096 -2.2638 -0.1486
 1433TIP3    H2 4264   1.783   5.141   4.558  0.1649  1.5937 -0.5375
 1434TIP3   OH2 4265   6.448   1.079   1.680 -0.2370  0.8254  0.0381
 1434TIP3    H1 4266   6.381   1.079   1.748 -0.4901  2.6725 -0.1564
 1434TIP3    H2 4267   6.463   0.986   1.661 -2.7953  0.3436  0.0040
 1435TIP3   OH2 4268   0.755   3.225   2.562  0.7336 -0.8344  0.0298
 1435TIP3    H1 4269   0.733   3.318   2.572 -1.4334 -1.3866  1.1012
 1435TIP3    H2 4270   0.788   3.218   2.472  0.3672  0.8695 -0.2788
 1436TIP3   OH2 4271   1.403   3.907   3.270  0.2437 -0.3088 -0.1598
 1436TIP3    H1 4272   1.354   3.900   3.353  0.5492  1.3093  0.1953
 1436TIP3    H2 4273   1.359   3.846   3.211 -0.7143 -0.6329  0.8519
 1437TIP3   OH2 4274   5.537   2.779   5.096 -0.7552  0.1351  0.1573
 1437TIP3    H1 4275   5.499   2.733   5.171 -2.1934 -2.5758 -2.0541
 1437TIP3    H2 4276   5.462   2.799   5.040  0.4001  0.9618 -1.1430
 1438TIP3   OH2 4277   6.317   6.668   5.811 -0.9264  0.0935 -0.2634
 1438TIP3    H1 4278   6.346   6.577   5.819  0.3814  0.5093 -0.1651
 1438TIP3    H2 4279   6.320   6.702   5.901 -1.8450  0.1148 -0.2335
 1439TIP3   OH2 4280   0.586   1.860   2.805 -0.0034  0.9793 -0.2879
 1439TIP3    H1 4281   0.647   1.851   2.879  0.3753 -0.4828 -0.7422
 1439TIP3    H2 4282   0.636   1.830   2.730 -1.2638 -0.2321 -0.6821
 1440TIP3   OH2 4283   6.205   0.826   0.449 -0.1122  0.3800 -0.3829
 1440TIP3    H1 4284   6.283   0.771   0.443 -0.5440 -0.0775 -2.6140
 1440TIP3    H2 4285   6.169   0.807   0.535  1.2927 -0.6869  0.0077
 1441TIP3   OH2 4286   3.761   1.609   0.280  0.1206 -0.6523  0.1861
 1441TIP3    H1 4287   3.671   1.612   0.247  0.5450 -1.7856 -1.1467
 1441TIP3    H2 4288   3.751   1.600   0.375 -1.1307  2.7972  0.5395
 1442TIP3   OH2 4289   6.287   4.165   2.407  1.0554  0.2894  0.3357
 1442TIP3    H1 4290   6.293   4.111   2.328 -0.6466 -0.1432  0.4706
 1442TIP3    H2 4291   6.343   4.241   2.388  4.2461 -1.8121  0.4927
 1443TIP3   OH2 4292   3.335   4.109   1.557  0.4130  0.1628 -0.1053
 1443TIP3    H1 4293   3.398   4.178   1.534 -0.4751  0.9872 -0.1408
 1443TIP3    H2 4294   3.328   4.113   1.652  0.6784 -0.1667 -0.0716
 1444TIP3   OH2 4295   6.528   5.936   5.607 -0.3711  0.2979 -0.1782
 1444TIP3    H1 4296   6.445   5.899   5.577 -1.1339 -0.6496  2.7472
 1444TIP3    H2 4297   6.577   5.861   5.641  1.3856  0.9683 -1.0764
 1445TIP3   OH2 4298   4.896   4.252   2.144 -0.3515  0.0144  0.0671
 1445TIP3    H1 4299   4.947   4.330   2.124  0.4249 -0.8220 -1.3820
 1445TIP3    H2 4300   4.809   4.271   2.107  0.6713 -0.9424 -3.2091
 1446TIP3   OH2 4301   4.889   4.777   5.494 -0.0684 -0.8787 -0.3096
 1446TIP3    H1 4302   4.905   4.870   5.513 -0.4811 -0.5079 -1.6278
 1446TIP3    H2 4303   4.974   4.744   5.464  0.1747 -1.0366  0.5380
 1447TIP3   OH2 4304   6.184   1.933   1.792  0.3892 -0.6857  0.1484
 1447TIP3    H1 4305   6.149   1.935   1.702 -0.4528 -0.7771  0.4626
 1447TIP3    H2 4306   6.128   1.993   1.841  1.5026  0.1769  0.4046
 1448TIP3   OH2 4307   6.015   6.431   4.735 -0.0547 -0.6223 -0.1240
 1448TIP3    H1 4308   5.982   6.356   4.686 -0.0042 -0.3611 -0.5633
 1448TIP3    H2 4309   5.957   6.438   4.810 -0.3810 -0.7749 -0.3609
 1449TIP3   OH2 4310   4.474   1.877   3.897  0.2588 -0.1253  0.4475
 1449TIP3    H1 4311   4.553   1.887   3.950  1.5641 -0.5546 -1.3015
 1449TIP3    H2 4312   4.453   1.784   3.902 -1.2081  0.2659  2.2996
 1450TIP3   OH2 4313   0.588   6.174   1.948 -0.3441 -0.1853  0.0249
 1450TIP3    H1 4314   0.641   6.213   1.878 -0.8237  0.1685 -0.1416
 1450TIP3    H2 4315   0.535   6.246   1.981 -0.9058 -0.5969  0.0263
 1451TIP3   OH2 4316   4.557   5.687   4.387 -0.0799 -0.1419  0.5539
 1451TIP3    H1 4317   4.599   5.716   4.306  0.3893  0.1674  0.9017
 1451TIP3    H2 4318   4.485   5.632   4.358 -0.1062  0.2168 -0.0815
 1452TIP3   OH2 4319   4.473   0.925   4.236 -0.0438  0.4757 -0.0331
 1452TIP3    H1 4320   4.422   0.901   4.314  1.0470  1.3770  0.9962
 1452TIP3    H2 4321   4.438   1.010   4.210 -1.0706 -0.2526 -1.1606
 1453TIP3   OH2 4322   7.037   4.691   5.375  0.2043  0.0589 -0.3862
 1453TIP3    H1 4323   6.983   4.641   5.438  0.0667 -0.3718 -0.8418
 1453TIP3    H2 4324   7.088   4.624   5.329  0.7210  0.4233 -0.3449
 1454TIP3   OH2 4325   6.954   6.349   1.167  0.1794  0.3471 -0.0737
 1454TIP3    H1 4326   7.019   6.330   1.235  0.6989  1.5162 -0.2210
 1454TIP3    H2 4327   6.919   6.263   1.143  1.1310 -0.2363  0.5371
 1455TIP3   OH2 4328   3.865   2.045   5.605  0.0134 -0.4239  0.0116
 1455TIP3    H1 4329   3.921   2.099   5.660  1.4701 -5.0549  3.6307
 1455TIP3    H2 4330   3.926   2.000   5.546 -1.0128  0.4366 -1.8211
 1456TIP3   OH2 4331   2.369   4.105   3.588 -0.4741  0.0982  0.3209
 1456TIP3    H1 4332   2.449   4.058   3.564 -0.7018 -0.7744  1.1905
 1456TIP3    H2 4333   2.368   4.103   3.684 -2.0472 -0.7783  0.3114
 1457TIP3   OH2 4334   3.223   5.741   4.166  0.5466  0.0411 -0.0956
 1457TIP3    H1 4335   3.229   5.795   4.245  0.5657  0.7136 -0.5430
 1457TIP3    H2 4336   3.309   5.748   4.126  0.8855 -1.1910  0.3766
 1458TIP3   OH2 4337   1.468   1.277   0.135  0.0909 -0.2676 -0.2424
 1458TIP3    H1 4338   1.391   1.281   0.192 -0.0985 -1.4263 -0.4074
 1458TIP3    H2 4339   1.532   1.225   0.184 -0.3864 -2.0405 -1.4204
 1459TIP3   OH2 4340   2.366   0.407   0.920  0.4599 -0.5386 -0.2562
 1459TIP3    H1 4341   2.297   0.473   0.919  3.6082  3.1324  0.1435
 1459TIP3    H2 4342   2.346   0.352   0.996 -2.1305  0.1267 -0.3732
 1460TIP3   OH2 4343   4.517   0.610   2.026  0.3307  0.1077  0.3910
 1460TIP3    H1 4344   4.584   0.646   2.085  1.4695 -0.3699 -0.5731
 1460TIP3    H2 4345   4.518   0.516   2.045  0.9917 -0.1053 -0.6558
 1461TIP3   OH2 4346   4.164   0.627   0.724  0.4266  0.7708  0.7201
 1461TIP3    H1 4347   4.220   0.704   0.725  1.0920  0.3017  0.5142
 1461TIP3    H2 4348   4.208   0.564   0.782 -0.1079  0.5475  0.8891
 1462TIP3   OH2 4349   5.910   0.211   3.125 -0.2641 -0.0148  0.1909
 1462TIP3    H1 4350   5.992   0.189   3.169  0.1038 -1.2562 -1.0166
 1462TIP3    H2 4351   5.842   0.189   3.187  0.2333 -1.8199  0.1433
 1463TIP3   OH2 4352   2.279   4.620   3.226 -0.6028  0.0919  1.1697
 1463TIP3    H1 4353   2.358   4.571   3.206  0.7722  2.1644  1.1926
 1463TIP3    H2 4354   2.296   4.659   3.311 -2.5974 -1.1548  2.2281
 1464TIP3   OH2 4355   2.016   5.524   1.005 -0.2479 -0.1544  0.8175
 1464TIP3    H1 4356   1.943   5.585   1.013 -0.7542 -0.5366 -0.6258
 1464TIP3    H2 4357   1.992   5.450   1.061 -1.9618 -1.1780 -1.1474
 1465TIP3   OH2 4358   5.461   5.656   5.069  0.0875  0.0712  0.1594
 1465TIP3    H1 4359   5.391   5.592   5.061  0.4058 -0.1854 -0.6891
 1465TIP3    H2 4360   5.464   5.699   4.984  0.5799  0.4771  0.3764
 1466TIP3   OH2 4361   6.154   5.978   2.593 -0.0313  0.0912  0.3111
 1466TIP3    H1 4362   6.238   5.953   2.631  0.3218 -0.5046 -0.8061
 1466TIP3    H2 4363   6.095   5.986   2.668  0.5489 -1.3480  0.9515
 1467TIP3   OH2 4364   7.029   2.843   0.093  0.8537 -0.2190 -0.2780
 1467TIP3    H1 4365   7.056   2.856   0.002 -0.5115 -0.1042 -0.6899
 1467TIP3    H2 4366   6.971   2.766   0.090 -0.5410  0.7753  0.1984
 1468TIP3   OH2 4367   4.825   1.847   2.435 -0.0098  0.0174 -0.0088
 1468TIP3    H1 4368   4.801   1.923   2.489  0.7337  0.2352  0.0351
 1468TIP3    H2 4369   4.760   1.780   2.457  0.3080  0.0752  1.2260
 1469TIP3   OH2 4370   2.473   2.617   1.369  0.2141 -0.1440 -0.1262
 1469TIP3    H1 4371   2.567   2.610   1.352  0.2294  0.1784 -0.1842
 1469TIP3    H2 4372   2.458   2.711   1.382 -0.1193 -0.1819 -0.2291
 1470TIP3   OH2 4373   6.202   5.951   4.115 -0.4203 -0.5346 -1.0745
 1470TIP3    H1 4374   6.244   5.873   4.077 -0.1503 -0.0449 -1.7973
 1470TIP3    H2 4375   6.116   5.954   4.072 -0.2574 -0.1854 -1.3778
 1471TIP3   OH2 4376   0.071   5.703   0.605  0.1255 -0.1964  0.0744
 1471TIP3    H1 4377   0.083   5.753   0.685 -1.0015  0.3081 -0.0492
 1471TIP3    H2 4378   0.139   5.635   0.608  1.8899  1.4897  0.1098
 1472TIP3   OH2 4379   0.022   3.019   5.609 -0.2496 -0.7426 -0.0465
 1472TIP3    H1 4380  -0.042   3.066   5.662 -0.5249 -1.5766  0.3856
 1472TIP3    H2 4381   0.063   3.086   5.555 -0.3471  0.0458  0.8329
 1473TIP3   OH2 4382   5.356   4.256   2.783  0.1046  0.0974  0.6321
 1473TIP3    H1 4383   5.318   4.178   2.823 -1.9863  1.3870  1.3405
 1473TIP3    H2 4384   5.298   4.328   2.809  1.1980  1.7165 -1.0506
 1474TIP3   OH2 4385   0.236   1.926   1.366 -0.0318  0.2853  0.3694
 1474TIP3    H1 4386   0.245   2.014   1.402 -2.0218  0.5579  0.2924
 1474TIP3    H2 4387   0.150   1.925   1.323 -0.3020 -1.8416  0.8148
 1475TIP3   OH2 4388   3.287   4.500   1.669  0.4396  0.0895 -0.0845
 1475TIP3    H1 4389   3.247   4.429   1.718  1.3862 -0.0747  0.4639
 1475TIP3    H2 4390   3.273   4.578   1.723  0.5945  0.0846 -0.0372
 1476TIP3   OH2 4391   3.814   5.678   3.572  0.6066 -0.1871  0.3739
 1476TIP3    H1 4392   3.754   5.725   3.631  1.1909 -0.6755  1.3929
 1476TIP3    H2 4393   3.862   5.748   3.528 -0.1697  0.1982  0.1115
 1477TIP3   OH2 4394   2.275   1.791   4.804 -0.2358  0.6074 -0.3223
 1477TIP3    H1 4395   2.292   1.811   4.712  0.3560 -0.5199 -0.4777
 1477TIP3    H2 4396   2.325   1.712   4.821 -1.2518  0.1438  0.6668
 1478TIP3   OH2 4397   2.468   0.093   3.579  0.7238 -0.5992  0.9002
 1478TIP3    H1 4398   2.377   0.113   3.558  0.5683  0.4211  2.3942
 1478TIP3    H2 4399   2.470   0.087   3.674  2.1973 -0.7592  0.8791
 1479TIP3   OH2 4400   5.165   5.814   1.761 -0.5663 -0.0694 -0.1973
 1479TIP3    H1 4401   5.124   5.777   1.683 -1.5528 -0.5212  0.5204
 1479TIP3    H2 4402   5.216   5.742   1.797  1.7214  0.7222 -1.5816
 1480TIP3   OH2 4403   4.090   6.100   4.237  0.3951  0.6025 -0.2545
 1480TIP3    H1 4404   4.165   6.042   4.227  0.9446  1.0169  1.1814
 1480TIP3    H2 4405   4.128   6.186   4.255 -0.4243  1.0750 -0.7306
 1481TIP3   OH2 4406   3.569   2.805   2.028  0.5607  0.0538 -0.6097
 1481TIP3    H1 4407   3.485   2.762   2.044  0.3391  0.8344  0.4133
 1481TIP3    H2 4408   3.619   2.793   2.109  1.7634 -1.0743 -1.4663
 1482TIP3   OH2 4409   4.798   3.676   4.992 -0.8192  0.0113  0.8714
 1482TIP3    H1 4410   4.835   3.677   4.903 -1.8981  1.1513  0.4039
 1482TIP3    H2 4411   4.870   3.705   5.048 -0.4939  0.5213  0.2004
 1483TIP3   OH2 4412   3.229   3.342   1.790  0.1569 -0.1761  0.3796
 1483TIP3    H1 4413   3.239   3.355   1.695 -2.2189 -0.3250  0.0431
 1483TIP3    H2 4414   3.205   3.429   1.823 -1.2801 -0.5913  0.4589
 1484TIP3   OH2 4415   0.459   5.590   4.652 -0.6109  0.3800 -0.0693
 1484TIP3    H1 4416   0.537   5.632   4.615  1.5387 -1.3181  2.1886
 1484TIP3    H2 4417   0.414   5.661   4.698  0.0933  1.2135 -0.6116
 1485TIP3   OH2 4418   0.557   6.159   1.604 -0.0147 -0.2051 -0.4628
 1485TIP3    H1 4419   0.483   6.185   1.658  0.1280 -1.3067  0.2872
 1485TIP3    H2 4420   0.519   6.141   1.518 -0.4256  0.3960 -0.4128
 1486TIP3   OH2 4421   6.270   5.541   4.559  0.2262 -0.1970  0.0777
 1486TIP3    H1 4422   6.327   5.513   4.632  1.1302  1.4254  0.0476
 1486TIP3    H2 4423   6.319   5.612   4.517 -0.6078 -0.6348 -1.6905
 1487TIP3   OH2 4424   4.451   2.184   2.688  0.3153  0.0917  0.2059
 1487TIP3    H1 4425   4.511   2.211   2.758  0.9777 -0.5737 -0.0925
 1487TIP3    H2 4426   4.405   2.108   2.723  0.8022 -0.3739 -0.1507
 1488TIP3   OH2 4427   6.085   3.144   4.650 -0.0605  0.0600  0.3558
 1488TIP3    H1 4428   6.141   3.196   4.593 -0.3499  0.6219  0.5781
 1488TIP3    H2 4429   6.126   3.150   4.737 -0.0386 -0.1697  0.3632
 1489TIP3   OH2 4430   4.080   0.404   0.525  0.0273 -0.5174 -0.5128
 1489TIP3    H1 4431   4.060   0.342   0.596  0.6420  1.0558  1.1174
 1489TIP3    H2 4432   4.145   0.463   0.563 -0.0523  0.7307 -2.2188
 1490TIP3   OH2 4433   0.842   4.478   0.537 -0.2116 -0.0681  0.0062
 1490TIP3    H1 4434   0.794   4.420   0.477  0.6043 -0.9882  0.2134
 1490TIP3    H2 4435   0.777   4.503   0.603 -1.0801  0.8374 -1.1570
 1491TIP3   OH2 4436   2.685   4.449   4.802 -0.1276 -0.0434  0.7485
 1491TIP3    H1 4437   2.734   4.471   4.881 -1.2254 -2.3499  2.1723
 1491TIP3    H2 4438   2.753   4.429   4.737  0.7959  0.3634  1.5637
 1492TIP3   OH2 4439   1.546   2.970   4.934 -0.2939  0.6291  0.0258
 1492TIP3    H1 4440   1.593   3.023   4.999  1.0694  0.8370 -1.0764
 1492TIP3    H2 4441   1.458   2.960   4.970 -0.7735  4.0430  0.0582
 1493TIP3   OH2 4442   2.428   3.940   0.760  0.7858 -0.4528 -0.2429
 1493TIP3    H1 4443   2.385   3.861   0.793  0.2874 -0.0075  0.1758
 1493TIP3    H2 4444   2.358   4.003   0.748  1.4854  0.8840  2.1361
 1494TIP3   OH2 4445   4.569   3.697   3.853  0.2491  0.3915 -0.4169
 1494TIP3    H1 4446   4.560   3.790   3.876  0.4548  0.5278 -0.8645
 1494TIP3    H2 4447   4.527   3.650   3.925 -0.9992  0.8799 -0.7993
 1495TIP3   OH2 4448   5.356   6.113   1.049  0.3981 -0.2153  0.4121
 1495TIP3    H1 4449   5.423   6.092   0.984  0.1758  0.4102 -0.0289
 1495TIP3    H2 4450   5.307   6.031   1.060 -0.4944  0.0343 -1.3287
 1496TIP3   OH2 4451   3.370   5.195   2.236  0.3202  0.1950  0.0988
 1496TIP3    H1 4452   3.307   5.242   2.292 -1.9219 -0.2344 -1.9310
 1496TIP3    H2 4453   3.422   5.265   2.197 -0.3919  0.7421  0.0884
 1497TIP3   OH2 4454   5.490   4.118   5.059 -0.2253 -0.2394 -0.2331
 1497TIP3    H1 4455   5.457   4.198   5.099 -2.4408 -0.1239 -2.0869
 1497TIP3    H2 4456   5.504   4.058   5.133 -2.1088  0.6534  0.9081
 1498TIP3   OH2 4457   0.063   6.249   2.283  0.3399 -0.2219  0.4614
 1498TIP3    H1 4458   0.010   6.327   2.295 -0.0910 -0.3557 -0.4894
 1498TIP3    H2 4459   0.153   6.281   2.283  0.1843  0.2197  0.4482
 1499TIP3   OH2 4460   0.321   6.231   2.552  0.0803 -0.1139 -0.6751
 1499TIP3    H1 4461   0.320   6.327   2.555 -1.1911 -0.1334  0.5004
 1499TIP3    H2 4462   0.358   6.205   2.637  0.7039 -0.6839 -1.1048
 1500TIP3   OH2 4463   1.883   5.345   3.286 -0.3742 -0.1209  0.2057
 1500TIP3    H1 4464   1.835   5.314   3.363  0.8070  0.4811  1.2401
 1500TIP3    H2 4465   1.973   5.358   3.318 -0.2048  1.7087 -0.8467
 1501TIP3   OH2 4466   6.327   3.943   4.121  0.6971 -0.0446 -0.4636
 1501TIP3    H1 4467   6.370   3.984   4.046 -0.5812 -0.1318 -1.2748
 1501TIP3    H2 4468   6.347   4.002   4.194  2.8546 -0.5212 -0.6043
 1502TIP3   OH2 4469   0.551   3.285   2.043  0.1034 -0.1751 -0.3756
 1502TIP3    H1 4470   0.620   3.222   2.067  1.1379  0.8746 -0.5168
 1502TIP3    H2 4471   0.509   3.306   2.127  0.2195 -0.5095 -0.2283
 1503TIP3   OH2 4472   2.847   1.697   4.196  0.1781 -0.3725 -0.0769
 1503TIP3    H1 4473   2.756   1.698   4.225  0.2462 -0.3490  0.1376
 1503TIP3    H2 4474   2.891   1.760   4.252  0.3494 -0.4680 -0.1031
 1504TIP3   OH2 4475   3.732   3.392   2.253 -0.1303 -0.1169  0.1234
 1504TIP3    H1 4476   3.669   3.336   2.207  1.2123  0.6119 -2.8389
 1504TIP3    H2 4477   3.678   3.463   2.289 -1.5596 -2.0441  2.0697
 1505TIP3   OH2 4478   3.771   6.244   2.398 -0.3689  1.1015 -0.0872
 1505TIP3    H1 4479   3.679   6.253   2.376 -0.3365  3.4302  0.4825
 1505TIP3    H2 4480   3.816   6.238   2.314 -0.9407  1.2563 -0.4100
 1506TIP3   OH2 4481   2.742   2.900   1.693  0.6316  0.5128 -0.0302
 1506TIP3    H1 4482   2.789   2.982   1.706 -0.1411  0.6034  2.7483
 1506TIP3    H2 4483   2.654   2.926   1.665  1.0090  0.4834 -1.3397
 1507TIP3   OH2 4484   4.136   6.386   3.942 -0.5250  0.7722  0.0133
 1507TIP3    H1 4485   4.105   6.313   3.996 -1.2189  1.0286 -0.0209
 1507TIP3    H2 4486   4.208   6.350   3.891 -0.7762  0.1441  0.0923
 1508TIP3   OH2 4487   6.085   5.181   1.520  0.1010 -0.3309 -0.6108
 1508TIP3    H1 4488   6.067   5.189   1.614  1.4879  2.2254 -0.4746
 1508TIP3    H2 4489   6.169   5.135   1.516  1.4943  2.0396 -0.3672
 1509TIP3   OH2 4490   0.702   3.531   0.149 -0.7074 -0.4849 -0.1028
 1509TIP3    H1 4491   0.691   3.452   0.096  0.2104 -0.1767 -0.7866
 1509TIP3    H2 4492   0.614   3.568   0.156 -1.2748 -1.9455  0.8559
 1510TIP3   OH2 4493   4.378   4.670   1.805 -0.0300  0.2608 -0.0477
 1510TIP3    H1 4494   4.323   4.634   1.874  0.9466  1.3712  1.3779
 1510TIP3    H2 4495   4.418   4.748   1.844  0.8614  0.7134 -1.7490
 1511TIP3   OH2 4496   3.174   2.153   0.929  0.0928  0.8052 -0.2137
 1511TIP3    H1 4497   3.180   2.094   0.854 -0.1870 -1.2008  1.2692
 1511TIP3    H2 4498   3.263   2.156   0.964 -0.3762 -0.9994  1.2983
 1512TIP3   OH2 4499   5.599   5.611   3.831  0.1049 -0.0151 -0.0303
 1512TIP3    H1 4500   5.577   5.534   3.780 -2.7772  0.8680 -0.3214
 1512TIP3    H2 4501   5.657   5.662   3.775 -0.8415 -0.3362 -1.3545
 1513TIP3   OH2 4502   5.760   5.765   4.950  0.6544  0.0132 -0.7167
 1513TIP3    H1 4503   5.736   5.683   4.992 -1.1586  1.1007  0.5368
 1513TIP3    H2 4504   5.683   5.790   4.899  1.6033  0.3928 -2.0315
 1514TIP3   OH2 4505   1.261   0.321   1.473 -0.4274  0.0547  0.0862
 1514TIP3    H1 4506   1.179   0.355   1.510 -0.3691  0.3611 -0.0630
 1514TIP3    H2 4507   1.237   0.236   1.437 -0.9646  0.6632 -1.0407
 1515TIP3   OH2 4508   3.503   3.553   2.847 -0.1318  0.5011  0.0137
 1515TIP3    H1 4509   3.422   3.603   2.859 -0.8245 -0.4436 -0.5824
 1515TIP3    H2 4510   3.568   3.600   2.899 -0.6497  2.2451 -0.8370
 1516TIP3   OH2 4511   6.545   1.671   3.490 -0.0475  0.1164 -0.2746
 1516TIP3    H1 4512   6.622   1.728   3.482  0.8062 -0.6715  1.7023
 1516TIP3    H2 4513   6.565   1.596   3.434  1.0612 -0.4870  0.8834
 1517TIP3   OH2 4514   1.726   6.539   2.714 -0.2238 -0.2113  0.1173
 1517TIP3    H1 4515   1.660   6.575   2.774 -0.0525 -0.1829  0.2929
 1517TIP3    H2 4516   1.771   6.472   2.766  0.5732  0.4878  0.3469
 1518TIP3   OH2 4517   1.707   4.555   1.028  0.1535 -0.0684  0.2421
 1518TIP3    H1 4518   1.687   4.636   0.982 -2.3987 -0.6059  0.2369
 1518TIP3    H2 4519   1.781   4.517   0.981  1.0040  1.9395 -0.1066
 1519TIP3   OH2 4520   5.300   2.115   5.744  0.4774 -0.0155 -0.2324
 1519TIP3    H1 4521   5.267   2.140   5.658 -0.1586 -0.6164 -0.1720
 1519TIP3    H2 4522   5.379   2.065   5.725  0.5343  0.1559 -0.4494
 1520TIP3   OH2 4523   0.891   3.145   5.217 -0.1470 -0.2530 -0.3963
 1520TIP3    H1 4524   0.906   3.167   5.309  0.2297 -1.2000 -0.2171
 1520TIP3    H2 4525   0.964   3.187   5.171  0.3232 -0.7387 -0.1144
 1521TIP3   OH2 4526   2.479   1.271   2.570  0.1808 -0.3950  0.3298
 1521TIP3    H1 4527   2.397   1.265   2.619  0.9660 -0.6632  1.6660
 1521TIP3    H2 4528   2.453   1.257   2.479 -1.3493  0.2407  0.6317
 1522TIP3   OH2 4529   3.353   5.885   5.571 -0.1704  0.0604  0.1694
 1522TIP3    H1 4530   3.390   5.933   5.497 -0.0994  1.2129  0.9249
 1522TIP3    H2 4531   3.317   5.952   5.628 -0.7834 -0.8490  0.8906
 1523TIP3   OH2 4532   6.364   2.295   0.877 -0.3856  0.2859  0.1616
 1523TIP3    H1 4533   6.346   2.246   0.957 -0.1505 -0.9428 -0.5119
 1523TIP3    H2 4534   6.425   2.239   0.828  0.2528  1.4635 -0.4379
 1524TIP3   OH2 4535   0.267   1.441   5.212 -0.2284 -0.7548  0.8012
 1524TIP3    H1 4536   0.209   1.379   5.167  1.0521 -0.1775 -1.7836
 1524TIP3    H2 4537   0.355   1.405   5.200  0.4646  1.1133 -0.0447
 1525TIP3   OH2 4538   1.655   6.612   3.653 -0.2071  0.3723  0.0078
 1525TIP3    H1 4539   1.695   6.699   3.654  0.3272  0.1270  1.4450
 1525TIP3    H2 4540   1.660   6.585   3.561  1.9252  0.8293 -0.0619
 1526TIP3   OH2 4541   1.430   3.554   0.786 -0.2197 -0.0685 -0.0556
 1526TIP3    H1 4542   1.478   3.480   0.825  0.4509  0.8549  0.9226
 1526TIP3    H2 4543   1.383   3.515   0.712 -2.2864 -2.0993  2.1685
 1527TIP3   OH2 4544   2.363   2.701   3.548 -0.4817  0.8331  0.0572
 1527TIP3    H1 4545   2.455   2.720   3.530  0.0136 -1.8856 -0.7905
 1527TIP3    H2 4546   2.358   2.697   3.644  0.9768 -1.5592  0.1092
 1528TIP3   OH2 4547   3.802   0.864   3.860  0.0073  0.0441 -0.0012
 1528TIP3    H1 4548   3.762   0.927   3.799  1.3899  1.4542  0.4997
 1528TIP3    H2 4549   3.730   0.806   3.885 -1.4787  1.7990 -0.0176
 1529TIP3   OH2 4550   3.183   5.310   2.395 -0.5332 -0.5081 -0.6885
 1529TIP3    H1 4551   3.179   5.400   2.427  0.7967 -0.1746 -1.3857
 1529TIP3    H2 4552   3.116   5.263   2.445 -0.1583  0.5224  0.8301
 1530TIP3   OH2 4553   5.759   1.105   5.790 -0.2847 -0.3247  0.1896
 1530TIP3    H1 4554   5.822   1.063   5.731 -1.3389 -2.3301  0.4035
 1530TIP3    H2 4555   5.680   1.115   5.736 -0.7120 -0.5972  0.7569
 1531TIP3   OH2 4556   3.678   2.045   0.119 -0.0190 -0.7124 -0.1372
 1531TIP3    H1 4557   3.676   2.131   0.076  1.7684  0.0128  1.1008
 1531TIP3    H2 4558   3.586   2.023   0.134 -0.5239  0.7623 -0.9198
 1532TIP3   OH2 4559   1.853   2.864   3.030 -0.1075  0.4144 -0.1857
 1532TIP3    H1 4560   1.927   2.925   3.023  0.6534 -0.5272 -0.6384
 1532TIP3    H2 4561   1.777   2.916   3.005  0.5985  1.0455 -1.1068
 1533TIP3   OH2 4562   5.914   5.607   5.675 -0.2159 -0.6621  0.0226
 1533TIP3    H1 4563   5.981   5.645   5.731  0.1443 -0.2935 -0.6470
 1533TIP3    H2 4564   5.832   5.642   5.709  0.0896  0.5599 -0.4261
 1534TIP3   OH2 4565   2.035   6.184   2.266  0.0105  0.2071  0.5840
 1534TIP3    H1 4566   1.983   6.248   2.315 -0.9076  0.1852 -0.3215
 1534TIP3    H2 4567   1.970   6.136   2.215  1.0320  1.4019 -2.0237
 1535TIP3   OH2 4568   6.978   0.867   4.812 -0.1013 -0.4416 -0.1990
 1535TIP3    H1 4569   6.988   0.784   4.859 -1.8900  0.0062  1.0502
 1535TIP3    H2 4570   6.884   0.877   4.799  0.0473  1.5690 -0.0006
 1536TIP3   OH2 4571   2.358   4.817   1.434 -0.0629  0.5017 -0.0321
 1536TIP3    H1 4572   2.393   4.781   1.352 -1.2271  0.4411 -0.5211
 1536TIP3    H2 4573   2.266   4.790   1.435 -0.5454  2.0278  0.4122
 1537TIP3   OH2 4574   1.105   2.055   0.027 -0.1270  0.2246  0.0154
 1537TIP3    H1 4575   1.110   2.136  -0.023  0.9906 -1.1352 -2.2599
 1537TIP3    H2 4576   1.196   2.028   0.038 -0.4663 -0.5895  0.9958
 1538TIP3   OH2 4577   4.776   4.800   3.889  0.0822  0.2163 -0.0390
 1538TIP3    H1 4578   4.829   4.850   3.826 -0.0280  1.7316  1.0012
 1538TIP3    H2 4579   4.696   4.853   3.899 -0.8282 -1.0810 -0.1774
 1539TIP3   OH2 4580   2.315   4.604   5.781 -0.0923 -0.0278 -0.0350
 1539TIP3    H1 4581   2.230   4.641   5.804  0.4963  0.9760  0.5731
 1539TIP3    H2 4582   2.305   4.510   5.796 -0.9190  0.1431  0.5655
 1540TIP3   OH2 4583   4.447   5.766   2.580 -0.1554  0.1136 -0.0882
 1540TIP3    H1 4584   4.485   5.728   2.659 -1.7054 -0.9909  0.1823
 1540TIP3    H2 4585   4.522   5.799   2.530  0.8331  0.9762  1.8920
 1541TIP3   OH2 4586   0.610   4.316   2.744 -0.1280 -0.3380 -0.2337
 1541TIP3    H1 4587   0.620   4.226   2.774 -0.3458 -0.7780 -1.4287
 1541TIP3    H2 4588   0.638   4.314   2.653  1.3508  1.1316  0.1396
 1542TIP3   OH2 4589   5.730   6.628   4.768  0.2896 -0.2556  0.6357
 1542TIP3    H1 4590   5.713   6.646   4.676  1.7252 -1.6645  0.0538
 1542TIP3    H2 4591   5.744   6.715   4.807 -0.8379  0.3968 -0.3326
 1543TIP3   OH2 4592   3.820   2.207   3.195  0.3450 -0.4486 -0.5782
 1543TIP3    H1 4593   3.841   2.115   3.213  2.6567 -0.0987 -1.1488
 1543TIP3    H2 4594   3.859   2.225   3.109  0.3759  1.1776 -0.2659
 1544TIP3   OH2 4595   1.322   1.282   4.391 -0.2492  0.0080  0.2988
 1544TIP3    H1 4596   1.275   1.289   4.475 -0.9238  1.9371 -0.1667
 1544TIP3    H2 4597   1.266   1.330   4.329  1.3743  0.6419 -0.7275
 1545TIP3   OH2 4598   1.691   5.916   0.150 -0.0557  0.6429  0.2768
 1545TIP3    H1 4599   1.750   5.987   0.176  0.7652 -0.3319  1.1389
 1545TIP3    H2 4600   1.716   5.842   0.206  0.0569 -0.7642 -1.5318
 1546TIP3   OH2 4601   4.345   2.243   4.894  0.2150 -0.0277 -0.0148
 1546TIP3    H1 4602   4.361   2.332   4.927  0.3945 -0.6606  1.6472
 1546TIP3    H2 4603   4.356   2.186   4.969 -3.1094 -1.2026 -0.2463
 1547TIP3   OH2 4604   2.758   3.965   3.593  0.2459 -0.1370  0.0500
 1547TIP3    H1 4605   2.809   4.038   3.556 -0.4960  0.9340  1.0834
 1547TIP3    H2 4606   2.824   3.905   3.628  0.8448  0.3230 -0.2656
 1548TIP3   OH2 4607   5.359   2.387   2.955 -0.3119  0.2924  0.7374
 1548TIP3    H1 4608   5.417   2.337   2.899 -1.0074 -0.8260  0.9792
 1548TIP3    H2 4609   5.405   2.470   2.970  0.3681  0.1759 -0.5668
 1549TIP3   OH2 4610   6.863   0.032   4.413 -0.1493 -0.3740  0.2369
 1549TIP3    H1 4611   6.811   0.103   4.451  1.2029  0.0986  1.2604
 1549TIP3    H2 4612   6.933   0.016   4.477 -0.1045 -2.2717 -0.2171
 1550TIP3   OH2 4613   6.541   4.826   0.824  0.1547 -0.3254 -0.0941
 1550TIP3    H1 4614   6.496   4.881   0.760 -0.9755 -0.3393  0.6629
 1550TIP3    H2 4615   6.477   4.812   0.894  1.4769  0.0326  1.2473
 1551TIP3   OH2 4616   2.235   5.099   1.236  0.3437 -0.2245  0.1843
 1551TIP3    H1 4617   2.243   5.007   1.210  1.2064  0.2474 -1.3293
 1551TIP3    H2 4618   2.325   5.127   1.250  0.2559  0.9074 -1.3221
 1552TIP3   OH2 4619   3.265   3.994   2.409  0.3440 -0.7060 -0.1764
 1552TIP3    H1 4620   3.268   3.926   2.342  0.5826 -1.1366  0.2728
 1552TIP3    H2 4621   3.176   4.029   2.404  0.3709 -0.7108 -0.7385
 1553TIP3   OH2 4622   4.108   6.640   2.989 -0.2395 -0.1868  0.1566
 1553TIP3    H1 4623   4.031   6.585   2.972 -1.5923  1.5536  0.3774
 1553TIP3    H2 4624   4.142   6.608   3.072 -1.6753 -0.0077  0.8462
 1554TIP3   OH2 4625   6.126   6.126   5.418 -0.2191 -0.8836  0.2725
 1554TIP3    H1 4626   6.184   6.189   5.460 -0.0409 -0.2133 -0.9513
 1554TIP3    H2 4627   6.095   6.170   5.339  2.2855 -3.3027 -2.3217
 1555TIP3   OH2 4628   0.373   2.569   3.434  0.4603  0.7955  0.2658
 1555TIP3    H1 4629   0.384   2.633   3.363  1.0776 -1.5609 -1.9341
 1555TIP3    H2 4630   0.285   2.587   3.468  0.3085  2.2989 -0.7832
 1556TIP3   OH2 4631   4.260   5.542   3.052 -0.2273  0.3105  0.2079
 1556TIP3    H1 4632   4.316   5.550   3.129  0.6710  0.8167 -0.4775
 1556TIP3    H2 4633   4.190   5.483   3.079 -0.3549  1.0832  1.6535
 1557TIP3   OH2 4634   1.904   5.192   2.267  0.5109 -0.8668  0.1499
 1557TIP3    H1 4635   1.899   5.154   2.355 -1.3121  1.9970  1.4405
 1557TIP3    H2 4636   1.987   5.240   2.267  1.9809 -3.2219 -0.8793
 1558TIP3   OH2 4637   1.138   3.984   2.385  0.2946 -0.0530  0.1913
 1558TIP3    H1 4638   1.064   4.029   2.427 -0.6950 -2.7283  1.5478
 1558TIP3    H2 4639   1.159   4.039   2.309 -2.2391  1.4877  0.4737
 1559TIP3   OH2 4640   3.970   5.280   2.272  0.2814 -0.2036  0.1914
 1559TIP3    H1 4641   3.884   5.322   2.272  0.7508  0.7928 -0.1998
 1559TIP3    H2 4642   3.952   5.188   2.292 -0.9241 -0.1256 -0.4607
 1560TIP3   OH2 4643   4.270   3.541   5.350  0.0313  0.2459  0.5535
 1560TIP3    H1 4644   4.212   3.568   5.421 -1.4613 -2.0643  0.3249
 1560TIP3    H2 4645   4.224   3.566   5.270  0.3340  0.2480  0.3755
 1561TIP3   OH2 4646   1.723   3.219   4.060  0.0498 -0.1047  0.2099
 1561TIP3    H1 4647   1.684   3.142   4.019  0.9290 -0.8368  0.7167
 1561TIP3    H2 4648   1.728   3.284   3.989  0.6793 -1.0245 -0.6050
 1562TIP3   OH2 4649   2.729   5.750   0.779  0.0104 -0.0710 -0.4707
 1562TIP3    H1 4650   2.807   5.713   0.738  0.4410  1.4888 -1.1423
 1562TIP3    H2 4651   2.689   5.804   0.711 -0.0375  1.4586  0.7136
 1563TIP3   OH2 4652   1.153   3.880   3.740  0.6714  0.3941 -0.1374
 1563TIP3    H1 4653   1.172   3.872   3.646  0.0702 -1.6973 -0.1473
 1563TIP3    H2 4654   1.058   3.884   3.744  0.5667 -1.4365  0.4070
 1564TIP3   OH2 4655   6.148   2.674   4.092 -0.6947  0.2557  0.0149
 1564TIP3    H1 4656   6.059   2.708   4.081 -1.3792 -1.5575 -0.4122
 1564TIP3    H2 4657   6.165   2.624   4.013  0.5604  0.2330  0.2780
 1565TIP3   OH2 4658   3.501   0.959   4.896 -0.2877 -0.1423  0.2482
 1565TIP3    H1 4659   3.482   0.925   4.983 -2.1913  0.2024  0.0253
 1565TIP3    H2 4660   3.588   0.926   4.875  0.1645 -0.3192  2.2249
 1566TIP3   OH2 4661   6.179   1.418   3.094 -0.7824  0.0613 -0.4152
 1566TIP3    H1 4662   6.153   1.334   3.132 -1.1506  0.3335 -0.0559
 1566TIP3    H2 4663   6.176   1.403   3.000 -0.8663 -0.3203 -0.3556
 1567TIP3   OH2 4664   3.096   1.118   5.461 -0.4144  0.1286  0.1384
 1567TIP3    H1 4665   3.046   1.147   5.537  0.3863 -0.6220  0.9788
 1567TIP3    H2 4666   3.186   1.111   5.493  0.0097  0.2181 -0.9991
 1568TIP3   OH2 4667   2.637   5.410   0.883  0.2287  0.4484  0.3722
 1568TIP3    H1 4668   2.726   5.442   0.897  0.3659  0.0278  0.4917
 1568TIP3    H2 4669   2.648   5.333   0.827 -0.2019  1.3232 -0.9461
 1569TIP3   OH2 4670   4.302   0.300   4.379 -0.1845 -0.3562  0.0911
 1569TIP3    H1 4671   4.379   0.246   4.367  0.0514  0.1667 -0.8032
 1569TIP3    H2 4672   4.323   0.383   4.337 -1.9528 -0.8546 -2.0035
 1570TIP3   OH2 4673   4.871   3.924   5.360 -0.2034 -0.2019  0.8397
 1570TIP3    H1 4674   4.824   3.842   5.345  3.7734 -2.6141  0.1751
 1570TIP3    H2 4675   4.836   3.984   5.295 -2.2255 -1.7865  0.3586
 1571TIP3   OH2 4676   1.597   1.622   1.062  0.0704  0.2409  0.6093
 1571TIP3    H1 4677   1.618   1.569   0.985  1.5626 -0.4692  1.4667
 1571TIP3    H2 4678   1.504   1.608   1.076  0.1525 -1.0356 -0.0177
 1572TIP3   OH2 4679   4.787   5.520   5.281 -0.2810  0.0766  0.4443
 1572TIP3    H1 4680   4.864   5.468   5.260 -0.4644  0.4421 -1.2129
 1572TIP3    H2 4681   4.822   5.605   5.309 -0.0595 -0.1280  0.7916
 1573TIP3   OH2 4682   1.676   5.455   3.133 -0.2811 -0.0160 -0.0882
 1573TIP3    H1 4683   1.754   5.422   3.177  0.2017  1.0451 -0.1317
 1573TIP3    H2 4684   1.626   5.500   3.201  1.1432  2.8514 -0.8101
 1574TIP3   OH2 4685   7.215   2.606   0.173  0.0181  0.1519 -0.2906
 1574TIP3    H1 4686   7.221   2.578   0.264 -0.1405  0.8747 -0.0523
 1574TIP3    H2 4687   7.147   2.673   0.173  1.1147  1.2964 -0.6591
 1575TIP3   OH2 4688   1.326   5.875   5.118 -0.3077 -0.0620  0.3722
 1575TIP3    H1 4689   1.346   5.968   5.130  1.4875  0.4583 -4.3685
 1575TIP3    H2 4690   1.412   5.833   5.109 -1.0352 -1.1912 -2.3048
 1576TIP3   OH2 4691   3.888   6.138   0.332 -0.1140  0.3888  0.5998
 1576TIP3    H1 4692   3.806   6.180   0.306  1.0256  1.6206 -1.2310
 1576TIP3    H2 4693   3.947   6.210   0.353  0.9971 -0.3810  0.2717
 1577TIP3   OH2 4694   1.736   4.089   1.789 -0.3136 -0.3074 -0.1784
 1577TIP3    H1 4695   1.690   4.005   1.789  0.3134 -0.6551  0.2900
 1577TIP3    H2 4696   1.774   4.096   1.876 -1.9170  1.3553  0.4666
 1578TIP3   OH2 4697   2.035  -0.000   4.151  0.1627 -0.1825 -0.1361
 1578TIP3    H1 4698   2.002  -0.055   4.223  0.8659  1.0763  1.1997
 1578TIP3    H2 4699   1.976   0.075   4.149  0.6111  0.1677 -0.3601
 1579TIP3   OH2 4700   2.868   2.987   4.442  0.0615  0.5180  0.1445
 1579TIP3    H1 4701   2.806   2.946   4.503 -0.1699 -1.8082 -1.5239
 1579TIP3    H2 4702   2.948   2.937   4.453 -0.1145 -0.2408 -1.7179
 1580TIP3   OH2 4703   1.767   4.042   5.364 -0.7328  0.4859 -0.2547
 1580TIP3    H1 4704   1.746   3.977   5.432  2.3729 -0.1498  0.2492
 1580TIP3    H2 4705   1.706   4.113   5.381 -1.1748 -0.3521  2.1899
 1581TIP3   OH2 4706   6.103   5.050   4.692 -0.2113 -0.3522 -0.3537
 1581TIP3    H1 4707   6.177   5.094   4.734 -0.6201 -1.5450  1.7696
 1581TIP3    H2 4708   6.119   5.060   4.598  1.7810  0.8046  0.0566
 1582TIP3   OH2 4709   6.628   1.168   3.308  0.0689  0.1722  0.3904
 1582TIP3    H1 4710   6.596   1.082   3.336 -1.2037  0.3629 -0.3640
 1582TIP3    H2 4711   6.723   1.158   3.304 -0.0829 -1.3743 -0.2069
 1583TIP3   OH2 4712   3.500   5.999   5.370  0.1158  0.1305  0.3081
 1583TIP3    H1 4713   3.572   5.937   5.383 -0.1108 -0.1312  0.3377
 1583TIP3    H2 4714   3.541   6.085   5.370  0.5422 -0.0654 -0.5882
 1584TIP3   OH2 4715   2.407   2.356   1.752 -1.0048  0.5025  0.0976
 1584TIP3    H1 4716   2.441   2.340   1.664 -0.4370  1.0428  0.2069
 1584TIP3    H2 4717   2.322   2.312   1.754 -0.9689  0.3858 -0.6778
 1585TIP3   OH2 4718   6.324   0.126   0.445 -0.0750 -0.2940  0.5033
 1585TIP3    H1 4719   6.317   0.220   0.462  0.2587 -0.6840  3.3400
 1585TIP3    H2 4720   6.242   0.103   0.402  0.3799  1.4536 -1.4876
 1586TIP3   OH2 4721   3.196   0.631   1.000  0.0168 -0.8467  0.0160
 1586TIP3    H1 4722   3.239   0.706   1.041  0.2210  0.3478 -2.2778
 1586TIP3    H2 4723   3.263   0.591   0.945 -1.3305  0.2502 -2.5855
 1587TIP3   OH2 4724   4.318   0.538   1.397 -0.4465 -0.1030 -0.9047
 1587TIP3    H1 4725   4.228   0.521   1.423 -0.0287  0.3716  1.0699
 1587TIP3    H2 4726   4.371   0.481   1.453  0.4753 -1.2155 -2.8184
 1588TIP3   OH2 4727   2.534   4.839   4.195 -0.0634  0.0083  0.1892
 1588TIP3    H1 4728   2.592   4.902   4.153 -0.9590  1.2971  0.8009
 1588TIP3    H2 4729   2.576   4.820   4.279  0.4244 -0.5591 -0.1770
 1589TIP3   OH2 4730   6.118   5.568   1.122  0.4553  0.2250 -0.1296
 1589TIP3    H1 4731   6.130   5.655   1.162  0.3913  0.9030 -1.5304
 1589TIP3    H2 4732   6.076   5.516   1.191  0.8473  1.1789  0.8718
 1590TIP3   OH2 4733   4.283   1.139   0.818 -0.1562 -0.1833  0.1269
 1590TIP3    H1 4734   4.327   1.107   0.897 -0.5688 -0.7326  0.1435
 1590TIP3    H2 4735   4.344   1.119   0.747 -0.1040 -0.3660  0.2217
 1591TIP3   OH2 4736   5.349   1.304   4.177  0.1496  0.7494  0.3131
 1591TIP3    H1 4737   5.329   1.369   4.244  0.1689  1.1439 -0.0563
 1591TIP3    H2 4738   5.443   1.290   4.184 -0.0369 -0.1604  1.2070
 1592TIP3   OH2 4739   0.929   5.927   3.197  0.0047  0.3353  0.0640
 1592TIP3    H1 4740   0.907   5.873   3.273 -1.8823  3.0117  1.6038
 1592TIP3    H2 4741   1.021   5.950   3.209 -0.0182 -0.0447  1.0522
 1593TIP3   OH2 4742   5.706   3.926   4.041  0.7432  0.0427  0.0066
 1593TIP3    H1 4743   5.703   3.831   4.035 -0.7410  0.0578  0.2725
 1593TIP3    H2 4744   5.711   3.945   4.134  1.8630  0.2245 -0.0773
 1594TIP3   OH2 4745   0.852   5.635   0.053 -0.1211  0.1683 -0.6801
 1594TIP3    H1 4746   0.927   5.668   0.103  0.1493  2.6994 -2.5942
 1594TIP3    H2 4747   0.891   5.578  -0.013 -0.1842 -0.6514 -0.0296
 1595TIP3   OH2 4748   3.842   0.329   0.723  0.7849  0.2343 -0.3219
 1595TIP3    H1 4749   3.767   0.380   0.752  1.1489  0.3997  0.3520
 1595TIP3    H2 4750   3.845   0.342   0.628 -0.7621 -0.7558 -0.5453
 1596TIP3   OH2 4751   5.444   4.824   2.192 -0.7331  1.0136 -0.0254
 1596TIP3    H1 4752   5.389   4.862   2.124 -1.5808 -0.9990 -0.5382
 1596TIP3    H2 4753   5.384   4.774   2.247  0.4672 -0.8545 -0.3153
 1597TIP3   OH2 4754   3.568   3.553   5.758 -0.0664 -0.1439  0.1909
 1597TIP3    H1 4755   3.544   3.535   5.667  0.1937 -1.0536  0.2951
 1597TIP3    H2 4756   3.514   3.628   5.782 -0.0112  0.2247 -0.7642
 1598TIP3   OH2 4757   2.757   0.410   0.853 -0.0780  0.1626 -0.4272
 1598TIP3    H1 4758   2.685   0.435   0.796 -0.4208  0.0449 -0.0531
 1598TIP3    H2 4759   2.729   0.438   0.940 -0.4393 -1.4194  0.0012
 1599TIP3   OH2 4760   4.647   1.435   0.885 -0.2110  0.9454  0.4081
 1599TIP3    H1 4761   4.569   1.489   0.874 -0.0692  1.2109  0.7006
 1599TIP3    H2 4762   4.704   1.460   0.812 -1.0368 -0.3867 -0.7599
 1600TIP3   OH2 4763   1.818   2.294   1.168  0.2016  0.4137  0.4429
 1600TIP3    H1 4764   1.739   2.344   1.145  0.9171  1.3663 -0.0440
 1600TIP3    H2 4765   1.862   2.280   1.085  1.1255  0.9183  0.8356
 1601TIP3   OH2 4766   3.702   5.417   2.733 -0.6322  0.2989 -0.0895
 1601TIP3    H1 4767   3.759   5.378   2.666 -0.1098  2.4737 -1.0395
 1601TIP3    H2 4768   3.616   5.418   2.692 -0.4795  0.8519 -0.4177
 1602TIP3   OH2 4769   5.062   1.363   2.800 -0.1904  0.5023  0.4281
 1602TIP3    H1 4770   5.029   1.386   2.887 -1.2183 -2.5475  0.9937
 1602TIP3    H2 4771   4.987   1.326   2.755  1.0271 -0.8792 -0.5775
 1603TIP3   OH2 4772   2.263   0.427   4.572  0.4509 -0.6122 -0.3832
 1603TIP3    H1 4773   2.238   0.474   4.493 -0.4965 -1.3713 -0.5572
 1603TIP3    H2 4774   2.355   0.403   4.558  0.7169  0.4872 -0.6183
 1604TIP3   OH2 4775   6.433   3.679   3.415  0.0511  0.0539 -0.0298
 1604TIP3    H1 4776   6.395   3.656   3.330 -0.1024  1.4859 -0.3715
 1604TIP3    H2 4777   6.473   3.765   3.401  0.8853 -0.1329  1.0958
 1605TIP3   OH2 4778   5.069   0.347   2.905 -0.1520  0.1848  0.0902
 1605TIP3    H1 4779   5.030   0.346   2.992 -0.0147  0.5846  0.1586
 1605TIP3    H2 4780   5.120   0.427   2.903  0.9334 -0.4916  0.1178
 1606TIP3   OH2 4781   1.874   2.781   3.317  0.1070  0.3206  0.4873
 1606TIP3    H1 4782   1.959   2.746   3.344  0.7702  0.4418 -1.3168
 1606TIP3    H2 4783   1.881   2.789   3.222 -1.4636  1.5925  0.4517
 1607TIP3   OH2 4784   2.468   0.513   3.316  0.1200  0.2947  0.2821
 1607TIP3    H1 4785   2.385   0.465   3.310  1.2144 -1.6961 -0.0294
 1607TIP3    H2 4786   2.513   0.473   3.390  0.8723  1.2486  0.3611
 1608TIP3   OH2 4787   6.586   2.985   2.471  0.2224  0.0422  0.0157
 1608TIP3    H1 4788   6.656   3.013   2.530  1.0311 -2.1242  0.1844
 1608TIP3    H2 4789   6.533   3.063   2.457 -0.0744  0.6642  3.6907
 1609TIP3   OH2 4790   4.159   4.589   4.531 -0.0468  0.1014 -0.4480
 1609TIP3    H1 4791   4.128   4.679   4.534  0.1402  0.1879 -1.0517
 1609TIP3    H2 4792   4.118   4.547   4.607 -2.3003 -0.0109 -1.6561
 1610TIP3   OH2 4793   1.130   0.120   1.333  0.0633  0.4988  0.7337
 1610TIP3    H1 4794   1.078   0.163   1.265  0.1323 -1.0650 -0.3699
 1610TIP3    H2 4795   1.073   0.118   1.410 -0.6478  0.8480  0.2191
 1611TIP3   OH2 4796   2.806   3.821   0.039 -0.2145 -0.1883  0.4007
 1611TIP3    H1 4797   2.889   3.846  -0.001 -1.2161 -0.8101 -2.2827
 1611TIP3    H2 4798   2.743   3.884   0.005 -1.1335 -0.7212  1.0630
 1612TIP3   OH2 4799   7.129   0.087   5.089  0.1817 -0.1243  0.1364
 1612TIP3    H1 4800   7.038   0.059   5.092  0.7741 -2.2820  0.1689
 1612TIP3    H2 4801   7.163   0.066   5.176  1.0701 -0.8556 -0.3630
 1613TIP3   OH2 4802   5.506   2.240   3.291 -0.3595  0.1882 -0.2124
 1613TIP3    H1 4803   5.454   2.204   3.219 -1.5711  0.9626  0.2347
 1613TIP3    H2 4804   5.576   2.290   3.249  0.6679 -1.6736 -0.8344
 1614TIP3   OH2 4805   3.840   5.928   0.998 -0.1635  0.3873 -0.0158
 1614TIP3    H1 4806   3.919   5.966   0.960  0.6821 -0.4217  0.8711
 1614TIP3    H2 4807   3.820   5.984   1.073  0.3529 -0.1640  0.5449
 1615TIP3   OH2 4808   0.538   1.170   0.894 -0.4674 -0.0720  0.0651
 1615TIP3    H1 4809   0.481   1.099   0.924 -1.0086  0.1417 -0.4253
 1615TIP3    H2 4810   0.504   1.248   0.938  0.9304 -0.2875  1.6206
 1616TIP3   OH2 4811   2.006   1.302   5.152  0.2047  0.3729  0.5292
 1616TIP3    H1 4812   2.028   1.352   5.230  1.5236 -2.1428  1.8794
 1616TIP3    H2 4813   1.928   1.252   5.175 -0.0399  0.4251 -0.1455
 1617TIP3   OH2 4814   6.409   5.638   5.397 -0.4533  0.2554 -0.0688
 1617TIP3    H1 4815   6.363   5.674   5.321 -0.3046  0.1653 -0.2031
 1617TIP3    H2 4816   6.502   5.648   5.375 -0.4064  0.4381  0.1995
 1618TIP3   OH2 4817   2.184   6.173   3.429 -0.2253  0.0252 -0.0111
 1618TIP3    H1 4818   2.264   6.199   3.383  0.5626 -0.0381  1.2701
 1618TIP3    H2 4819   2.133   6.253   3.435 -0.2819  0.0624 -0.8650
 1619TIP3   OH2 4820   3.591   0.689   2.172 -0.3433 -0.2646  0.0894
 1619TIP3    H1 4821   3.609   0.642   2.254  1.2436  0.0203 -0.0694
 1619TIP3    H2 4822   3.672   0.735   2.152 -1.0064  0.4188 -1.1774
 1620TIP3   OH2 4823   5.309   5.960   0.357  0.2165  0.1016 -0.4385
 1620TIP3    H1 4824   5.231   5.916   0.323 -0.2260 -0.4017  1.1239
 1620TIP3    H2 4825   5.275   6.020   0.423  1.1082  0.2535 -0.1103
 1621TIP3   OH2 4826   0.201   1.420   3.922  0.2527  0.1312 -0.1234
 1621TIP3    H1 4827   0.252   1.381   3.993  0.4575  1.2577  0.3640
 1621TIP3    H2 4828   0.162   1.499   3.960  2.3871  2.1914 -1.8955
 1622TIP3   OH2 4829   3.569   1.878   0.791  0.3295  0.6267 -0.0020
 1622TIP3    H1 4830   3.520   1.800   0.815  0.3214  0.9482  1.1182
 1622TIP3    H2 4831   3.636   1.886   0.859  0.6301  1.3246 -0.3686
 1623TIP3   OH2 4832   6.826   1.392   2.830  0.8575 -0.3338  0.1072
 1623TIP3    H1 4833   6.864   1.422   2.748  0.8747 -1.2641 -0.2372
 1623TIP3    H2 4834   6.765   1.462   2.855 -0.8392 -0.9932 -1.8689
 1624TIP3   OH2 4835   5.034   4.636   5.262 -0.5007 -0.3573 -0.1455
 1624TIP3    H1 4836   5.094   4.566   5.235  1.1010  0.2811  1.5451
 1624TIP3    H2 4837   4.974   4.595   5.324 -0.5896 -0.5659 -0.3666
 1625TIP3   OH2 4838   3.588   5.385   4.169  0.1788  1.1437 -0.2826
 1625TIP3    H1 4839   3.565   5.415   4.081  4.1219 -0.4723 -2.1192
 1625TIP3    H2 4840   3.648   5.451   4.203  0.1438  0.8238  0.4348
 1626TIP3   OH2 4841   2.098   2.954   5.255  0.2906 -0.3843  0.4874
 1626TIP3    H1 4842   2.090   3.016   5.182  0.0622  0.7406  1.4505
 1626TIP3    H2 4843   2.034   2.885   5.235  0.3806 -0.1985 -0.4776
 1627TIP3   OH2 4844   3.669   1.005   1.043  0.1820  0.2768  0.2320
 1627TIP3    H1 4845   3.723   1.083   1.041 -0.2108  0.7176  3.0845
 1627TIP3    H2 4846   3.611   1.017   1.118 -2.5935 -1.0427 -1.5031
 1628TIP3   OH2 4847   5.879   2.391   5.184 -0.0350  0.1633  0.1703
 1628TIP3    H1 4848   5.804   2.370   5.127  0.3722  0.2174 -0.3959
 1628TIP3    H2 4849   5.850   2.364   5.272 -1.2942  1.5961  0.2314
 1629TIP3   OH2 4850   1.391   1.164   2.660  0.2175 -0.0369 -0.3826
 1629TIP3    H1 4851   1.455   1.094   2.657  1.1762  0.8434 -1.5227
 1629TIP3    H2 4852   1.427   1.227   2.722 -0.0984 -0.0458 -0.1881
 1630TIP3   OH2 4853   0.092   1.200   4.591  0.2785  0.4629 -0.5111
 1630TIP3    H1 4854   0.071   1.274   4.648  0.5714  0.4395 -0.3687
 1630TIP3    H2 4855   0.033   1.131   4.618 -0.7498  0.9730 -1.3635
 1631TIP3   OH2 4856   4.086   4.938   1.773  0.3322  0.9700  0.0254
 1631TIP3    H1 4857   4.053   4.848   1.778 -0.1904  1.2468  2.1672
 1631TIP3    H2 4858   4.148   4.936   1.699 -0.7754 -0.7483 -0.9308
 1632TIP3   OH2 4859   4.779   0.411   2.331  0.4380 -0.4800 -0.3580
 1632TIP3    H1 4860   4.684   0.424   2.325  0.0454 -2.3391  1.1510
 1632TIP3    H2 4861   4.790   0.332   2.383  2.8434 -0.3527 -0.5512
 1633TIP3   OH2 4862   3.589   0.310   0.121 -0.6480 -0.5042  0.3694
 1633TIP3    H1 4863   3.510   0.328   0.070 -0.3376 -0.3914 -0.0900
 1633TIP3    H2 4864   3.599   0.387   0.177  0.7119  0.9204 -1.6415
 1634TIP3   OH2 4865   4.599   4.240   5.067  0.1092 -0.1143  0.6924
 1634TIP3    H1 4866   4.642   4.200   5.143 -0.8022  0.3360  1.4779
 1634TIP3    H2 4867   4.506   4.223   5.082 -0.1570  0.8282  0.1755
 1635TIP3   OH2 4868   4.907   0.752   5.621 -0.6469  0.4610  0.5678
 1635TIP3    H1 4869   4.860   0.680   5.579 -2.8241  1.9731  0.2059
 1635TIP3    H2 4870   4.872   0.755   5.710 -0.6847  1.1314  0.5398
 1636TIP3   OH2 4871   2.891   5.290   3.513 -0.3506  0.3779 -0.0218
 1636TIP3    H1 4872   2.940   5.287   3.596 -1.0870  2.7633  0.5926
 1636TIP3    H2 4873   2.958   5.276   3.446  0.8494  1.4763  0.8756
 1637TIP3   OH2 4874   6.300   3.708   0.389  0.3763  0.1095  0.3961
 1637TIP3    H1 4875   6.219   3.747   0.355 -0.5779 -1.7588  0.4176
 1637TIP3    H2 4876   6.369   3.745   0.334 -0.5188  1.4938  0.1612
 1638TIP3   OH2 4877   3.964   4.799   4.691  0.1708 -0.4579  0.0333
 1638TIP3    H1 4878   4.004   4.886   4.699 -0.4681 -0.1865  0.3545
 1638TIP3    H2 4879   3.969   4.762   4.779 -1.2667  0.0224  0.3331
 1639TIP3   OH2 4880   6.020   2.570   2.522  0.0234  0.4091 -0.6301
 1639TIP3    H1 4881   6.033   2.487   2.568  2.4568 -0.7758 -3.1320
 1639TIP3    H2 4882   6.107   2.591   2.486 -0.8648  3.2766 -1.3548
 1640TIP3   OH2 4883   3.100   4.283   3.481  0.0983 -0.1553  0.0959
 1640TIP3    H1 4884   3.109   4.344   3.554 -1.3762  1.1839 -0.7919
 1640TIP3    H2 4885   3.181   4.231   3.484  0.8424  0.9910  1.6219
 1641TIP3   OH2 4886   6.198   0.348   4.786  0.0244  0.2885  0.0548
 1641TIP3    H1 4887   6.168   0.391   4.866 -2.1444  0.9443 -1.0344
 1641TIP3    H2 4888   6.289   0.375   4.777  0.2086  0.4820  2.0942
 1642TIP3   OH2 4889   1.011   1.677   0.336  0.2794  0.1562 -0.3552
 1642TIP3    H1 4890   1.008   1.707   0.245  0.6901 -0.9553 -0.7624
 1642TIP3    H2 4891   1.003   1.756   0.389  2.3819  1.1027 -1.3640
 1643TIP3   OH2 4892   7.074   4.324   2.401  0.3096 -0.2743 -0.5341
 1643TIP3    H1 4893   7.112   4.287   2.321  0.5951 -1.6843  0.2221
 1643TIP3    H2 4894   7.089   4.257   2.468 -2.7329 -0.5904  0.0046
 1644TIP3   OH2 4895   5.502   6.545   4.902 -0.2809 -0.2275  0.3499
 1644TIP3    H1 4896   5.539   6.500   4.977 -1.4395  0.1843  1.2054
 1644TIP3    H2 4897   5.572   6.601   4.869  0.1538 -0.2016  1.3086
 1645TIP3   OH2 4898   6.741   0.563   1.353  0.0638  0.3268  0.2243
 1645TIP3    H1 4899   6.769   0.534   1.440  1.2835 -0.0840 -0.2756
 1645TIP3    H2 4900   6.817   0.545   1.297 -0.7364  0.4879 -0.9427
 1646TIP3   OH2 4901   5.967   6.191   0.636  0.1119  0.5993  0.4546
 1646TIP3    H1 4902   5.964   6.277   0.595 -1.4717  0.7570  0.8395
 1646TIP3    H2 4903   6.018   6.137   0.575 -0.1541  1.4161 -0.5229
 1647TIP3   OH2 4904   6.768   6.719   0.370  0.5939  0.3528  0.4918
 1647TIP3    H1 4905   6.742   6.638   0.326  0.4541  0.5228  0.2615
 1647TIP3    H2 4906   6.779   6.693   0.462  0.1390  0.1649  0.4938
 1648TIP3   OH2 4907   5.021   2.460   3.161  0.1259 -0.3951  0.6277
 1648TIP3    H1 4908   5.019   2.385   3.221 -1.0666 -0.4025  0.6092
 1648TIP3    H2 4909   5.018   2.536   3.219  3.3376 -0.2190  0.7678
 1649TIP3   OH2 4910   2.850   3.081   2.095  0.3012 -0.2861  0.4836
 1649TIP3    H1 4911   2.908   3.041   2.160 -0.5494 -1.2761  0.6574
 1649TIP3    H2 4912   2.774   3.110   2.145 -0.9768 -2.2764 -0.2114
 1650TIP3   OH2 4913   0.514   0.744   2.812  0.2190 -0.2160 -0.1352
 1650TIP3    H1 4914   0.569   0.793   2.752  1.6058  0.3435  1.5285
 1650TIP3    H2 4915   0.523   0.789   2.896 -1.7514 -0.8976  0.5125
 1651TIP3   OH2 4916   6.536   3.224   1.092 -0.4300  0.4099  0.0852
 1651TIP3    H1 4917   6.491   3.145   1.122 -0.9028  0.2808 -0.9419
 1651TIP3    H2 4918   6.606   3.237   1.157 -1.3468  0.0860  1.1788
 1652TIP3   OH2 4919   4.187   3.349   2.540 -0.2176  0.3422  0.1798
 1652TIP3    H1 4920   4.230   3.432   2.561  1.1263 -0.1102 -0.7034
 1652TIP3    H2 4921   4.098   3.374   2.513  0.0290  1.4464  0.3601
 1653TIP3   OH2 4922   0.709   5.018   4.039  0.0837 -0.8549 -0.1570
 1653TIP3    H1 4923   0.707   4.992   4.131  0.9908 -1.6034 -0.3291
 1653TIP3    H2 4924   0.778   4.963   4.001  0.7241  0.4766 -0.9660
 1654TIP3   OH2 4925   5.390   1.315   3.335 -0.3044 -0.6387 -0.0956
 1654TIP3    H1 4926   5.474   1.343   3.371  0.1078 -2.2180  0.2314
 1654TIP3    H2 4927   5.385   1.359   3.250  0.7667 -0.3889 -0.0464
 1655TIP3   OH2 4928   3.438   3.324   0.860  0.3813  0.2494 -0.1591
 1655TIP3    H1 4929   3.473   3.410   0.833  0.4366  0.3431  0.2056
 1655TIP3    H2 4930   3.475   3.310   0.947 -0.1643  0.1627  0.0618
 1656TIP3   OH2 4931   3.015   0.131   3.843 -0.5703 -0.0892  0.0169
 1656TIP3    H1 4932   3.066   0.161   3.768 -1.4423  1.0453 -0.1525
 1656TIP3    H2 4933   3.048   0.180   3.917 -0.5414 -0.3033  0.1469
 1657TIP3   OH2 4934   2.745   0.207   2.754 -0.0241  0.1560  0.4264
 1657TIP3    H1 4935   2.688   0.270   2.798  0.4005 -0.0189  1.2484
 1657TIP3    H2 4936   2.767   0.249   2.671 -0.2645  0.8155  0.6890
 1658TIP3   OH2 4937   7.047   2.021   5.528  0.2153  0.9190 -0.6172
 1658TIP3    H1 4938   7.039   1.983   5.440  3.5120 -0.0645 -0.5975
 1658TIP3    H2 4939   6.993   1.965   5.583  0.7832 -0.5487 -1.4861
 1659TIP3   OH2 4940   5.933   3.446   0.673  0.2661  0.6006  0.0172
 1659TIP3    H1 4941   5.904   3.537   0.675 -1.5964  0.0627 -0.6391
 1659TIP3    H2 4942   5.960   3.427   0.763 -3.0033  0.7298  1.1555
 1660TIP3   OH2 4943   1.938   2.216   1.515  0.1736  0.9346 -0.2472
 1660TIP3    H1 4944   1.992   2.148   1.474  2.3005  1.1555  1.9057
 1660TIP3    H2 4945   1.922   2.183   1.604  1.3042  3.1935  0.8738
 1661TIP3   OH2 4946   3.304   1.626   3.859 -0.1038  0.2873  0.6686
 1661TIP3    H1 4947   3.213   1.639   3.888  0.0402 -0.6062  1.6022
 1661TIP3    H2 4948   3.340   1.714   3.851 -0.3785  0.6086  2.5738
 1662TIP3   OH2 4949   0.891   1.019   2.233 -0.0056 -0.6656  0.2263
 1662TIP3    H1 4950   0.979   1.023   2.195  0.0244  0.0806  0.3623
 1662TIP3    H2 4951   0.894   0.944   2.293  0.1598 -1.4054 -0.6795
 1663TIP3   OH2 4952   0.057   6.135   4.938 -0.3433 -0.7249 -0.3845
 1663TIP3    H1 4953   0.013   6.135   4.853 -0.9158  2.1723 -0.1832
 1663TIP3    H2 4954   0.062   6.227   4.963  1.5144 -1.3345  1.8803
 1664TIP3   OH2 4955   6.437   5.091   2.593  0.0411 -0.2941 -0.2357
 1664TIP3    H1 4956   6.369   5.023   2.595  0.1650 -0.4032  0.6332
 1664TIP3    H2 4957   6.461   5.103   2.684  0.8532  0.0937 -0.4927
 1665TIP3   OH2 4958   4.822   2.415   0.236  0.2723  0.0344  0.6492
 1665TIP3    H1 4959   4.747   2.363   0.265 -1.4628  2.7113  1.3175
 1665TIP3    H2 4960   4.867   2.440   0.316 -0.3721  1.5348  0.5793
 1666TIP3   OH2 4961   0.893   4.797   0.446 -0.5681  0.0463 -0.2691
 1666TIP3    H1 4962   0.807   4.753   0.449 -1.7312  2.2393  1.7964
 1666TIP3    H2 4963   0.918   4.806   0.538 -0.5339  3.7613 -0.5120
 1667TIP3   OH2 4964   3.015   5.263   1.695 -0.1166  0.4921 -0.4607
 1667TIP3    H1 4965   3.063   5.248   1.776  0.4611  1.0566 -0.6898
 1667TIP3    H2 4966   3.082   5.259   1.627 -0.3352  1.6071 -0.7556
 1668TIP3   OH2 4967   7.150   3.587   3.373  0.0940 -0.9513 -0.0144
 1668TIP3    H1 4968   7.067   3.606   3.416 -0.3984 -0.9113 -0.9589
 1668TIP3    H2 4969   7.190   3.673   3.358  0.5012 -0.9864  0.7771
 1669TIP3   OH2 4970   6.141   6.335   1.140  0.1579  0.3415  0.5426
 1669TIP3    H1 4971   6.142   6.315   1.234 -0.5647 -0.7836  0.3321
 1669TIP3    H2 4972   6.053   6.371   1.125  0.0963  0.0483  0.2091
 1670TIP3   OH2 4973   3.375   1.732   1.909 -0.0837 -0.1779  0.0277
 1670TIP3    H1 4974   3.462   1.698   1.930 -0.4971 -1.1446  0.2307
 1670TIP3    H2 4975   3.345   1.773   1.990  1.2267  2.5742 -0.7575
 1671TIP3   OH2 4976   2.265   1.384   4.151  0.0955 -0.8090  0.6956
 1671TIP3    H1 4977   2.224   1.345   4.229  2.0519 -1.2795  1.5507
 1671TIP3    H2 4978   2.353   1.407   4.180  0.3443  0.4820 -0.9735
 1672TIP3   OH2 4979   1.838   4.902   0.382  0.4964 -0.3230  0.1404
 1672TIP3    H1 4980   1.797   4.847   0.315  0.7993 -1.7095  1.0537
 1672TIP3    H2 4981   1.895   4.842   0.430  1.2237  0.9158  0.8555
 1673TIP3   OH2 4982   3.325   2.771   0.685  0.2818 -0.2382 -0.5844
 1673TIP3    H1 4983   3.364   2.752   0.771  0.3432 -1.3031 -0.8362
 1673TIP3    H2 4984   3.318   2.867   0.683 -1.7550 -0.2450  1.5070
 1674TIP3   OH2 4985   5.539   3.039   0.635 -0.5721 -0.2010 -0.6539
 1674TIP3    H1 4986   5.494   3.094   0.698  2.3916  1.3524  0.3024
 1674TIP3    H2 4987   5.470   2.985   0.597 -2.6766 -0.6375  3.2421
 1675TIP3   OH2 4988   3.129   2.524   4.062  0.0121 -0.8334  0.4534
 1675TIP3    H1 4989   3.064   2.594   4.068 -1.3991 -2.2088  2.8118
 1675TIP3    H2 4990   3.188   2.552   3.993 -1.8359  1.5386 -0.2982
 1676TIP3   OH2 4991   3.097   1.999   3.249 -0.1822  0.1449 -0.0003
 1676TIP3    H1 4992   3.105   1.923   3.307  0.6982  1.1008  1.1901
 1676TIP3    H2 4993   3.188   2.026   3.233 -0.3329 -0.5647 -2.5388
 1677TIP3   OH2 4994   5.936   5.217   1.797 -0.1066 -0.4114 -0.4570
 1677TIP3    H1 4995   5.871   5.168   1.746 -1.9959 -0.5208  1.9050
 1677TIP3    H2 4996   5.912   5.308   1.784 -0.2719 -0.4147 -0.1792
 1678TIP3   OH2 4997   5.491   4.220   2.531 -0.5286 -0.0234 -0.7778
 1678TIP3    H1 4998   5.441   4.207   2.612  0.8923 -0.4399  0.0690
 1678TIP3    H2 4999   5.512   4.313   2.530 -0.7905  0.0356 -0.8096
 1679TIP3   OH2 5000   1.665   3.395   0.629 -0.0907 -0.6281 -0.3112
 1679TIP3    H1 5001   1.628   3.480   0.654 -1.1948 -1.4348  0.9493
 1679TIP3    H2 5002   1.701   3.360   0.710 -0.1248 -1.5970 -0.7011
 1680TIP3   OH2 5003   3.126   3.772   1.605 -0.1639 -0.2721 -0.0056
 1680TIP3    H1 5004   3.052   3.762   1.665 -0.0537  0.2146  0.2154
 1680TIP3    H2 5005   3.144   3.683   1.575  0.7711 -0.7710  1.8630
 1681TIP3   OH2 5006   2.954   1.266  -0.017 -0.3523 -1.2068  1.0999
 1681TIP3    H1 5007   2.860   1.280  -0.010 -0.1325 -0.1151  2.2263
 1681TIP3    H2 5008   2.993   1.328   0.046  1.1315 -1.3977  0.4220
 1682TIP3   OH2 5009   5.923   6.383   5.548 -0.2616  0.2188 -0.2126
 1682TIP3    H1 5010   5.997   6.433   5.514  0.3062 -1.1260 -1.0470
 1682TIP3    H2 5011   5.947   6.362   5.638 -0.8598  2.0636  0.4200
 1683TIP3   OH2 5012   3.198   0.331   2.439  0.4407  0.2896 -0.1357
 1683TIP3    H1 5013   3.212   0.415   2.482  2.1350  0.1950 -0.4125
 1683TIP3    H2 5014   3.132   0.348   2.372 -0.9337  0.8394  1.3193
 1684TIP3   OH2 5015   6.263   2.069   3.674 -0.1210 -0.6609  0.3094
 1684TIP3    H1 5016   6.281   2.163   3.678 -1.0791 -0.5097  2.3129
 1684TIP3    H2 5017   6.205   2.059   3.598 -1.2785  0.6245  0.9869
 1685TIP3   OH2 5018   3.073   3.481   3.818  0.6384 -0.1115  0.1466
 1685TIP3    H1 5019   3.137   3.512   3.754  0.9761 -3.6378 -1.4195
 1685TIP3    H2 5020   3.114   3.404   3.858 -1.8532 -1.4029  0.4182
 1686TIP3   OH2 5021   3.507   1.698   0.244  0.3156  0.2197 -0.2936
 1686TIP3    H1 5022   3.468   1.637   0.307  1.3460 -0.4586 -0.3008
 1686TIP3    H2 5023   3.447   1.697   0.170 -0.2517  0.0731  0.1552
 1687TIP3   OH2 5024   0.083   4.481   0.569 -0.2785 -0.0408  0.0083
 1687TIP3    H1 5025   0.108   4.455   0.657  0.9397  0.4984 -0.1538
 1687TIP3    H2 5026   0.151   4.445   0.513 -0.6737  0.1955 -0.6374
 1688TIP3   OH2 5027   3.979   4.739   5.237 -0.1402 -0.5083 -0.2267
 1688TIP3    H1 5028   3.897   4.752   5.283  0.6701 -0.2861  1.2016
 1688TIP3    H2 5029   4.036   4.694   5.300  0.8970 -0.4837 -1.1087
 1689TIP3   OH2 5030   0.957   5.105   3.653  0.2896  0.1011  0.6971
 1689TIP3    H1 5031   0.978   5.196   3.634 -0.4086  0.3466  1.0449
 1689TIP3    H2 5032   0.918   5.107   3.740  0.7082 -0.6017  0.9075
 1690TIP3   OH2 5033   5.941   6.715   2.456  0.6777  0.0766  0.0599
 1690TIP3    H1 5034   5.925   6.809   2.459  0.4772  0.1273 -1.6219
 1690TIP3    H2 5035   5.855   6.676   2.472  0.8776  0.1317  1.4317
 1691TIP3   OH2 5036   4.574   1.364   0.518  0.3183 -0.2117  0.2969
 1691TIP3    H1 5037   4.642   1.329   0.461 -0.2369  0.8123 -1.0353
 1691TIP3    H2 5038   4.500   1.380   0.460 -1.5328 -2.3600  1.8759
 1692TIP3   OH2 5039   3.922   6.628   2.425 -0.8156 -0.2968 -0.1785
 1692TIP3    H1 5040   3.882   6.564   2.484 -2.2451  2.8144  2.5476
 1692TIP3    H2 5041   3.848   6.673   2.385 -0.0355  1.6787  0.4539
 1693TIP3   OH2 5042   3.620   5.136   5.256 -0.2402 -0.3037  0.4952
 1693TIP3    H1 5043   3.534   5.110   5.291 -0.7605 -0.6963 -0.9713
 1693TIP3    H2 5044   3.672   5.157   5.333 -1.3907 -0.8872  1.4731
 1694TIP3   OH2 5045   5.777   0.300   1.328 -0.2935 -0.0600  1.0445
 1694TIP3    H1 5046   5.871   0.283   1.323 -0.0722  1.3764 -0.7596
 1694TIP3    H2 5047   5.745   0.238   1.393  1.1697 -3.6288 -1.3657
 1695TIP3   OH2 5048   4.181   3.588   2.926  0.2877  0.1346 -0.3358
 1695TIP3    H1 5049   4.137   3.620   2.847  0.1461 -2.0256 -1.2112
 1695TIP3    H2 5050   4.242   3.522   2.894  0.7734 -0.2649  1.3158
 1696TIP3   OH2 5051   0.453   3.365   3.103  0.2768  0.4418  0.3385
 1696TIP3    H1 5052   0.493   3.441   3.144  0.4226  0.2547  0.5421
 1696TIP3    H2 5053   0.454   3.297   3.170 -0.4244  0.4486  0.3630
 1697TIP3   OH2 5054   2.927   4.463   3.298  0.0544  0.4282  0.1178
 1697TIP3    H1 5055   2.904   4.418   3.217 -2.2394  2.1067 -0.2517
 1697TIP3    H2 5056   2.982   4.400   3.346  2.0691 -0.3703 -2.9496
 1698TIP3   OH2 5057   0.267   3.333   4.526  0.5533 -0.4783  0.6933
 1698TIP3    H1 5058   0.283   3.411   4.579  1.7812 -2.3619  3.3377
 1698TIP3    H2 5059   0.172   3.329   4.516  0.5236  2.4194 -1.4311
 1699TIP3   OH2 5060   5.321   0.824   0.541 -0.3489 -0.2317  0.1907
 1699TIP3    H1 5061   5.379   0.868   0.603 -0.7971 -0.3225  0.6785
 1699TIP3    H2 5062   5.235   0.828   0.582 -0.9947  1.2697 -1.2214
 1700TIP3   OH2 5063   6.949   5.458   1.163  0.2140  0.4322  0.3313
 1700TIP3    H1 5064   6.982   5.375   1.196 -0.2672 -0.1004 -0.5023
 1700TIP3    H2 5065   6.885   5.486   1.230  0.2149  0.0243  0.5050
 1701TIP3   OH2 5066   6.173   3.705   5.778  1.1580  0.3773 -0.3939
 1701TIP3    H1 5067   6.206   3.795   5.775  0.9305  0.4493 -0.7206
 1701TIP3    H2 5068   6.125   3.701   5.862  0.6903  0.7302 -0.6362
 1702TIP3   OH2 5069   6.810   2.392   2.656 -0.3530 -0.3607  0.3389
 1702TIP3    H1 5070   6.734   2.382   2.599 -0.0060 -0.7140 -0.0632
 1702TIP3    H2 5071   6.773   2.424   2.738 -1.0274 -1.2769  0.4076
 1703TIP3   OH2 5072   2.498   4.621   2.807  0.4293 -0.4618  0.4364
 1703TIP3    H1 5073   2.403   4.617   2.816  0.5147 -2.3825  0.9958
 1703TIP3    H2 5074   2.512   4.632   2.713 -0.3445  0.2050  0.3885
 1704TIP3   OH2 5075   6.758   3.931   4.303 -0.1627 -0.1183  0.0027
 1704TIP3    H1 5076   6.791   3.899   4.219 -1.4204 -0.9539 -0.2007
 1704TIP3    H2 5077   6.691   3.867   4.329  0.6046 -0.2001  1.9357
 1705TIP3   OH2 5078   0.545   6.710   5.074 -0.0468 -0.4958 -0.2326
 1705TIP3    H1 5079   0.470   6.749   5.030 -0.1734 -1.8108 -1.2414
 1705TIP3    H2 5080   0.529   6.725   5.167 -1.7838 -1.0968 -0.3992
 1706TIP3   OH2 5081   5.477   3.863   3.018  0.2945 -0.1305  0.5016
 1706TIP3    H1 5082   5.430   3.852   3.101 -0.1239  1.4155  0.4896
 1706TIP3    H2 5083   5.530   3.783   3.010 -0.0422 -0.5318  2.0027
 1707TIP3   OH2 5084   5.629   3.617   3.275  0.3871  0.2968  0.1719
 1707TIP3    H1 5085   5.659   3.704   3.248  0.2788  0.9910  2.1525
 1707TIP3    H2 5086   5.710   3.567   3.286  0.5397  0.6046  0.4753
 1708TIP3   OH2 5087   4.388   0.544   3.349 -0.0016  0.6263 -0.3159
 1708TIP3    H1 5088   4.448   0.604   3.395 -0.6704  0.9937  0.0891
 1708TIP3    H2 5089   4.301   0.580   3.365 -0.7966 -2.1315  2.7100
 1709TIP3   OH2 5090   3.050   0.653   0.470  0.3192  0.1626 -0.1782
 1709TIP3    H1 5091   3.016   0.690   0.388  0.5384 -0.9779 -0.8042
 1709TIP3    H2 5092   3.120   0.712   0.496 -0.0562  0.7883 -0.5633
 1710TIP3   OH2 5093   7.214   1.212   0.729 -0.2250 -0.1417 -0.7292
 1710TIP3    H1 5094   7.165   1.269   0.787  0.4662 -0.2048 -0.0612
 1710TIP3    H2 5095   7.185   1.123   0.752 -0.3244 -0.1370 -0.8365
 1711TIP3   OH2 5096   4.827   3.005   3.325  0.5018  1.0567  0.0804
 1711TIP3    H1 5097   4.743   3.050   3.316 -0.5308 -0.7593  0.1905
 1711TIP3    H2 5098   4.827   2.971   3.414  1.5507  1.3773  0.2141
 1712TIP3   OH2 5099   3.452   0.758   1.918  0.3474 -0.4005 -0.2699
 1712TIP3    H1 5100   3.464   0.847   1.952  1.3132 -0.5877 -0.1034
 1712TIP3    H2 5101   3.490   0.701   1.985 -1.6779 -1.0759  0.3919
 1713TIP3   OH2 5102   2.432   5.358   5.066  0.4177 -0.0942 -0.0408
 1713TIP3    H1 5103   2.442   5.447   5.100 -1.8054 -0.0177  0.5360
 1713TIP3    H2 5104   2.460   5.365   4.975  3.1400  0.4694  0.7248
 1714TIP3   OH2 5105   0.982   2.724   2.926  0.0059  0.7562  0.7878
 1714TIP3    H1 5106   0.956   2.648   2.978 -0.5218  0.5876  0.2839
 1714TIP3    H2 5107   1.044   2.771   2.982 -0.1184  0.2749  1.3388
 1715TIP3   OH2 5108   5.321   1.429   5.798 -0.1073  0.2504 -0.0162
 1715TIP3    H1 5109   5.348   1.468   5.881  0.2790  2.8283 -1.2687
 1715TIP3    H2 5110   5.232   1.399   5.813  0.9842 -2.3530  2.2237
 1716TIP3   OH2 5111   1.368   6.149   5.216  0.0524  0.7329  0.4693
 1716TIP3    H1 5112   1.361   6.234   5.261 -0.3545  0.5607  0.7323
 1716TIP3    H2 5113   1.450   6.156   5.166 -0.5527  1.7339 -0.4504
 1717TIP3   OH2 5114   3.682   4.008   5.099  0.5437  0.0193  0.0350
 1717TIP3    H1 5115   3.615   3.957   5.145  0.1298 -1.2253 -1.8302
 1717TIP3    H2 5116   3.646   4.020   5.011  2.1547  0.5742 -0.5754
 1718TIP3   OH2 5117   6.161   3.717   1.644 -0.4641 -0.0368 -0.1579
 1718TIP3    H1 5118   6.089   3.769   1.609 -0.3702  0.3396  0.1990
 1718TIP3    H2 5119   6.151   3.723   1.739  1.2085  1.7195 -0.0335
 1719TIP3   OH2 5120   6.625   0.798   2.859 -0.0103 -0.3037  0.5954
 1719TIP3    H1 5121   6.530   0.808   2.873 -0.4705 -1.9291 -1.0677
 1719TIP3    H2 5122   6.636   0.708   2.830  2.2930 -0.6651  2.2815
 1720TIP3   OH2 5123   4.933   4.604   3.974  0.1976 -0.2801 -0.0510
 1720TIP3    H1 5124   4.875   4.680   3.965  0.6639  0.0817 -0.0324
 1720TIP3    H2 5125   4.965   4.609   4.064  0.3245 -0.4267 -0.0884
 1721TIP3   OH2 5126   3.543   0.690   3.792 -0.1390  0.0766  0.2879
 1721TIP3    H1 5127   3.504   0.764   3.745  0.6952  0.4887  0.2240
 1721TIP3    H2 5128   3.477   0.621   3.786 -0.5540  0.5162 -0.4330
 1722TIP3   OH2 5129   4.020   2.128   0.629  0.5081 -0.0854 -0.4781
 1722TIP3    H1 5130   3.967   2.082   0.564 -1.2734  1.1733 -0.0058
 1722TIP3    H2 5131   3.979   2.107   0.713  2.1826 -0.9069  0.1722
 1723TIP3   OH2 5132   5.758   5.471   2.920  0.2141  0.7275  0.2894
 1723TIP3    H1 5133   5.827   5.460   2.985  0.9105  0.5876 -0.4549
 1723TIP3    H2 5134   5.799   5.520   2.849 -0.3603  0.3948 -0.2911
 1724TIP3   OH2 5135   6.877   1.534   4.029 -0.1554 -0.1708  0.1549
 1724TIP3    H1 5136   6.825   1.463   4.068 -0.8855  0.0165 -0.4564
 1724TIP3    H2 5137   6.929   1.492   3.961  0.0406 -0.2589  0.3588
 1725TIP3   OH2 5138   1.037   5.990   5.717  0.2523 -0.5001 -0.4938
 1725TIP3    H1 5139   1.122   5.955   5.746  0.5216  0.5333  0.0192
 1725TIP3    H2 5140   0.973   5.936   5.762  0.6680  0.7185  1.7204
 1726TIP3   OH2 5141   0.298   2.603   3.852 -0.4951  0.0233  0.1421
 1726TIP3    H1 5142   0.324   2.511   3.848 -0.6935 -0.2153  2.6691
 1726TIP3    H2 5143   0.346   2.638   3.927  2.1275  2.9287 -2.6112
 1727TIP3   OH2 5144   4.017   2.830   5.183 -0.1624 -0.2739  0.5969
 1727TIP3    H1 5145   3.934   2.841   5.136  0.5500  1.7186 -0.2844
 1727TIP3    H2 5146   4.000   2.870   5.269  0.4167  2.0554 -0.2903
 1728TIP3   OH2 5147   6.197   6.609   1.479 -0.5249 -0.0089 -0.1538
 1728TIP3    H1 5148   6.239   6.662   1.547 -0.3016 -2.1503  1.4862
 1728TIP3    H2 5149   6.108   6.596   1.510 -1.0699  0.6405 -1.3353
 1729TIP3   OH2 5150   6.129   3.797   0.588 -0.0575 -0.1251 -0.5057
 1729TIP3    H1 5151   6.130   3.891   0.571 -3.6820  0.2097  0.4293
 1729TIP3    H2 5152   6.205   3.764   0.540  1.2058  3.1869 -1.0957
 1730TIP3   OH2 5153   2.206   3.016   4.782  0.4944  0.6887  0.5083
 1730TIP3    H1 5154   2.167   3.015   4.695  0.4699  3.9782  0.3393
 1730TIP3    H2 5155   2.266   2.942   4.783 -0.1453  0.0425 -1.9748
 1731TIP3   OH2 5156   1.492   4.465   0.447  0.0033  0.4888  0.1663
 1731TIP3    H1 5157   1.419   4.413   0.478  0.1914  1.0023  1.5277
 1731TIP3    H2 5158   1.480   4.550   0.488 -0.3698  1.6031 -2.1214
 1732TIP3   OH2 5159   2.263   2.992   0.979 -0.0352 -0.5481  0.0015
 1732TIP3    H1 5160   2.270   2.921   1.044 -3.0556  1.2309  2.5855
 1732TIP3    H2 5161   2.178   2.977   0.938 -1.1008  1.8470  1.1544
 1733TIP3   OH2 5162   6.340   0.246   2.376 -0.2792  0.6362  0.0731
 1733TIP3    H1 5163   6.284   0.278   2.447 -0.9845 -0.2827 -0.0587
 1733TIP3    H2 5164   6.281   0.237   2.301  0.2076  0.4186 -0.2865
 1734TIP3   OH2 5165   5.294   0.422   5.066 -0.2463  0.1858  0.1389
 1734TIP3    H1 5166   5.277   0.344   5.014 -0.3086  0.9708 -1.0539
 1734TIP3    H2 5167   5.363   0.396   5.127 -0.2099 -0.7696 -0.2919
 1735TIP3   OH2 5168   5.233   6.258   5.157  0.6540  0.0690 -0.3031
 1735TIP3    H1 5169   5.311   6.205   5.174  0.9721  0.6033 -0.0854
 1735TIP3    H2 5170   5.208   6.293   5.242  1.8796  2.2265 -0.7540
 1736TIP3   OH2 5171   3.688   2.072   5.343 -0.0709  0.0050  0.0408
 1736TIP3    H1 5172   3.597   2.062   5.316  0.4570 -0.6694 -1.6329
 1736TIP3    H2 5173   3.731   1.992   5.312  1.1658  0.4682  0.4929
 1737TIP3   OH2 5174   1.122   5.414   0.031 -0.4319  0.0855  0.2724
 1737TIP3    H1 5175   1.194   5.356   0.057 -0.3723 -0.4751 -1.0952
 1737TIP3    H2 5176   1.060   5.407   0.104 -0.6625 -2.1092 -0.0549
 1738TIP3   OH2 5177   4.922   1.543   0.208  0.0742 -0.4324 -0.3245
 1738TIP3    H1 5178   4.903   1.532   0.115  0.0928 -1.5545 -0.2097
 1738TIP3    H2 5179   4.912   1.455   0.245 -2.4611  0.4093  1.2305
 1739TIP3   OH2 5180   6.190   0.379   1.901  0.1716 -0.1109 -0.8124
 1739TIP3    H1 5181   6.181   0.289   1.870  1.0383 -0.3505 -0.4014
 1739TIP3    H2 5182   6.202   0.431   1.822 -0.9250 -0.2650 -1.0966
 1740TIP3   OH2 5183   6.215   3.643   4.078 -0.0949  0.1877  0.0908
 1740TIP3    H1 5184   6.303   3.628   4.042 -0.8509 -0.4144 -1.6153
 1740TIP3    H2 5185   6.198   3.736   4.063  0.3199  0.3567  0.6282
 1741TIP3   OH2 5186   6.714   4.324   0.536 -0.0352  0.2184 -0.1952
 1741TIP3    H1 5187   6.678   4.410   0.556  0.1066  0.5552 -1.3690
 1741TIP3    H2 5188   6.652   4.262   0.576 -0.2545  0.8482  0.4534
 1742TIP3   OH2 5189   0.775   1.519   0.341  0.7790  0.5230  0.5437
 1742TIP3    H1 5190   0.857   1.566   0.329  1.5867 -0.4345  1.9603
 1742TIP3    H2 5191   0.760   1.474   0.258  1.2774  1.3208  0.0146
 1743TIP3   OH2 5192   0.310   4.504   4.487  0.2723  0.4561  0.4875
 1743TIP3    H1 5193   0.348   4.517   4.575 -1.1327  0.0413  1.1802
 1743TIP3    H2 5194   0.252   4.579   4.475  1.5155  1.2684 -0.7127
 1744TIP3   OH2 5195   2.419   6.140   4.735  0.0831  0.4448 -0.6975
 1744TIP3    H1 5196   2.330   6.169   4.753  0.1867  0.4451 -0.1901
 1744TIP3    H2 5197   2.422   6.051   4.769 -0.3936 -0.4090 -2.6997
 1745TIP3   OH2 5198   2.939   1.342   3.071 -0.4873  0.1130 -0.2979
 1745TIP3    H1 5199   2.939   1.308   2.982 -3.1354  0.8795 -0.6679
 1745TIP3    H2 5200   3.001   1.415   3.069  2.2713 -2.0764 -0.4752
 1746TIP3   OH2 5201   2.628   2.861   5.545  0.2985  0.5655 -0.1357
 1746TIP3    H1 5202   2.551   2.810   5.571 -0.9020  2.7714  0.8899
 1746TIP3    H2 5203   2.609   2.888   5.455  1.4945 -1.6976 -1.1334
 1747TIP3   OH2 5204   1.656   1.681   4.957  0.2490  0.5787  0.0435
 1747TIP3    H1 5205   1.572   1.679   4.913 -1.2699 -0.8582  2.7911
 1747TIP3    H2 5206   1.695   1.596   4.940 -0.1319  0.1972  1.0132
 1748TIP3   OH2 5207   1.814   0.054   0.121 -0.2577 -0.3154  0.4211
 1748TIP3    H1 5208   1.768   0.128   0.161  2.2267  1.1867  0.7332
 1748TIP3    H2 5209   1.881   0.031   0.184  1.0507 -0.7085 -1.0513
 1749TIP3   OH2 5210   3.359   4.016   1.822  0.1656 -0.4307  0.6433
 1749TIP3    H1 5211   3.334   4.008   1.914 -0.9962  0.3429  0.4173
 1749TIP3    H2 5212   3.407   3.936   1.803 -0.5460 -1.1125  1.6316
 1750TIP3   OH2 5213   2.351   5.029   5.492  0.4079 -0.0824 -0.0306
 1750TIP3    H1 5214   2.363   4.950   5.546 -0.3070  0.2590  0.6446
 1750TIP3    H2 5215   2.263   5.059   5.513  0.3717  0.4450 -0.9013
 1751TIP3   OH2 5216   0.077   6.226   5.655 -0.4061  0.0776  0.3483
 1751TIP3    H1 5217   0.106   6.137   5.674  0.6128  0.3997  0.3761
 1751TIP3    H2 5218   0.102   6.276   5.733  0.0029  0.5874 -0.1004
 1752TIP3   OH2 5219   0.908   4.030   5.130  0.0280 -0.0018  0.3041
 1752TIP3    H1 5220   0.965   4.107   5.126  0.5527 -0.3588  0.8221
 1752TIP3    H2 5221   0.918   3.989   5.044  1.9511 -1.0432  0.9810
 1753TIP3   OH2 5222   5.165   3.003   1.225  0.2768 -0.4845  0.0795
 1753TIP3    H1 5223   5.129   3.074   1.172 -1.5987 -2.0699 -0.8828
 1753TIP3    H2 5224   5.237   3.044   1.274 -1.3002  2.3011  0.2989
 1754TIP3   OH2 5225   0.471   4.482   4.284  0.1086  0.3759  0.0982
 1754TIP3    H1 5226   0.433   4.477   4.371 -1.2480  1.3036 -0.4063
 1754TIP3    H2 5227   0.451   4.570   4.254  0.5353  0.0726 -1.1567
 1755TIP3   OH2 5228   6.527   3.751   2.941  0.1917  0.3442  0.1133
 1755TIP3    H1 5229   6.605   3.804   2.929  0.3198  0.4459  1.2351
 1755TIP3    H2 5230   6.559   3.662   2.956  0.0469  0.2175 -0.3130
 1756TIP3   OH2 5231   1.617   1.166   1.990  0.0793  0.0276 -1.1068
 1756TIP3    H1 5232   1.603   1.253   1.954  0.2732  0.8694  0.7396
 1756TIP3    H2 5233   1.668   1.120   1.923 -0.4271  1.1605 -2.3108
 1757TIP3   OH2 5234   3.186   1.421   4.580 -0.5503 -0.8313  0.4943
 1757TIP3    H1 5235   3.174   1.388   4.491 -2.0898 -0.8387  0.6846
 1757TIP3    H2 5236   3.221   1.346   4.629  0.6526 -0.7212 -0.1720
 1758TIP3   OH2 5237   3.802   5.042   1.716  0.3047  0.5206 -0.1262
 1758TIP3    H1 5238   3.895   5.024   1.700 -0.0172 -0.4002 -1.0403
 1758TIP3    H2 5239   3.786   5.006   1.803  0.9341  1.2068  0.2845
 1759TIP3   OH2 5240   4.871   5.985   1.256  0.5347 -0.5221  0.4200
 1759TIP3    H1 5241   4.842   6.007   1.345  0.6956 -0.8278  0.5483
 1759TIP3    H2 5242   4.873   6.069   1.211  1.5444 -0.2063  1.0255
 1760TIP3   OH2 5243   4.331   4.356   1.668 -0.4548 -0.2280 -0.6497
 1760TIP3    H1 5244   4.409   4.321   1.712 -0.0016 -1.2848 -2.2387
 1760TIP3    H2 5245   4.305   4.430   1.723 -0.4261 -1.9470  1.8569
 1761TIP3   OH2 5246   2.429   5.365   1.869 -0.3940  0.1787 -0.4003
 1761TIP3    H1 5247   2.382   5.375   1.787  0.0268  1.6881 -0.4942
 1761TIP3    H2 5248   2.389   5.429   1.928 -1.6023 -1.7888  1.0537
 1762TIP3   OH2 5249   1.978   2.178   5.245 -0.1266 -0.9392  0.1981
 1762TIP3    H1 5250   1.930   2.225   5.313 -2.0899 -1.1342 -0.9815
 1762TIP3    H2 5251   1.927   2.098   5.230  0.8114 -1.3869 -0.8085
 1763TIP3   OH2 5252   0.603   0.703   2.361  0.1726  0.0417  0.0283
 1763TIP3    H1 5253   0.512   0.713   2.336 -0.1261 -0.3121  0.9316
 1763TIP3    H2 5254   0.651   0.696   2.279 -0.4016  1.9035 -0.5193
 1764TIP3   OH2 5255   0.396   5.589   5.179  0.0674 -0.2273  0.3895
 1764TIP3    H1 5256   0.438   5.654   5.121 -1.9535  1.4322  0.6450
 1764TIP3    H2 5257   0.465   5.563   5.239  1.2016  1.0261 -0.2908
 1765TIP3   OH2 5258   4.573   2.922   3.060 -0.2026 -0.2950  0.3101
 1765TIP3    H1 5259   4.559   3.012   3.090 -0.5605  0.1330 -1.0466
 1765TIP3    H2 5260   4.523   2.868   3.122 -0.7056  0.5133  0.6268
 1766TIP3   OH2 5261   6.028   5.945   5.576  0.2532 -0.6497  0.2625
 1766TIP3    H1 5262   6.110   5.909   5.610  0.1862 -0.6241  0.4498
 1766TIP3    H2 5263   6.052   6.031   5.542  0.4377 -0.9114 -0.2867
 1767TIP3   OH2 5264   0.289   0.583   1.702  0.3423 -0.3747  0.1732
 1767TIP3    H1 5265   0.364   0.523   1.708 -0.2708 -1.3479 -1.2718
 1767TIP3    H2 5266   0.316   0.660   1.752  2.2571 -0.7538 -0.1798
 1768TIP3   OH2 5267   2.852   0.271   3.004  0.4491 -0.0077  0.1051
 1768TIP3    H1 5268   2.866   0.177   3.016  2.4073  0.2176 -0.0150
 1768TIP3    H2 5269   2.850   0.282   2.909  0.9732  0.1549  0.1105
 1769TIP3   OH2 5270   4.188   0.830   1.338 -0.1771 -0.1204 -0.6769
 1769TIP3    H1 5271   4.264   0.808   1.392  0.7963  0.7110 -1.6608
 1769TIP3    H2 5272   4.181   0.757   1.276 -0.0506 -0.0946 -0.7219
 1770TIP3   OH2 5273   0.587   6.529   0.335 -0.0779 -0.4099  0.0320
 1770TIP3    H1 5274   0.520   6.595   0.317 -0.2678 -0.5702  0.1473
 1770TIP3    H2 5275   0.543   6.464   0.390  0.7507  0.5505  1.9167
 1771TIP3   OH2 5276   6.903   5.620   4.674  0.3141  0.3549  0.0928
 1771TIP3    H1 5277   6.941   5.621   4.761  0.2384  1.8142  0.1307
 1771TIP3    H2 5278   6.823   5.671   4.682 -1.0378 -1.5817 -0.2880
 1772TIP3   OH2 5279   5.058   2.608   4.945 -0.1236  0.5187  0.1838
 1772TIP3    H1 5280   5.115   2.571   4.878 -0.4628 -0.7007  0.5436
 1772TIP3    H2 5281   5.090   2.570   5.027 -1.6708 -0.4872  0.3472
 1773TIP3   OH2 5282   0.306   4.016   4.815 -0.1646  0.0151  0.0188
 1773TIP3    H1 5283   0.304   4.027   4.910 -1.0246 -0.1936  0.0282
 1773TIP3    H2 5284   0.332   4.102   4.781 -0.3946  0.2418  0.4153
 1774TIP3   OH2 5285   2.082   3.606   5.782  0.2334  0.2078  0.3314
 1774TIP3    H1 5286   2.075   3.515   5.756 -0.3400  0.4324 -0.3323
 1774TIP3    H2 5287   2.091   3.654   5.700 -2.3569  0.9988  0.4223
 1775TIP3   OH2 5288   0.800   2.624   2.726 -0.4808 -0.2212 -0.1154
 1775TIP3    H1 5289   0.711   2.652   2.746 -0.9585 -1.1628 -0.8400
 1775TIP3    H2 5290   0.854   2.664   2.795 -1.4829  0.1939  0.4471
 1776TIP3   OH2 5291   2.318   1.918   3.921 -0.1908 -0.6202  0.2645
 1776TIP3    H1 5292   2.269   1.994   3.951  0.5342  0.1574 -0.4912
 1776TIP3    H2 5293   2.386   1.905   3.988 -0.8882 -1.2026  0.8852
 1777TIP3   OH2 5294   3.096   6.689   5.800 -0.1322 -0.4405 -0.4966
 1777TIP3    H1 5295   3.159   6.731   5.741 -0.6424  0.5139 -0.3744
 1777TIP3    H2 5296   3.060   6.617   5.748 -0.2048  0.0807 -1.1754
 1778TIP3   OH2 5297   2.033   4.445   4.573 -0.2472 -0.2426  1.0417
 1778TIP3    H1 5298   1.984   4.505   4.517 -0.0351 -1.0235  0.0055
 1778TIP3    H2 5299   2.097   4.404   4.515 -1.6736 -2.9692  1.2182
 1779TIP3   OH2 5300   1.721   3.622   0.935  0.4224  0.1044 -0.3962
 1779TIP3    H1 5301   1.802   3.581   0.965  1.1700 -1.0519 -3.6361
 1779TIP3    H2 5302   1.660   3.549   0.920 -1.0274  0.8947  1.2353
 1780TIP3   OH2 5303   6.290   1.640   4.634  0.2206 -0.1203 -0.3862
 1780TIP3    H1 5304   6.314   1.549   4.615 -0.0131 -0.6777  1.8116
 1780TIP3    H2 5305   6.215   1.657   4.576 -1.8833 -2.4803  1.3884
 1781TIP3   OH2 5306   5.182   2.589   4.034  0.1842 -0.0027 -0.1481
 1781TIP3    H1 5307   5.275   2.611   4.042  0.2848 -0.8209  1.2973
 1781TIP3    H2 5308   5.147   2.603   4.122 -1.3615  1.4943 -0.9468
 1782TIP3   OH2 5309   6.358   2.234   3.386  0.2446  0.5748  0.2248
 1782TIP3    H1 5310   6.354   2.263   3.477 -0.7059 -0.0009  0.3798
 1782TIP3    H2 5311   6.267   2.224   3.359  0.4425 -2.6161  0.3300
 1783TIP3   OH2 5312   5.392   5.078   5.197 -0.2028 -0.3642 -0.3980
 1783TIP3    H1 5313   5.340   5.016   5.249  1.7448 -0.7872  1.1721
 1783TIP3    H2 5314   5.437   5.023   5.133  0.1848 -0.3385 -0.1483
 1784TIP3   OH2 5315   0.057   1.905   4.248  0.1649 -0.7738  0.0660
 1784TIP3    H1 5316  -0.008   1.850   4.204 -0.4510  0.0878 -0.1351
 1784TIP3    H2 5317   0.092   1.961   4.179  1.0343 -1.1324  0.2029
 1785TIP3   OH2 5318   4.035   4.723   4.970 -0.4619 -0.9331 -0.0674
 1785TIP3    H1 5319   4.035   4.753   5.061  1.2177 -1.2896  0.0826
 1785TIP3    H2 5320   3.991   4.638   4.974  1.4203 -1.9328  0.8180
 1786TIP3   OH2 5321   2.221   3.853   3.401  0.1034 -0.2342 -0.2309
 1786TIP3    H1 5322   2.184   3.932   3.361  1.1401 -0.2104 -1.2135
 1786TIP3    H2 5323   2.301   3.884   3.445 -0.8652 -0.3105  1.6848
 1787TIP3   OH2 5324   1.480   1.976   3.596  0.0767  0.4291 -0.5017
 1787TIP3    H1 5325   1.548   1.959   3.531 -0.8147  0.7640 -1.5756
 1787TIP3    H2 5326   1.476   2.071   3.602 -0.6379  0.4376 -0.8716
 1788TIP3   OH2 5327   6.302   1.422   5.688  0.3767 -0.0483  0.6011
 1788TIP3    H1 5328   6.242   1.447   5.617  1.9810 -0.4019 -0.9572
 1788TIP3    H2 5329   6.281   1.483   5.759  0.6661  2.3419 -1.2389
 1789TIP3   OH2 5330   7.153   3.908   4.966  0.0108  0.1800 -0.2446
 1789TIP3    H1 5331   7.152   3.900   4.871  0.0357  0.5737 -0.2827
 1789TIP3    H2 5332   7.246   3.900   4.990 -0.1022 -0.9822 -0.1459
 1790TIP3   OH2 5333   3.168   1.157   1.294 -0.3677  0.0038 -0.0507
 1790TIP3    H1 5334   3.205   1.214   1.361  1.6020  1.1757 -2.0100
 1790TIP3    H2 5335   3.089   1.202   1.265  0.0352  0.6803 -0.1201
 1791TIP3   OH2 5336   5.603   2.842   0.369 -0.5357 -0.3322  0.3456
 1791TIP3    H1 5337   5.573   2.926   0.403 -1.0913 -0.6140  0.5671
 1791TIP3    H2 5338   5.531   2.811   0.315 -0.5887 -0.9472  0.7595
 1792TIP3   OH2 5339   6.894   5.000   3.719  0.0398 -0.2705 -0.5290
 1792TIP3    H1 5340   6.846   4.927   3.759  2.7922 -1.3179  1.1225
 1792TIP3    H2 5341   6.887   4.984   3.625 -1.7492 -1.0585 -0.3016
 1793TIP3   OH2 5342   5.928   3.674   3.965 -0.3429 -0.0568  0.1539
 1793TIP3    H1 5343   5.988   3.601   3.977 -0.4068 -0.0336  0.6411
 1793TIP3    H2 5344   5.981   3.752   3.979 -0.5170 -0.0401  0.7553
 1794TIP3   OH2 5345   4.258   1.441   3.480 -0.2715  1.1476  0.0802
 1794TIP3    H1 5346   4.350   1.450   3.453 -0.3517  0.8902 -0.2959
 1794TIP3    H2 5347   4.212   1.509   3.431 -0.6079 -0.0931 -1.4283
 1795TIP3   OH2 5348   6.144   4.452   1.487  0.4997 -0.0572 -0.6802
 1795TIP3    H1 5349   6.229   4.434   1.447 -0.3249 -1.0007 -2.0894
 1795TIP3    H2 5350   6.113   4.367   1.517 -0.9913 -0.1658 -2.3855
 1796TIP3   OH2 5351   0.361   3.303   5.344  0.6178 -0.1780  0.4317
 1796TIP3    H1 5352   0.434   3.247   5.317  1.4493 -0.5097  3.1055
 1796TIP3    H2 5353   0.400   3.390   5.356  0.6298 -0.3694  1.9347
 1797TIP3   OH2 5354   0.381   6.506   2.571  0.2298 -0.5978  0.2348
 1797TIP3    H1 5355   0.336   6.568   2.629  0.8949  0.4003 -0.2759
 1797TIP3    H2 5356   0.451   6.470   2.625 -0.6319 -1.5157  0.7716
 1798TIP3   OH2 5357   6.631   1.823   0.877 -0.9113  0.1825 -0.5358
 1798TIP3    H1 5358   6.550   1.780   0.905 -0.2525 -0.0540  1.1650
 1798TIP3    H2 5359   6.680   1.837   0.959  0.3295  1.2130 -1.4117
 1799TIP3   OH2 5360   5.272   0.863   2.719 -0.5506  0.3751 -0.3067
 1799TIP3    H1 5361   5.212   0.869   2.645  0.4394  2.5810 -1.0249
 1799TIP3    H2 5362   5.215   0.854   2.796 -1.6668 -0.0017 -1.1579
 1800TIP3   OH2 5363   2.951   2.293   4.308 -0.3644  0.1438  0.7300
 1800TIP3    H1 5364   2.913   2.286   4.220 -0.9583 -1.1201  1.0693
 1800TIP3    H2 5365   2.921   2.378   4.340  1.3515  1.4605 -0.9567
 1801TIP3   OH2 5366   6.502   6.087   0.246 -0.3748  0.8610  0.0974
 1801TIP3    H1 5367   6.410   6.065   0.261  0.6380 -3.0508  1.8797
 1801TIP3    H2 5368   6.514   6.077   0.152 -1.6364  0.9103 -0.0896
 1802TIP3   OH2 5369   1.668   3.289   4.580  0.0623 -0.0316  0.1479
 1802TIP3    H1 5370   1.655   3.291   4.674 -0.5226  2.8310  0.1047
 1802TIP3    H2 5371   1.583   3.314   4.543  0.3147 -0.9568 -1.1492
 1803TIP3   OH2 5372   0.614   3.352   0.410 -0.0911 -0.5204 -0.2731
 1803TIP3    H1 5373   0.558   3.396   0.474  0.1676  1.8003 -1.5435
 1803TIP3    H2 5374   0.671   3.421   0.376  0.7062 -1.9657 -2.0260
 1804TIP3   OH2 5375   2.274   3.403   4.310 -0.1598  0.2762 -0.6518
 1804TIP3    H1 5376   2.251   3.490   4.278 -1.3369  1.3951  2.7465
 1804TIP3    H2 5377   2.190   3.364   4.334  0.5988  0.0889  1.9902
 1805TIP3   OH2 5378   6.667   4.931   2.922  0.4796 -0.0615  0.2926
 1805TIP3    H1 5379   6.655   4.897   3.010  1.2609 -0.5277  0.2294
 1805TIP3    H2 5380   6.727   4.869   2.880 -0.3962 -0.2105 -0.7831
 1806TIP3   OH2 5381   2.299   6.486   0.313 -0.0032  0.1841 -0.0751
 1806TIP3    H1 5382   2.329   6.491   0.223 -0.2897 -0.5724 -0.2220
 1806TIP3    H2 5383   2.216   6.532   0.314 -0.3376 -0.4063 -0.3559
 1807TIP3   OH2 5384   4.468   0.511   4.313  0.1816 -0.8975  0.0229
 1807TIP3    H1 5385   4.504   0.424   4.329 -1.5186 -1.2958  2.1520
 1807TIP3    H2 5386   4.489   0.561   4.392 -2.4591 -0.7016  0.6925
 1808TIP3   OH2 5387   2.642   6.734   3.033  0.1997 -0.4839  0.1558
 1808TIP3    H1 5388   2.625   6.643   3.009 -0.5791 -0.3072 -0.0051
 1808TIP3    H2 5389   2.585   6.750   3.108  1.0620 -0.4072  0.8137
 1809TIP3   OH2 5390   2.817   3.692   2.533  0.0970  0.1449 -0.1999
 1809TIP3    H1 5391   2.736   3.700   2.584  0.3363 -1.9261  0.6268
 1809TIP3    H2 5392   2.837   3.598   2.536  2.7543  0.6427 -0.0365
 1810TIP3   OH2 5393   2.604   6.536   0.181  0.1815 -0.4158 -0.3980
 1810TIP3    H1 5394   2.586   6.597   0.110 -2.2944 -0.3021  0.2608
 1810TIP3    H2 5395   2.548   6.461   0.164  1.3387 -1.4395  0.1596
 1811TIP3   OH2 5396   4.590   6.260   1.620 -0.2178  0.3870  0.1739
 1811TIP3    H1 5397   4.508   6.229   1.659 -0.1366 -1.5867 -1.0706
 1811TIP3    H2 5398   4.657   6.203   1.658 -0.1171 -1.4755 -2.5414
 1812TIP3   OH2 5399   0.543   1.465   5.138 -0.1632 -0.1156 -0.2996
 1812TIP3    H1 5400   0.637   1.480   5.142 -0.1058 -0.6183  0.6954
 1812TIP3    H2 5401   0.520   1.477   5.046  0.6917  1.0126 -0.3761
 1813TIP3   OH2 5402   0.309   5.502   4.431 -0.4918 -0.3311  0.0254
 1813TIP3    H1 5403   0.366   5.520   4.507 -1.4482  0.2803  0.6306
 1813TIP3    H2 5404   0.302   5.587   4.388  0.9522 -0.9040 -1.4386
 1814TIP3   OH2 5405   3.534   4.040   2.932  0.5269 -0.0850  0.2417
 1814TIP3    H1 5406   3.460   4.000   2.886 -0.1460 -0.4371  1.5603
 1814TIP3    H2 5407   3.573   4.100   2.868 -0.1646 -0.7774 -0.8663
 1815TIP3   OH2 5408   1.453   2.735   1.792  0.1598 -0.3649  0.3464
 1815TIP3    H1 5409   1.391   2.664   1.776  0.7011 -0.9573  0.8467
 1815TIP3    H2 5410   1.522   2.722   1.726  0.9593 -1.1311  1.3167
 1816TIP3   OH2 5411   1.252   6.529   3.111 -0.3244 -0.7062 -0.5367
 1816TIP3    H1 5412   1.318   6.539   3.180 -0.5554 -0.2367 -0.3753
 1816TIP3    H2 5413   1.299   6.549   3.030 -0.0887 -1.1054 -0.4995
 1817TIP3   OH2 5414   6.174   5.161   2.740 -1.1179 -0.0298 -0.3552
 1817TIP3    H1 5415   6.079   5.151   2.740 -0.9196 -2.7950  0.3232
 1817TIP3    H2 5416   6.205   5.094   2.678  0.4491 -0.8472  1.2148
 1818TIP3   OH2 5417   3.737   1.536   2.732 -0.1662 -0.5998  0.4492
 1818TIP3    H1 5418   3.826   1.543   2.767 -0.3148 -0.6757  0.8561
 1818TIP3    H2 5419   3.683   1.517   2.809 -0.4756 -0.9974  0.1372
 1819TIP3   OH2 5420   5.759   6.679   5.416 -0.0393 -0.4567 -0.1421
 1819TIP3    H1 5421   5.822   6.634   5.360  1.9838  2.6809 -0.6227
 1819TIP3    H2 5422   5.761   6.770   5.386  0.8821  1.4043  4.6500
 1820TIP3   OH2 5423   6.639   3.958   2.360 -0.5421 -0.5806 -1.1441
 1820TIP3    H1 5424   6.669   3.955   2.269  0.1124  1.9584 -1.1025
 1820TIP3    H2 5425   6.668   4.043   2.391  2.2647 -2.6421  2.5651
 1821TIP3   OH2 5426   6.749   5.609   5.158  0.2918  0.0269 -0.3855
 1821TIP3    H1 5427   6.717   5.631   5.246  0.7822 -0.9478  0.0589
 1821TIP3    H2 5428   6.807   5.681   5.134 -1.7420  1.5672 -0.9774
 1822TIP3   OH2 5429   0.308   3.378   0.696 -0.0962 -0.6484  0.2821
 1822TIP3    H1 5430   0.354   3.421   0.623 -0.0618 -0.6283  0.3154
 1822TIP3    H2 5431   0.226   3.347   0.658 -0.1963 -0.4065  0.2981
 1823TIP3   OH2 5432   4.441   4.357   5.449  0.5133  0.2635  0.1050
 1823TIP3    H1 5433   4.525   4.337   5.490  0.5309 -0.7843 -0.4144
 1823TIP3    H2 5434   4.381   4.289   5.481  0.4893 -0.4921 -1.4418
 1824TIP3   OH2 5435   0.346   6.126   2.166 -0.0507  0.9755 -0.1678
 1824TIP3    H1 5436   0.325   6.210   2.126 -0.4783  1.4502  1.0074
 1824TIP3    H2 5437   0.431   6.141   2.208 -0.1085  0.8100  0.0090
 1825TIP3   OH2 5438   0.737   0.154   1.538  0.4374 -0.3625  0.0255
 1825TIP3    H1 5439   0.690   0.237   1.538  1.8053  0.4432  0.0028
 1825TIP3    H2 5440   0.668   0.087   1.542 -0.6493  0.7783  1.1735
 1826TIP3   OH2 5441   2.552   4.148   0.191  0.6749  0.3384  0.7825
 1826TIP3    H1 5442   2.644   4.123   0.202  0.8052  1.0585  1.4190
 1826TIP3    H2 5443   2.518   4.155   0.280 -0.3211 -1.0237  0.5346
 1827TIP3   OH2 5444   5.375   4.727   5.161 -0.1747 -0.2037 -0.1423
 1827TIP3    H1 5445   5.340   4.793   5.222 -0.3630 -0.8336  0.4507
 1827TIP3    H2 5446   5.470   4.740   5.163  0.0884 -1.8031  2.2576
 1828TIP3   OH2 5447   6.042   1.102   1.415 -0.3384  0.0959  0.4473
 1828TIP3    H1 5448   5.962   1.050   1.406  0.5374 -1.4951  1.3885
 1828TIP3    H2 5449   6.032   1.172   1.350 -1.3013 -1.5993 -1.3701
 1829TIP3   OH2 5450   6.265   4.936   1.275  0.6117 -0.7314  0.3523
 1829TIP3    H1 5451   6.348   4.983   1.273  0.0719  0.4490  2.4448
 1829TIP3    H2 5452   6.201   5.001   1.303 -0.9236 -1.7822 -0.5680
 1830TIP3   OH2 5453   4.044   3.314   5.336 -0.0561  0.0799 -0.0423
 1830TIP3    H1 5454   4.026   3.388   5.277  0.2889  0.2704  0.0882
 1830TIP3    H2 5455   3.993   3.334   5.415  0.5661  0.5231  0.2543
 1831TIP3   OH2 5456   0.325   1.069   3.133 -0.3842 -0.3699 -0.2458
 1831TIP3    H1 5457   0.251   1.127   3.153  1.3682  2.2436 -0.7768
 1831TIP3    H2 5458   0.363   1.105   3.053  1.4668 -1.6208  0.0061
 1832TIP3   OH2 5459   1.422   4.111   1.767 -0.1695  0.0303  0.3306
 1832TIP3    H1 5460   1.485   4.046   1.799 -0.6757 -0.5096  0.2432
 1832TIP3    H2 5461   1.447   4.125   1.676 -0.1170 -0.1127  0.3220
 1833TIP3   OH2 5462   3.636   4.810   0.834  0.0071 -0.5952  0.3350
 1833TIP3    H1 5463   3.599   4.891   0.802  0.1647 -0.8929 -0.6264
 1833TIP3    H2 5464   3.729   4.829   0.845 -0.2051 -0.2032  1.5958
 1834TIP3   OH2 5465   2.819   6.278   4.664 -0.2211 -0.0785  0.0622
 1834TIP3    H1 5466   2.811   6.277   4.759 -0.7565  0.6937  0.0346
 1834TIP3    H2 5467   2.871   6.356   4.645 -2.2326  1.2219 -0.3960
 1835TIP3   OH2 5468   3.925   3.243   3.668 -0.1568  0.6924 -0.1008
 1835TIP3    H1 5469   3.876   3.308   3.617 -2.2318 -0.0328  0.8594
 1835TIP3    H2 5470   4.001   3.291   3.700  0.2718  1.6532 -2.3327
 1836TIP3   OH2 5471   1.982   4.571   5.735 -0.1261 -0.4067 -0.5258
 1836TIP3    H1 5472   1.934   4.615   5.664  0.8719 -0.1975 -1.1010
 1836TIP3    H2 5473   2.052   4.633   5.758  0.1952 -0.9222 -0.0851
 1837TIP3   OH2 5474   3.495   3.764   5.605  0.7000 -0.3644  0.3580
 1837TIP3    H1 5475   3.516   3.855   5.587 -0.9360 -0.4170 -2.2746
 1837TIP3    H2 5476   3.410   3.767   5.649  1.9425 -0.5790  3.0006
 1838TIP3   OH2 5477   4.044   0.101   2.859 -0.1454  0.2998  0.3925
 1838TIP3    H1 5478   3.989   0.024   2.876 -0.3174  0.4300  0.4234
 1838TIP3    H2 5479   4.121   0.065   2.815  0.6758 -0.1577  2.1074
 1839TIP3   OH2 5480   6.277   1.848   4.167 -0.1756  0.0204 -0.1480
 1839TIP3    H1 5481   6.276   1.813   4.078 -1.9859 -0.8086  0.1702
 1839TIP3    H2 5482   6.371   1.859   4.187  0.2617  0.0839 -2.0737
 1840TIP3   OH2 5483   2.807   5.212   4.277 -0.0841 -0.2156 -0.1276
 1840TIP3    H1 5484   2.764   5.259   4.348 -1.6046  0.9401 -1.7260
 1840TIP3    H2 5485   2.898   5.242   4.280 -0.1208 -0.2122  1.3166
 1841TIP3   OH2 5486   2.185   2.148   2.400  0.3062  0.5646 -0.3801
 1841TIP3    H1 5487   2.264   2.112   2.440  0.7329  0.2613 -1.4743
 1841TIP3    H2 5488   2.139   2.190   2.473  0.5204 -0.9148  0.6598
 1842TIP3   OH2 5489   2.653   4.782   4.425 -0.0481 -0.3206  0.2923
 1842TIP3    H1 5490   2.606   4.823   4.498  0.5755  0.4255  0.2832
 1842TIP3    H2 5491   2.736   4.754   4.463  0.1910 -0.1219 -0.0863
 1843TIP3   OH2 5492   6.910   4.126   1.486  0.3623  0.0416 -0.1153
 1843TIP3    H1 5493   6.822   4.147   1.457  0.2299  1.3813  1.1230
 1843TIP3    H2 5494   6.913   4.031   1.492 -1.0406 -0.0055 -0.0420
 1844TIP3   OH2 5495   2.789   3.187   5.496  0.0388 -0.0264 -0.1693
 1844TIP3    H1 5496   2.737   3.183   5.577 -1.4517 -0.7059 -1.1235
 1844TIP3    H2 5497   2.728   3.162   5.427  1.9213 -2.0051 -1.2343
 1845TIP3   OH2 5498   0.170   0.317   1.678  0.6951 -0.4084 -0.0043
 1845TIP3    H1 5499   0.224   0.387   1.642  1.2867 -0.2993  1.0414
 1845TIP3    H2 5500   0.080   0.345   1.662  0.9276  0.5056  0.2448
 1846TIP3   OH2 5501   2.689   0.963   4.251 -0.0463  0.6139  0.7185
 1846TIP3    H1 5502   2.718   1.028   4.316  0.6653  0.9478  0.0831
 1846TIP3    H2 5503   2.754   0.893   4.255 -0.9717 -0.2242  1.6072
 1847TIP3   OH2 5504   6.378   5.302   1.432 -0.3370 -0.1672  0.1336
 1847TIP3    H1 5505   6.296   5.343   1.404 -0.1841  1.4191  1.8282
 1847TIP3    H2 5506   6.357   5.264   1.518  1.1562  2.0434  1.5567
 1848TIP3   OH2 5507   4.376   6.735   0.198  0.6998  0.7421  0.0921
 1848TIP3    H1 5508   4.282   6.753   0.205  0.6671  1.0188 -0.8738
 1848TIP3    H2 5509   4.391   6.659   0.254 -0.3014  0.0293 -0.5842
 1849TIP3   OH2 5510   4.494   3.164   0.914 -0.3690  0.0266  0.0701
 1849TIP3    H1 5511   4.474   3.251   0.949 -0.2937 -0.4556  1.3925
 1849TIP3    H2 5512   4.586   3.168   0.890 -0.6836  0.6849 -1.0881
 1850TIP3   OH2 5513   2.845   6.513   0.258 -0.4592  0.1167 -0.2544
 1850TIP3    H1 5514   2.759   6.552   0.249 -2.6733 -3.8053  1.5476
 1850TIP3    H2 5515   2.875   6.538   0.345 -0.5929  0.0469 -0.1888
 1851TIP3   OH2 5516   0.238   6.677   1.579 -0.6351 -0.1575  0.2908
 1851TIP3    H1 5517   0.320   6.627   1.578 -0.7297 -0.3260  0.6747
 1851TIP3    H2 5518   0.195   6.649   1.660 -0.3244  1.1407  0.9334
 1852TIP3   OH2 5519   0.063   5.921   1.412 -0.2406 -0.3325 -0.2534
 1852TIP3    H1 5520   0.038   5.841   1.458 -2.0919  1.2104  1.5547
 1852TIP3    H2 5521  -0.016   5.949   1.367 -0.1117  1.3894  0.5382
 1853TIP3   OH2 5522   0.309   4.665   2.206  0.1406 -0.1384 -0.4168
 1853TIP3    H1 5523   0.341   4.582   2.172  0.1101  0.2404 -1.4128
 1853TIP3    H2 5524   0.272   4.710   2.130 -0.5000  0.4811  0.2433
 1854TIP3   OH2 5525   1.494   5.664   2.578 -0.0912 -0.8291 -0.2497
 1854TIP3    H1 5526   1.547   5.693   2.504  1.2085 -2.9172 -0.2437
 1854TIP3    H2 5527   1.492   5.738   2.638  2.5533 -0.4957 -0.4462
 1855TIP3   OH2 5528   5.000   5.714   4.649  0.0946 -0.0380  0.4295
 1855TIP3    H1 5529   5.084   5.692   4.608 -0.8159  0.0229 -1.5723
 1855TIP3    H2 5530   5.010   5.805   4.677  0.1371  0.5840 -1.4624
 1856TIP3   OH2 5531   5.716   4.709   2.215 -0.1632  0.2479 -0.0652
 1856TIP3    H1 5532   5.753   4.773   2.155  2.8907  0.0542  1.4150
 1856TIP3    H2 5533   5.634   4.749   2.246 -1.3046  0.7971 -3.4006
 1857TIP3   OH2 5534   2.485   2.898   1.407  0.4100 -0.3410 -0.3943
 1857TIP3    H1 5535   2.393   2.922   1.420  0.3712 -1.6738  2.7299
 1857TIP3    H2 5536   2.528   2.981   1.386 -1.2973  0.5601 -0.5315
 1858TIP3   OH2 5537   2.671   2.962   2.400 -0.0297  0.0933  0.2295
 1858TIP3    H1 5538   2.708   3.041   2.359  0.3293 -0.7859 -1.2043
 1858TIP3    H2 5539   2.577   2.968   2.381  0.2025 -0.5729 -1.2579
 1859TIP3   OH2 5540   0.306   5.187   2.441  0.1227 -0.0801  0.4552
 1859TIP3    H1 5541   0.338   5.132   2.370  0.4764  0.0579  0.5045
 1859TIP3    H2 5542   0.384   5.234   2.472 -0.0851  0.0871  0.7305
 1860TIP3   OH2 5543   0.420   3.318   1.105  0.1336  0.2381 -0.5908
 1860TIP3    H1 5544   0.345   3.275   1.146  0.4966 -1.0924 -1.2387
 1860TIP3    H2 5545   0.382   3.384   1.048 -0.4940  0.2843 -0.1320
 1861TIP3   OH2 5546   2.216   6.684   0.602 -0.0164 -0.1399  0.2824
 1861TIP3    H1 5547   2.307   6.686   0.632 -0.4230  0.6060  1.5117
 1861TIP3    H2 5548   2.168   6.640   0.672 -0.6178 -0.4854 -0.3357
 1862TIP3   OH2 5549   1.817   3.743   5.684 -0.2761 -0.3057  0.0259
 1862TIP3    H1 5550   1.770   3.763   5.603 -0.7525  0.3731  0.4598
 1862TIP3    H2 5551   1.829   3.648   5.682  0.8480 -0.1754 -1.4499
 1863TIP3   OH2 5552   5.143   2.689   1.563  0.0081 -0.1337  0.0870
 1863TIP3    H1 5553   5.144   2.691   1.659  1.5254 -1.4433  0.1367
 1863TIP3    H2 5554   5.084   2.760   1.538  0.4705  0.9728  1.9637
 1864TIP3   OH2 5555   5.644   4.203   2.033  0.4823 -0.0588 -0.6680
 1864TIP3    H1 5556   5.559   4.203   1.988 -0.0603 -1.3091  0.2830
 1864TIP3    H2 5557   5.621   4.209   2.126  1.4792  0.2932 -0.4399
 1865TIP3   OH2 5558   2.372   3.093   4.003  0.1819 -0.1392  0.2379
 1865TIP3    H1 5559   2.457   3.126   3.975  1.3553 -2.8305  0.3144
 1865TIP3    H2 5560   2.320   3.088   3.923  0.3398  0.7707  0.0635
 1866TIP3   OH2 5561   0.511   5.183   2.952 -0.3428  0.3044 -0.2997
 1866TIP3    H1 5562   0.467   5.116   3.004  0.5474 -0.3634 -0.3829
 1866TIP3    H2 5563   0.465   5.182   2.868 -0.8580  0.3755 -0.0239
 1867TIP3   OH2 5564   6.970   2.878   2.529  0.1608 -0.2014  0.1622
 1867TIP3    H1 5565   6.931   2.963   2.508 -1.3412 -1.0270 -0.5831
 1867TIP3    H2 5566   7.052   2.876   2.480  0.4507  0.9973  0.5699
 1868TIP3   OH2 5567   2.753   2.081   2.797 -0.3320 -0.2087 -0.3200
 1868TIP3    H1 5568   2.722   2.076   2.706 -1.6295 -1.2839  0.1415
 1868TIP3    H2 5569   2.833   2.028   2.797 -2.0453 -3.0231 -0.2392
 1869TIP3   OH2 5570   4.488   4.881   4.021  0.1424  0.0542  0.2334
 1869TIP3    H1 5571   4.393   4.876   4.024  0.0912  1.1720  1.3201
 1869TIP3    H2 5572   4.516   4.793   3.999 -1.1865  0.0315 -1.6052
 1870TIP3   OH2 5573   3.851   0.159   4.108  0.1720  0.2952  0.3684
 1870TIP3    H1 5574   3.799   0.181   4.031 -1.3333 -2.2545  0.5359
 1870TIP3    H2 5575   3.824   0.224   4.174 -0.3909  0.9707 -0.5048
 1871TIP3   OH2 5576   4.483   0.283   2.625  0.2112 -0.4686 -0.0611
 1871TIP3    H1 5577   4.501   0.189   2.623 -2.7738 -1.1498  0.8416
 1871TIP3    H2 5578   4.459   0.304   2.535 -0.1074 -0.8264 -0.0661
 1872TIP3   OH2 5579   0.547   0.750   0.922  0.1235  0.0471  0.0965
 1872TIP3    H1 5580   0.500   0.742   0.839  1.3621  0.3946 -0.6731
 1872TIP3    H2 5581   0.504   0.688   0.980 -1.3368  0.4394 -0.5238
 1873TIP3   OH2 5582   4.793   6.146   3.659 -0.1004  0.1856 -0.3627
 1873TIP3    H1 5583   4.733   6.072   3.648 -0.9369  0.9006 -0.7048
 1873TIP3    H2 5584   4.825   6.165   3.571  0.7272 -0.2492 -0.1718
 1874TIP3   OH2 5585   1.629   0.488   4.678 -0.3139 -0.1188  0.0079
 1874TIP3    H1 5586   1.650   0.570   4.722 -2.2857 -0.3190  1.4914
 1874TIP3    H2 5587   1.688   0.485   4.603  2.7003  0.6393  2.1615
 1875TIP3   OH2 5588   3.949   5.484   4.188 -0.2168  0.0570 -0.4329
 1875TIP3    H1 5589   3.953   5.434   4.269 -1.0031  0.2561 -0.2616
 1875TIP3    H2 5590   3.915   5.569   4.214  0.0623  0.3089 -0.8860
 1876TIP3   OH2 5591   5.818   4.919   5.888  0.2024  0.7179 -0.0158
 1876TIP3    H1 5592   5.818   4.831   5.848 -1.9351  0.5587  0.2204
 1876TIP3    H2 5593   5.832   4.978   5.814 -0.1415  0.2475 -0.4711
 1877TIP3   OH2 5594   5.970   1.224   4.050 -0.2267  0.2414 -0.3822
 1877TIP3    H1 5595   5.917   1.146   4.032 -1.3629  0.6606  0.8944
 1877TIP3    H2 5596   5.991   1.217   4.143  1.7789  0.2350 -0.8060
 1878TIP3   OH2 5597   2.734   0.764   3.120  0.1423 -0.5827  0.4117
 1878TIP3    H1 5598   2.643   0.762   3.151 -0.5325 -1.9350 -1.4093
 1878TIP3    H2 5599   2.753   0.673   3.098  1.1669 -0.0102 -1.2603
 1879TIP3   OH2 5600   5.958   2.103   1.573  0.1816 -0.3803 -0.3807
 1879TIP3    H1 5601   6.019   2.061   1.512 -1.7754 -2.3945 -1.0986
 1879TIP3    H2 5602   5.900   2.032   1.602 -4.0303  1.8467 -2.4333
 1880TIP3   OH2 5603   2.516   2.222   2.351  0.4421  0.0496  0.2946
 1880TIP3    H1 5604   2.439   2.276   2.335  0.8141  0.4043 -0.3595
 1880TIP3    H2 5605   2.585   2.285   2.373  0.3671 -0.3168  1.6467
 1881TIP3   OH2 5606   1.930   4.961   5.643  0.4093 -0.9765 -0.0014
 1881TIP3    H1 5607   2.001   5.022   5.623 -0.8102 -0.0178 -1.7336
 1881TIP3    H2 5608   1.870   5.011   5.698 -1.1820 -0.0565 -2.3832
 1882TIP3   OH2 5609   2.493   3.145   3.353 -0.4290 -0.5510  0.7184
 1882TIP3    H1 5610   2.553   3.207   3.394  2.6321 -2.7579 -0.0615
 1882TIP3    H2 5611   2.440   3.112   3.426 -0.4809  1.1683  1.5194
 1883TIP3   OH2 5612   5.983   3.962   2.165  0.1785 -0.5324 -0.5021
 1883TIP3    H1 5613   5.960   3.887   2.110  1.5308 -0.8658 -0.6360
 1883TIP3    H2 5614   5.905   3.976   2.219 -0.2541 -1.7480 -0.7753
 1884TIP3   OH2 5615   6.130   6.480   0.165 -0.0177 -0.3431 -0.4404
 1884TIP3    H1 5616   6.165   6.404   0.211  0.8845 -0.1877 -0.8565
 1884TIP3    H2 5617   6.202   6.543   0.165 -0.9245  0.7240  0.3719
 1885TIP3   OH2 5618   0.593   6.565   4.694 -0.3557  0.2956 -0.0482
 1885TIP3    H1 5619   0.503   6.585   4.668 -1.0794 -0.9677  1.3359
 1885TIP3    H2 5620   0.590   6.473   4.722  0.5843  1.1369  3.1721
 1886TIP3   OH2 5621   2.317   5.200   4.837  0.4373 -0.2255  0.3731
 1886TIP3    H1 5622   2.251   5.261   4.805 -0.8942 -1.6949  0.2264
 1886TIP3    H2 5623   2.297   5.188   4.929  0.1808 -1.0563  0.2145
 1887TIP3   OH2 5624   5.453   2.462   4.994  0.1940 -0.0676  0.0728
 1887TIP3    H1 5625   5.375   2.467   4.938  0.0080 -0.6222  0.2774
 1887TIP3    H2 5626   5.523   2.499   4.940 -0.0520 -0.2833 -0.4033
 1888TIP3   OH2 5627   2.865   0.965   1.780  0.2418  0.1580  0.8817
 1888TIP3    H1 5628   2.823   0.899   1.835  0.0715  0.3434  0.9719
 1888TIP3    H2 5629   2.793   1.016   1.744  0.2954 -0.4169 -0.0971
 1889TIP3   OH2 5630   6.602   4.739   4.261 -0.5520  0.0345 -0.0210
 1889TIP3    H1 5631   6.540   4.803   4.295 -0.0121 -0.3092  1.6964
 1889TIP3    H2 5632   6.617   4.766   4.170 -1.4668  1.4423  0.2175
 1890TIP3   OH2 5633   3.904   6.090   4.437  0.2135 -0.0378  0.7153
 1890TIP3    H1 5634   3.986   6.072   4.390  0.0402  0.5893  0.1694
 1890TIP3    H2 5635   3.871   6.171   4.399 -1.8990 -1.4894 -0.7493
 1891TIP3   OH2 5636   4.006   3.067   3.427 -0.3672 -0.3057  0.4614
 1891TIP3    H1 5637   4.032   2.980   3.456  1.8968  0.6418  1.5577
 1891TIP3    H2 5638   3.980   3.113   3.506 -0.7109  0.2805  0.0182
 1892TIP3   OH2 5639   0.261   5.361   1.922  0.0663  0.8870  0.5999
 1892TIP3    H1 5640   0.263   5.432   1.858 -1.1701 -0.8711 -1.5434
 1892TIP3    H2 5641   0.306   5.288   1.879  1.8542  0.4549  2.9600
 1893TIP3   OH2 5642   3.828   0.914   0.846 -1.0421  0.5095  0.0545
 1893TIP3    H1 5643   3.763   0.936   0.778 -0.0971 -1.2899 -1.5431
 1893TIP3    H2 5644   3.776   0.907   0.926 -2.7259 -0.0848 -1.0140
 1894TIP3   OH2 5645   3.323   3.072   5.663 -0.4035 -0.0812 -0.6395
 1894TIP3    H1 5646   3.252   3.134   5.648 -1.8696 -2.0171 -2.2356
 1894TIP3    H2 5647   3.317   3.051   5.756 -1.4523  0.3297 -0.6032
 1895TIP3   OH2 5648   2.821   2.618   4.721 -0.4188  0.8499  1.0207
 1895TIP3    H1 5649   2.761   2.544   4.721 -1.4067  1.5531 -1.4699
 1895TIP3    H2 5650   2.842   2.632   4.813  1.0554 -3.4496  1.5713
 1896TIP3   OH2 5651   3.104   3.053   5.101 -0.1061  0.6992 -0.2928
 1896TIP3    H1 5652   3.178   3.069   5.043  0.6166 -0.2862  0.3308
 1896TIP3    H2 5653   3.139   3.066   5.189 -0.6732  0.2233  0.0114
 1897TIP3   OH2 5654   2.862   5.702   5.872 -0.0204  0.4297 -0.2773
 1897TIP3    H1 5655   2.771   5.728   5.859  0.7407  2.3094 -2.4951
 1897TIP3    H2 5656   2.883   5.650   5.794  1.2459  1.4360 -0.6461
 1898TIP3   OH2 5657   0.026   4.508   5.258  0.0150  0.1613  0.1913
 1898TIP3    H1 5658   0.023   4.533   5.166  2.7499  0.0860 -0.0159
 1898TIP3    H2 5659   0.037   4.413   5.256 -1.9668 -0.1243  0.7183
 1899TIP3   OH2 5660   2.795   2.722   0.200  0.1456 -0.2486 -0.5075
 1899TIP3    H1 5661   2.883   2.756   0.181 -0.1396  1.8338  1.4427
 1899TIP3    H2 5662   2.739   2.765   0.135  0.1552  1.0661  0.3154
 1900TIP3   OH2 5663   5.251   4.517   1.675  0.0837 -0.6959 -0.1481
 1900TIP3    H1 5664   5.229   4.424   1.683  0.3140 -0.8723 -1.3956
 1900TIP3    H2 5665   5.345   4.521   1.690 -0.0557 -0.5174  0.8098
 1901TIP3   OH2 5666   0.467   0.520   3.224  0.1972  0.2930  0.0022
 1901TIP3    H1 5667   0.439   0.533   3.134  0.9654  1.0093 -0.1423
 1901TIP3    H2 5668   0.550   0.473   3.217 -0.0885 -0.2682  0.3611
 1902TIP3   OH2 5669   3.424   2.754   0.114 -0.0453  0.2331  0.0226
 1902TIP3    H1 5670   3.406   2.846   0.096 -2.3934 -0.4992 -1.9347
 1902TIP3    H2 5671   3.353   2.727   0.173 -1.5889 -1.0806 -2.2739
 1903TIP3   OH2 5672   4.118   5.243   0.622 -0.2594 -0.1702  0.0695
 1903TIP3    H1 5673   4.066   5.301   0.568 -0.7674  1.3996  2.1245
 1903TIP3    H2 5674   4.084   5.155   0.602 -0.6001  0.3504 -1.8791
 1904TIP3   OH2 5675   1.836   0.069   2.235  0.0335  0.0048 -0.5283
 1904TIP3    H1 5676   1.785  -0.012   2.248  0.3975 -0.3950 -1.4894
 1904TIP3    H2 5677   1.912   0.058   2.291 -0.6439  0.3559  0.4892
 1905TIP3   OH2 5678   6.534   3.184   4.446 -0.4184  0.3059  0.7035
 1905TIP3    H1 5679   6.589   3.171   4.524  0.3229 -0.2324  0.1011
 1905TIP3    H2 5680   6.446   3.200   4.481  0.2003  1.7066  1.7043
 1906TIP3   OH2 5681   3.381   6.586   2.452  0.6292 -0.2968  0.1423
 1906TIP3    H1 5682   3.333   6.635   2.519  0.0587 -0.7820  0.0919
 1906TIP3    H2 5683   3.314   6.538   2.404  0.7092  1.8890 -2.3857
 1907TIP3   OH2 5684   0.992   3.049   3.904 -0.1223  0.3084 -0.2403
 1907TIP3    H1 5685   1.080   3.049   3.943  0.2762 -0.4905 -1.1031
 1907TIP3    H2 5686   0.946   2.978   3.949 -0.2091  0.4826 -0.0521
 1908TIP3   OH2 5687   0.392   5.443   2.989 -0.3769 -0.0720  0.1588
 1908TIP3    H1 5688   0.485   5.468   2.981 -0.1813 -1.1004 -0.9941
 1908TIP3    H2 5689   0.394   5.351   3.015 -1.0914  0.1189  0.9326
 1909TIP3   OH2 5690   5.515   6.163   0.314 -0.1657  0.3746 -0.0647
 1909TIP3    H1 5691   5.463   6.083   0.323  1.7188 -0.7050  2.2833
 1909TIP3    H2 5692   5.498   6.192   0.225 -1.9987 -1.8654 -0.5463
 1910TIP3   OH2 5693   3.228   3.863   5.702 -0.3654 -0.7413  0.5120
 1910TIP3    H1 5694   3.134   3.850   5.711 -0.2685 -1.8675  0.0878
 1910TIP3    H2 5695   3.240   3.892   5.612 -0.2479 -1.2531  0.3613
 1911TIP3   OH2 5696   4.038   4.081   2.983 -0.3007  0.3562 -0.6208
 1911TIP3    H1 5697   3.970   4.015   2.993 -0.6591  0.9152  0.9629
 1911TIP3    H2 5698   3.997   4.150   2.930 -0.1688 -0.3234 -1.6384
 1912TIP3   OH2 5699   5.479   6.420   5.506  0.2914  0.1434  0.7347
 1912TIP3    H1 5700   5.498   6.458   5.593 -0.6348  0.7434  0.6928
 1912TIP3    H2 5701   5.560   6.376   5.481  0.8347  0.6311  1.5683
 1913TIP3   OH2 5702   4.562   3.684   0.453  0.2026 -0.3402 -0.1784
 1913TIP3    H1 5703   4.611   3.730   0.521 -0.9358 -0.3378  0.6699
 1913TIP3    H2 5704   4.471   3.687   0.482 -0.0212 -2.4651 -0.4613
 1914TIP3   OH2 5705   7.102   2.295   5.257  0.1253 -0.1058 -0.0126
 1914TIP3    H1 5706   7.090   2.297   5.162 -0.1208  1.0368  0.0368
 1914TIP3    H2 5707   7.092   2.202   5.280 -0.4067 -0.3103 -1.0200
 1915TIP3   OH2 5708   5.376   2.429   2.544 -0.5263  0.0348 -0.4503
 1915TIP3    H1 5709   5.300   2.426   2.486 -0.5410  0.6441 -0.4665
 1915TIP3    H2 5710   5.342   2.463   2.627 -0.2748  0.3216 -0.4611
 1916TIP3   OH2 5711   1.420   2.076   3.281 -0.0921 -0.4021  0.2706
 1916TIP3    H1 5712   1.391   2.125   3.358  0.3042  0.1122  0.1074
 1916TIP3    H2 5713   1.392   2.130   3.207  0.9982 -0.0321  0.1037
 1917TIP3   OH2 5714   5.133   3.621   4.761 -0.0393  0.2414  0.1497
 1917TIP3    H1 5715   5.168   3.554   4.820 -1.0375 -1.4813 -1.0952
 1917TIP3    H2 5716   5.200   3.630   4.693  0.1629  0.6390  0.3980
 1918TIP3   OH2 5717   4.197   3.640   1.651  0.1420 -0.2324 -0.1367
 1918TIP3    H1 5718   4.113   3.595   1.653  0.0207 -0.0042  0.8879
 1918TIP3    H2 5719   4.257   3.581   1.698  0.5529 -0.3843 -0.8365
 1919TIP3   OH2 5720   6.348   6.662   0.427  0.0191  0.3536  0.7329
 1919TIP3    H1 5721   6.411   6.728   0.455 -0.7162  1.3337  0.1348
 1919TIP3    H2 5722   6.305   6.700   0.350  1.4793 -1.9159 -1.3653
 1920TIP3   OH2 5723   0.037   6.754   2.865 -0.0603 -0.1484  0.0785
 1920TIP3    H1 5724  -0.029   6.760   2.795 -0.0519 -1.6305 -0.1002
 1920TIP3    H2 5725   0.116   6.724   2.821  0.6789  1.3306  0.3475
 1921TIP3   OH2 5726   6.673   5.550   2.287 -0.2987 -0.1741 -0.4574
 1921TIP3    H1 5727   6.767   5.546   2.266 -0.0539  2.7291 -0.3543
 1921TIP3    H2 5728   6.668   5.526   2.379  0.5337  0.6041 -0.1813
 1922TIP3   OH2 5729   6.436   0.989   0.545 -0.3505  0.3099  0.4040
 1922TIP3    H1 5730   6.429   1.058   0.479 -1.1819 -1.6518 -1.6809
 1922TIP3    H2 5731   6.361   0.932   0.530 -0.1171 -0.6847  2.5398
 1923TIP3   OH2 5732   5.738   0.306   4.910  0.1566 -0.0835 -0.0195
 1923TIP3    H1 5733   5.694   0.288   4.994  0.5410  0.1175  0.2284
 1923TIP3    H2 5734   5.675   0.278   4.844 -0.1003 -0.3660  0.3381
 1924TIP3   OH2 5735   4.939   3.369   2.427 -0.1052 -0.4763 -0.3179
 1924TIP3    H1 5736   4.900   3.406   2.506 -0.4184 -0.6955 -0.3694
 1924TIP3    H2 5737   4.865   3.358   2.366  0.1766 -0.0380 -0.7441
 1925TIP3   OH2 5738   0.725   2.002   3.947 -0.0166 -0.7805  0.3657
 1925TIP3    H1 5739   0.631   1.980   3.945 -0.5815  1.4616  0.3428
 1925TIP3    H2 5740   0.752   1.997   3.855 -0.8398  1.3021 -0.0330
 1926TIP3   OH2 5741   2.662   0.814   4.009  0.6928  0.0758  0.4609
 1926TIP3    H1 5742   2.738   0.849   3.961  1.7157  0.6794  2.4071
 1926TIP3    H2 5743   2.633   0.887   4.064 -1.3893 -0.1230 -0.2698
 1927TIP3   OH2 5744   7.015   5.896   3.860  0.3508  0.2455 -0.9768
 1927TIP3    H1 5745   7.031   5.824   3.799  1.4490 -0.0789 -0.3282
 1927TIP3    H2 5746   7.076   5.881   3.932  1.2498  2.3021 -1.2385
 1928TIP3   OH2 5747   5.371   2.561   3.342  0.4126  0.1800 -0.1016
 1928TIP3    H1 5748   5.290   2.610   3.330  0.9506  0.9519 -0.6615
 1928TIP3    H2 5749   5.342   2.471   3.358 -0.6054  0.7805  1.6938
 1929TIP3   OH2 5750   3.405   2.505   5.075 -0.2482 -0.0071  0.0502
 1929TIP3    H1 5751   3.433   2.501   5.166 -2.3587 -3.9276  0.7374
 1929TIP3    H2 5752   3.336   2.572   5.075 -1.6037 -1.2770  1.9182
 1930TIP3   OH2 5753   2.879   5.041   1.860 -0.1899  0.0493  0.0569
 1930TIP3    H1 5754   2.907   4.967   1.807 -2.5600 -1.4621  0.7650
 1930TIP3    H2 5755   2.899   5.015   1.950  0.6132  1.0870  0.1992
 1931TIP3   OH2 5756   7.147   6.642   3.752  0.3043 -0.6831 -0.4710
 1931TIP3    H1 5757   7.227   6.687   3.727  0.0025 -0.0291 -0.2951
 1931TIP3    H2 5758   7.111   6.609   3.670  0.0308  0.2489 -0.7347
 1932TIP3   OH2 5759   4.100   4.075   4.859  0.1391  0.1453 -0.2147
 1932TIP3    H1 5760   4.087   4.032   4.944  0.3284  0.6125  0.0561
 1932TIP3    H2 5761   4.172   4.027   4.818 -0.0304 -0.1556 -0.1603
 1933TIP3   OH2 5762   3.814   5.256   5.438  0.2452  0.2074  0.1557
 1933TIP3    H1 5763   3.822   5.200   5.515 -0.5916 -0.0514  0.0599
 1933TIP3    H2 5764   3.807   5.344   5.472  3.4370  0.5444  0.2806
 1934TIP3   OH2 5765   0.462   2.285   2.393 -0.3290 -0.6817 -0.2636
 1934TIP3    H1 5766   0.530   2.350   2.373 -0.0899 -0.9373 -0.2869
 1934TIP3    H2 5767   0.507   2.201   2.388 -0.0479 -0.7294  2.2156
 1935TIP3   OH2 5768   0.058   6.524   1.093 -0.3234 -0.2670 -0.3943
 1935TIP3    H1 5769   0.145   6.533   1.130  0.2138 -0.3889 -1.5845
 1935TIP3    H2 5770   0.057   6.435   1.057 -0.6284  0.0309 -1.1433
 1936TIP3   OH2 5771   5.593   6.144   2.994  0.0182  0.6132  0.1527
 1936TIP3    H1 5772   5.618   6.227   3.036 -1.8357  1.5922 -0.5928
 1936TIP3    H2 5773   5.526   6.108   3.051  0.7258 -0.3402  0.4020
 1937TIP3   OH2 5774   0.265   5.122   1.061 -0.3755  0.2297 -0.3927
 1937TIP3    H1 5775   0.252   5.203   1.012  0.1118  1.7173  1.8023
 1937TIP3    H2 5776   0.222   5.137   1.145  1.5120 -0.9791  0.8622
 1938TIP3   OH2 5777   3.051   4.759   2.952  0.4638  0.0950  0.2831
 1938TIP3    H1 5778   3.059   4.664   2.959  0.5597 -0.1624 -2.4108
 1938TIP3    H2 5779   2.985   4.782   3.018  0.2878 -1.8503  0.8487
 1939TIP3   OH2 5780   1.835   5.527   4.178 -0.3076  0.4162 -0.7968
 1939TIP3    H1 5781   1.800   5.572   4.102 -2.0429  2.9892  1.3577
 1939TIP3    H2 5782   1.928   5.552   4.179 -0.6171  1.6531 -1.2050
 1940TIP3   OH2 5783   6.732   0.287   5.603  0.5932 -0.3908 -0.2989
 1940TIP3    H1 5784   6.817   0.320   5.574  0.6533 -1.7982 -1.8931
 1940TIP3    H2 5785   6.674   0.363   5.599  1.8384  0.7019  1.2767
 1941TIP3   OH2 5786   5.686   4.122   0.318 -0.1618 -0.5704 -0.1521
 1941TIP3    H1 5787   5.625   4.130   0.244 -0.5110 -0.8976  0.0958
 1941TIP3    H2 5788   5.636   4.153   0.394  0.7063  1.3012 -0.2837
 1942TIP3   OH2 5789   2.951   4.069   4.207 -0.3115  0.0658  0.0635
 1942TIP3    H1 5790   2.957   4.003   4.276 -0.4703 -0.6524 -0.5961
 1942TIP3    H2 5791   2.878   4.124   4.234 -0.6492 -0.4650  0.2564
 1943TIP3   OH2 5792   1.548   1.849   3.148  0.3596  0.7030 -0.6927
 1943TIP3    H1 5793   1.548   1.849   3.052 -0.9605  0.0621 -0.7184
 1943TIP3    H2 5794   1.500   1.928   3.172 -0.1347  0.3744 -0.5862
 1944TIP3   OH2 5795   5.721   5.215   0.421  0.2617  0.6709 -0.5410
 1944TIP3    H1 5796   5.721   5.308   0.397  0.5704  0.8814  0.2194
 1944TIP3    H2 5797   5.723   5.168   0.337  0.5630  1.3570 -0.9282
 1945TIP3   OH2 5798   4.774   5.720   1.385  0.3316  0.1034  0.2148
 1945TIP3    H1 5799   4.769   5.808   1.346  1.2480  0.2774  0.4558
 1945TIP3    H2 5800   4.684   5.698   1.406 -0.2042  0.0365 -1.9281
 1946TIP3   OH2 5801   7.046   5.364   0.296 -0.1509 -0.3239  0.0840
 1946TIP3    H1 5802   7.096   5.429   0.245 -1.5820 -0.5303 -1.6945
 1946TIP3    H2 5803   6.956   5.396   0.292 -0.5911 -1.4639  0.7560
 1947TIP3   OH2 5804   0.450   5.059   5.836  0.1563  0.7271 -0.3569
 1947TIP3    H1 5805   0.487   5.102   5.914  1.1868  1.8100 -1.3998
 1947TIP3    H2 5806   0.414   5.130   5.784 -1.0727 -0.0520 -0.6199
 1948TIP3   OH2 5807   4.390   2.846   3.227 -0.1284  0.1876 -0.2316
 1948TIP3    H1 5808   4.301   2.844   3.192 -0.2065  0.3218 -0.0431
 1948TIP3    H2 5809   4.404   2.758   3.262 -0.3233  0.2697  0.0670
 1949TIP3   OH2 5810   6.312   5.148   4.829 -0.1412  0.1813  0.3191
 1949TIP3    H1 5811   6.243   5.209   4.856 -0.2278  1.4657 -2.5027
 1949TIP3    H2 5812   6.390   5.203   4.820  0.1097 -0.3644 -0.9663
 1950TIP3   OH2 5813   1.033   2.295   0.836 -0.4111  0.0649  0.5418
 1950TIP3    H1 5814   1.118   2.320   0.800 -1.0644  0.5018 -0.7679
 1950TIP3    H2 5815   1.048   2.208   0.874  1.1044  0.9903  2.2370
 1951TIP3   OH2 5816   1.935   2.024   1.325 -0.2274  0.2207 -0.3523
 1951TIP3    H1 5817   1.980   2.005   1.243  3.3644  1.7696  1.0515
 1951TIP3    H2 5818   1.882   2.101   1.306  1.1691  1.0400 -1.1002
 1952TIP3   OH2 5819   2.602   4.921   2.019  0.0885  0.3810  0.0436
 1952TIP3    H1 5820   2.635   4.936   1.930 -1.6321  2.7591 -0.2865
 1952TIP3    H2 5821   2.672   4.952   2.076  0.7951 -0.2265 -0.4651
 1953TIP3   OH2 5822   1.170   0.994   2.172 -0.3844  0.2218  0.4391
 1953TIP3    H1 5823   1.225   0.961   2.101  0.6977  0.7222  1.0151
 1953TIP3    H2 5824   1.215   0.966   2.252 -1.8993 -0.8704  0.9594
 1954TIP3   OH2 5825   1.709   0.361   3.733 -0.6736 -0.1350  0.0952
 1954TIP3    H1 5826   1.633   0.406   3.695 -0.3511  1.0647  0.8216
 1954TIP3    H2 5827   1.765   0.432   3.765  1.3069 -0.9434 -1.4002
 1955TIP3   OH2 5828   4.996   4.886   1.566  0.4534  0.0607  0.1317
 1955TIP3    H1 5829   5.013   4.888   1.660  1.0446  0.1057  0.0258
 1955TIP3    H2 5830   5.042   4.808   1.534 -0.6004 -0.5402  0.0365
 1956TIP3   OH2 5831   3.910   5.156   3.063  0.3798  0.1669 -0.2632
 1956TIP3    H1 5832   3.832   5.122   3.107  0.7585 -1.5276 -0.8315
 1956TIP3    H2 5833   3.982   5.107   3.101  1.1897  1.6080  0.1395
 1957TIP3   OH2 5834   3.430   1.489   2.138 -0.1601 -0.0716 -0.1253
 1957TIP3    H1 5835   3.482   1.563   2.168  0.3542 -0.2716 -0.5065
 1957TIP3    H2 5836   3.493   1.431   2.095 -0.0435 -1.9884  2.3650
 1958TIP3   OH2 5837   3.138   6.051   3.160  0.4014 -0.1648 -0.2059
 1958TIP3    H1 5838   3.216   6.075   3.110 -0.0621 -1.3922 -1.6106
 1958TIP3    H2 5839   3.073   6.030   3.093 -1.0836  0.6416  0.9404
 1959TIP3   OH2 5840   4.356   0.441   4.003 -0.0815  0.1801  0.7449
 1959TIP3    H1 5841   4.308   0.374   4.052  0.5824  1.3480  3.1412
 1959TIP3    H2 5842   4.338   0.523   4.051 -0.8505  1.7774 -2.0410
 1960TIP3   OH2 5843   1.880   5.091   2.513 -0.3667  0.2959 -0.5444
 1960TIP3    H1 5844   1.925   5.142   2.579 -1.2907 -1.9909  2.0467
 1960TIP3    H2 5845   1.787   5.101   2.535 -0.5725 -2.5119  0.2162
 1961TIP3   OH2 5846   5.510   6.405   0.866 -0.2543 -0.0531 -0.2680
 1961TIP3    H1 5847   5.519   6.386   0.772  1.5836  0.5491 -0.2645
 1961TIP3    H2 5848   5.559   6.335   0.909 -0.3754  0.1393  0.1845
 1962TIP3   OH2 5849   1.868   4.030   2.042  0.2351  0.3316 -0.1986
 1962TIP3    H1 5850   1.855   3.936   2.027 -0.9868 -0.1073  2.8305
 1962TIP3    H2 5851   1.961   4.039   2.061  0.5106 -0.0916 -1.2543
 1963TIP3   OH2 5852   0.692   5.594   0.617  0.3764  0.1452 -0.1173
 1963TIP3    H1 5853   0.725   5.572   0.704 -0.2351  0.6757  0.2587
 1963TIP3    H2 5854   0.667   5.509   0.580 -0.6543  0.0333  0.7699
 1964TIP3   OH2 5855   2.904   2.046   0.282 -0.0043 -0.4031  0.4507
 1964TIP3    H1 5856   2.915   1.964   0.232  0.5317  0.5828 -1.1296
 1964TIP3    H2 5857   2.819   2.080   0.253  0.0690 -0.0833  0.6118
 1965TIP3   OH2 5858   3.079   6.456   2.635 -0.4610  0.2111 -0.4077
 1965TIP3    H1 5859   3.022   6.432   2.562  0.1690 -1.2046 -0.4592
 1965TIP3    H2 5860   3.113   6.542   2.612 -0.1771 -0.2628 -1.8637
 1966TIP3   OH2 5861   7.139   2.397   2.895 -0.3031  0.3402 -0.2875
 1966TIP3    H1 5862   7.085   2.318   2.902 -0.8805  0.6695 -0.9009
 1966TIP3    H2 5863   7.097   2.459   2.954 -0.7756  0.6870 -0.9723
 1967TIP3   OH2 5864   2.561   5.705   5.091 -0.2203  0.1290 -0.4743
 1967TIP3    H1 5865   2.570   5.668   5.003 -0.6718  0.9335 -0.8678
 1967TIP3    H2 5866   2.592   5.795   5.082  0.1200  0.0907  0.2893
 1968TIP3   OH2 5867   6.435   5.903   1.376 -0.0273  0.1751  0.0775
 1968TIP3    H1 5868   6.465   5.992   1.360 -0.5308  0.5618  1.1587
 1968TIP3    H2 5869   6.507   5.847   1.347  0.6358  0.9683  0.1576
 1969TIP3   OH2 5870   4.073   3.466   4.381 -0.7240  0.4915  0.5219
 1969TIP3    H1 5871   4.008   3.522   4.339 -0.8906  0.9579  1.3844
 1969TIP3    H2 5872   4.023   3.416   4.445 -0.4074  0.0695  0.4401
 1970TIP3   OH2 5873   3.820   1.315  -0.014 -0.1871 -0.0431 -0.3257
 1970TIP3    H1 5874   3.814   1.410  -0.015 -0.2670 -0.0480 -0.5991
 1970TIP3    H2 5875   3.783   1.289   0.070  0.1761  0.1867 -0.0913
 1971TIP3   OH2 5876   6.678   6.216   3.891 -0.1326 -0.2528 -0.6279
 1971TIP3    H1 5877   6.686   6.121   3.905 -1.7824 -0.3628 -0.2823
 1971TIP3    H2 5878   6.697   6.254   3.977 -1.5677 -0.4142 -0.2183
 1972TIP3   OH2 5879   1.681   3.765   5.426  0.3230  0.4011 -0.3607
 1972TIP3    H1 5880   1.663   3.809   5.343 -0.2770 -0.7813 -0.8846
 1972TIP3    H2 5881   1.624   3.688   5.425 -0.3496  0.8166  1.5406
 1973TIP3   OH2 5882   6.818   5.269   3.346  0.1287  0.3127  0.2575
 1973TIP3    H1 5883   6.836   5.256   3.253  0.8509  2.4252  0.0660
 1973TIP3    H2 5884   6.726   5.297   3.348  0.0451  0.0504  0.2176
 1974TIP3   OH2 5885   4.728   5.010   0.251  0.2307 -0.0233 -0.9257
 1974TIP3    H1 5886   4.666   5.083   0.247  1.0992  0.6816 -2.2957
 1974TIP3    H2 5887   4.814   5.051   0.244  1.1360 -0.7225  3.3055
 1975TIP3   OH2 5888   3.459   2.318   4.498  0.3051  0.3727  0.0101
 1975TIP3    H1 5889   3.440   2.277   4.413  0.0494 -1.2587  0.8111
 1975TIP3    H2 5890   3.406   2.398   4.498 -0.4055 -0.0675 -0.9985
 1976TIP3   OH2 5891   1.658   5.808   1.395  0.1188 -0.2725  0.2869
 1976TIP3    H1 5892   1.623   5.724   1.424 -0.6794  0.3667  1.2319
 1976TIP3    H2 5893   1.745   5.812   1.434  0.8798 -1.4053 -1.2014
 1977TIP3   OH2 5894   6.134   3.892   5.287  0.1368 -0.1460 -0.7631
 1977TIP3    H1 5895   6.223   3.897   5.320 -0.3498  0.6885  0.5473
 1977TIP3    H2 5896   6.142   3.890   5.192  1.5219  0.6967 -0.6786
 1978TIP3   OH2 5897   0.872   3.852   4.579  0.3354 -0.4584 -0.2664
 1978TIP3    H1 5898   0.910   3.854   4.666  0.7994 -1.8198 -0.4212
 1978TIP3    H2 5899   0.845   3.943   4.563  1.1309  0.0072  0.8837
 1979TIP3   OH2 5900   6.897   4.394   1.180  0.0594 -0.0123  0.1715
 1979TIP3    H1 5901   6.847   4.463   1.225 -0.6855  0.0610 -0.7428
 1979TIP3    H2 5902   6.958   4.362   1.247 -1.8535 -0.7691  1.6546
 1980TIP3   OH2 5903   2.510   2.280   2.676  0.1946  0.1875  0.8000
 1980TIP3    H1 5904   2.573   2.322   2.618 -1.0261  1.4526  0.3568
 1980TIP3    H2 5905   2.564   2.243   2.747  1.6027 -0.4788 -0.5495
 1981TIP3   OH2 5906   2.051   5.132   1.540 -0.4685 -0.1587  0.4009
 1981TIP3    H1 5907   2.076   5.041   1.524 -0.1115  0.0574 -0.3151
 1981TIP3    H2 5908   2.002   5.157   1.462  0.7370  0.7184 -0.1116
 1982TIP3   OH2 5909   6.266   1.643   1.690  0.2037  0.0394  0.3344
 1982TIP3    H1 5910   6.191   1.589   1.713 -1.3908  0.7924 -2.5810
 1982TIP3    H2 5911   6.336   1.581   1.671 -0.7786 -0.8963 -0.3653
 1983TIP3   OH2 5912   2.521   2.572   4.615  0.0511  0.1327 -0.3487
 1983TIP3    H1 5913   2.481   2.540   4.534 -0.0769 -2.6950  0.7180
 1983TIP3    H2 5914   2.543   2.493   4.664  2.0335  1.7031  1.5074
 1984TIP3   OH2 5915   1.869   0.908   4.254 -0.2946  0.7546 -0.2275
 1984TIP3    H1 5916   1.857   0.997   4.221 -1.5182 -0.0020 -1.9976
 1984TIP3    H2 5917   1.782   0.868   4.248  0.9678 -1.9951 -4.0880
 1985TIP3   OH2 5918   4.520   2.422   0.308  0.3169 -0.1799  0.1733
 1985TIP3    H1 5919   4.509   2.363   0.383  2.6256 -0.0938  0.6531
 1985TIP3    H2 5920   4.457   2.493   0.324  1.1656  0.1553  2.3826
 1986TIP3   OH2 5921   4.115   3.801   1.898 -0.1101 -0.2110  0.3788
 1986TIP3    H1 5922   4.104   3.868   1.966  2.8294  2.6565 -1.6434
 1986TIP3    H2 5923   4.157   3.728   1.943 -1.1103  0.2816  2.2047
 1987TIP3   OH2 5924   4.017   1.851   1.032  0.1582 -0.0800 -0.4726
 1987TIP3    H1 5925   4.090   1.906   1.061 -1.2048  1.3986  0.2404
 1987TIP3    H2 5926   3.966   1.835   1.111 -0.2825 -1.1701 -0.9531
 1988TIP3   OH2 5927   2.677   0.276   1.365  0.2910 -0.4938 -0.6079
 1988TIP3    H1 5928   2.622   0.321   1.301 -0.8693  0.7542  1.1763
 1988TIP3    H2 5929   2.734   0.344   1.401  0.2854 -0.9472  0.3038
 1989TIP3   OH2 5930   0.449   6.586   3.349  0.5388  0.3530  0.1966
 1989TIP3    H1 5931   0.390   6.661   3.350  0.1268  0.0256  0.3704
 1989TIP3    H2 5932   0.406   6.520   3.403  1.5974  0.5165  1.2755
 1990TIP3   OH2 5933   2.643   4.704   1.335 -0.1059 -0.2418 -0.2847
 1990TIP3    H1 5934   2.680   4.789   1.359 -0.5931  0.0538 -0.5600
 1990TIP3    H2 5935   2.584   4.724   1.262 -1.3771 -0.5776  0.6151
 1991TIP3   OH2 5936   2.207   1.970   4.185 -0.7212  0.0928 -0.4430
 1991TIP3    H1 5937   2.230   2.028   4.257  0.6319  0.6218 -1.2675
 1991TIP3    H2 5938   2.221   1.882   4.219  1.2803  0.3697 -0.4747
 1992TIP3   OH2 5939   2.256   5.810   4.210 -0.1024  0.1691 -0.5970
 1992TIP3    H1 5940   2.241   5.872   4.139 -0.3473  0.4649 -0.2885
 1992TIP3    H2 5941   2.328   5.847   4.260  1.3638 -0.9867 -1.7712
 1993TIP3   OH2 5942   6.576   3.371   5.649 -0.4613 -0.4370  0.0832
 1993TIP3    H1 5943   6.500   3.429   5.659  0.4067  0.7471 -0.0915
 1993TIP3    H2 5944   6.539   3.283   5.658 -1.9004  0.1025 -0.2710
 1994TIP3   OH2 5945   0.934   5.666   2.393 -0.3800 -0.1264  0.0551
 1994TIP3    H1 5946   0.925   5.734   2.327 -1.1335 -1.0992 -0.8728
 1994TIP3    H2 5947   1.006   5.696   2.449  0.1956  0.7682 -1.1311
 1995TIP3   OH2 5948   3.250   6.744   1.108 -0.0179 -0.3323 -0.2957
 1995TIP3    H1 5949   3.289   6.657   1.108 -0.6001 -0.6229  0.9600
 1995TIP3    H2 5950   3.278   6.783   1.026  1.5834 -1.1108 -0.1564
 1996TIP3   OH2 5951   3.581   4.355   0.824  0.0726 -0.0080 -0.0102
 1996TIP3    H1 5952   3.575   4.421   0.755  0.1836 -1.0794 -1.0959
 1996TIP3    H2 5953   3.645   4.389   0.886 -1.5646  1.9485  0.6987
 1997TIP3   OH2 5954   6.938   5.190   0.075 -0.1873  0.0208 -0.0993
 1997TIP3    H1 5955   6.949   5.146   0.160 -1.3583  0.7507  0.4663
 1997TIP3    H2 5956   6.896   5.273   0.097 -1.9676 -0.4420 -1.5425
 1998TIP3   OH2 5957   1.019   2.613   4.744 -0.3305 -0.2128  0.2821
 1998TIP3    H1 5958   0.928   2.586   4.756  0.2452 -2.3683  0.2551
 1998TIP3    H2 5959   1.021   2.653   4.657 -1.3146  0.2339  0.4535
 1999TIP3   OH2 5960   2.126   3.814   2.667 -0.1049  0.2972 -0.3374
 1999TIP3    H1 5961   2.093   3.815   2.577  0.1765  0.7296 -0.4427
 1999TIP3    H2 5962   2.069   3.753   2.713 -0.4736  0.3387 -0.7273
 2000TIP3   OH2 5963   2.340   4.403   3.498 -0.1106  0.4192  0.2268
 2000TIP3    H1 5964   2.292   4.385   3.579 -0.5417 -0.1318 -0.1394
 2000TIP3    H2 5965   2.413   4.341   3.498  0.2456  0.8363  0.4858
 2001TIP3   OH2 5966   4.378   0.031   3.679 -0.1761  0.5334 -0.3911
 2001TIP3    H1 5967   4.458   0.073   3.647  0.7557 -0.3896  0.6325
 2001TIP3    H2 5968   4.336   0.098   3.733  2.7509 -0.4783  3.6235
 2002TIP3   OH2 5969   4.701   0.180   0.776 -0.0311 -0.3407 -0.3327
 2002TIP3    H1 5970   4.618   0.168   0.822  0.0321  1.0164  0.1687
 2002TIP3    H2 5971   4.713   0.098   0.728 -1.1809 -0.9330  0.3375
 2003TIP3   OH2 5972   3.753   2.623   5.269  0.7245 -0.0440  0.6096
 2003TIP3    H1 5973   3.714   2.550   5.316  0.6040 -0.9075 -0.7626
 2003TIP3    H2 5974   3.833   2.643   5.318 -0.2804  0.2762  2.1620
 2004TIP3   OH2 5975   4.887   3.424   4.538 -0.2777 -0.0522 -0.2930
 2004TIP3    H1 5976   4.911   3.508   4.498  0.1572 -0.2249 -0.4000
 2004TIP3    H2 5977   4.838   3.378   4.470  1.1424 -0.6753 -0.9413
 2005TIP3   OH2 5978   2.090   0.523   2.857 -0.0981 -0.4546 -0.1860
 2005TIP3    H1 5979   2.069   0.557   2.770  0.0373  0.8915  0.2770
 2005TIP3    H2 5980   2.133   0.596   2.902 -2.3375 -0.2118  1.8318
 2006TIP3   OH2 5981   4.837   1.603   4.864  0.2789 -1.0670 -1.0167
 2006TIP3    H1 5982   4.796   1.521   4.891  0.4626 -0.6091  0.7551
 2006TIP3    H2 5983   4.839   1.598   4.768 -2.7391 -1.6513 -1.1594
 2007TIP3   OH2 5984   1.097   4.429   2.330 -0.2842 -0.5379  0.1916
 2007TIP3    H1 5985   1.120   4.343   2.295 -1.6008 -1.2183  0.9148
 2007TIP3    H2 5986   1.025   4.460   2.274  1.2473  0.8681 -1.0956
 2008TIP3   OH2 5987   4.279   3.605   2.574  0.6314 -0.0886 -0.1785
 2008TIP3    H1 5988   4.252   3.696   2.585  0.6901 -0.2361  1.4803
 2008TIP3    H2 5989   4.292   3.595   2.480 -1.2266  1.0676 -0.6070
 2009TIP3   OH2 5990   6.117   5.203   5.601 -0.1885 -0.3697  0.2516
 2009TIP3    H1 5991   6.178   5.210   5.674 -0.5706  1.9085  0.4271
 2009TIP3    H2 5992   6.150   5.264   5.535 -2.1773  0.8840  0.3280
 2010TIP3   OH2 5993   4.865   4.408   0.493 -0.3354 -0.4365  0.0290
 2010TIP3    H1 5994   4.869   4.366   0.407 -1.5323 -0.8971  0.1826
 2010TIP3    H2 5995   4.911   4.491   0.481 -0.2753 -0.6020 -0.9928
 2011TIP3   OH2 5996   2.393   3.910   5.513  0.7682 -0.2209 -0.0735
 2011TIP3    H1 5997   2.452   3.983   5.532  1.9245 -1.1205 -0.1203
 2011TIP3    H2 5998   2.358   3.884   5.598 -0.5910  1.1217 -0.1732
 2012TIP3   OH2 5999   4.256   4.729   5.624  0.3813  0.3829 -0.3432
 2012TIP3    H1 6000   4.204   4.716   5.703  0.2600 -0.7481 -0.5899
 2012TIP3    H2 6001   4.344   4.699   5.648  0.4806  0.5777 -0.4633
 2013TIP3   OH2 6002   4.010   2.239   4.516 -0.3873 -0.0246 -0.3268
 2013TIP3    H1 6003   3.915   2.243   4.514 -0.5014 -1.7556 -0.2250
 2013TIP3    H2 6004   4.034   2.278   4.600 -1.1132 -0.7056  0.2184
 2014TIP3   OH2 6005   1.953   0.247   1.126  0.4586  0.1619  0.0147
 2014TIP3    H1 6006   1.978   0.330   1.168  1.6671 -0.5604  0.7657
 2014TIP3    H2 6007   1.881   0.214   1.180  1.2303 -0.1914  0.8494
 2015TIP3   OH2 6008   2.830   4.338   3.978  0.2925  0.6597 -0.2451
 2015TIP3    H1 6009   2.790   4.404   3.921 -0.8201  1.1578  1.0620
 2015TIP3    H2 6010   2.809   4.367   4.067  1.1252 -0.6316  0.4006
 2016TIP3   OH2 6011   4.614   3.949   5.879  0.2976 -0.2541 -0.5416
 2016TIP3    H1 6012   4.651   3.967   5.792  2.0240 -0.3533  0.1288
 2016TIP3    H2 6013   4.683   3.976   5.940 -0.7639 -0.4805  0.7973
 2017TIP3   OH2 6014   4.573   5.373   1.556  0.2956  0.0373 -0.0932
 2017TIP3    H1 6015   4.630   5.322   1.497  0.8116 -0.8138  1.0924
 2017TIP3    H2 6016   4.489   5.376   1.511 -0.1755 -3.0817  0.3274
 2018TIP3   OH2 6017   6.178   3.184   3.346 -0.5545 -0.1242 -0.3469
 2018TIP3    H1 6018   6.107   3.220   3.400 -0.7125  0.0245 -0.6519
 2018TIP3    H2 6019   6.159   3.215   3.258 -0.3581 -0.4626 -0.5093
 2019TIP3   OH2 6020   1.677   5.257   0.420 -0.6837 -0.1095 -0.1397
 2019TIP3    H1 6021   1.749   5.212   0.465  0.2970 -0.0588 -1.5947
 2019TIP3    H2 6022   1.701   5.349   0.423  0.3039 -0.2509 -2.2415
 2020TIP3   OH2 6023   6.168   1.341   2.822 -0.1067  0.4770 -0.1478
 2020TIP3    H1 6024   6.158   1.248   2.802 -0.7847  0.7544 -1.1534
 2020TIP3    H2 6025   6.173   1.384   2.737  0.4606  1.3470  0.3026
 2021TIP3   OH2 6026   3.400   2.236   0.430 -0.0513 -0.4152 -0.2931
 2021TIP3    H1 6027   3.432   2.155   0.391  0.2927  0.9688 -3.1422
 2021TIP3    H2 6028   3.305   2.234   0.414  0.0455  0.0008 -0.9765
 2022TIP3   OH2 6029   3.135   4.240   2.145  0.1404 -0.2332  0.6866
 2022TIP3    H1 6030   3.044   4.257   2.170 -0.4219 -0.5606 -1.0133
 2022TIP3    H2 6031   3.137   4.146   2.125  0.5790 -0.0226 -0.3054
 2023TIP3   OH2 6032   3.548   0.319   1.876 -0.0159 -0.0258 -0.4400
 2023TIP3    H1 6033   3.586   0.232   1.885 -1.3787 -0.6487 -0.4439
 2023TIP3    H2 6034   3.579   0.350   1.790  1.6020  0.0953  0.1599
 2024TIP3   OH2 6035   6.114   2.705   0.108 -0.0978  0.1539 -0.4008
 2024TIP3    H1 6036   6.024   2.683   0.134  0.3378 -1.2419 -0.0058
 2024TIP3    H2 6037   6.128   2.659   0.026  0.1657  0.6269 -0.6288
 2025TIP3   OH2 6038   6.811   2.681   4.654 -0.2909 -0.3381 -0.2630
 2025TIP3    H1 6039   6.749   2.610   4.641 -1.2808  0.4758 -0.1048
 2025TIP3    H2 6040   6.823   2.684   4.749  0.7857 -1.1367 -0.3544
 2026TIP3   OH2 6041   4.239   1.129   3.052 -0.2438  0.2774 -0.8185
 2026TIP3    H1 6042   4.250   1.124   2.957 -1.8292  0.1593 -1.0244
 2026TIP3    H2 6043   4.187   1.052   3.074 -0.4230  0.6388  0.0483
 2027TIP3   OH2 6044   1.411   4.621   0.679 -0.7555 -0.0375 -0.3523
 2027TIP3    H1 6045   1.407   4.714   0.702 -1.4759 -0.6636  2.5113
 2027TIP3    H2 6046   1.319   4.593   0.679 -0.5764 -0.6682 -1.6892
 2028TIP3   OH2 6047   6.834   2.337   1.488 -0.6518  0.3646 -0.1959
 2028TIP3    H1 6048   6.885   2.276   1.435 -0.5220  0.1603  0.1550
 2028TIP3    H2 6049   6.770   2.374   1.428 -0.6060  0.0240 -0.4588
 2029TIP3   OH2 6050   2.885   2.679   2.849  0.1398 -0.0975  0.1767
 2029TIP3    H1 6051   2.831   2.663   2.926 -1.9211 -0.6541 -1.2852
 2029TIP3    H2 6052   2.834   2.741   2.797 -0.6828 -2.9055 -2.6881
 2030TIP3   OH2 6053   1.196   2.383   1.401  0.2206  0.2605 -0.4066
 2030TIP3    H1 6054   1.130   2.440   1.440  0.3875  0.6393 -0.6701
 2030TIP3    H2 6055   1.155   2.352   1.320 -1.2292 -2.6758  1.2556
 2031TIP3   OH2 6056   4.013   5.490   1.686  0.4785 -0.4149 -0.4188
 2031TIP3    H1 6057   4.023   5.417   1.747  0.0316 -0.2374 -0.1299
 2031TIP3    H2 6058   3.941   5.464   1.628  0.4644 -0.2968 -0.4555
 2032TIP3   OH2 6059   2.449   5.309   3.727  0.3645 -0.3177  0.0534
 2032TIP3    H1 6060   2.485   5.397   3.720 -0.5412  0.1498  1.0788
 2032TIP3    H2 6061   2.431   5.297   3.820 -2.1704 -0.5037 -0.4062
 2033TIP3   OH2 6062   4.895   3.154   3.540  0.1754  0.8294 -0.8034
 2033TIP3    H1 6063   4.833   3.139   3.612 -0.5500  2.0189 -1.1545
 2033TIP3    H2 6064   4.924   3.245   3.552  1.3879  0.4884 -1.0163
 2034TIP3   OH2 6065   4.208   0.698   5.630 -0.5580  0.3154 -0.4115
 2034TIP3    H1 6066   4.290   0.649   5.630 -0.5762  0.2849 -0.1119
 2034TIP3    H2 6067   4.228   0.779   5.676 -0.6936  0.3103 -0.3421
 2035TIP3   OH2 6068   4.060   4.465   0.964  0.3615 -0.3827  0.0955
 2035TIP3    H1 6069   3.970   4.436   0.949  0.6592 -1.2515 -0.0846
 2035TIP3    H2 6070   4.108   4.384   0.983  0.8196  0.2161  1.6610
 2036TIP3   OH2 6071   4.596   0.635   2.942  0.4531 -0.6148  0.4843
 2036TIP3    H1 6072   4.500   0.629   2.946  0.4631 -0.2187  2.4549
 2036TIP3    H2 6073   4.625   0.601   3.027  1.9976  0.2395  0.3229
 2037TIP3   OH2 6074   1.674   6.169   2.503  0.2329 -0.1339  0.2978
 2037TIP3    H1 6075   1.751   6.204   2.547 -0.8572  1.1359  1.3085
 2037TIP3    H2 6076   1.693   6.178   2.409  0.2521  2.8058  0.4969
 2038TIP3   OH2 6077   1.220   5.014   3.704  0.1111 -0.0963  0.1589
 2038TIP3    H1 6078   1.137   5.049   3.671 -0.2507 -0.8120  0.2737
 2038TIP3    H2 6079   1.217   4.921   3.680  1.2734  0.0452 -0.5981
 2039TIP3   OH2 6080   5.023   2.020   0.669 -0.2373  0.4250 -0.0125
 2039TIP3    H1 6081   5.064   2.079   0.733 -0.4845  0.2063  0.3518
 2039TIP3    H2 6082   5.094   1.963   0.640 -0.4393 -0.4573  1.1916
 2040TIP3   OH2 6083   5.811   1.459   0.633 -0.4099 -0.0953  0.0465
 2040TIP3    H1 6084   5.866   1.529   0.598 -0.2699 -0.0338  0.3875
 2040TIP3    H2 6085   5.871   1.386   0.647 -0.1738  0.3477  1.5279
 2041TIP3   OH2 6086   4.111   0.662   5.299  0.3081  0.2325 -0.0502
 2041TIP3    H1 6087   4.144   0.578   5.331  0.8679  1.3551  2.5308
 2041TIP3    H2 6088   4.151   0.671   5.212 -0.4768 -2.5130 -0.7773
 2042TIP3   OH2 6089   4.677  -0.011   0.117  0.0106  0.2266 -0.5278
 2042TIP3    H1 6090   4.657   0.007   0.209  1.9194  0.8210 -0.1671
 2042TIP3    H2 6091   4.716   0.071   0.085  0.6359 -0.4142 -1.4650
 2043TIP3   OH2 6092   1.880   3.741   2.554  0.4164  0.4340 -0.1194
 2043TIP3    H1 6093   1.845   3.783   2.475  1.6285  0.5609 -0.6122
 2043TIP3    H2 6094   1.878   3.648   2.534 -1.4644  0.2885  0.6344
 2044TIP3   OH2 6095   3.370   1.081   1.732 -0.2948 -0.1776  0.0630
 2044TIP3    H1 6096   3.316   1.011   1.770  0.8942 -0.7644  0.7216
 2044TIP3    H2 6097   3.307   1.146   1.703 -1.3242 -0.0615  2.3354
 2045TIP3   OH2 6098   2.893   2.855   2.610  0.6545  0.1172 -0.5296
 2045TIP3    H1 6099   2.854   2.934   2.572 -1.4182 -0.6122 -0.0464
 2045TIP3    H2 6100   2.832   2.785   2.589  0.9403 -0.8383  1.5443
 2046TIP3   OH2 6101   5.527   4.706   3.488 -0.5564  0.1565 -0.0841
 2046TIP3    H1 6102   5.448   4.654   3.476  0.4319 -1.6033  0.6576
 2046TIP3    H2 6103   5.505   4.769   3.556 -1.7956  0.8130 -1.0488
 2047TIP3   OH2 6104   1.254   2.716   2.508  0.2045  0.1230 -0.6609
 2047TIP3    H1 6105   1.203   2.685   2.583 -1.5634  2.1829 -0.9210
 2047TIP3    H2 6106   1.231   2.657   2.437 -0.1998 -0.2115 -0.2584
 2048TIP3   OH2 6107   0.287   4.111   0.309  0.0903  0.4741 -0.3305
 2048TIP3    H1 6108   0.199   4.138   0.335  0.0514  0.5655 -0.5491
 2048TIP3    H2 6109   0.285   4.117   0.213 -0.6251 -2.4295 -0.5791
 2049TIP3   OH2 6110   5.614   0.087   5.295  0.8103  0.5978  0.0751
 2049TIP3    H1 6111   5.636   0.009   5.245  1.4748 -0.6407  2.1841
 2049TIP3    H2 6112   5.663   0.157   5.252  2.0930 -0.5847 -0.4699
 2050TIP3   OH2 6113   2.972   2.504   5.392 -0.6749 -0.0799  1.1901
 2050TIP3    H1 6114   2.883   2.535   5.406 -1.8707 -2.9488  0.5348
 2050TIP3    H2 6115   3.023   2.584   5.378 -3.5769  1.5864 -0.8748
 2051TIP3   OH2 6116   0.605   5.704   1.231 -0.2457  0.2971 -0.7938
 2051TIP3    H1 6117   0.553   5.651   1.292 -0.5831  0.4717 -0.9225
 2051TIP3    H2 6118   0.661   5.640   1.187  0.2168  0.2119 -0.0931
 2052TIP3   OH2 6119   5.279   2.522   0.493 -0.1897  0.2286  0.1979
 2052TIP3    H1 6120   5.365   2.481   0.508 -0.3978 -0.0071  0.7610
 2052TIP3    H2 6121   5.296   2.589   0.427  0.4341  0.1911  0.3119
 2053TIP3   OH2 6122   0.873   3.920   0.332  0.9460 -0.3324  0.1477
 2053TIP3    H1 6123   0.967   3.903   0.341  1.2185  0.5406 -0.8947
 2053TIP3    H2 6124   0.863   3.954   0.243 -0.1603  0.8087  0.6734
 2054TIP3   OH2 6125   0.781   2.280   1.510 -0.0963 -0.0721  0.0901
 2054TIP3    H1 6126   0.737   2.195   1.512  2.4209 -1.5304 -1.0371
 2054TIP3    H2 6127   0.842   2.278   1.584 -0.2305  0.9071  0.2450
 2055TIP3   OH2 6128   6.253   4.407   1.940 -0.0796  0.6353 -0.2655
 2055TIP3    H1 6129   6.205   4.358   2.007  1.5073 -0.9076 -0.1999
 2055TIP3    H2 6130   6.193   4.477   1.915 -1.8852 -0.5023  0.6437
 2056TIP3   OH2 6131   7.025   4.649   0.814  0.8149  0.6490 -0.2930
 2056TIP3    H1 6132   6.993   4.591   0.745  1.4072 -0.2093  0.1259
 2056TIP3    H2 6133   7.035   4.592   0.890  1.3482  1.3150  0.1496
 2057TIP3   OH2 6134   5.163   0.534   4.700 -0.0570 -0.0499  0.3972
 2057TIP3    H1 6135   5.153   0.443   4.728  1.7740 -0.1331  0.8828
 2057TIP3    H2 6136   5.167   0.584   4.782  1.0935  0.1971  0.2122
 2058TIP3   OH2 6137   4.269   5.605   0.058 -0.5489  0.1317  0.0695
 2058TIP3    H1 6138   4.262   5.615  -0.037 -1.0619  0.8300  0.1709
 2058TIP3    H2 6139   4.362   5.609   0.076 -0.5043  1.0419 -0.3038
 2059TIP3   OH2 6140   3.789   0.990   2.318 -0.9030 -0.3474  0.5747
 2059TIP3    H1 6141   3.802   1.028   2.231 -0.7178  3.5169  2.0896
 2059TIP3    H2 6142   3.732   1.052   2.363  0.5987 -1.1214  3.8434
 2060TIP3   OH2 6143   2.810   3.608   3.621 -0.0955  1.0753 -0.6772
 2060TIP3    H1 6144   2.838   3.656   3.698  0.9446 -0.2905 -0.1632
 2060TIP3    H2 6145   2.864   3.643   3.550  1.3857  0.0174 -0.1164
 2061TIP3   OH2 6146   2.325   2.807   0.553  0.0901 -0.1523 -0.3001
 2061TIP3    H1 6147   2.367   2.767   0.629  0.5711  0.8433 -0.0333
 2061TIP3    H2 6148   2.386   2.789   0.481 -0.8263 -1.9556 -0.6924
 2062TIP3   OH2 6149   4.409   5.951   5.089 -0.1239 -0.3380 -0.3989
 2062TIP3    H1 6150   4.324   5.940   5.132  0.0730 -2.0366 -0.3716
 2062TIP3    H2 6151   4.394   5.925   4.998  0.2428 -0.1184 -0.5234
 2063TIP3   OH2 6152   0.706   5.267   2.056  0.4409 -0.3432 -0.3926
 2063TIP3    H1 6153   0.718   5.336   2.120  0.4481 -0.3993 -0.3340
 2063TIP3    H2 6154   0.712   5.186   2.106  0.3364 -0.3837 -0.4450
 2064TIP3   OH2 6155   3.412   5.167   4.137  0.0624 -0.0261 -0.3259
 2064TIP3    H1 6156   3.380   5.188   4.049  1.3338  0.2769 -0.7232
 2064TIP3    H2 6157   3.475   5.236   4.157 -1.0834  0.6049  1.3329
 2065TIP3   OH2 6158   2.504   2.967   4.241  0.1766 -0.2801  0.2542
 2065TIP3    H1 6159   2.436   2.987   4.306 -0.7154 -1.1700 -0.3675
 2065TIP3    H2 6160   2.460   2.980   4.157  0.9708 -0.2843 -0.1711
 2066TIP3   OH2 6161   6.696   4.981   5.174 -0.2667  0.2399  0.2602
 2066TIP3    H1 6162   6.705   4.895   5.133 -2.1629 -0.5440  1.3749
 2066TIP3    H2 6163   6.734   4.971   5.261 -3.8924 -0.7468  1.9162
 2067TIP3   OH2 6164   0.365   4.454   0.284 -0.1193  0.6625 -0.5125
 2067TIP3    H1 6165   0.419   4.456   0.363 -0.4607 -0.8142 -0.2209
 2067TIP3    H2 6166   0.396   4.378   0.235 -3.1467 -1.5242  0.6106
 2068TIP3   OH2 6167   2.179   6.081   0.759 -0.0192 -0.3823 -0.3867
 2068TIP3    H1 6168   2.177   6.012   0.825 -0.7367 -0.6197 -0.6485
 2068TIP3    H2 6169   2.100   6.067   0.707 -0.0017  0.4319 -0.6477
 2069TIP3   OH2 6170   3.441   4.446   2.838  0.8581  0.0587 -0.4061
 2069TIP3    H1 6171   3.385   4.372   2.860 -0.2342  1.0785  0.3725
 2069TIP3    H2 6172   3.384   4.506   2.790  0.8194  1.7588  1.6267
 2070TIP3   OH2 6173   0.345   3.276   2.878  0.1170  0.1500  0.2602
 2070TIP3    H1 6174   0.382   3.332   2.947  0.4022 -1.2170  1.2571
 2070TIP3    H2 6175   0.275   3.329   2.840  0.2441  1.1169  1.2884
 2071TIP3   OH2 6176   2.776   6.383   5.746  0.3515 -0.2717  0.2466
 2071TIP3    H1 6177   2.710   6.450   5.730 -0.8723 -1.0855  1.6930
 2071TIP3    H2 6178   2.754   6.313   5.683  1.4484  0.5026 -1.0556
 2072TIP3   OH2 6179   0.869   0.797   1.557  0.2548  0.1439  0.6788
 2072TIP3    H1 6180   0.782   0.767   1.531  0.9847 -1.3745 -0.1988
 2072TIP3    H2 6181   0.861   0.892   1.565 -1.0199  0.2649 -1.2990
 2073TIP3   OH2 6182   0.083   6.578   5.602  0.2669  0.4737  0.6744
 2073TIP3    H1 6183   0.026   6.537   5.667 -0.2860  0.8853  0.4504
 2073TIP3    H2 6184   0.090   6.669   5.630  0.0372  0.6474  0.1611
 2074TIP3   OH2 6185   5.428   3.609   2.131 -0.3713  0.0166  0.3646
 2074TIP3    H1 6186   5.389   3.696   2.135  0.1568  0.3640 -1.1676
 2074TIP3    H2 6187   5.353   3.549   2.137 -0.7250  0.5464  1.5563
 2075TIP3   OH2 6188   3.305   4.887   4.680 -0.0166 -0.0725  0.0838
 2075TIP3    H1 6189   3.390   4.846   4.670 -0.1201 -0.1121 -0.7135
 2075TIP3    H2 6190   3.287   4.927   4.594 -0.7506  0.0153  0.2665
 2076TIP3   OH2 6191   1.433   1.066   4.302  0.6143 -0.2405 -0.4169
 2076TIP3    H1 6192   1.394   1.089   4.217  1.0111 -0.0386 -0.5465
 2076TIP3    H2 6193   1.415   1.141   4.358  0.2490 -0.4230 -0.2825
 2077TIP3   OH2 6194   1.886   5.873   3.289 -0.2861  0.0684  0.3024
 2077TIP3    H1 6195   1.952   5.883   3.357 -1.0308 -0.1006  1.0627
 2077TIP3    H2 6196   1.834   5.954   3.293 -0.2099  0.1443 -0.1958
 2078TIP3   OH2 6197   3.770   5.129   4.790 -0.1173 -0.3747  0.2269
 2078TIP3    H1 6198   3.715   5.090   4.858 -1.6851 -0.4830 -1.0441
 2078TIP3    H2 6199   3.827   5.190   4.837 -0.5354 -1.1035  1.7299
 2079TIP3   OH2 6200   1.297   6.602   4.490  0.1735  0.3339  0.0568
 2079TIP3    H1 6201   1.304   6.691   4.454  0.9313 -0.1789 -1.1269
 2079TIP3    H2 6202   1.378   6.559   4.463 -0.4270 -0.8932  0.1590
 2080TIP3   OH2 6203   1.467   5.493   0.495  0.0122 -0.3122 -0.0983
 2080TIP3    H1 6204   1.450   5.527   0.583  0.1515 -0.5971  0.0407
 2080TIP3    H2 6205   1.442   5.564   0.436 -1.5693 -0.6764  0.0938
 2081TIP3   OH2 6206   4.915   1.305   4.017 -0.4323 -0.0844  0.6962
 2081TIP3    H1 6207   4.889   1.227   3.967 -1.4635  0.6554  0.0406
 2081TIP3    H2 6208   5.010   1.297   4.026 -0.1512 -0.1189 -1.6273
 2082TIP3   OH2 6209   3.750   5.299   0.882 -0.5679 -0.4341 -0.0277
 2082TIP3    H1 6210   3.672   5.257   0.847  0.3669 -0.5385 -2.1369
 2082TIP3    H2 6211   3.813   5.228   0.892 -0.3177 -0.1569  0.3807
 2083TIP3   OH2 6212   3.430   0.718   3.096  0.0030  0.0143  0.0051
 2083TIP3    H1 6213   3.363   0.650   3.093 -0.6175  0.6109  0.1227
 2083TIP3    H2 6214   3.497   0.688   3.035  1.3085 -2.3208  2.3860
 2084TIP3   OH2 6215   6.406   1.547   2.069 -0.2693 -0.1517  0.5931
 2084TIP3    H1 6216   6.444   1.567   2.154 -0.9402 -0.2880  0.9302
 2084TIP3    H2 6217   6.480   1.519   2.016  0.4233  1.5313  0.6166
 2085TIP3   OH2 6218   4.358   1.666   4.185 -0.0231 -0.5257  0.1920
 2085TIP3    H1 6219   4.299   1.606   4.231 -0.9314  0.7741  0.7924
 2085TIP3    H2 6220   4.402   1.611   4.120 -1.4423 -1.6815  0.1437
 2086TIP3   OH2 6221   4.454   2.000   1.642  0.8929 -0.0882  0.4511
 2086TIP3    H1 6222   4.380   1.955   1.602  0.8887 -0.0942  0.4651
 2086TIP3    H2 6223   4.418   2.039   1.722  1.1864 -1.1928  1.1546
 2087TIP3   OH2 6224   0.805   2.399   4.421 -0.7068 -0.2271 -0.0193
 2087TIP3    H1 6225   0.711   2.387   4.408 -0.7340 -0.3632  0.3190
 2087TIP3    H2 6226   0.830   2.335   4.487 -0.7161  1.0202  1.2401
 2088TIP3   OH2 6227   1.138   4.588   5.765  0.2010  0.0871 -0.4223
 2088TIP3    H1 6228   1.223   4.552   5.740 -0.0078  0.3341 -1.5573
 2088TIP3    H2 6229   1.100   4.521   5.823  0.6991 -0.5368 -0.7998
 2089TIP3   OH2 6230   4.493   5.791   4.847 -0.4752 -0.6450 -0.4903
 2089TIP3    H1 6231   4.565   5.782   4.786  0.2526 -0.6643  0.3457
 2089TIP3    H2 6232   4.521   5.741   4.925 -0.2586  1.3839  0.8109
 2090TIP3   OH2 6233   0.611   4.804   1.060 -0.1305  0.3192 -0.4350
 2090TIP3    H1 6234   0.695   4.774   1.094 -0.1203  1.6001  0.7319
 2090TIP3    H2 6235   0.634   4.865   0.990 -0.1335 -0.7283 -1.3774
 2091TIP3   OH2 6236   4.054   1.198   0.967  0.0232 -0.0763 -0.5424
 2091TIP3    H1 6237   4.109   1.208   0.889 -0.4733  0.7516 -0.7972
 2091TIP3    H2 6238   4.073   1.109   0.998 -0.6527 -0.8817 -2.3039
 2092TIP3   OH2 6239   6.782   0.782   3.922  0.3987  0.2335  0.0129
 2092TIP3    H1 6240   6.876   0.765   3.922  0.3655  0.0303  0.2566
 2092TIP3    H2 6241   6.747   0.719   3.986  0.2681  1.2436  0.9661
 2093TIP3   OH2 6242   1.448   2.566   1.164  0.2333 -0.3535  0.4263
 2093TIP3    H1 6243   1.424   2.611   1.083 -0.1435  0.2655  0.8691
 2093TIP3    H2 6244   1.417   2.476   1.152  3.0281 -1.1660 -1.3964
 2094TIP3   OH2 6245   0.084   4.153   0.503 -0.3339 -0.2439 -0.2690
 2094TIP3    H1 6246   0.164   4.178   0.549 -1.1255  0.7760  0.6175
 2094TIP3    H2 6247   0.046   4.083   0.556 -1.3547  1.0753  0.8058
 2095TIP3   OH2 6248   0.504   1.743   5.262  0.5264  0.8158  0.2826
 2095TIP3    H1 6249   0.544   1.657   5.254  0.2680  0.7276 -0.0935
 2095TIP3    H2 6250   0.496   1.758   5.356  0.7205  0.5007  0.3505
 2096TIP3   OH2 6251   2.103   0.040   3.851  0.6140 -0.1393 -0.1420
 2096TIP3    H1 6252   2.123   0.019   3.942  1.5087 -0.4758 -0.4021
 2096TIP3    H2 6253   2.026  -0.013   3.830  1.1257 -0.9770  0.0653
 2097TIP3   OH2 6254   2.692   1.702   0.173 -0.1313  0.0944 -0.0240
 2097TIP3    H1 6255   2.784   1.716   0.196 -0.4586  1.3387  0.6093
 2097TIP3    H2 6256   2.695   1.669   0.083  0.8411  2.9432 -1.1559
 2098TIP3   OH2 6257   0.973   4.332   1.409  0.1824 -1.1789 -0.3016
 2098TIP3    H1 6258   1.043   4.307   1.468 -0.6262 -2.1732  0.2642
 2098TIP3    H2 6259   1.014   4.394   1.348  1.9601 -2.9043 -0.9792
 2099TIP3   OH2 6260   6.797   4.458   3.784 -0.2733  0.0546 -0.0303
 2099TIP3    H1 6261   6.710   4.473   3.821 -0.7263  1.3408 -1.4849
 2099TIP3    H2 6262   6.780   4.426   3.695  0.6393  2.2812 -1.0933
 2100TIP3   OH2 6263   5.748   5.412   3.516  0.4157  0.3942 -0.1350
 2100TIP3    H1 6264   5.678   5.461   3.559 -0.8334 -1.1028 -0.3851
 2100TIP3    H2 6265   5.801   5.479   3.473  0.0117  1.6778  1.2857
 2101TIP3   OH2 6266   0.776   2.368   0.811 -0.1831  0.2680 -0.2859
 2101TIP3    H1 6267   0.757   2.367   0.717 -0.9711  0.1648 -0.1337
 2101TIP3    H2 6268   0.869   2.347   0.817  0.4303  2.4249 -1.1645
 2102TIP3   OH2 6269   2.414   3.879   4.756  0.1586 -0.2310  0.0825
 2102TIP3    H1 6270   2.506   3.888   4.781 -0.4979  0.2561  2.6660
 2102TIP3    H2 6271   2.398   3.785   4.757  0.7926 -0.3693 -1.1789
 2103TIP3   OH2 6272   4.603   1.464   1.168  0.7404 -0.0280  0.5654
 2103TIP3    H1 6273   4.629   1.427   1.084  0.6557  0.8821  0.1292
 2103TIP3    H2 6274   4.566   1.390   1.216 -1.8410 -0.0511 -1.2373
 2104TIP3   OH2 6275   3.806   2.759   0.558 -0.0039  0.0882  0.0886
 2104TIP3    H1 6276   3.742   2.693   0.585  0.4265 -0.8084 -1.0185
 2104TIP3    H2 6277   3.868   2.711   0.503  1.8451  0.8531  1.4038
 2105TIP3   OH2 6278   6.453   0.429   1.427 -0.0488 -0.2862  0.1200
 2105TIP3    H1 6279   6.385   0.397   1.369 -0.5219  2.5272 -1.0468
 2105TIP3    H2 6280   6.483   0.511   1.387  0.8739  0.8938  2.8970
 2106TIP3   OH2 6281   1.647   0.655   0.771  0.2303 -0.3927 -0.5387
 2106TIP3    H1 6282   1.657   0.596   0.846  0.9869 -0.0829 -0.3872
 2106TIP3    H2 6283   1.560   0.693   0.781  0.8093  0.6268  0.9001
 2107TIP3   OH2 6284   5.538   6.518   0.149  0.0650  0.1235 -0.2917
 2107TIP3    H1 6285   5.455   6.499   0.106 -0.6403 -0.6178  1.2991
 2107TIP3    H2 6286   5.592   6.441   0.130  0.1585  0.3026 -0.7667
 2108TIP3   OH2 6287   1.402   2.573   2.774 -0.2431 -0.1336 -0.1601
 2108TIP3    H1 6288   1.369   2.662   2.773  0.1517  0.0690  1.7268
 2108TIP3    H2 6289   1.335   2.522   2.728 -0.7416  1.0117 -0.7614
 2109TIP3   OH2 6290   2.190   6.124   2.521 -0.7486  0.0168 -0.2208
 2109TIP3    H1 6291   2.143   6.185   2.464 -0.2876  1.3474  0.7533
 2109TIP3    H2 6292   2.271   6.105   2.475 -0.1240  1.5261  0.1747
 2110TIP3   OH2 6293   1.370   5.638   1.604 -0.0234 -0.0346 -0.6836
 2110TIP3    H1 6294   1.411   5.605   1.524  0.4376 -0.4245 -0.2966
 2110TIP3    H2 6295   1.368   5.733   1.593  1.0569  0.0015 -0.6867
 2111TIP3   OH2 6296   5.731   1.153   4.802 -0.0006 -0.1059 -0.0467
 2111TIP3    H1 6297   5.691   1.237   4.823  0.7517  0.2426  0.0247
 2111TIP3    H2 6298   5.810   1.150   4.856 -1.5996 -2.2638  2.3857
 2112TIP3   OH2 6299   1.746   2.170   2.036  0.4613  0.0258 -0.0625
 2112TIP3    H1 6300   1.768   2.118   1.959 -3.1391  0.6270 -1.6841
 2112TIP3    H2 6301   1.750   2.261   2.005 -2.0863  0.2350  0.0245
 2113TIP3   OH2 6302   0.803   6.067   1.379  0.1213  0.0792  0.6472
 2113TIP3    H1 6303   0.723   6.017   1.367  0.4159 -0.3320  0.3813
 2113TIP3    H2 6304   0.826   6.055   1.471  0.5694 -0.8511  0.4218
 2114TIP3   OH2 6305   5.395   5.155   0.060 -0.0108  0.2388  0.7880
 2114TIP3    H1 6306   5.325   5.118   0.007 -0.4137 -1.1249  2.1713
 2114TIP3    H2 6307   5.427   5.081   0.113  1.9808  0.9838  0.7305
 2115TIP3   OH2 6308   6.961   3.422   4.307  0.0637  0.2098 -0.4108
 2115TIP3    H1 6309   6.968   3.359   4.235 -0.1604  1.3804 -1.4841
 2115TIP3    H2 6310   6.923   3.371   4.378 -0.4252 -0.8012 -1.3541
 2116TIP3   OH2 6311   1.859   4.105   2.348  0.0621  0.3411  0.1406
 2116TIP3    H1 6312   1.825   4.194   2.359 -0.5056 -0.0753  2.2310
 2116TIP3    H2 6313   1.783   4.049   2.363  1.0159 -0.5437  1.9795
 2117TIP3   OH2 6314   0.633   4.712   0.471  0.6088  0.0968  0.0619
 2117TIP3    H1 6315   0.654   4.683   0.559  0.6823  1.4597  0.5133
 2117TIP3    H2 6316   0.541   4.736   0.474  0.8922  1.2624  0.1065
 2118TIP3   OH2 6317   4.793   5.015   4.681 -0.4894  0.3106  0.1771
 2118TIP3    H1 6318   4.862   5.041   4.619  1.8968 -0.1527  2.4216
 2118TIP3    H2 6319   4.757   4.934   4.644  1.2243 -0.2448 -0.4058
 2119TIP3   OH2 6320   5.023   2.267   3.373  0.1204 -0.0314 -0.0895
 2119TIP3    H1 6321   5.043   2.181   3.335 -0.0696  0.2641 -0.8776
 2119TIP3    H2 6322   5.104   2.294   3.415  0.8890  0.3850 -1.7667
 2120TIP3   OH2 6323   6.291   5.745   1.988 -0.2785  0.1555  0.0177
 2120TIP3    H1 6324   6.291   5.826   2.039 -0.7225  1.2653 -1.6542
 2120TIP3    H2 6325   6.323   5.678   2.048 -1.4620  1.2362  1.9613
 2121TIP3   OH2 6326   4.777   4.600   2.891  0.1202  0.6701  0.2946
 2121TIP3    H1 6327   4.820   4.552   2.820  1.4017  1.3838  0.5573
 2121TIP3    H2 6328   4.687   4.567   2.892  0.8058 -1.3231  0.1185
 2122TIP3   OH2 6329   4.677   0.316   5.116  0.2505 -0.0629  0.4074
 2122TIP3    H1 6330   4.601   0.275   5.076  0.2537 -0.2112  0.5549
 2122TIP3    H2 6331   4.750   0.258   5.094  0.2253 -0.2351  0.7735
 2123TIP3   OH2 6332   2.398   5.150   2.027 -0.1671  0.5136 -0.0673
 2123TIP3    H1 6333   2.462   5.079   2.024 -1.7083 -0.9617  0.1767
 2123TIP3    H2 6334   2.427   5.212   1.960  1.0420 -0.4986 -0.5155
 2124TIP3   OH2 6335   1.993   2.468   3.668 -0.0422 -0.5618  0.0190
 2124TIP3    H1 6336   2.036   2.554   3.675 -1.0802 -0.1913  3.8442
 2124TIP3    H2 6337   1.899   2.488   3.669 -0.3602 -1.6917  3.3223
 2125TIP3   OH2 6338   7.148   2.711   5.732  0.1489  0.1468 -0.3586
 2125TIP3    H1 6339   7.209   2.638   5.743 -0.3172 -0.1653  0.2093
 2125TIP3    H2 6340   7.075   2.674   5.682  0.0929  0.3325 -0.4159
 2126TIP3   OH2 6341   0.019   4.154   2.084  0.3619  0.5063  0.4736
 2126TIP3    H1 6342   0.026   4.091   2.155  1.1840  0.3197  0.2372
 2126TIP3    H2 6343   0.003   4.101   2.006  0.3025  0.6503  0.3871
 2127TIP3   OH2 6344   0.028   6.239   2.605 -0.6158  0.5298 -0.1162
 2127TIP3    H1 6345  -0.045   6.179   2.587 -1.1607  1.3204 -0.6404
 2127TIP3    H2 6346   0.096   6.213   2.543  0.0816 -1.0734  1.2738
 2128TIP3   OH2 6347   1.406   6.325   0.719 -0.0080 -0.4858 -0.1392
 2128TIP3    H1 6348   1.487   6.288   0.683  1.0599  1.9108 -0.3782
 2128TIP3    H2 6349   1.423   6.332   0.813 -0.4461 -1.1339 -0.0057
 2129TIP3   OH2 6350   3.709   1.464   1.201 -0.4401  0.1912 -0.0673
 2129TIP3    H1 6351   3.716   1.373   1.230  3.2907  0.4008  0.2129
 2129TIP3    H2 6352   3.667   1.509   1.274  1.2594 -0.7042  1.5555
 2130TIP3   OH2 6353   5.650   3.215   4.739  0.0202 -0.6903  1.4406
 2130TIP3    H1 6354   5.576   3.274   4.753  1.1395  1.3026 -0.4290
 2130TIP3    H2 6355   5.611   3.138   4.695 -1.2784 -0.8807  2.8264
 2131TIP3   OH2 6356   3.945   0.534   1.182  0.5641 -0.4434  0.0677
 2131TIP3    H1 6357   3.865   0.504   1.224  1.3154 -2.2057  0.3392
 2131TIP3    H2 6358   3.952   0.482   1.102 -0.4310  2.3129 -1.9273
 2132TIP3   OH2 6359   2.937   4.212   2.843  0.4398  0.5325 -0.1871
 2132TIP3    H1 6360   2.945   4.119   2.863 -0.1313  0.3066 -0.9557
 2132TIP3    H2 6361   2.893   4.215   2.758  3.8082  1.4047 -2.0693
 2133TIP3   OH2 6362   4.093   2.804   0.222  0.1526 -0.5047 -0.0612
 2133TIP3    H1 6363   4.011   2.851   0.236 -0.2063 -0.1475 -2.7160
 2133TIP3    H2 6364   4.071   2.712   0.238  0.2018 -0.0965  2.6842
 2134TIP3   OH2 6365   2.865   5.387   2.321  0.2084  0.3349  0.2857
 2134TIP3    H1 6366   2.819   5.304   2.335  1.2882  0.0141  2.3612
 2134TIP3    H2 6367   2.799   5.445   2.282 -1.0591 -0.9911  0.3650
 2135TIP3   OH2 6368   0.847   5.981   4.493  0.3696 -0.4933  0.5823
 2135TIP3    H1 6369   0.903   5.926   4.438 -0.1293  0.4002 -0.8775
 2135TIP3    H2 6370   0.883   6.070   4.482  0.6155 -0.3754  2.1822
 2136TIP3   OH2 6371   3.572   5.281   1.270  0.1668 -0.0170  0.1848
 2136TIP3    H1 6372   3.606   5.195   1.246 -1.1633 -0.5074 -0.0156
 2136TIP3    H2 6373   3.535   5.316   1.189  1.9426  1.3727 -0.0752
 2137TIP3   OH2 6374   1.112   2.091   4.054  0.3418 -0.1508 -0.4156
 2137TIP3    H1 6375   1.048   2.162   4.054  0.9070  0.5138 -3.4578
 2137TIP3    H2 6376   1.060   2.011   4.060 -0.5662  0.4421 -0.1864
 2138TIP3   OH2 6377   3.762   0.133   2.361 -0.1542 -0.4353  0.2010
 2138TIP3    H1 6378   3.729   0.223   2.355  0.4744 -0.2343 -0.3482
 2138TIP3    H2 6379   3.778   0.120   2.455  0.6429  0.3597  0.1882
 2139TIP3   OH2 6380   2.239   3.351   3.943  0.1236 -0.7136 -0.1309
 2139TIP3    H1 6381   2.283   3.378   4.024 -0.1829 -1.5898  0.3392
 2139TIP3    H2 6382   2.290   3.275   3.913 -0.6543 -1.3205  0.0595
 2140TIP3   OH2 6383   5.388   4.697   0.046  0.1363 -0.2737  0.1191
 2140TIP3    H1 6384   5.347   4.612   0.061  0.6470 -0.8175 -1.4067
 2140TIP3    H2 6385   5.364   4.720  -0.043 -2.8497  2.8494  1.4976
 2141TIP3   OH2 6386   6.857   1.640   5.562  0.0076  0.0514  0.6634
 2141TIP3    H1 6387   6.809   1.558   5.568  0.8491 -0.3517  2.9854
 2141TIP3    H2 6388   6.945   1.614   5.535 -0.4159  0.5280 -1.2781
 2142TIP3   OH2 6389   0.344   2.025   2.151 -0.4737  0.0771  0.7308
 2142TIP3    H1 6390   0.410   1.998   2.215 -0.9029 -0.6080  0.8961
 2142TIP3    H2 6391   0.275   2.067   2.204 -0.9234 -0.6700  0.7607
 2143TIP3   OH2 6392   5.048   3.050   2.263 -0.4294 -0.6770 -0.5094
 2143TIP3    H1 6393   5.132   3.031   2.304 -0.0208  0.7259 -0.6475
 2143TIP3    H2 6394   5.070   3.100   2.184 -1.4315  1.6197  0.5679
 2144TIP3   OH2 6395   6.305   3.368   3.722  0.0180 -0.0901  0.3938
 2144TIP3    H1 6396   6.369   3.360   3.650 -1.3538 -1.5049 -0.7553
 2144TIP3    H2 6397   6.337   3.308   3.789  0.9000  0.6577  0.6606
 2145TIP3   OH2 6398   2.285   3.776   5.293  0.4999  0.1325 -0.1978
 2145TIP3    H1 6399   2.279   3.809   5.204  0.8151 -1.4481 -0.8497
 2145TIP3    H2 6400   2.293   3.854   5.348  1.6668  1.0990 -1.6685
 2146TIP3   OH2 6401   6.188   0.794   4.320  0.5977 -0.4095 -0.3117
 2146TIP3    H1 6402   6.196   0.825   4.229  1.1130 -1.1213 -0.5177
 2146TIP3    H2 6403   6.272   0.752   4.339  1.2044  1.3635  1.1554
 2147TIP3   OH2 6404   5.852   0.072   2.365  0.3747 -0.0288 -0.2256
 2147TIP3    H1 6405   5.908  -0.005   2.370  0.7357  0.3328  2.6560
 2147TIP3    H2 6406   5.883   0.130   2.435 -2.2208  1.1199  0.0956
 2148TIP3   OH2 6407   6.011   5.170   1.122  0.4488  0.0389 -0.4105
 2148TIP3    H1 6408   6.000   5.075   1.132  0.9684  0.0318  0.1209
 2148TIP3    H2 6409   5.934   5.208   1.164 -0.7883 -0.1879 -2.3511
 2149TIP3   OH2 6410   3.981   2.663   1.036  0.2862 -0.4448  0.2124
 2149TIP3    H1 6411   3.916   2.651   0.966  0.5965 -1.2708  0.0494
 2149TIP3    H2 6412   4.030   2.741   1.010  0.5098 -0.8444 -0.5929
 2150TIP3   OH2 6413   5.392   1.609   4.006 -0.5977  0.1125  0.0439
 2150TIP3    H1 6414   5.396   1.702   3.984 -0.4887  0.6435  2.0542
 2150TIP3    H2 6415   5.470   1.571   3.965  0.0247  1.1609  0.2227
 2151TIP3   OH2 6416   2.561   5.332   2.575 -0.1639 -0.5989  0.3714
 2151TIP3    H1 6417   2.512   5.407   2.542  0.3761 -0.3261  0.1814
 2151TIP3    H2 6418   2.508   5.300   2.649 -1.3635 -1.1901 -0.7026
 2152TIP3   OH2 6419   2.151   2.258   0.719 -0.2971  0.0372 -0.2976
 2152TIP3    H1 6420   2.070   2.275   0.670 -1.0842 -0.7036  0.7079
 2152TIP3    H2 6421   2.148   2.165   0.739  1.5712 -0.3342 -1.5275
 2153TIP3   OH2 6422   0.256   6.334   0.818  0.2092  0.4652 -0.2721
 2153TIP3    H1 6423   0.276   6.266   0.755  2.0049  2.6224 -2.2180
 2153TIP3    H2 6424   0.341   6.365   0.849 -0.5309  1.8653  0.4999
 2154TIP3   OH2 6425   2.450   0.103   3.862 -0.0817  0.6184  0.1882
 2154TIP3    H1 6426   2.511   0.122   3.934 -0.1636  0.0734  0.4096
 2154TIP3    H2 6427   2.389   0.039   3.899 -0.1690  0.3864 -0.3441
 2155TIP3   OH2 6428   2.845   5.995   4.848  0.1703  0.6125  0.1643
 2155TIP3    H1 6429   2.928   6.008   4.803  0.0397  1.0791  0.0472
 2155TIP3    H2 6430   2.783   5.973   4.777  0.0125  1.1242  0.1393
 2156TIP3   OH2 6431   4.884   4.337   5.810 -0.2926  0.0430  0.0652
 2156TIP3    H1 6432   4.804   4.332   5.863  0.0927  1.4271  0.8341
 2156TIP3    H2 6433   4.939   4.266   5.844 -0.3301  0.4720  1.0651
 2157TIP3   OH2 6434   3.018   6.234   3.703 -0.5414 -0.1881 -0.1106
 2157TIP3    H1 6435   3.085   6.285   3.657 -0.9808  0.7418  0.2579
 2157TIP3    H2 6436   3.016   6.150   3.657  1.0754 -0.3468  0.0478
 2158TIP3   OH2 6437   0.394   4.713   4.103 -0.0622 -0.5820  0.0894
 2158TIP3    H1 6438   0.402   4.736   4.196  0.9288 -0.6721  0.0361
 2158TIP3    H2 6439   0.431   4.788   4.057  0.4844 -1.0147 -0.1874
 2159TIP3   OH2 6440   1.934   1.847   1.547  0.3373  0.5256  0.2390
 2159TIP3    H1 6441   1.928   1.895   1.630 -0.5260  0.6446  0.1195
 2159TIP3    H2 6442   1.927   1.914   1.479 -1.1258  0.2370  0.0703
 2160TIP3   OH2 6443   2.810   5.444   5.028  0.4656 -0.0029 -0.0214
 2160TIP3    H1 6444   2.885   5.498   5.055  0.5087  0.0492 -0.2446
 2160TIP3    H2 6445   2.767   5.420   5.110  0.9476 -0.3538  0.1348
 2161TIP3   OH2 6446   5.741   6.107   5.270  0.3318 -0.1366  0.6017
 2161TIP3    H1 6447   5.737   6.123   5.365 -1.8739 -0.2962  0.5814
 2161TIP3    H2 6448   5.731   6.012   5.261 -2.1678  0.1094  0.1616
 2162TIP3   OH2 6449   2.396   5.554   2.447 -0.2184 -0.2431 -0.1987
 2162TIP3    H1 6450   2.460   5.619   2.476 -1.2297  0.8222 -0.2693
 2162TIP3    H2 6451   2.324   5.562   2.510 -0.1863 -1.6001  0.0291
 2163TIP3   OH2 6452   0.360   5.826   0.968 -0.2489 -0.4485 -0.1118
 2163TIP3    H1 6453   0.294   5.873   0.917 -0.0270  1.3040  1.1266
 2163TIP3    H2 6454   0.313   5.799   1.048  0.6231  1.3456  1.0586
 2164TIP3   OH2 6455   6.108   4.855   3.153  0.3919  0.0632  0.1236
 2164TIP3    H1 6456   6.173   4.885   3.090 -0.0354  2.5652  0.7529
 2164TIP3    H2 6457   6.049   4.799   3.102  1.7947 -0.4911 -0.9410
 2165TIP3   OH2 6458   1.022   5.837   2.193 -0.0742  0.2710  0.3160
 2165TIP3    H1 6459   1.036   5.792   2.110  0.2108 -0.3744  0.7029
 2165TIP3    H2 6460   0.991   5.924   2.169 -0.5759 -0.1150 -0.4508
 2166TIP3   OH2 6461   4.679   4.484   4.032 -0.3675  0.1919  0.3623
 2166TIP3    H1 6462   4.645   4.469   3.944 -0.6504  0.0648  0.4928
 2166TIP3    H2 6463   4.774   4.488   4.020 -0.4291  0.6746 -0.0215
 2167TIP3   OH2 6464   3.111   2.862   4.449  0.1870 -0.1667  0.3294
 2167TIP3    H1 6465   3.141   2.799   4.514  1.7565  1.5486  1.3833
 2167TIP3    H2 6466   3.191   2.890   4.405 -0.6572 -0.0068 -1.1545
 2168TIP3   OH2 6467   1.523   3.170   1.389  0.7259 -0.0784 -0.3003
 2168TIP3    H1 6468   1.459   3.099   1.378  0.8411  0.0425 -2.1512
 2168TIP3    H2 6469   1.505   3.205   1.476 -0.5232 -1.2191 -0.0552
 2169TIP3   OH2 6470   1.700   5.508   4.463  0.0984 -0.1162 -0.3716
 2169TIP3    H1 6471   1.738   5.562   4.393  0.0885  0.8869  0.3766
 2169TIP3    H2 6472   1.775   5.471   4.508  0.1940  0.9651  0.4050
 2170TIP3   OH2 6473   6.650   4.315   4.901  0.8133  0.3958  0.2264
 2170TIP3    H1 6474   6.587   4.388   4.907 -0.0846 -0.1638 -1.5896
 2170TIP3    H2 6475   6.701   4.335   4.822  1.3231 -0.3780  0.3582
 2171TIP3   OH2 6476   5.799   5.699   2.433 -0.2784  0.1247  0.2969
 2171TIP3    H1 6477   5.784   5.765   2.365  0.2442  0.0249  0.0788
 2171TIP3    H2 6478   5.873   5.647   2.400 -2.3138 -2.2509 -0.7958
 2172TIP3   OH2 6479   1.022   6.637   4.214 -0.3374 -0.1064 -0.2984
 2172TIP3    H1 6480   1.074   6.716   4.199 -0.4060  0.7861  3.2661
 2172TIP3    H2 6481   1.086   6.565   4.212  0.1728  0.3531 -0.8546
 2173TIP3   OH2 6482   5.409   1.746   0.313  0.3410  0.0647  0.0061
 2173TIP3    H1 6483   5.395   1.665   0.265  2.2906 -0.3403  0.0284
 2173TIP3    H2 6484   5.328   1.796   0.301 -0.7984 -1.7627 -0.1931
 2174TIP3   OH2 6485   1.758   4.791   3.334 -0.0657  0.1273 -0.6901
 2174TIP3    H1 6486   1.778   4.865   3.276  0.9565 -1.1742 -2.0727
 2174TIP3    H2 6487   1.832   4.732   3.323 -0.9418 -1.1900  0.2550
 2175TIP3   OH2 6488   2.317   4.439   5.389  0.2645 -0.3457  0.3069
 2175TIP3    H1 6489   2.297   4.401   5.304 -0.4259 -1.4932  0.9502
 2175TIP3    H2 6490   2.407   4.470   5.382  0.2211 -0.4490 -0.8216
 2176TIP3   OH2 6491   5.281   5.922   0.811  0.0472 -0.4780 -0.4967
 2176TIP3    H1 6492   5.351   5.885   0.758  0.3776 -1.6679  0.7160
 2176TIP3    H2 6493   5.271   5.861   0.884 -0.4296  1.0473  0.7732
 2177TIP3   OH2 6494   3.044   5.568   2.419 -0.6154  0.5015 -0.5988
 2177TIP3    H1 6495   2.990   5.495   2.389 -0.4964 -0.6744  1.7691
 2177TIP3    H2 6496   3.002   5.597   2.500  2.1469 -0.4841  1.3817
 2178TIP3   OH2 6497   0.392   6.048   0.128  0.2188 -0.2105 -0.1849
 2178TIP3    H1 6498   0.323   5.988   0.098 -0.7196  1.5241 -1.6763
 2178TIP3    H2 6499   0.354   6.135   0.117  2.2829  0.7519 -0.0056
 2179TIP3   OH2 6500   3.685   0.370   2.631 -0.0590  0.0572 -0.1300
 2179TIP3    H1 6501   3.690   0.276   2.615 -0.5842  0.0551 -0.2938
 2179TIP3    H2 6502   3.776   0.397   2.645  0.1406 -0.3933 -0.5436
 2180TIP3   OH2 6503   2.208   0.378   3.314  0.0267 -1.1368 -0.2543
 2180TIP3    H1 6504   2.171   0.293   3.338 -2.1921 -0.2812 -0.3952
 2180TIP3    H2 6505   2.158   0.404   3.236 -1.5942  1.6193  1.5099
 2181TIP3   OH2 6506   4.616   6.132   1.900  0.7979 -0.1081  0.1760
 2181TIP3    H1 6507   4.562   6.176   1.966  1.5992  1.2708 -0.0591
 2181TIP3    H2 6508   4.696   6.185   1.894  0.3070  0.4676 -2.6901
 2182TIP3   OH2 6509   3.317   5.814   3.270  0.4001  0.4408  0.3830
 2182TIP3    H1 6510   3.273   5.898   3.268  0.0641  0.3070 -2.9105
 2182TIP3    H2 6511   3.256   5.756   3.317 -0.1140  1.6111  1.2108
 2183TIP3   OH2 6512   6.541   4.060   0.919 -0.2616  0.0307  0.1765
 2183TIP3    H1 6513   6.512   4.143   0.957 -1.4227  0.0958 -0.7994
 2183TIP3    H2 6514   6.485   3.994   0.961 -0.3418 -0.0889 -0.1196
 2184TIP3   OH2 6515   4.368   5.117   1.127 -0.5648  0.0157  0.6342
 2184TIP3    H1 6516   4.459   5.113   1.100 -0.7220 -0.1907  0.1342
 2184TIP3    H2 6517   4.330   5.188   1.075 -0.4217  0.8829  1.6625
 2185TIP3   OH2 6518   6.056   1.094   2.734  0.0090  0.5448  0.1020
 2185TIP3    H1 6519   6.071   1.144   2.654 -0.3196  1.0500  0.3477
 2185TIP3    H2 6520   5.964   1.068   2.729 -0.6416  2.4080  1.2957
 2186TIP3   OH2 6521   1.259   4.180   5.796  0.2328 -0.7164 -0.0956
 2186TIP3    H1 6522   1.327   4.177   5.729  2.3390  1.8630  1.7179
 2186TIP3    H2 6523   1.204   4.255   5.771  0.2438 -0.5645  0.3140
 2187TIP3   OH2 6524   0.699   1.398   4.882 -0.1441  0.0037 -0.2996
 2187TIP3    H1 6525   0.754   1.397   4.804 -1.1812 -0.1058 -1.0370
 2187TIP3    H2 6526   0.754   1.438   4.949  0.6791  0.3020 -1.1381
 2188TIP3   OH2 6527   1.141   4.192   4.549 -0.1437 -0.3028 -0.0244
 2188TIP3    H1 6528   1.208   4.124   4.553 -0.6837 -0.9662 -1.3872
 2188TIP3    H2 6529   1.142   4.221   4.458 -1.2830  0.0954  0.0725
 2189TIP3   OH2 6530   6.027   5.892   2.362  0.7016  0.3321  0.6347
 2189TIP3    H1 6531   5.976   5.961   2.320  0.7211  0.1649  0.3271
 2189TIP3    H2 6532   6.069   5.934   2.436 -0.2210  0.3724  1.1484
 2190TIP3   OH2 6533   5.851   4.279   3.084 -0.0105  0.2592 -0.0865
 2190TIP3    H1 6534   5.852   4.366   3.124 -2.3771 -0.0999  0.9318
 2190TIP3    H2 6535   5.829   4.220   3.156 -2.4291 -0.6482 -1.4346
 2191TIP3   OH2 6536   6.640   1.077   5.138  0.1288 -0.1038 -0.3495
 2191TIP3    H1 6537   6.640   1.006   5.202  0.7904 -0.5840 -0.8638
 2191TIP3    H2 6538   6.581   1.047   5.069 -1.1401  0.7230  0.3545
 2192TIP3   OH2 6539   4.976   5.146   3.829 -0.4419  0.4833  0.0960
 2192TIP3    H1 6540   4.922   5.159   3.907  0.8398  1.3965  0.8757
 2192TIP3    H2 6541   5.016   5.060   3.842 -2.7317 -0.8496 -1.1715
 2193TIP3   OH2 6542   0.248   3.466   3.787  0.4356 -0.0037 -0.0320
 2193TIP3    H1 6543   0.258   3.377   3.819  0.3528  0.0347  0.1059
 2193TIP3    H2 6544   0.311   3.517   3.839 -0.0638  0.1452  0.4428
 2194TIP3   OH2 6545   5.339   1.032   0.322 -0.2870 -0.1972 -0.4206
 2194TIP3    H1 6546   5.422   1.076   0.306  0.1042 -0.1966  1.3322
 2194TIP3    H2 6547   5.361   0.958   0.378 -1.4886 -0.0061  0.3554
 2195TIP3   OH2 6548   6.697   2.398   1.194  0.2662  0.4844  0.0740
 2195TIP3    H1 6549   6.671   2.393   1.102  1.2521 -0.2342 -0.1781
 2195TIP3    H2 6550   6.779   2.446   1.194 -0.4049  1.6705  0.7370
 2196TIP3   OH2 6551   4.420   2.871   3.612  0.0629  0.0161 -0.0413
 2196TIP3    H1 6552   4.343   2.839   3.660 -1.0314  0.1525 -1.6327
 2196TIP3    H2 6553   4.473   2.793   3.597  0.9002  0.0964  2.1133
 2197TIP3   OH2 6554   3.396   5.077   3.278 -0.3228 -0.2389 -0.8728
 2197TIP3    H1 6555   3.373   5.159   3.322 -0.2128 -0.6071 -0.1065
 2197TIP3    H2 6556   3.472   5.044   3.327 -0.4916 -0.8980 -1.0407
 2198TIP3   OH2 6557   5.519   4.406   5.229 -0.3562  0.1162 -0.0949
 2198TIP3    H1 6558   5.569   4.378   5.306 -0.8256 -0.4185  0.0235
 2198TIP3    H2 6559   5.585   4.431   5.165  0.0842 -1.1701 -0.1653
 2199TIP3   OH2 6560   2.072   0.950   3.937  0.2965 -0.3503  0.0700
 2199TIP3    H1 6561   2.157   0.946   3.893  1.5675 -0.0058  2.3030
 2199TIP3    H2 6562   2.079   1.025   3.997 -2.0540  0.4284 -0.5310
 2200TIP3   OH2 6563   0.838   3.468   2.056 -0.6437  0.2698 -0.2812
 2200TIP3    H1 6564   0.809   3.487   2.145  0.2660 -0.5302  0.2113
 2200TIP3    H2 6565   0.828   3.550   2.009  2.5692  1.9268  1.5799
 2201TIP3   OH2 6566   1.858   6.336   3.181 -0.0391  0.0083  0.0158
 2201TIP3    H1 6567   1.810   6.412   3.149 -0.3424 -1.3195 -2.9802
 2201TIP3    H2 6568   1.941   6.338   3.133  0.6002 -0.7629  1.0351
 2202TIP3   OH2 6569   4.891   5.992   0.034  0.0484  0.1247  0.1213
 2202TIP3    H1 6570   4.908   6.084   0.014 -1.4768  0.4950  0.3782
 2202TIP3    H2 6571   4.826   5.995   0.105  2.7237 -1.1308  2.8435
 2203TIP3   OH2 6572   1.272   0.509   2.675 -0.1564 -0.0001 -0.2517
 2203TIP3    H1 6573   1.355   0.471   2.648 -0.7656 -2.1423  0.6938
 2203TIP3    H2 6574   1.286   0.604   2.668  2.3908 -0.2822  0.0070
 2204TIP3   OH2 6575   1.360   3.781   4.292 -0.0298  0.3343 -0.5446
 2204TIP3    H1 6576   1.442   3.804   4.334 -0.2333 -1.3254  0.8307
 2204TIP3    H2 6577   1.295   3.783   4.362 -0.6434 -1.0588 -1.0298
 2205TIP3   OH2 6578   2.113   5.612   0.764  0.0469 -0.1242 -0.6367
 2205TIP3    H1 6579   2.084   5.569   0.844 -0.8875  0.1353 -0.8211
 2205TIP3    H2 6580   2.169   5.684   0.795 -1.5256  0.9148 -0.1192
 2206TIP3   OH2 6581   4.893   5.035   2.351 -0.0857  0.0634 -0.7228
 2206TIP3    H1 6582   4.987   5.034   2.367 -0.0399 -1.7510 -0.8820
 2206TIP3    H2 6583   4.855   5.064   2.433  0.6062  1.3847 -0.8326
 2207TIP3   OH2 6584   5.035   4.547   4.936  0.5925  0.4198 -0.2918
 2207TIP3    H1 6585   4.968   4.611   4.909 -0.2145 -0.7288 -1.1184
 2207TIP3    H2 6586   5.116   4.598   4.942  0.0826  1.4185 -1.4901
 2208TIP3   OH2 6587   4.592   3.533   2.018 -0.2522  0.5703  0.1552
 2208TIP3    H1 6588   4.598   3.626   1.998 -0.2005  0.8343  1.3163
 2208TIP3    H2 6589   4.612   3.489   1.936 -0.0513  1.5828 -0.3502
 2209TIP3   OH2 6590   1.727   6.468   1.035  0.3116  0.1152 -0.4477
 2209TIP3    H1 6591   1.747   6.524   1.110  0.8478 -1.1931  0.4126
 2209TIP3    H2 6592   1.744   6.523   0.959  0.2893  1.2937  0.3749
 2210TIP3   OH2 6593   4.262   4.512   0.751  0.6466 -0.3772 -0.1795
 2210TIP3    H1 6594   4.226   4.484   0.667 -0.3814 -1.3423  0.5468
 2210TIP3    H2 6595   4.187   4.511   0.810  1.2086  0.9739  0.6040
 2211TIP3   OH2 6596   3.288   2.953   2.842  0.8821 -0.3674  0.1295
 2211TIP3    H1 6597   3.275   2.859   2.856  0.2689 -0.5577 -1.4808
 2211TIP3    H2 6598   3.230   2.974   2.770  2.7364  0.7575 -1.1243
 2212TIP3   OH2 6599   5.945   5.860   1.697 -0.0787 -0.7994  0.0090
 2212TIP3    H1 6600   5.887   5.936   1.703  0.9852  0.2089 -1.7670
 2212TIP3    H2 6601   6.033   5.897   1.691  0.4810 -2.1651 -0.6007
 2213TIP3   OH2 6602   3.846   1.114   0.552  0.3882 -0.0445 -0.5587
 2213TIP3    H1 6603   3.920   1.090   0.608  1.0273 -1.0552 -1.7819
 2213TIP3    H2 6604   3.772   1.067   0.589  0.9846 -1.4158 -1.0447
 2214TIP3   OH2 6605   6.330   6.350   3.932 -0.3733 -0.3962  0.0614
 2214TIP3    H1 6606   6.368   6.438   3.926  0.1890 -0.7306 -1.6350
 2214TIP3    H2 6607   6.364   6.315   4.015 -2.6686  1.8908  2.1284
 2215TIP3   OH2 6608   6.355   6.514   3.395 -0.1880  0.2363 -0.0037
 2215TIP3    H1 6609   6.386   6.426   3.378  0.7474  0.3413  1.0364
 2215TIP3    H2 6610   6.364   6.525   3.490 -0.8210  1.2484 -0.0399
 2216TIP3   OH2 6611   0.989   4.396   3.541 -0.0736 -0.1716  0.2220
 2216TIP3    H1 6612   0.957   4.368   3.455  1.1998  0.2828 -0.4377
 2216TIP3    H2 6613   1.053   4.464   3.521 -1.7664  1.9598  1.6918
 2217TIP3   OH2 6614   1.873   4.897   2.133  0.1510 -0.2043 -0.3344
 2217TIP3    H1 6615   1.859   4.990   2.148  1.1352 -0.1671  0.4224
 2217TIP3    H2 6616   1.967   4.889   2.116  0.1251 -1.0874 -0.1182
 2218TIP3   OH2 6617   6.578   5.719   3.595  0.1571  0.3830 -0.3697
 2218TIP3    H1 6618   6.501   5.744   3.544 -0.3515  0.5744  0.4880
 2218TIP3    H2 6619   6.587   5.625   3.579 -1.9080 -0.2477  1.6818
 2219TIP3   OH2 6620   7.055   6.617   0.262  0.4600  0.3493 -0.0107
 2219TIP3    H1 6621   7.150   6.606   0.262  0.4580  0.3225 -0.2853
 2219TIP3    H2 6622   7.030   6.615   0.354  0.5500 -1.2772  0.0122
 2220TIP3   OH2 6623   6.736   5.944   3.895  0.1596 -0.2511  0.1000
 2220TIP3    H1 6624   6.828   5.921   3.883 -0.3331 -2.1350 -0.6017
 2220TIP3    H2 6625   6.694   5.861   3.920 -1.3690  0.5057  0.1643
 2221TIP3   OH2 6626   3.611   1.011   1.849 -0.0565  0.5399 -0.3550
 2221TIP3    H1 6627   3.531   1.015   1.797 -0.6728  0.0600  0.5239
 2221TIP3    H2 6628   3.667   0.950   1.801 -2.1949 -3.2712  1.5276
 2222TIP3   OH2 6629   4.276   0.876   0.584  0.0099  0.4753 -0.3936
 2222TIP3    H1 6630   4.304   0.943   0.522  1.3463  1.1985  0.9299
 2222TIP3    H2 6631   4.197   0.913   0.624  0.7400  1.2970  0.3299
 2223TIP3   OH2 6632   3.116   3.846   3.236  0.0416 -0.3076  0.4477
 2223TIP3    H1 6633   3.065   3.861   3.156 -0.3524 -1.0351  0.5587
 2223TIP3    H2 6634   3.206   3.833   3.205 -0.2234 -1.2937  0.0507
 2224TIP3   OH2 6635   1.490   4.908   0.639  0.2168 -0.1164  0.3755
 2224TIP3    H1 6636   1.485   4.921   0.544  1.0193 -0.6062  0.2555
 2224TIP3    H2 6637   1.509   4.994   0.674  1.5022 -0.2113 -0.0562
 2225TIP3   OH2 6638   0.094   4.690   1.523 -0.3092 -0.1634 -0.4963
 2225TIP3    H1 6639   0.139   4.753   1.467  0.4298 -0.5760 -0.3657
 2225TIP3    H2 6640   0.026   4.653   1.467  1.0006 -1.2487 -1.4268
 2226TIP3   OH2 6641   3.382   4.229   5.296 -0.3333  0.0322 -0.7632
 2226TIP3    H1 6642   3.439   4.306   5.286  0.6958 -0.6653 -0.4616
 2226TIP3    H2 6643   3.341   4.218   5.211 -0.3994  0.8442 -0.8443
 2227TIP3   OH2 6644   2.542   3.939   5.267 -0.5584 -0.2236  0.2258
 2227TIP3    H1 6645   2.528   3.879   5.340  0.4192 -1.1850 -0.3510
 2227TIP3    H2 6646   2.556   4.025   5.308 -0.0713 -0.7352  1.1579
 2228TIP3   OH2 6647   4.041   0.454   4.356 -0.6041 -0.0425 -0.0850
 2228TIP3    H1 6648   4.067   0.516   4.287  0.0468  1.4383  1.4297
 2228TIP3    H2 6649   3.949   0.475   4.372 -0.6013 -0.0082 -0.1123
 2229TIP3   OH2 6650   1.179   3.618   3.869 -0.2755 -0.3049 -0.0952
 2229TIP3    H1 6651   1.219   3.607   3.955 -0.5103  0.7554  0.1581
 2229TIP3    H2 6652   1.156   3.710   3.864  1.1896  0.0319 -1.9324
 2230TIP3   OH2 6653   1.144   0.126   2.149  0.4996 -0.0637  0.3291
 2230TIP3    H1 6654   1.104   0.075   2.079 -1.1881 -0.3945  1.4545
 2230TIP3    H2 6655   1.071   0.175   2.187  1.6727  1.4322  0.7647
 2231TIP3   OH2 6656   2.830   2.858   3.815  0.3049 -0.6510  0.0675
 2231TIP3    H1 6657   2.748   2.864   3.864  0.1958  0.3120 -0.2165
 2231TIP3    H2 6658   2.855   2.766   3.823 -0.6770 -0.9128  0.3543
 2232TIP3   OH2 6659   2.044   4.047   4.845 -0.3316  0.6455 -0.4112
 2232TIP3    H1 6660   1.975   4.104   4.880 -1.5753 -1.1754  0.2192
 2232TIP3    H2 6661   1.998   3.973   4.807  1.2667 -0.8108  0.3407
 2233TIP3   OH2 6662   2.686   3.928   4.837  0.2946 -0.2053  0.2090
 2233TIP3    H1 6663   2.680   4.023   4.848  0.1824 -0.3388  1.3488
 2233TIP3    H2 6664   2.747   3.917   4.764 -1.6376  0.7828 -1.6788
 2234TIP3   OH2 6665   0.555   3.117   0.100  0.1520 -0.2986  0.5936
 2234TIP3    H1 6666   0.633   3.132   0.153  1.0400  0.5841 -0.9128
 2234TIP3    H2 6667   0.540   3.200   0.055 -2.9727  0.3261  2.4464
 2235TIP3   OH2 6668   0.006   2.397   2.270 -0.1740  0.0302  0.4172
 2235TIP3    H1 6669   0.060   2.430   2.342  1.3881  0.6564 -0.9673
 2235TIP3    H2 6670  -0.035   2.475   2.233 -1.6697 -0.3879  1.1293
 2236TIP3   OH2 6671   1.334   5.682   0.994  0.2202 -0.1803 -0.1807
 2236TIP3    H1 6672   1.261   5.712   0.940 -0.1409 -0.2002  0.2868
 2236TIP3    H2 6673   1.340   5.747   1.064  2.5609  1.4956 -1.7994
 2237TIP3   OH2 6674   2.414   2.980   3.547 -0.3204 -0.6020 -0.1165
 2237TIP3    H1 6675   2.356   2.916   3.506 -1.4340 -1.3707  2.4363
 2237TIP3    H2 6676   2.495   2.931   3.565 -0.2160 -0.5547 -0.4518
 2238TIP3   OH2 6677   3.527   2.431   3.661 -0.3373  0.3621  0.6021
 2238TIP3    H1 6678   3.506   2.495   3.729 -2.4381 -0.5029  0.8189
 2238TIP3    H2 6679   3.586   2.479   3.601  1.1835  1.2790  2.7135
 2239TIP3   OH2 6680   1.808   1.756   0.080 -0.2814 -0.3963  0.5638
 2239TIP3    H1 6681   1.738   1.750   0.015  0.2819  0.0865 -0.1031
 2239TIP3    H2 6682   1.877   1.699   0.046 -0.0113 -0.1941  0.7690
 2240TIP3   OH2 6683   6.686   1.316   2.152  0.2691 -0.0969  0.1779
 2240TIP3    H1 6684   6.697   1.248   2.085 -0.7759  0.3998 -0.5293
 2240TIP3    H2 6685   6.664   1.394   2.102 -0.6133  0.2675  1.1200
 2241TIP3   OH2 6686   6.808   5.110   0.842  0.2784  0.6181 -0.0941
 2241TIP3    H1 6687   6.828   5.168   0.768  1.2208 -0.8854 -1.0801
 2241TIP3    H2 6688   6.893   5.088   0.879  0.0828 -1.1261 -0.5725
 2242TIP3   OH2 6689   6.647   1.678   0.490  0.0543 -0.3291  0.1005
 2242TIP3    H1 6690   6.712   1.687   0.421  1.6718 -1.7850  1.3182
 2242TIP3    H2 6691   6.609   1.765   0.500 -0.4292 -0.1395 -2.7431
 2243TIP3   OH2 6692   2.576   0.881   1.741 -0.2592 -0.6363  0.3050
 2243TIP3    H1 6693   2.535   0.813   1.687 -2.9713  0.9639  0.1644
 2243TIP3    H2 6694   2.589   0.839   1.826  0.2215 -1.9846 -0.4135
 2244TIP3   OH2 6695   7.158   2.809   4.994  0.0579  0.0595  0.1923
 2244TIP3    H1 6696   7.085   2.845   5.045  0.1887  1.2959 -0.4690
 2244TIP3    H2 6697   7.122   2.795   4.906  0.4713  0.1634  0.0044
 2245TIP3   OH2 6698   6.846   3.839   1.355  0.1104 -0.0924  0.0112
 2245TIP3    H1 6699   6.868   3.884   1.274  0.9536 -0.7342 -0.1305
 2245TIP3    H2 6700   6.871   3.747   1.339 -1.7584 -0.6714  0.2086
 2246TIP3   OH2 6701   4.536   3.445   3.440  0.2783  0.5412 -0.1035
 2246TIP3    H1 6702   4.533   3.533   3.479 -0.9799 -0.2118  1.6587
 2246TIP3    H2 6703   4.445   3.429   3.413  0.3061 -0.5491  0.4163
 2247TIP3   OH2 6704   1.887   1.853   2.076 -0.4673 -0.5774  0.2800
 2247TIP3    H1 6705   1.898   1.892   2.163  0.9245 -2.0356  0.7982
 2247TIP3    H2 6706   1.888   1.928   2.016 -0.2648  0.3601  1.4082
 2248TIP3   OH2 6707   5.410   2.769   2.553  0.3410 -0.1044  0.2593
 2248TIP3    H1 6708   5.449   2.699   2.502 -0.5906 -0.0336 -0.5763
 2248TIP3    H2 6709   5.317   2.767   2.530  0.6628  3.2206 -2.1027
 2249TIP3   OH2 6710   2.142   1.511   3.171 -0.0600 -0.1660  0.5641
 2249TIP3    H1 6711   2.219   1.481   3.218  1.3408  1.5191 -0.5243
 2249TIP3    H2 6712   2.137   1.605   3.189 -3.5293 -0.6045  2.8425
 2250TIP3   OH2 6713   2.906   1.183   4.358  0.1854 -0.0562  0.3923
 2250TIP3    H1 6714   2.995   1.171   4.392  0.4917  1.4898  0.2191
 2250TIP3    H2 6715   2.856   1.216   4.433 -0.2581 -0.9377  0.4952
 2251TIP3   OH2 6716   5.123   1.602   4.074  0.3883  0.4952  0.4715
 2251TIP3    H1 6717   5.145   1.693   4.094  1.8331  0.0338  1.0737
 2251TIP3    H2 6718   5.204   1.563   4.042 -0.5116 -0.2777 -0.9773
 2252TIP3   OH2 6719   6.656   2.703   5.492  0.8344 -0.1102 -0.0498
 2252TIP3    H1 6720   6.600   2.626   5.483 -0.4904  0.9363 -1.1979
 2252TIP3    H2 6721   6.618   2.768   5.433  2.1280  1.3158  0.6048
 2253TIP3   OH2 6722   3.866   5.994   1.879 -0.4654  0.2420  0.3772
 2253TIP3    H1 6723   3.948   6.004   1.830 -1.0387  2.6531 -0.2339
 2253TIP3    H2 6724   3.822   5.920   1.838 -0.5744  1.7070 -2.3591
 2254TIP3   OH2 6725   0.284   4.701   0.807  0.2551 -0.2322  0.0536
 2254TIP3    H1 6726   0.352   4.707   0.740 -0.9413  1.0259 -1.1074
 2254TIP3    H2 6727   0.245   4.788   0.811 -1.8274 -1.0879  0.0714
 2255TIP3   OH2 6728   4.821   6.405   3.276 -0.1530  0.3123  0.1625
 2255TIP3    H1 6729   4.872   6.484   3.296 -0.5147  0.6012 -0.0412
 2255TIP3    H2 6730   4.733   6.438   3.255 -0.3010 -0.1440  0.0574
 2256TIP3   OH2 6731   0.111   0.290   3.470  0.0728  0.1867 -0.5622
 2256TIP3    H1 6732   0.132   0.336   3.389  0.6845 -0.3254 -0.7041
 2256TIP3    H2 6733   0.018   0.269   3.463  0.2109 -0.1994 -1.3095
 2257TIP3   OH2 6734   2.111   4.747   2.085 -0.3224  0.2445 -0.1301
 2257TIP3    H1 6735   2.186   4.769   2.030 -0.9510  0.7912 -0.7895
 2257TIP3    H2 6736   2.069   4.673   2.041  0.0001 -0.2624  0.4039
 2258TIP3   OH2 6737   5.633   2.528   3.598  1.0363 -0.1039 -0.5014
 2258TIP3    H1 6738   5.548   2.488   3.583  1.5023 -0.9180 -1.0552
 2258TIP3    H2 6739   5.696   2.457   3.583  1.8602  0.7320 -1.1308
 2259TIP3   OH2 6740   7.147   0.110   3.828  0.1353 -0.3856 -0.3481
 2259TIP3    H1 6741   7.094   0.071   3.759  0.5537  0.4060 -1.1456
 2259TIP3    H2 6742   7.159   0.041   3.892 -3.0940 -0.1944  0.6120
 2260TIP3   OH2 6743   2.763   1.578   2.852  0.1803  0.5467 -0.2325
 2260TIP3    H1 6744   2.853   1.610   2.854  0.7071 -0.8242  1.6220
 2260TIP3    H2 6745   2.709   1.657   2.847  1.4493  1.5564  1.1209
 2261TIP3   OH2 6746   5.355   3.069   2.571  0.9832  0.1811  0.1072
 2261TIP3    H1 6747   5.349   3.020   2.489  1.8969 -1.2871  0.8812
 2261TIP3    H2 6748   5.287   3.136   2.564 -1.0142 -1.7807 -0.6317
 2262TIP3   OH2 6749   4.427   1.182   2.451  0.2257 -0.2049 -0.2822
 2262TIP3    H1 6750   4.374   1.261   2.433  0.1749 -0.2702 -0.4272
 2262TIP3    H2 6751   4.418   1.130   2.371  1.2500  0.1935 -0.6758
 2263TIP3   OH2 6752   4.741   6.032   2.897  0.2399 -0.0713  0.3687
 2263TIP3    H1 6753   4.700   5.954   2.933 -1.3755  0.4458 -0.2512
 2263TIP3    H2 6754   4.731   6.098   2.966  2.2577 -0.5496  1.1912
 2264TIP3   OH2 6755   0.533   5.877   3.925  0.2234 -0.4804  0.2917
 2264TIP3    H1 6756   0.600   5.942   3.944  0.6898 -0.6592 -0.7067
 2264TIP3    H2 6757   0.573   5.818   3.862 -0.7824 -0.7490 -0.1173
 2265TIP3   OH2 6758   4.741   4.923   1.062  0.8047 -0.1274 -0.6343
 2265TIP3    H1 6759   4.690   4.866   1.005  1.8299 -1.7996  0.0655
 2265TIP3    H2 6760   4.677   4.960   1.122  0.2122 -1.1022 -0.6501
 2266TIP3   OH2 6761   4.573   2.656   0.479  0.4130 -0.2664 -0.1886
 2266TIP3    H1 6762   4.579   2.717   0.406 -0.0182  0.4031  0.3177
 2266TIP3    H2 6763   4.631   2.583   0.455 -0.5648 -0.5944 -1.6871
 2267TIP3   OH2 6764   6.578   0.528   5.625 -0.3963 -0.1226 -0.2324
 2267TIP3    H1 6765   6.550   0.582   5.699 -2.5374 -1.5150  0.0473
 2267TIP3    H2 6766   6.538   0.569   5.549  2.3933  1.7377 -0.8542
 2268TIP3   OH2 6767   2.886   5.999   2.967 -0.2961  0.0168 -0.2866
 2268TIP3    H1 6768   2.794   6.024   2.975  0.0378  0.9059  1.3260
 2268TIP3    H2 6769   2.915   6.039   2.885 -1.1865  0.2330 -0.5064
 2269TIP3   OH2 6770   6.125   4.334   1.150 -0.1017 -0.4397 -0.8453
 2269TIP3    H1 6771   6.115   4.333   1.246  2.3265 -1.2895 -0.5342
 2269TIP3    H2 6772   6.036   4.340   1.117 -1.0578 -0.8234  1.4640
 2270TIP3   OH2 6773   1.788   3.317   1.871 -0.1744 -0.3407 -0.4376
 2270TIP3    H1 6774   1.805   3.371   1.794  2.8117  0.5385  0.7002
 2270TIP3    H2 6775   1.815   3.372   1.945 -0.3175 -2.1508  1.0368
 2271TIP3   OH2 6776   3.792   5.511   1.018  0.3295  0.4052 -0.0418
 2271TIP3    H1 6777   3.770   5.431   0.969 -0.5422  1.2687 -1.1120
 2271TIP3    H2 6778   3.828   5.479   1.101  0.5187 -1.0965 -0.6705
 2272TIP3   OH2 6779   1.982   5.228   0.357  0.0279 -0.0412  0.2327
 2272TIP3    H1 6780   1.928   5.185   0.290  0.2279  0.1524 -0.0504
 2272TIP3    H2 6781   1.949   5.318   0.360  0.3883  0.0962  0.0092
 2273TIP3   OH2 6782   3.786   6.288   1.454  0.7434 -0.3802 -0.4393
 2273TIP3    H1 6783   3.870   6.281   1.409  0.9064 -1.3446 -0.0112
 2273TIP3    H2 6784   3.794   6.231   1.530 -0.0419  0.0892  0.0216
 2274TIP3   OH2 6785   6.456   4.401   2.349 -0.3764 -0.3855 -0.0972
 2274TIP3    H1 6786   6.518   4.405   2.277 -0.3704  0.2128 -0.0633
 2274TIP3    H2 6787   6.503   4.438   2.424 -0.1849 -1.5203  0.3695
 2275TIP3   OH2 6788   6.677   4.076   3.292 -0.4411 -0.1240 -0.8048
 2275TIP3    H1 6789   6.764   4.112   3.308 -0.8301  0.7390 -0.5854
 2275TIP3    H2 6790   6.616   4.145   3.319 -1.2508 -1.4837  1.0435
 2276TIP3   OH2 6791   3.703   1.329   3.155  0.3356  0.4662  0.5555
 2276TIP3    H1 6792   3.736   1.242   3.131  0.8547  0.9105 -0.3955
 2276TIP3    H2 6793   3.769   1.363   3.215  0.0315  0.1396  1.0897
 2277TIP3   OH2 6794   6.666   4.072   5.392 -0.1703 -0.5732  0.4944
 2277TIP3    H1 6795   6.747   4.030   5.421 -0.9243 -1.7092  1.0511
 2277TIP3    H2 6796   6.664   4.155   5.438  0.4328 -0.7690  0.8839
 2278TIP3   OH2 6797   4.293   6.462   4.666  0.1759 -0.0642 -1.1361
 2278TIP3    H1 6798   4.291   6.372   4.633  0.6063 -0.3311 -0.4754
 2278TIP3    H2 6799   4.247   6.513   4.600 -0.6481 -0.8749 -1.2069
 2279TIP3   OH2 6800   1.764   4.329   5.063  0.3730 -0.6685  0.2379
 2279TIP3    H1 6801   1.839   4.388   5.055  0.0122 -0.3661 -1.1454
 2279TIP3    H2 6802   1.692   4.384   5.093  0.3351 -0.6508  0.1146
 2280TIP3   OH2 6803   3.991   0.813   2.776  0.2740  0.3803 -0.3396
 2280TIP3    H1 6804   4.085   0.807   2.791  0.6427  2.8848 -1.1575
 2280TIP3    H2 6805   3.968   0.903   2.802 -1.5874  0.3328 -1.5909
 2281TIP3   OH2 6806   2.671   6.592   1.603 -0.3646 -0.5236  0.3961
 2281TIP3    H1 6807   2.708   6.591   1.515  1.9024  1.2455  1.2123
 2281TIP3    H2 6808   2.583   6.626   1.591  0.7068  2.0439 -1.0220
 2282TIP3   OH2 6809   2.549   3.165   4.473 -0.3827  0.3430 -0.0224
 2282TIP3    H1 6810   2.587   3.092   4.423 -1.0262 -0.0259  0.0255
 2282TIP3    H2 6811   2.459   3.171   4.442 -0.2392  1.3571 -0.2864
 2283TIP3   OH2 6812   0.194   2.356   0.604  0.5048  0.0891  0.2320
 2283TIP3    H1 6813   0.155   2.309   0.678  1.7597  1.4574  1.8453
 2283TIP3    H2 6814   0.203   2.290   0.535  0.7442 -1.6391  1.8455
 2284TIP3   OH2 6815   5.612   2.261   5.108  0.3686  0.2363 -0.1375
 2284TIP3    H1 6816   5.541   2.221   5.159 -0.2972  0.1520 -1.1117
 2284TIP3    H2 6817   5.577   2.345   5.079  0.9859  0.5789  0.0902
 2285TIP3   OH2 6818   4.565   4.626   3.192  0.0487  0.5434  0.0285
 2285TIP3    H1 6819   4.574   4.686   3.118 -0.7364  1.8825  0.9787
 2285TIP3    H2 6820   4.489   4.572   3.170  0.0589  0.6733 -0.3306
 2286TIP3   OH2 6821   0.456   6.326   5.248 -0.7790 -0.3355  0.0735
 2286TIP3    H1 6822   0.475   6.233   5.251 -0.0559 -0.1712  0.6597
 2286TIP3    H2 6823   0.437   6.350   5.338  1.4880  0.5756  0.3703
 2287TIP3   OH2 6824   2.005   3.000   0.813 -0.5657 -0.4465  0.6235
 2287TIP3    H1 6825   1.958   2.969   0.890 -0.2384  2.2149  2.0106
 2287TIP3    H2 6826   1.949   2.975   0.739 -0.9941 -2.8746  1.6605
 2288TIP3   OH2 6827   5.033   4.932   0.070 -0.6269 -0.2171  0.1783
 2288TIP3    H1 6828   4.991   4.966  -0.009 -1.0631 -3.0276 -0.9362
 2288TIP3    H2 6829   5.006   4.991   0.140 -3.7140  0.0387 -1.0762
 2289TIP3   OH2 6830   1.209   1.664   1.591  0.1744  0.1210  0.4211
 2289TIP3    H1 6831   1.128   1.673   1.641  0.3367 -0.5225  0.8118
 2289TIP3    H2 6832   1.240   1.575   1.612 -0.4223 -0.6697 -1.7896
 2290TIP3   OH2 6833   0.045   3.955   0.014  0.7572 -0.4842  0.2003
 2290TIP3    H1 6834  -0.050   3.958   0.029  0.8406 -0.7243  0.8295
 2290TIP3    H2 6835   0.082   3.940   0.101  1.4613  1.1218  0.2124
 2291TIP3   OH2 6836   1.114   3.445   4.791 -0.2156  0.0601 -0.1955
 2291TIP3    H1 6837   1.208   3.462   4.799 -0.0633 -0.9838  0.4124
 2291TIP3    H2 6838   1.096   3.454   4.697  0.2419  1.4471 -0.1681
 2292TIP3   OH2 6839   7.041   3.530   5.383  0.8289 -0.1437  0.3102
 2292TIP3    H1 6840   7.023   3.624   5.384 -2.0396 -0.5223 -1.4288
 2292TIP3    H2 6841   7.119   3.521   5.329 -0.9570  1.1434 -2.7465
 2293TIP3   OH2 6842   3.428   4.365   5.702 -0.3008 -0.2050 -0.2911
 2293TIP3    H1 6843   3.371   4.293   5.729  0.2362 -0.3543  0.4731
 2293TIP3    H2 6844   3.479   4.386   5.780 -0.8021  1.3506 -0.3588
 2294TIP3   OH2 6845   3.214   3.572   4.834  0.2026 -0.1661 -0.4066
 2294TIP3    H1 6846   3.274   3.581   4.760  0.4738  1.6440 -0.0242
 2294TIP3    H2 6847   3.269   3.549   4.908  0.0005 -1.4416 -0.6291
 2295TIP3   OH2 6848   5.867   5.887   1.286  0.2620  0.2143  0.4350
 2295TIP3    H1 6849   5.867   5.793   1.309 -1.3392  0.8690  3.7410
 2295TIP3    H2 6850   5.937   5.924   1.341  0.8623  0.9984 -0.8239
 2296TIP3   OH2 6851   2.814   3.110   0.168  0.2250  0.7803 -0.4253
 2296TIP3    H1 6852   2.809   3.169   0.244 -1.8012 -0.3735  0.4169
 2296TIP3    H2 6853   2.724   3.080   0.155  0.9110 -0.7946 -1.9145
 2297TIP3   OH2 6854   0.764   1.839   3.000 -0.1116 -0.1271  0.0805
 2297TIP3    H1 6855   0.720   1.779   3.061 -2.4606  0.0619 -1.3043
 2297TIP3    H2 6856   0.830   1.786   2.956 -1.1419 -1.3291 -0.0554
 2298TIP3   OH2 6857   7.126   5.437   5.777  0.5505 -0.2859  0.3382
 2298TIP3    H1 6858   7.101   5.348   5.803 -0.3991  0.4625  2.1629
 2298TIP3    H2 6859   7.198   5.460   5.837  0.9509  0.1048 -0.2799
 2299TIP3   OH2 6860   6.187   1.991   5.214  0.1815  0.1972  0.0797
 2299TIP3    H1 6861   6.275   2.026   5.210  0.7886 -1.3209 -0.5969
 2299TIP3    H2 6862   6.152   2.002   5.125 -0.2256  0.5573  0.2778
 2300TIP3   OH2 6863   6.379   1.222   4.158 -0.3345  0.6536  0.1320
 2300TIP3    H1 6864   6.462   1.182   4.134 -0.8912 -1.1035  0.9510
 2300TIP3    H2 6865   6.313   1.166   4.118 -1.1414  1.5236  0.2103
 2301TIP3   OH2 6866   0.978   3.216   4.371  0.3233  0.0339 -0.6484
 2301TIP3    H1 6867   1.006   3.294   4.419  1.0104 -0.6527  0.1002
 2301TIP3    H2 6868   0.984   3.241   4.279 -1.3814  1.5073 -0.4313
 2302TIP3   OH2 6869   7.160   4.154   4.115 -0.2561 -0.2075 -0.1931
 2302TIP3    H1 6870   7.182   4.061   4.116  0.2706 -0.0893 -0.4661
 2302TIP3    H2 6871   7.080   4.161   4.167 -0.7476 -0.9271 -0.8454
 2303TIP3   OH2 6872   0.911   3.719   0.092 -0.1821 -0.1208  0.1339
 2303TIP3    H1 6873   0.956   3.732   0.175 -0.2695  2.6419 -0.1625
 2303TIP3    H2 6874   0.838   3.661   0.113  1.0302 -1.2391  1.4895
 2304TIP3   OH2 6875   6.021   1.950   5.462  0.1114 -0.0124 -0.1339
 2304TIP3    H1 6876   6.048   1.867   5.424 -1.4128 -1.3948  1.6605
 2304TIP3    H2 6877   6.102   2.001   5.469  1.5457 -2.3103  1.0413
 2305TIP3   OH2 6878   0.784   4.385   5.123 -0.0300 -0.2737 -0.2010
 2305TIP3    H1 6879   0.708   4.353   5.076  0.7845 -1.6400 -0.6228
 2305TIP3    H2 6880   0.765   4.367   5.215 -0.2015 -0.6396 -0.3083
 2306TIP3   OH2 6881   1.765   3.933   4.701 -0.0123 -0.0273 -0.5219
 2306TIP3    H1 6882   1.730   4.009   4.654 -1.6356 -0.5192 -0.1921
 2306TIP3    H2 6883   1.709   3.925   4.778  1.3208 -0.4642  0.4243
 2307TIP3   OH2 6884   0.452  -0.011   2.765 -0.5905  0.4223 -0.0737
 2307TIP3    H1 6885   0.513   0.038   2.710  2.0070 -1.6342  0.7731
 2307TIP3    H2 6886   0.432   0.049   2.837  1.0703  0.9274  0.0135
 2308TIP3   OH2 6887   5.653   0.533   3.158  0.5690  0.0579 -0.2296
 2308TIP3    H1 6888   5.580   0.592   3.140  2.3792  2.7338  0.5927
 2308TIP3    H2 6889   5.634   0.496   3.245 -0.5037 -0.4957 -0.6844
 2309TIP3   OH2 6890   6.670   2.078   3.411  0.0023  0.3139  0.2789
 2309TIP3    H1 6891   6.581   2.078   3.375  0.2986  0.5016 -0.4817
 2309TIP3    H2 6892   6.659   2.104   3.503 -0.7837 -0.2691  0.3537
 2310TIP3   OH2 6893   2.022   6.166   1.293  0.3379 -0.2941 -0.5324
 2310TIP3    H1 6894   2.088   6.111   1.334 -1.5072 -1.6840  0.7317
 2310TIP3    H2 6895   1.994   6.226   1.363 -0.7672 -0.7306 -0.5732
 2311TIP3   OH2 6896   3.246   6.741   3.365 -0.2716 -0.2201 -0.1243
 2311TIP3    H1 6897   3.251   6.833   3.340  0.2173 -0.6023 -1.5731
 2311TIP3    H2 6898   3.240   6.741   3.460 -1.0583  1.3261 -0.1468
 2312TIP3   OH2 6899   2.535   2.563   3.813 -0.3872 -0.5246 -0.1086
 2312TIP3    H1 6900   2.539   2.505   3.737  0.1066  0.8973 -1.1898
 2312TIP3    H2 6901   2.478   2.635   3.786  0.0259  0.1498  0.7582
 2313TIP3   OH2 6902   1.081   0.622   3.718  0.0697  0.3034 -0.2552
 2313TIP3    H1 6903   0.998   0.586   3.687  0.2378  0.6624 -1.1567
 2313TIP3    H2 6904   1.105   0.688   3.652  0.6829  0.7509  0.3983
 2314TIP3   OH2 6905   5.909   4.008   5.364 -0.4551  0.0268 -0.0976
 2314TIP3    H1 6906   5.996   3.970   5.353  0.6237  2.3058 -0.0159
 2314TIP3    H2 6907   5.888   3.994   5.456 -0.6129 -1.3469 -0.3256
 2315TIP3   OH2 6908   2.264   3.208   0.062  0.1750 -0.3092  0.4364
 2315TIP3    H1 6909   2.251   3.259   0.142 -1.9766  0.7984 -0.5362
 2315TIP3    H2 6910   2.181   3.215   0.016  1.5219 -0.4036 -2.1860
 2316TIP3   OH2 6911   3.975   5.403   0.438  0.3247 -0.1853 -0.6071
 2316TIP3    H1 6912   3.972   5.493   0.404  0.3788 -0.3050 -0.9310
 2316TIP3    H2 6913   3.973   5.348   0.360  1.5560 -0.4475 -0.4662
 2317TIP3   OH2 6914   6.333   2.823   0.226  0.5939  0.2833 -0.0514
 2317TIP3    H1 6915   6.334   2.904   0.276 -0.0020  0.1813  0.1263
 2317TIP3    H2 6916   6.243   2.814   0.196  0.4978 -0.6432  0.4827
 2318TIP3   OH2 6917   0.779   6.011   5.862 -0.4770  0.6368  0.0336
 2318TIP3    H1 6918   0.715   5.976   5.799 -1.2355  1.0892  0.5303
 2318TIP3    H2 6919   0.732   6.011   5.945 -0.5343  2.8527  0.0437
 2319TIP3   OH2 6920   6.554   1.924   5.283  0.7022 -0.2872  0.3194
 2319TIP3    H1 6921   6.593   2.010   5.300 -1.0071  0.4009  0.9709
 2319TIP3    H2 6922   6.576   1.873   5.361  1.5442 -0.4003  0.0225
 2320TIP3   OH2 6923   6.127   1.488   5.467  0.4580 -0.3600 -0.3686
 2320TIP3    H1 6924   6.087   1.419   5.416  1.2685 -0.8987 -0.2989
 2320TIP3    H2 6925   6.054   1.536   5.505 -0.1754  0.1054 -2.0790
 2321TIP3   OH2 6926   5.779   1.807   5.005  0.4119  0.9790 -0.4478
 2321TIP3    H1 6927   5.872   1.800   4.983  0.5961 -1.5934  0.6920
 2321TIP3    H2 6928   5.736   1.744   4.948 -0.7007  2.2637 -1.0742
 2322TIP3   OH2 6929   5.422   5.294   5.796  0.3408  0.1805  0.0576
 2322TIP3    H1 6930   5.354   5.358   5.819  0.1745  0.0759 -0.1400
 2322TIP3    H2 6931   5.375   5.221   5.756  0.2284 -1.2760  2.6388
 2323TIP3   OH2 6932   5.988   4.854   1.796  0.5483  0.3714 -0.1331
 2323TIP3    H1 6933   6.077   4.870   1.825  1.4708 -0.2961 -2.4033
 2323TIP3    H2 6934   5.991   4.861   1.701 -1.1550 -2.5497 -0.5380
 2324TIP3   OH2 6935   4.117   3.256   0.794  0.3766 -0.0102  0.1991
 2324TIP3    H1 6936   4.171   3.192   0.841  2.0269  0.9666 -0.2609
 2324TIP3    H2 6937   4.128   3.337   0.843 -0.5307  0.2682 -0.0386
 2325TIP3   OH2 6938   2.206   6.481   4.611 -0.2741 -0.0192 -0.5161
 2325TIP3    H1 6939   2.131   6.440   4.567 -1.3781  0.1620  1.0944
 2325TIP3    H2 6940   2.229   6.555   4.555 -0.4137 -0.8889 -1.7430
 2326TIP3   OH2 6941   5.640   2.216   2.524  0.1660  0.2086 -0.6570
 2326TIP3    H1 6942   5.618   2.140   2.470 -1.2453  1.4700 -1.9505
 2326TIP3    H2 6943   5.683   2.277   2.464 -1.6751  1.7604 -0.4824
 2327TIP3   OH2 6944   6.942   5.897   3.294 -0.3170  0.4763 -0.8183
 2327TIP3    H1 6945   6.941   5.801   3.296 -0.0467  0.4633 -1.2498
 2327TIP3    H2 6946   6.994   5.919   3.217 -0.0073  0.9690 -0.4799
 2328TIP3   OH2 6947   2.953   5.348   5.438 -0.0129  0.0828  0.8841
 2328TIP3    H1 6948   2.947   5.271   5.496 -1.4416 -0.3416  0.2162
 2328TIP3    H2 6949   3.039   5.340   5.397 -1.4285 -3.2976 -1.9451
 2329TIP3   OH2 6950   0.451   1.672   0.908  0.0621  0.6761 -0.0261
 2329TIP3    H1 6951   0.538   1.711   0.920 -0.3226  1.2769  0.9116
 2329TIP3    H2 6952   0.436   1.675   0.813  0.4488  1.9413 -0.0666
 2330TIP3   OH2 6953   3.843   6.775   0.072  0.4361 -0.0359  0.0717
 2330TIP3    H1 6954   3.774   6.711   0.058  0.1051 -0.0382  1.5791
 2330TIP3    H2 6955   3.859   6.812  -0.015 -3.0314  1.5998 -0.0362
 2331TIP3   OH2 6956   1.736   6.559   3.089 -0.5153 -0.4901 -0.0742
 2331TIP3    H1 6957   1.746   6.654   3.088 -1.6971 -0.3510 -1.0514
 2331TIP3    H2 6958   1.667   6.542   3.025  0.3731 -2.0927 -0.6368
 2332TIP3   OH2 6959   5.276   4.491   5.128 -0.0135  0.3278 -0.5339
 2332TIP3    H1 6960   5.354   4.451   5.167 -1.0517 -1.8553 -0.5711
 2332TIP3    H2 6961   5.287   4.585   5.145  0.8109 -0.2325  2.8627
 2333TIP3   OH2 6962   2.100   1.950   3.643  0.0025  0.3631  0.1681
 2333TIP3    H1 6963   2.028   1.927   3.584  0.7077 -0.9322 -0.2068
 2333TIP3    H2 6964   2.159   2.003   3.590 -0.8704  1.8617  0.6124
 2334TIP3   OH2 6965   6.324   2.321   3.629 -0.3160 -0.3408 -0.5519
 2334TIP3    H1 6966   6.381   2.333   3.705 -0.9950  0.0595 -0.1072
 2334TIP3    H2 6967   6.276   2.403   3.621  0.8111  0.2214 -2.3245
 2335TIP3   OH2 6968   3.623   4.326   4.922 -0.0638 -0.5040 -0.2913
 2335TIP3    H1 6969   3.630   4.355   5.013 -1.3897 -0.2498 -0.2444
 2335TIP3    H2 6970   3.710   4.293   4.900  0.8240  1.2370  0.4395
 2336TIP3   OH2 6971   6.963   1.759   0.779 -0.1136 -0.0073 -0.2965
 2336TIP3    H1 6972   7.016   1.719   0.710 -1.0526 -1.2137 -0.3689
 2336TIP3    H2 6973   6.884   1.788   0.734 -0.0518  0.6459  0.0131
 2337TIP3   OH2 6974   6.970   6.490   3.910  0.4609  0.0886  0.0614
 2337TIP3    H1 6975   7.040   6.490   3.975  0.1931  0.5418  0.3560
 2337TIP3    H2 6976   6.986   6.569   3.858  0.1790  0.1868  0.1225
 2338TIP3   OH2 6977   1.660   2.431   0.915  0.0042 -0.3033 -0.0492
 2338TIP3    H1 6978   1.754   2.426   0.930  0.2853  1.1396 -1.1136
 2338TIP3    H2 6979   1.646   2.518   0.877 -1.6553 -0.7858 -0.6346
 2339TIP3   OH2 6980   4.798   2.613   3.789 -0.2603 -0.1267 -0.0694
 2339TIP3    H1 6981   4.751   2.696   3.793 -0.1197 -0.0926  1.5219
 2339TIP3    H2 6982   4.888   2.636   3.812 -0.2279 -0.7176  0.4186
 2340TIP3   OH2 6983   6.159   4.622   0.408  0.1714  0.4829  0.2864
 2340TIP3    H1 6984   6.077   4.607   0.455  0.2376  1.2710  0.6723
 2340TIP3    H2 6985   6.132   4.645   0.320  0.0788 -3.7077 -1.0117
 2341TIP3   OH2 6986   6.067   0.806   1.077  0.0076 -0.2263  0.3774
 2341TIP3    H1 6987   5.991   0.835   1.027 -0.8671 -0.1621  1.6939
 2341TIP3    H2 6988   6.080   0.873   1.143  0.0329 -1.1431  1.3400
 2342TIP3   OH2 6989   2.052   1.673   0.356  0.0942 -0.1028  0.0713
 2342TIP3    H1 6990   2.037   1.672   0.262 -0.2713  1.2161  0.0850
 2342TIP3    H2 6991   2.142   1.643   0.367  0.3879  0.4270 -0.7729
 2343TIP3   OH2 6992   0.882   6.554   3.909 -0.1994  0.0771  0.3054
 2343TIP3    H1 6993   0.945   6.569   3.838 -0.2257 -0.6077  0.1384
 2343TIP3    H2 6994   0.920   6.600   3.984  1.1185 -1.3099  0.5307
 2344TIP3   OH2 6995   3.093   1.691   2.095  0.3622 -0.1338  0.4872
 2344TIP3    H1 6996   3.161   1.757   2.082 -0.4791  0.3000 -2.3722
 2344TIP3    H2 6997   3.028   1.734   2.151  0.3140  1.1416 -0.5028
 2345TIP3   OH2 6998   6.005   3.034   1.106 -0.0922 -0.7395 -0.3864
 2345TIP3    H1 6999   6.052   3.085   1.172 -0.4589 -1.3175  0.3297
 2345TIP3    H2 7000   6.074   3.000   1.049  0.2473 -0.4550 -0.1538
 2346TIP3   OH2 7001   1.907   0.765   0.990 -0.0195  0.5893 -0.3041
 2346TIP3    H1 7002   1.857   0.761   1.072 -1.6783 -0.4031 -1.2962
 2346TIP3    H2 7003   1.845   0.733   0.924  1.6691  0.2170 -1.7570
 2347TIP3   OH2 7004   0.052   2.195   0.104  0.5545  0.2077  0.0618
 2347TIP3    H1 7005   0.106   2.244   0.042 -0.3510  1.8409  0.4913
 2347TIP3    H2 7006   0.059   2.245   0.185  0.1278 -0.7736  0.7096
 2348TIP3   OH2 7007   3.148   0.049   4.478  0.0207 -0.0441  0.1724
 2348TIP3    H1 7008   3.170   0.001   4.558 -1.1233  1.3979  1.4020
 2348TIP3    H2 7009   3.095   0.122   4.507  0.4211  1.1261 -1.8151
 2349TIP3   OH2 7010   7.020   0.521   1.401 -0.0784  0.1530  0.0496
 2349TIP3    H1 7011   7.047   0.584   1.333  0.6271 -0.6243 -0.4083
 2349TIP3    H2 7012   7.089   0.528   1.468  0.5806 -0.8787 -0.4987
 2350TIP3   OH2 7013   1.420   4.156   4.866 -0.4192 -0.0948  0.3674
 2350TIP3    H1 7014   1.405   4.064   4.845 -0.8206  0.0655 -0.0472
 2350TIP3    H2 7015   1.369   4.205   4.801  0.9659  0.4456 -0.3561
 2351TIP3   OH2 7016   0.796   1.035   2.531  0.0034  0.1096  0.1422
 2351TIP3    H1 7017   0.763   1.115   2.490 -0.3948 -0.2432 -0.2378
 2351TIP3    H2 7018   0.890   1.049   2.539 -0.1143  0.7773  0.4454
 2352TIP3   OH2 7019   0.205   6.456   0.552  1.0317  0.2158 -0.2477
 2352TIP3    H1 7020   0.156   6.501   0.620  0.6060 -1.7934  0.8422
 2352TIP3    H2 7021   0.154   6.376   0.534  0.3489  1.2914 -3.9567
 2353TIP3   OH2 7022   0.896   0.255   0.474  0.0376  0.2344  0.2971
 2353TIP3    H1 7023   0.916   0.163   0.491 -0.8525  0.1077  0.6720
 2353TIP3    H2 7024   0.805   0.256   0.447 -0.2347  1.1137  1.1919
 2354TIP3   OH2 7025   6.295   5.269   0.170 -0.1437  0.2196 -0.3960
 2354TIP3    H1 7026   6.286   5.332   0.241  1.9779  1.3872 -1.0997
 2354TIP3    H2 7027   6.250   5.191   0.202 -0.1800  1.0655  1.7716
 2355TIP3   OH2 7028   5.139   1.878   4.112 -0.5751  0.0320 -0.2942
 2355TIP3    H1 7029   5.185   1.902   4.193 -1.0341  4.4508 -1.0989
 2355TIP3    H2 7030   5.180   1.932   4.044 -3.1559 -0.1423 -2.1212
 2356TIP3   OH2 7031   4.546   3.558   2.701  0.4558 -0.0435  0.1040
 2356TIP3    H1 7032   4.607   3.508   2.755  1.7715 -0.8614 -2.0076
 2356TIP3    H2 7033   4.460   3.520   2.720  1.0116 -0.9449  0.9099
 2357TIP3   OH2 7034   4.020   0.409   3.898 -0.3539  0.0389 -0.2346
 2357TIP3    H1 7035   4.069   0.377   3.974 -1.4529 -2.0255 -0.3381
 2357TIP3    H2 7036   4.022   0.505   3.908  2.9904  0.0642  0.1658
 2358TIP3   OH2 7037   5.897   5.858   0.986 -0.0652  0.2480 -0.1448
 2358TIP3    H1 7038   5.918   5.865   1.080  0.1098 -0.8586 -0.0870
 2358TIP3    H2 7039   5.904   5.948   0.953 -0.6170  0.7373  0.9983
 2359TIP3   OH2 7040   0.417   2.096   3.822 -0.5474  0.1236 -0.0361
 2359TIP3    H1 7041   0.365   2.069   3.747 -0.9082 -0.4074  0.4004
 2359TIP3    H2 7042   0.399   2.031   3.889  1.5462 -0.7466 -0.2382
 2360TIP3   OH2 7043   4.433   0.688   4.800  0.2310 -0.0658  0.2473
 2360TIP3    H1 7044   4.378   0.764   4.817 -0.5317 -0.0070 -2.1675
 2360TIP3    H2 7045   4.508   0.700   4.858 -0.6929  1.6081  1.1721
 2361TIP3   OH2 7046   5.985   0.689   5.300 -0.4537 -0.2344  0.3082
 2361TIP3    H1 7047   5.966   0.668   5.392 -2.0639  1.8138  0.5012
 2361TIP3    H2 7048   6.080   0.691   5.296 -0.3300  0.8644  2.2667
 2362TIP3   OH2 7049   0.060   5.171   5.579 -0.1161 -0.2958  0.3098
 2362TIP3    H1 7050   0.042   5.089   5.535 -1.9208  0.5770 -0.6704
 2362TIP3    H2 7051   0.023   5.160   5.667 -1.2171 -0.2068 -0.1342
 2363TIP3   OH2 7052   0.081   6.284   2.871 -0.1278  0.0567  0.6152
 2363TIP3    H1 7053   0.041   6.285   2.784  0.0205 -0.3319  0.5405
 2363TIP3    H2 7054   0.173   6.262   2.854 -0.5731 -2.4509  1.0399
 2364TIP3   OH2 7055   5.956   6.399   2.539  0.2591 -0.6358 -0.4119
 2364TIP3    H1 7056   5.971   6.365   2.627 -0.4404  1.2865  0.4944
 2364TIP3    H2 7057   5.897   6.473   2.550 -0.3771 -0.7280 -2.5867
 2365TIP3   OH2 7058   4.162   1.517   1.567 -0.0679 -0.2257 -0.2139
 2365TIP3    H1 7059   4.090   1.486   1.513  0.4299 -2.6452  0.3864
 2365TIP3    H2 7060   4.235   1.531   1.506  0.0588 -1.5162 -0.3860
 2366TIP3   OH2 7061   4.203   3.051   0.168  0.2104 -0.0804 -0.2822
 2366TIP3    H1 7062   4.140   3.114   0.203  1.6346  1.9675 -1.1489
 2366TIP3    H2 7063   4.181   2.968   0.211 -1.2912  1.1568  1.5157
 2367TIP3   OH2 7064   7.133   3.206   3.946 -0.3261  0.1012 -0.2037
 2367TIP3    H1 7065   7.113   3.258   3.868  1.8531  1.0026 -0.2178
 2367TIP3    H2 7066   7.183   3.131   3.912  1.4194  0.9637  0.3721
 2368TIP3   OH2 7067   2.160   2.674   4.384 -0.1604 -0.1830 -0.6214
 2368TIP3    H1 7068   2.154   2.690   4.478  0.1566 -0.8645 -0.4780
 2368TIP3    H2 7069   2.149   2.760   4.344 -1.7771 -0.0834 -0.0301
 2369TIP3   OH2 7070   7.040   5.999   1.247  0.3304 -0.1579 -0.0976
 2369TIP3    H1 7071   7.041   5.971   1.155 -0.5228  1.3922 -0.6138
 2369TIP3    H2 7072   7.077   6.087   1.246 -0.4898  0.2163  0.9048
 2370TIP3   OH2 7073   6.061   3.791   4.787  0.2994 -0.3667  0.0234
 2370TIP3    H1 7074   6.098   3.705   4.806 -0.3912 -0.8271 -0.6875
 2370TIP3    H2 7075   5.988   3.774   4.728  1.0234  0.8209 -1.2770
 2371TIP3   OH2 7076   5.491   5.143   1.570  0.0508 -0.2473 -0.5825
 2371TIP3    H1 7077   5.443   5.063   1.588 -0.5381  0.3718  0.7007
 2371TIP3    H2 7078   5.437   5.190   1.506 -0.6498  0.0548  0.2128
 2372TIP3   OH2 7079   3.434   1.848   3.944 -0.0663 -0.3964 -0.3460
 2372TIP3    H1 7080   3.451   1.938   3.918  0.7573 -0.4974 -0.1889
 2372TIP3    H2 7081   3.377   1.855   4.021  0.6168  0.0226  0.1390
 2373TIP3   OH2 7082   1.290   2.560   5.204 -0.2850 -0.6245  0.0795
 2373TIP3    H1 7083   1.314   2.558   5.296  0.5505  0.7636 -0.0760
 2373TIP3    H2 7084   1.250   2.474   5.187  1.5051 -1.7375  1.1928
 2374TIP3   OH2 7085   4.035   4.940   2.215  0.3432  0.6095 -0.1937
 2374TIP3    H1 7086   3.952   4.894   2.226  1.3321 -1.1063  0.4182
 2374TIP3    H2 7087   4.048   4.986   2.297  0.5572 -0.0975  0.1771
 2375TIP3   OH2 7088   5.497   3.873   1.861  0.4935  0.1125  0.1224
 2375TIP3    H1 7089   5.477   3.903   1.772 -0.6861  0.9175  0.6327
 2375TIP3    H2 7090   5.582   3.830   1.853  0.1330 -0.3725 -1.5064
 2376TIP3   OH2 7091   0.272   1.166   4.803  0.3488 -0.6194 -0.1344
 2376TIP3    H1 7092   0.280   1.220   4.724  2.4694 -0.3703  0.1790
 2376TIP3    H2 7093   0.339   1.200   4.862 -0.7894 -1.2055  1.5475
 2377TIP3   OH2 7094   4.534   6.011   2.703 -0.4939  0.3081  0.8248
 2377TIP3    H1 7095   4.573   5.969   2.779  0.6469 -0.6002 -0.2113
 2377TIP3    H2 7096   4.498   6.094   2.736  0.3925  0.1562  2.2407
 2378TIP3   OH2 7097   1.837   6.541   2.408 -0.0127  1.2559  0.1178
 2378TIP3    H1 7098   1.826   6.531   2.503  1.6842  3.1425  0.5747
 2378TIP3    H2 7099   1.782   6.472   2.370  0.3395 -0.4403  2.4873
 2379TIP3   OH2 7100   1.022   0.805   5.734  0.1876 -0.2067  0.5892
 2379TIP3    H1 7101   1.045   0.725   5.781  0.1696 -0.5490  0.0340
 2379TIP3    H2 7102   0.928   0.795   5.714  0.6281 -1.0423 -1.3031
 2380TIP3   OH2 7103   4.482   6.506   1.704  0.3067 -0.0518  0.5326
 2380TIP3    H1 7104   4.551   6.570   1.689  0.7672 -1.0377 -2.0385
 2380TIP3    H2 7105   4.525   6.421   1.693 -0.9955 -0.7330  0.4682
 2381TIP3   OH2 7106   2.256   0.154   0.769 -0.1791 -0.0238 -0.2978
 2381TIP3    H1 7107   2.195   0.107   0.827  0.0674 -2.4977 -1.8846
 2381TIP3    H2 7108   2.337   0.104   0.775  0.6851  1.2797 -0.7611
 2382TIP3   OH2 7109   2.256  -0.016   4.923  0.1829 -0.3315 -0.1914
 2382TIP3    H1 7110   2.317   0.053   4.896 -0.3136  0.4852  0.7045
 2382TIP3    H2 7111   2.181   0.032   4.960  0.7032 -1.3558  2.3499
 2383TIP3   OH2 7112   2.421   3.624   5.024  0.0682  0.2927 -0.3044
 2383TIP3    H1 7113   2.329   3.618   5.000  0.2264 -1.5421 -0.5895
 2383TIP3    H2 7114   2.437   3.718   5.033 -1.1232  0.8645 -3.0064
 2384TIP3   OH2 7115   1.051   1.998   1.388  0.0175 -0.2019  0.1392
 2384TIP3    H1 7116   1.122   2.002   1.453  2.1717  1.0673 -2.1152
 2384TIP3    H2 7117   1.061   1.912   1.347  1.1569  0.4674 -1.0509
 2385TIP3   OH2 7118   6.534   3.479   4.339  0.2173  0.5015 -0.2295
 2385TIP3    H1 7119   6.548   3.483   4.245 -1.0850  0.1641 -0.4473
 2385TIP3    H2 7120   6.508   3.389   4.356  1.1038  0.3801  0.5582
 2386TIP3   OH2 7121   2.453   5.712   0.539  0.5968 -0.0190 -1.0881
 2386TIP3    H1 7122   2.397   5.745   0.469 -0.2306 -0.4825 -0.6634
 2386TIP3    H2 7123   2.541   5.745   0.518  0.3599 -0.1380 -2.3203
 2387TIP3   OH2 7124   5.797   5.653   2.708 -0.0705 -0.0915 -0.0408
 2387TIP3    H1 7125   5.808   5.651   2.613 -1.5704 -0.2028 -0.2323
 2387TIP3    H2 7126   5.760   5.740   2.725  1.8341  0.6275  0.6658
 2388TIP3   OH2 7127   3.519   3.593   0.836  0.2862  0.0983  0.4906
 2388TIP3    H1 7128   3.550   3.683   0.843  0.1581  0.0660  1.5803
 2388TIP3    H2 7129   3.431   3.600   0.799  0.3640  0.3978  0.3636
 2389TIP3   OH2 7130   1.387   3.365   0.277  1.1723  0.1848  0.7415
 2389TIP3    H1 7131   1.417   3.275   0.264  2.5585  0.8567 -1.2273
 2389TIP3    H2 7132   1.351   3.390   0.192  2.9206  2.2109  0.5380
 2390TIP3   OH2 7133   3.404   3.798   3.378 -0.0706  0.5359  0.1735
 2390TIP3    H1 7134   3.493   3.799   3.413  0.2945 -1.8955 -0.4893
 2390TIP3    H2 7135   3.382   3.705   3.372 -2.6833  1.0729  0.3279
 2391TIP3   OH2 7136   4.521   2.552   5.626 -0.3034  0.1776  0.0128
 2391TIP3    H1 7137   4.484   2.611   5.560  1.5761  1.5713  0.1243
 2391TIP3    H2 7138   4.550   2.610   5.696 -0.8052 -1.1477  1.3575
 2392TIP3   OH2 7139   3.845   2.058   2.671 -0.0188  0.4385  0.1422
 2392TIP3    H1 7140   3.793   2.066   2.591  0.2649 -0.3268 -0.1226
 2392TIP3    H2 7141   3.933   2.087   2.646  0.0477  0.2917  0.2035
 2393TIP3   OH2 7142   6.791   6.011   0.766 -0.5281 -0.1890  0.1012
 2393TIP3    H1 7143   6.846   6.044   0.696  1.2439 -0.1604  1.4223
 2393TIP3    H2 7144   6.806   5.916   0.765 -0.0146 -0.1229  0.8001
 2394TIP3   OH2 7145   3.720   6.558   3.755  0.0536  0.7219 -0.1553
 2394TIP3    H1 7146   3.803   6.515   3.733 -0.1529  0.9367 -1.4291
 2394TIP3    H2 7147   3.714   6.630   3.693 -0.5475  1.4111  0.6902
 2395TIP3   OH2 7148   0.933   3.680   5.246 -0.0375  0.0894 -0.2841
 2395TIP3    H1 7149   0.946   3.595   5.289  0.1222  1.7238  3.2174
 2395TIP3    H2 7150   1.009   3.689   5.188  1.6060 -0.8758  1.6081
 2396TIP3   OH2 7151   2.381   3.603   5.690 -0.3348 -0.2795 -0.0062
 2396TIP3    H1 7152   2.456   3.648   5.652 -0.3818  1.5279  1.8277
 2396TIP3    H2 7153   2.333   3.672   5.737 -1.9711 -1.7763  0.6491
 2397TIP3   OH2 7154   4.773   5.776   0.681  0.0901 -0.2124 -0.0176
 2397TIP3    H1 7155   4.836   5.742   0.744 -0.4688 -1.5440 -0.1513
 2397TIP3    H2 7156   4.751   5.702   0.625 -1.1450  0.3667 -0.3493
 2398TIP3   OH2 7157   6.630   2.892   2.116  0.5012  0.1228 -0.0168
 2398TIP3    H1 7158   6.608   2.807   2.155 -0.3201  0.3415  0.0064
 2398TIP3    H2 7159   6.721   2.906   2.141  1.0761 -1.3679 -1.1443
 2399TIP3   OH2 7160   4.305   2.016   0.474 -0.1020  0.6987 -0.1353
 2399TIP3    H1 7161   4.279   2.064   0.395  1.1779 -0.5817 -1.3905
 2399TIP3    H2 7162   4.390   2.051   0.497  0.5907 -0.5278 -0.7306
 2400TIP3   OH2 7163   3.798   4.000   3.965 -0.4949  0.0071 -0.1062
 2400TIP3    H1 7164   3.729   4.056   3.928  0.3841  1.9329  1.0279
 2400TIP3    H2 7165   3.806   4.029   4.056  2.2329  0.2783 -0.3583
 2401TIP3   OH2 7166   3.288   2.670   5.821 -0.1961  0.0570 -0.2027
 2401TIP3    H1 7167   3.332   2.590   5.850  0.8666  1.0180  0.9910
 2401TIP3    H2 7168   3.355   2.717   5.770 -0.7831  0.2315 -0.8309
 2402TIP3   OH2 7169   3.479   3.821   5.154 -0.3212  0.0609 -0.0671
 2402TIP3    H1 7170   3.420   3.774   5.213 -0.0449 -1.3620 -0.8720
 2402TIP3    H2 7171   3.435   3.819   5.069  0.7685 -0.8501 -0.6302
 2403TIP3   OH2 7172   3.287   2.804   2.040 -0.2817 -0.1417  0.2810
 2403TIP3    H1 7173   3.275   2.721   1.992  1.3271  0.1063 -0.6102
 2403TIP3    H2 7174   3.211   2.857   2.015 -0.6846 -0.8929 -0.1292
 2404TIP3   OH2 7175   6.802   1.091   1.101  0.0437  0.6239  0.7532
 2404TIP3    H1 7176   6.879   1.035   1.093 -1.1115 -1.2537  2.0119
 2404TIP3    H2 7177   6.801   1.119   1.193 -1.3237 -0.2900  1.0519
 2405TIP3   OH2 7178   2.712   4.033   4.349  0.4757  0.1780  0.5169
 2405TIP3    H1 7179   2.666   3.953   4.376 -0.2428 -0.2067 -1.6107
 2405TIP3    H2 7180   2.657   4.069   4.279  2.0714  1.1886 -0.2634
 2406TIP3   OH2 7181   2.440   2.342   4.965  0.3246 -0.2062 -0.2852
 2406TIP3    H1 7182   2.418   2.433   4.987  1.0127 -0.1064  0.0052
 2406TIP3    H2 7183   2.464   2.302   5.048  0.8031 -0.4314 -0.5256
 2407TIP3   OH2 7184   2.759   3.458   0.081  0.7508 -0.1375 -0.1659
 2407TIP3    H1 7185   2.679   3.467   0.133  0.4798  0.5497 -0.6957
 2407TIP3    H2 7186   2.769   3.364   0.069  0.6565 -0.2976  0.8710
 2408TIP3   OH2 7187   6.725   5.443   2.600  0.1726  0.4353 -0.0473
 2408TIP3    H1 7188   6.766   5.516   2.647  0.4778  0.1688  0.1082
 2408TIP3    H2 7189   6.634   5.469   2.589  0.1850  0.6613  0.3684
 2409TIP3   OH2 7190   0.760   4.278   3.039  0.4659 -0.0584  0.0085
 2409TIP3    H1 7191   0.726   4.368   3.036  0.2720 -0.1164  0.3348
 2409TIP3    H2 7192   0.716   4.233   2.967 -0.1690 -0.1344  0.4260
 2410TIP3   OH2 7193   3.065   1.900   5.715  0.3124 -0.2377  0.1877
 2410TIP3    H1 7194   3.072   1.989   5.749  1.2051  0.2928 -1.2661
 2410TIP3    H2 7195   3.054   1.845   5.792  2.8530  0.8020  1.4009
 2411TIP3   OH2 7196   4.232   4.159   5.498  0.4119  0.3458 -0.2856
 2411TIP3    H1 7197   4.255   4.066   5.503  0.9158  0.3844 -1.4637
 2411TIP3    H2 7198   4.140   4.159   5.470  0.8517  0.1651 -1.8655
 2412TIP3   OH2 7199   4.819   6.645   0.562  0.0971 -0.3417  0.3998
 2412TIP3    H1 7200   4.790   6.736   0.568 -1.2041 -0.6928 -0.1850
 2412TIP3    H2 7201   4.910   6.647   0.592 -0.0015  1.0936  0.6907
 2413TIP3   OH2 7202   5.317   6.167   4.090 -0.2793  0.1287 -0.0658
 2413TIP3    H1 7203   5.400   6.163   4.043  0.9623 -0.9026  2.0623
 2413TIP3    H2 7204   5.320   6.252   4.135  0.3227 -0.5163  1.1507
 2414TIP3   OH2 7205   3.215   3.646   2.376  0.2281  1.1516 -0.1912
 2414TIP3    H1 7206   3.294   3.637   2.430 -0.2512  1.8795  0.6513
 2414TIP3    H2 7207   3.165   3.566   2.392  1.1903  0.2546 -1.4351
 2415TIP3   OH2 7208   1.674   3.373   2.269 -0.2626 -0.3666 -0.2403
 2415TIP3    H1 7209   1.620   3.453   2.271 -0.1810 -0.2912 -0.8615
 2415TIP3    H2 7210   1.630   3.314   2.330 -1.1125 -0.3431 -0.8104
 2416TIP3   OH2 7211   0.157   1.963   5.070  0.0545  0.0483 -0.3042
 2416TIP3    H1 7212   0.090   1.986   5.134  1.3434  0.2618  1.0304
 2416TIP3    H2 7213   0.192   1.879   5.101  0.9038  0.3048 -0.5421
 2417TIP3   OH2 7214   7.165   6.474   4.121 -0.0499 -0.1430  0.2543
 2417TIP3    H1 7215   7.122   6.411   4.180  1.3586 -1.2142  0.1850
 2417TIP3    H2 7216   7.245   6.499   4.168  1.6770 -1.8513 -1.5759
 2418TIP3   OH2 7217   2.063   0.383   5.607 -0.4990 -0.0649  0.4688
 2418TIP3    H1 7218   2.050   0.290   5.620 -0.6194 -0.3610 -1.4035
 2418TIP3    H2 7219   2.156   0.393   5.588 -0.1007  0.4862  2.4616
 2419TIP3   OH2 7220   0.683   4.911   2.335  0.0982  0.5700 -0.7817
 2419TIP3    H1 7221   0.746   4.948   2.273  1.9640 -0.4629  0.4045
 2419TIP3    H2 7222   0.737   4.882   2.409 -1.7508 -0.6454  0.1490
 2420TIP3   OH2 7223   2.451   6.046   0.645  0.0440  0.0519 -0.2522
 2420TIP3    H1 7224   2.370   6.097   0.652  0.9059  1.7193 -1.6710
 2420TIP3    H2 7225   2.476   6.028   0.736 -1.2211  0.6593  0.2359
 2421TIP3   OH2 7226   6.778   0.684   3.409  0.5263 -0.2531  0.1856
 2421TIP3    H1 7227   6.684   0.673   3.425  0.6432 -0.2732  0.9077
 2421TIP3    H2 7228   6.784   0.706   3.316 -0.2568  0.4746  0.2901
 2422TIP3   OH2 7229   2.648   3.675   2.159 -0.1544 -0.3606  0.4868
 2422TIP3    H1 7230   2.650   3.597   2.214  0.2376 -1.4645 -1.0237
 2422TIP3    H2 7231   2.618   3.644   2.074 -0.7714  1.2986  0.0631
 2423TIP3   OH2 7232   2.593   0.279   0.312  0.4838 -0.3607  0.3837
 2423TIP3    H1 7233   2.637   0.262   0.396  0.6884 -1.3663  0.0902
 2423TIP3    H2 7234   2.514   0.224   0.315  0.2366 -0.0230  0.1208
 2424TIP3   OH2 7235   4.052   3.002   0.473 -0.5325  0.4950  0.5225
 2424TIP3    H1 7236   3.979   2.969   0.420 -0.9333 -0.2487  1.4974
 2424TIP3    H2 7237   4.038   3.096   0.477  1.0337  1.0297 -2.9342
 2425TIP3   OH2 7238   0.237   5.797   1.234 -0.7779 -0.0153 -0.2663
 2425TIP3    H1 7239   0.189   5.857   1.291  0.9584  2.1193 -0.9297
 2425TIP3    H2 7240   0.307   5.763   1.289 -1.0820 -0.5718 -0.2163
 2426TIP3   OH2 7241   6.115   2.201   5.792 -0.0800  0.4217 -0.4080
 2426TIP3    H1 7242   6.182   2.224   5.856  0.6273  1.3623 -1.4642
 2426TIP3    H2 7243   6.048   2.156   5.844  1.1531 -0.1779  0.7347
 2427TIP3   OH2 7244   3.112   3.037   2.577 -0.1183 -0.2960 -0.6469
 2427TIP3    H1 7245   3.049   3.090   2.527 -0.4973 -0.1092  0.0241
 2427TIP3    H2 7246   3.058   2.969   2.618  0.6187 -2.8865 -3.5559
 2428TIP3   OH2 7247   3.306   6.030   0.750  0.0633 -0.3194 -0.0959
 2428TIP3    H1 7248   3.394   6.068   0.744  0.7710 -1.7678  0.6015
 2428TIP3    H2 7249   3.280   6.017   0.658  0.8589 -0.4985 -0.3082
 2429TIP3   OH2 7250   1.231  -0.004   3.615  0.1871  0.1939  0.0874
 2429TIP3    H1 7251   1.136   0.007   3.611  0.2023  0.5737  0.6493
 2429TIP3    H2 7252   1.265   0.083   3.592  0.3522  0.7110  2.0854
 2430TIP3   OH2 7253   1.878   2.830   2.029  0.1862  0.0135  0.3389
 2430TIP3    H1 7254   1.791   2.788   2.025 -1.1938  2.7105 -0.2008
 2430TIP3    H2 7255   1.863   2.911   2.078  2.6278  0.1561  0.9460
 2431TIP3   OH2 7256   0.950   1.571   4.379  0.7503  0.2933  0.2513
 2431TIP3    H1 7257   0.910   1.580   4.293 -0.3245  0.6885  0.7709
 2431TIP3    H2 7258   0.942   1.658   4.418  1.2251  0.1181  0.7478
 2432TIP3   OH2 7259   4.193   1.128   1.785 -0.3611 -0.5536  0.4008
 2432TIP3    H1 7260   4.228   1.217   1.789 -0.9311 -0.3016 -0.0690
 2432TIP3    H2 7261   4.100   1.138   1.803 -0.4891 -1.0097  0.0183
 2433TIP3   OH2 7262   2.027   5.021   4.911 -0.3827 -0.1658  0.1148
 2433TIP3    H1 7263   1.942   5.024   4.954 -0.5498  1.6462 -0.2721
 2433TIP3    H2 7264   2.075   5.095   4.950 -0.4204  1.3445 -2.5062
 2434TIP3   OH2 7265   4.717   3.136   3.780  0.3893 -0.1137 -0.3153
 2434TIP3    H1 7266   4.681   3.218   3.744 -0.0697 -0.4851 -0.7213
 2434TIP3    H2 7267   4.755   3.161   3.864  1.3873  0.7638 -1.0035
 2435TIP3   OH2 7268   1.612   6.309   3.637 -0.2876  0.5379 -0.1529
 2435TIP3    H1 7269   1.564   6.302   3.555  2.3408 -0.8425 -1.7081
 2435TIP3    H2 7270   1.630   6.402   3.647 -2.0576  0.9196 -0.2023
 2436TIP3   OH2 7271   2.513   6.152   1.781 -0.3377  0.0916 -0.9637
 2436TIP3    H1 7272   2.431   6.202   1.780 -1.1689 -1.1723 -0.0329
 2436TIP3    H2 7273   2.507   6.094   1.705 -0.8245 -0.7596 -0.2890
 2437TIP3   OH2 7274   4.483   3.609   1.548  0.8082 -0.3445 -0.3668
 2437TIP3    H1 7275   4.430   3.544   1.594  0.6069 -1.2526 -1.8303
 2437TIP3    H2 7276   4.449   3.693   1.578  0.8089 -0.8811  1.2575
 2438TIP3   OH2 7277   3.112   2.771   1.572  0.1248  0.5256 -0.4605
 2438TIP3    H1 7278   3.093   2.863   1.588 -1.5588  0.3374 -1.1548
 2438TIP3    H2 7279   3.105   2.760   1.477  2.1864  0.0316 -0.6162
 2439TIP3   OH2 7280   6.127   4.243   4.081  0.2622 -0.0364 -0.1787
 2439TIP3    H1 7281   6.215   4.239   4.118  0.2713 -1.6486 -0.2860
 2439TIP3    H2 7282   6.080   4.305   4.136  1.5434  1.0934 -0.3100
 2440TIP3   OH2 7283   3.115   6.032   4.767 -0.1945 -0.5879  0.0681
 2440TIP3    H1 7284   3.180   6.005   4.833 -0.6410 -1.0857  0.3118
 2440TIP3    H2 7285   3.144   6.119   4.740  1.6823 -1.5320 -1.2199
 2441TIP3   OH2 7286   4.461   3.006   0.068  0.2014  0.0351 -0.2683
 2441TIP3    H1 7287   4.446   2.912   0.053  3.2094 -0.5952 -0.0292
 2441TIP3    H2 7288   4.378   3.038   0.103 -1.7826 -1.9347 -2.7389
 2442TIP3   OH2 7289   6.479   1.816   1.785 -0.3652 -0.6460 -0.1746
 2442TIP3    H1 7290   6.389   1.797   1.760 -0.6995  0.2096  0.3430
 2442TIP3    H2 7291   6.531   1.794   1.707 -0.6924 -3.5967  0.3462
 2443TIP3   OH2 7292   5.761   1.777   5.335  0.5458 -0.5350 -0.3269
 2443TIP3    H1 7293   5.849   1.814   5.329  0.4118 -0.3454 -1.2984
 2443TIP3    H2 7294   5.703   1.847   5.306  0.2607 -1.3622 -1.8656
 2444TIP3   OH2 7295   5.682   1.988   2.225  0.0923  0.1822 -0.4385
 2444TIP3    H1 7296   5.646   1.913   2.274 -1.2292  1.0271 -0.0435
 2444TIP3    H2 7297   5.611   2.012   2.165  0.4690  1.1696 -0.4914
 2445TIP3   OH2 7298   4.457   2.430   1.691 -1.0716 -0.1119 -0.1570
 2445TIP3    H1 7299   4.447   2.377   1.612  1.2070 -2.8157  1.1762
 2445TIP3    H2 7300   4.551   2.448   1.696 -1.4956  2.3784  0.5861
 2446TIP3   OH2 7301   1.458   0.159   0.054 -0.4505  0.1338 -0.2487
 2446TIP3    H1 7302   1.495   0.207   0.128  0.7976 -1.3970  0.1808
 2446TIP3    H2 7303   1.535   0.124   0.009 -1.3185 -1.8154 -0.2812
 2447TIP3   OH2 7304   5.344   6.006   1.882  0.6533  0.0277 -0.0966
 2447TIP3    H1 7305   5.316   5.934   1.826  0.1637 -0.3875  0.6632
 2447TIP3    H2 7306   5.409   5.967   1.941  1.1165  0.4444 -0.3219
 2448TIP3   OH2 7307   1.395   4.017   4.566 -0.2507  0.0754  0.1352
 2448TIP3    H1 7308   1.411   4.093   4.511 -2.3059 -1.4878 -2.8635
 2448TIP3    H2 7309   1.464   3.955   4.542 -0.2628 -0.0706  0.4672
 2449TIP3   OH2 7310   6.744   4.035   2.647 -0.5094 -0.1187  0.1223
 2449TIP3    H1 7311   6.784   4.121   2.641 -1.8711  0.4649 -1.8822
 2449TIP3    H2 7312   6.649   4.052   2.647 -0.8947 -1.4973  3.1103
 2450TIP3   OH2 7313   4.359   1.151   4.654 -0.0858 -0.4052 -0.3846
 2450TIP3    H1 7314   4.359   1.057   4.672  1.7249 -0.1750  1.0978
 2450TIP3    H2 7315   4.266   1.173   4.644 -0.7518 -1.9692  1.5574
 2451TIP3   OH2 7316   2.836   4.700   4.121 -0.1951  0.0476  0.1850
 2451TIP3    H1 7317   2.835   4.737   4.032  0.0338  0.2783  0.2753
 2451TIP3    H2 7318   2.882   4.766   4.173  1.1465 -0.8257  0.1476
 2452TIP3   OH2 7319   1.336   1.299   4.039 -0.8973 -0.4089 -0.3462
 2452TIP3    H1 7320   1.258   1.352   4.024 -0.7681 -0.2511 -0.4570
 2452TIP3    H2 7321   1.303   1.209   4.041 -0.9343 -0.4340 -1.4760
 2453TIP3   OH2 7322   5.748   2.138   0.646 -0.0752 -0.3822 -0.2486
 2453TIP3    H1 7323   5.739   2.057   0.695 -0.9278  0.0114  0.2611
 2453TIP3    H2 7324   5.709   2.205   0.703  0.1104  0.2893 -0.9000
 2454TIP3   OH2 7325   5.597   2.105   3.871  0.3355 -0.1996  0.2812
 2454TIP3    H1 7326   5.681   2.084   3.912  0.8572  0.6430 -0.3185
 2454TIP3    H2 7327   5.618   2.176   3.810 -0.5513 -0.9422 -0.9222
 2455TIP3   OH2 7328   1.086   3.483   3.474 -0.2605 -0.5627  0.1345
 2455TIP3    H1 7329   1.090   3.396   3.513 -0.8713 -1.3741 -1.5342
 2455TIP3    H2 7330   1.163   3.529   3.510 -1.5567 -0.6986  3.3768
 2456TIP3   OH2 7331   1.338   5.851   1.412  0.1522  0.5273 -0.3495
 2456TIP3    H1 7332   1.264   5.846   1.474 -0.1469 -0.9447 -0.7805
 2456TIP3    H2 7333   1.309   5.800   1.337  1.5235  0.1453 -0.6369
 2457TIP3   OH2 7334   5.688   1.586   4.168  0.1893 -0.4518  0.3731
 2457TIP3    H1 7335   5.612   1.528   4.160  0.2065 -0.4627  0.2831
 2457TIP3    H2 7336   5.696   1.602   4.262 -0.4436  0.2270  0.3224
 2458TIP3   OH2 7337   2.874   2.324   0.944  0.1838  0.3489 -0.4634
 2458TIP3    H1 7338   2.911   2.292   1.026 -0.0027 -0.2351 -0.5994
 2458TIP3    H2 7339   2.787   2.284   0.940  0.5611 -0.4086 -1.4054
 2459TIP3   OH2 7340   4.629   6.489   0.101 -0.1630  0.4107  0.7077
 2459TIP3    H1 7341   4.720   6.502   0.074 -0.5862  1.1151 -0.4731
 2459TIP3    H2 7342   4.629   6.503   0.196  1.3053 -1.6704  1.0682
 2460TIP3   OH2 7343   0.635   2.803   3.146  0.6413 -0.6683 -0.3581
 2460TIP3    H1 7344   0.678   2.872   3.197 -0.9056 -0.8473  1.2721
 2460TIP3    H2 7345   0.669   2.722   3.183  0.7005 -0.8112 -0.7166
 2461TIP3   OH2 7346   6.316   2.915   3.871 -0.4395 -0.1871  0.3462
 2461TIP3    H1 7347   6.354   3.000   3.853  0.9080 -0.4121  1.9383
 2461TIP3    H2 7348   6.224   2.933   3.890 -0.7415  0.5881 -1.6295
 2462TIP3   OH2 7349   2.412   5.083   4.283  0.1453 -0.2194 -0.1271
 2462TIP3    H1 7350   2.452   5.029   4.214  2.3864 -0.0356  0.9214
 2462TIP3    H2 7351   2.359   5.146   4.236  0.6468 -0.8566 -1.6222
 2463TIP3   OH2 7352   3.801   5.505   5.555  0.0174  0.6692  0.0660
 2463TIP3    H1 7353   3.784   5.475   5.644 -0.8485  0.3773 -0.1797
 2463TIP3    H2 7354   3.832   5.595   5.566 -1.9624  1.3473  0.5943
 2464TIP3   OH2 7355   2.253   0.637   4.801  0.0116 -0.1346 -0.0554
 2464TIP3    H1 7356   2.230   0.729   4.784 -0.8588 -0.5058 -0.9128
 2464TIP3    H2 7357   2.192   0.586   4.749  1.0028 -1.2041 -0.2114
 2465TIP3   OH2 7358   5.951   6.288   0.057 -0.0246 -0.0449 -0.5824
 2465TIP3    H1 7359   6.003   6.368   0.056 -0.1528  0.0449 -0.2543
 2465TIP3    H2 7360   6.007   6.222   0.017 -0.1314  0.3359 -1.3678
 2466TIP3   OH2 7361   7.110   5.042   0.455  0.7588  0.3771 -0.1783
 2466TIP3    H1 7362   7.129   4.983   0.528 -0.4744  0.6583  0.3877
 2466TIP3    H2 7363   7.156   5.123   0.477  0.8223  0.2851  0.0271
 2467TIP3   OH2 7364   6.090   1.911   0.534 -0.2956 -0.1782  0.3311
 2467TIP3    H1 7365   6.078   2.004   0.551 -1.2107  1.0414 -5.0799
 2467TIP3    H2 7366   6.184   1.901   0.519 -0.3707  0.2251 -0.4427
 2468TIP3   OH2 7367   6.730   6.636   4.347  0.0427  0.5006 -0.1574
 2468TIP3    H1 7368   6.795   6.570   4.372 -0.1598 -0.7112 -2.5466
 2468TIP3    H2 7369   6.674   6.645   4.423  1.0531 -0.8760  0.7974
 2469TIP3   OH2 7370   4.247   4.602   2.476  0.6968  0.2594  0.3435
 2469TIP3    H1 7371   4.181   4.671   2.468  0.5785  0.0280 -0.9077
 2469TIP3    H2 7372   4.205   4.525   2.437  0.9641 -0.4369  1.3984
 2470TIP3   OH2 7373   4.386   0.478   1.140 -0.0149 -0.0577 -0.3774
 2470TIP3    H1 7374   4.353   0.493   1.228 -0.7447  2.8606 -1.0583
 2470TIP3    H2 7375   4.479   0.501   1.145  1.2099 -4.2188  0.5308
 2471TIP3   OH2 7376   5.537   4.275   4.565 -0.4626 -0.2314  0.3808
 2471TIP3    H1 7377   5.583   4.232   4.637 -0.2049 -1.4167 -0.4604
 2471TIP3    H2 7378   5.598   4.272   4.491 -1.3078 -0.4863 -0.3327
 2472TIP3   OH2 7379   3.410   1.792   2.437  0.2496  0.5319  0.0227
 2472TIP3    H1 7380   3.375   1.704   2.430 -0.7580  0.7999  1.3014
 2472TIP3    H2 7381   3.505   1.780   2.439  0.1332 -0.4845 -0.1687
 2473TIP3   OH2 7382   5.007   5.868   2.877  0.0588  0.5035 -0.0519
 2473TIP3    H1 7383   4.927   5.906   2.840  0.1169  0.6380 -0.0407
 2473TIP3    H2 7384   4.981   5.782   2.908  0.1754  0.0785 -1.0937
 2474TIP3   OH2 7385   3.126   4.293   1.842  0.1637  0.6458  0.6157
 2474TIP3    H1 7386   3.072   4.356   1.890 -1.1478 -0.5372  0.7653
 2474TIP3    H2 7387   3.119   4.212   1.894  1.1556  0.1533  0.0035
 2475TIP3   OH2 7388   4.230   4.068   0.054  0.0395 -0.0513 -0.1303
 2475TIP3    H1 7389   4.272   4.138   0.005 -1.4199 -0.3203 -1.8506
 2475TIP3    H2 7390   4.139   4.096   0.064  0.0554 -0.4905  1.5544
 2476TIP3   OH2 7391   4.730   0.331   3.440 -0.2282 -0.2682 -0.3880
 2476TIP3    H1 7392   4.738   0.241   3.406  1.6861 -0.0122 -0.7389
 2476TIP3    H2 7393   4.743   0.386   3.363  1.3835  0.3073  0.2660
 2477TIP3   OH2 7394   1.247   0.427   0.754  0.7015  0.2860 -0.0956
 2477TIP3    H1 7395   1.183   0.356   0.743 -0.3902  1.3384 -0.8413
 2477TIP3    H2 7396   1.235   0.455   0.845  0.0109  0.5415 -0.2586
 2478TIP3   OH2 7397   1.030   1.755   2.010  0.0578 -0.7106 -0.1568
 2478TIP3    H1 7398   1.034   1.827   2.073  2.0307  0.1311 -1.1373
 2478TIP3    H2 7399   1.090   1.689   2.045 -1.1307 -1.5500  0.3302
 2479TIP3   OH2 7400   5.876   6.609   3.295  0.2196 -0.0624 -0.5542
 2479TIP3    H1 7401   5.845   6.574   3.378  0.9914  2.4494  0.8891
 2479TIP3    H2 7402   5.815   6.679   3.274  1.6219  1.2156 -0.5712
 2480TIP3   OH2 7403   5.929   3.091   4.876  0.0281  0.1200 -0.4628
 2480TIP3    H1 7404   5.994   3.021   4.888  0.1888  0.4019  0.3592
 2480TIP3    H2 7405   5.858   3.067   4.934 -0.6592 -0.2297 -1.4199
 2481TIP3   OH2 7406   4.947   5.035   5.624  0.3315 -0.1470 -0.2578
 2481TIP3    H1 7407   4.890   5.061   5.552 -2.1341  0.1581  1.6646
 2481TIP3    H2 7408   4.890   5.034   5.701  2.5282 -1.7359  1.4990
 2482TIP3   OH2 7409   2.538   6.753   1.070 -0.1773 -0.0426 -0.2873
 2482TIP3    H1 7410   2.606   6.687   1.079  1.6953  1.7975 -0.1061
 2482TIP3    H2 7411   2.576   6.819   1.012 -2.1523  0.6595 -0.8622
 2483TIP3   OH2 7412   1.963   4.958   5.355  0.7287  0.5804  0.7758
 2483TIP3    H1 7413   1.876   4.975   5.390  0.0804  0.1376 -0.5562
 2483TIP3    H2 7414   2.002   5.045   5.344 -0.3948  0.9547 -0.6370
 2484TIP3   OH2 7415   2.448   6.316   2.719 -0.0327  0.7574  0.2596
 2484TIP3    H1 7416   2.387   6.264   2.771  0.6988  0.3473  0.7319
 2484TIP3    H2 7417   2.488   6.254   2.659  2.7655  0.1076  2.5530
 2485TIP3   OH2 7418   6.106   3.791   0.209 -0.1291  0.0841  0.2812
 2485TIP3    H1 7419   6.043   3.860   0.231  1.7551  1.2961  2.3636
 2485TIP3    H2 7420   6.127   3.806   0.117 -1.9463  0.3984 -0.1135
 2486TIP3   OH2 7421   1.348   5.106   2.679  0.0907  0.3912  0.1186
 2486TIP3    H1 7422   1.335   5.012   2.662 -0.7962  0.4099  0.6496
 2486TIP3    H2 7423   1.264   5.136   2.714  0.2177  1.4899 -0.4687
 2487TIP3   OH2 7424   6.899   4.486   5.513 -0.1763 -0.4999  0.9376
 2487TIP3    H1 7425   6.808   4.514   5.515  0.1642  0.6688  3.3216
 2487TIP3    H2 7426   6.901   4.415   5.448 -2.9410 -1.2479  1.5474
 2488TIP3   OH2 7427   3.069   1.347   2.363  0.0143 -0.6200 -0.6571
 2488TIP3    H1 7428   2.976   1.367   2.363 -0.2231 -1.0013  3.2912
 2488TIP3    H2 7429   3.111   1.430   2.339 -1.2907  1.3276  3.0518
 2489TIP3   OH2 7430   3.443   4.934   1.616  0.4614 -0.1779  0.2964
 2489TIP3    H1 7431   3.485   4.996   1.557  2.2485 -0.9649  0.6545
 2489TIP3    H2 7432   3.390   4.879   1.559  1.6973 -0.5602 -0.5320
 2490TIP3   OH2 7433   5.324   5.871   3.851 -0.1134 -0.5125 -0.4411
 2490TIP3    H1 7434   5.241   5.918   3.860  0.5442  0.5345  0.4908
 2490TIP3    H2 7435   5.383   5.934   3.811  0.4041 -1.0247 -0.4984
 2491TIP3   OH2 7436   4.928   5.006   2.076  0.2605  0.4129  0.5109
 2491TIP3    H1 7437   4.836   5.009   2.048  0.4750 -2.0951 -0.6973
 2491TIP3    H2 7438   4.923   5.017   2.171 -1.5411 -1.5354  0.7316
 2492TIP3   OH2 7439   0.598   1.356   0.701  0.2929 -0.1990 -0.0910
 2492TIP3    H1 7440   0.515   1.320   0.731 -0.5417  1.0357 -0.8590
 2492TIP3    H2 7441   0.625   1.299   0.630 -0.8040  0.4003 -1.0177
 2493TIP3   OH2 7442   0.408   4.864   3.511 -0.4243 -0.0457  0.2674
 2493TIP3    H1 7443   0.484   4.888   3.458  0.5825 -0.0277  1.6663
 2493TIP3    H2 7444   0.404   4.769   3.506 -2.1528  0.0605 -2.2123
 2494TIP3   OH2 7445   2.882   5.811   1.757 -0.3371 -0.1329 -0.1894
 2494TIP3    H1 7446   2.855   5.865   1.682  1.2784 -0.4724 -1.0672
 2494TIP3    H2 7447   2.805   5.757   1.777 -1.1337  0.6949 -0.9373
 2495TIP3   OH2 7448   6.508   0.647   1.279 -0.2783 -0.1905 -0.6184
 2495TIP3    H1 7449   6.498   0.605   1.194  0.1998 -0.0465 -0.7468
 2495TIP3    H2 7450   6.600   0.636   1.301  0.5291  2.9947 -1.8467
 2496TIP3   OH2 7451   5.852   3.379   1.106  0.1734 -0.0786 -0.0849
 2496TIP3    H1 7452   5.914   3.369   1.034  1.0683 -0.2298  0.6712
 2496TIP3    H2 7453   5.857   3.471   1.130 -1.7504  0.4687 -1.5891
 2497TIP3   OH2 7454   6.018   5.066   2.024  0.2743 -0.2317 -0.5234
 2497TIP3    H1 7455   5.989   5.126   1.954  0.2357 -0.9721 -1.1491
 2497TIP3    H2 7456   6.113   5.067   2.018  0.3325  0.6429  0.2242
 2498TIP3   OH2 7457   2.090   0.985   1.342  0.1119 -0.5771 -0.3204
 2498TIP3    H1 7458   2.094   1.053   1.274 -0.7182  2.0819  2.0818
 2498TIP3    H2 7459   1.999   0.955   1.339 -0.4285  0.8515  0.7155
 2499TIP3   OH2 7460   1.774   1.875   0.337 -0.6388 -0.1393  0.4149
 2499TIP3    H1 7461   1.796   1.796   0.287  0.6463  0.4074  0.0671
 2499TIP3    H2 7462   1.851   1.891   0.391 -1.4140  0.1427  1.4649
 2500TIP3   OH2 7463   3.031   1.029   2.447 -0.4194 -0.2393  0.0943
 2500TIP3    H1 7464   3.118   1.000   2.420 -0.1120  0.0429  0.7561
 2500TIP3    H2 7465   3.034   1.124   2.440 -0.7346 -0.2371 -0.0421
 2501TIP3   OH2 7466   6.310   5.309   2.436 -0.3444 -0.3728 -0.2926
 2501TIP3    H1 7467   6.387   5.251   2.440  0.9338  1.2855  0.8624
 2501TIP3    H2 7468   6.239   5.257   2.473  1.0351 -0.8524  1.8965
 2502TIP3   OH2 7469   1.581   3.989   0.585  0.5798 -0.0792 -0.0673
 2502TIP3    H1 7470   1.513   4.020   0.646  1.1199 -0.1165  0.5701
 2502TIP3    H2 7471   1.587   4.057   0.519 -2.0439 -1.3213 -1.7684
 2503TIP3   OH2 7472   1.359   2.594   4.956  0.4176  0.7333  0.4488
 2503TIP3    H1 7473   1.445   2.632   4.972  0.0501  1.4214  0.8778
 2503TIP3    H2 7474   1.329   2.567   5.043  0.4604 -0.0975  0.2161
 2504TIP3   OH2 7475   3.827   1.827   4.156  0.2106  0.4913 -0.3564
 2504TIP3    H1 7476   3.833   1.814   4.062  0.1060  1.8084 -0.5587
 2504TIP3    H2 7477   3.739   1.863   4.170  0.0530 -0.1299  0.3034
 2505TIP3   OH2 7478   1.586   6.774   4.438 -0.2458 -0.0538 -0.2549
 2505TIP3    H1 7479   1.535   6.836   4.491 -0.9782 -0.5372 -0.3854
 2505TIP3    H2 7480   1.607   6.703   4.498  3.2225  1.6334  0.7866
 2506TIP3   OH2 7481   4.401   2.248   1.502 -0.4720  0.1564  0.3989
 2506TIP3    H1 7482   4.404   2.153   1.513  0.6020  0.2537  1.1179
 2506TIP3    H2 7483   4.406   2.261   1.407 -2.6944 -0.5347  0.1368
 2507TIP3   OH2 7484   2.864   0.483   3.775 -0.1001  0.3151  0.1198
 2507TIP3    H1 7485   2.849   0.509   3.866 -1.1675  3.2272 -0.7691
 2507TIP3    H2 7486   2.950   0.519   3.754  0.5829 -1.1891  0.1854
 2508TIP3   OH2 7487   2.906   0.781   2.568 -0.8013 -0.3092 -0.3712
 2508TIP3    H1 7488   2.846   0.824   2.507 -2.1382 -0.6199  0.7005
 2508TIP3    H2 7489   2.989   0.827   2.555 -1.3077  0.2858 -1.7061
 2509TIP3   OH2 7490   5.680   3.665   4.242  0.2915 -0.4715 -0.3491
 2509TIP3    H1 7491   5.685   3.754   4.277  1.4338 -0.2752 -0.9552
 2509TIP3    H2 7492   5.593   3.634   4.266  0.2314  0.4628  0.7030
 2510TIP3   OH2 7493   6.758   4.971   4.073  0.4792 -0.3569 -0.3951
 2510TIP3    H1 7494   6.680   5.020   4.047  0.9886 -0.0191 -1.3663
 2510TIP3    H2 7495   6.803   5.027   4.136 -0.5726 -1.0038  0.9570
 2511TIP3   OH2 7496   3.676   1.324   4.591  0.1919  0.3635  0.8681
 2511TIP3    H1 7497   3.633   1.401   4.628 -0.4082 -0.7599  2.6390
 2511TIP3    H2 7498   3.769   1.347   4.590  0.0237  1.1248  1.3726
 2512TIP3   OH2 7499   2.978   4.460   4.778 -0.2054 -0.3245  0.9229
 2512TIP3    H1 7500   2.995   4.448   4.871  1.5961 -2.2172  0.4307
 2512TIP3    H2 7501   3.059   4.498   4.744  0.1133 -1.9553 -0.2448
 2513TIP3   OH2 7502   2.439   1.107   3.955  0.1640  0.4190 -0.4044
 2513TIP3    H1 7503   2.529   1.123   3.983 -0.6263  1.5077  1.7861
 2513TIP3    H2 7504   2.442   1.022   3.912  2.2980  0.6311 -0.8122
 2514TIP3   OH2 7505   0.365   0.755   0.707  0.1270  0.4266 -0.6805
 2514TIP3    H1 7506   0.324   0.837   0.735 -1.3791 -1.0130  1.6771
 2514TIP3    H2 7507   0.301   0.714   0.649 -0.4645 -0.3807  0.5004
 2515TIP3   OH2 7508   6.478   5.545   2.504  0.0747 -0.3138 -0.1380
 2515TIP3    H1 7509   6.471   5.548   2.600 -2.6788  0.4566 -0.2846
 2515TIP3    H2 7510   6.414   5.480   2.477  0.1889  0.1092 -1.4940
 2516TIP3   OH2 7511   6.113   4.294   3.024  0.3924 -0.1149 -0.1200
 2516TIP3    H1 7512   6.103   4.288   2.929 -0.8428 -0.1380  0.0049
 2516TIP3    H2 7513   6.024   4.291   3.058  0.8316 -0.2558  1.0541
 2517TIP3   OH2 7514   0.506   1.820   1.701  0.2192  0.3578 -0.2335
 2517TIP3    H1 7515   0.464   1.906   1.701 -0.5808  0.1186  2.9342
 2517TIP3    H2 7516   0.435   1.759   1.720  1.1262 -0.7350 -0.2445
 2518TIP3   OH2 7517   1.825   5.806   2.754 -0.2445  0.5583 -0.4777
 2518TIP3    H1 7518   1.863   5.747   2.819 -0.1811  0.3755 -0.6813
 2518TIP3    H2 7519   1.893   5.872   2.739 -0.8530  1.5266  0.8257
 2519TIP3   OH2 7520   1.441   4.124   1.426  0.2233 -0.0863 -0.1749
 2519TIP3    H1 7521   1.454   4.129   1.332 -0.2048  1.6553 -0.1692
 2519TIP3    H2 7522   1.449   4.031   1.446  1.0935 -0.4001 -1.8030
 2520TIP3   OH2 7523   4.818   6.139   3.367 -0.6985  0.0208 -0.2098
 2520TIP3    H1 7524   4.909   6.114   3.354 -0.8113 -0.1409 -0.7085
 2520TIP3    H2 7525   4.813   6.229   3.334 -1.2289 -0.7538 -2.4478
 2521TIP3   OH2 7526   6.871   3.286   5.625 -0.2843 -0.2018 -0.2314
 2521TIP3    H1 7527   6.870   3.282   5.721 -0.0367  1.2156 -0.1438
 2521TIP3    H2 7528   6.782   3.312   5.600 -0.5062 -1.1281 -0.4316
 2522TIP3   OH2 7529   3.384   6.050   2.988 -0.5442 -0.6522  0.0664
 2522TIP3    H1 7530   3.479   6.040   2.986 -0.3747  0.5577  0.8200
 2522TIP3    H2 7531   3.363   6.093   2.905  0.0443  2.2507  1.2812
 2523TIP3   OH2 7532   5.346   6.260   2.698 -0.3373 -0.5404  0.0454
 2523TIP3    H1 7533   5.254   6.274   2.676  0.2048  0.2123 -1.9354
 2523TIP3    H2 7534   5.353   6.288   2.790 -1.3371  3.3058 -0.8576
 2524TIP3   OH2 7535   0.700   3.340   4.338  0.6441  0.4744  0.5312
 2524TIP3    H1 7536   0.752   3.306   4.265  0.1781  0.1621  0.3428
 2524TIP3    H2 7537   0.751   3.414   4.371  0.6886  0.8482 -0.3459
 2525TIP3   OH2 7538   5.134   0.779   0.719 -0.1609  0.3072  0.1327
 2525TIP3    H1 7539   5.061   0.804   0.776 -1.1845  0.2185 -1.1162
 2525TIP3    H2 7540   5.106   0.699   0.676  1.3597 -0.6569  0.8464
 2526TIP3   OH2 7541   2.736   0.426   0.548 -0.0753  0.2075  0.1493
 2526TIP3    H1 7542   2.780   0.482   0.612  0.7938 -1.2079  0.8522
 2526TIP3    H2 7543   2.651   0.406   0.586 -0.4316  1.1032 -0.1540
 2527TIP3   OH2 7544   6.090   6.059   3.189  0.0388 -0.0815 -0.0753
 2527TIP3    H1 7545   6.055   6.141   3.225  2.0043  0.8649 -0.2039
 2527TIP3    H2 7546   6.121   6.084   3.102  2.2842 -0.4949  0.5521
 2528TIP3   OH2 7547   4.376   0.095   1.066 -1.0191  0.5138 -0.5016
 2528TIP3    H1 7548   4.387   0.129   0.977 -0.3082  0.0622 -0.5920
 2528TIP3    H2 7549   4.444   0.028   1.075 -2.0818 -0.5681 -0.1735
 2529TIP3   OH2 7550   1.715   0.730   4.801 -0.2901  0.1372 -0.1149
 2529TIP3    H1 7551   1.691   0.807   4.852 -2.2731 -0.5983  0.1446
 2529TIP3    H2 7552   1.768   0.677   4.860 -0.9520  0.1891  0.5288
 2530TIP3   OH2 7553   0.622   5.891   0.886  0.1923  0.3071 -0.2394
 2530TIP3    H1 7554   0.538   5.873   0.929 -0.1703  0.2214 -0.9534
 2530TIP3    H2 7555   0.687   5.844   0.938 -0.4416 -1.1830 -0.7321
 2531TIP3   OH2 7556   3.550   4.042   5.581 -0.6524 -0.3354 -0.7705
 2531TIP3    H1 7557   3.563   4.120   5.526 -1.3681  0.8995  0.7206
 2531TIP3    H2 7558   3.620   4.046   5.645 -1.5585 -0.0382  0.2421
 2532TIP3   OH2 7559   4.405   5.483   4.263 -0.0059 -0.1014  0.5508
 2532TIP3    H1 7560   4.359   5.412   4.307  1.2130  0.2706  2.5253
 2532TIP3    H2 7561   4.481   5.441   4.224 -0.8105 -0.3360 -0.8530
 2533TIP3   OH2 7562   5.149   0.052   0.862 -0.0454 -0.2860  0.7143
 2533TIP3    H1 7563   5.133  -0.012   0.793 -1.2303 -0.2507  0.9351
 2533TIP3    H2 7564   5.167   0.134   0.814 -3.0148  0.2683  0.3678
 2534TIP3   OH2 7565   3.716   1.409   0.811  0.2159 -0.5721 -0.3946
 2534TIP3    H1 7566   3.771   1.478   0.774  1.4394 -0.6659  1.1790
 2534TIP3    H2 7567   3.652   1.391   0.742  1.3805  0.4054 -1.7991
 2535TIP3   OH2 7568   0.946   4.590   1.631  0.2406 -0.3475 -0.2980
 2535TIP3    H1 7569   0.992   4.595   1.548 -0.0098 -2.4304 -0.6192
 2535TIP3    H2 7570   0.904   4.503   1.630  0.2318 -0.4301  1.9860
 2536TIP3   OH2 7571   1.075   3.360   5.080  0.0603  0.0133 -0.3548
 2536TIP3    H1 7572   1.078   3.427   5.012 -0.2568 -0.6245 -1.0097
 2536TIP3    H2 7573   1.070   3.278   5.032 -0.3267 -0.4355  0.4432
 2537TIP3   OH2 7574   6.642   6.362   1.042 -1.0149  0.3199  0.0132
 2537TIP3    H1 7575   6.703   6.389   1.111  0.8664 -0.0397 -1.4207
 2537TIP3    H2 7576   6.648   6.267   1.040 -0.8185  0.3404 -0.8226
 2538TIP3   OH2 7577   0.751   2.464   3.856  0.2401 -0.0061  0.1077
 2538TIP3    H1 7578   0.708   2.528   3.799 -1.6803  0.8079  2.3122
 2538TIP3    H2 7579   0.713   2.380   3.831  0.2767  0.1638 -0.5415
 2539TIP3   OH2 7580   2.485   3.582   0.156  0.3625 -0.6072  0.1133
 2539TIP3    H1 7581   2.392   3.561   0.156  0.3339 -0.6022  1.4046
 2539TIP3    H2 7582   2.514   3.567   0.066 -1.0206  0.0480 -0.4660
 2540TIP3   OH2 7583   6.188   0.306   1.312 -0.2067 -0.3251  0.0540
 2540TIP3    H1 7584   6.152   0.387   1.348  1.0807  0.6986 -0.8747
 2540TIP3    H2 7585   6.165   0.239   1.377 -0.0282  1.0295  1.5770
 2541TIP3   OH2 7586   3.255   5.739   1.838 -0.0765 -0.0048  0.1059
 2541TIP3    H1 7587   3.180   5.681   1.826  0.6789 -0.9688 -0.1205
 2541TIP3    H2 7588   3.226   5.824   1.805 -0.8475 -0.5366 -0.6272
 2542TIP3   OH2 7589   1.447   2.619   1.433 -0.0897 -0.0667  0.3452
 2542TIP3    H1 7590   1.365   2.616   1.482 -0.2758 -0.6536  0.0055
 2542TIP3    H2 7591   1.425   2.581   1.348  0.4832 -0.0167  0.1736
 2543TIP3   OH2 7592   5.949   6.592   5.226  0.2400  0.2183 -0.8924
 2543TIP3    H1 7593   6.034   6.590   5.269 -0.9465  0.7897  1.6753
 2543TIP3    H2 7594   5.950   6.672   5.174  1.5155 -0.1631 -1.4767
 2544TIP3   OH2 7595   2.301   0.218   1.661  0.7367 -1.0868 -0.2747
 2544TIP3    H1 7596   2.276   0.158   1.731 -1.0076 -0.1274 -0.0280
 2544TIP3    H2 7597   2.221   0.264   1.639  1.2981 -1.1450 -2.7408
 2545TIP3   OH2 7598   1.228   2.471   5.802  0.6730 -0.5946 -0.1733
 2545TIP3    H1 7599   1.193   2.426   5.879 -0.6328 -0.5008 -0.6947
 2545TIP3    H2 7600   1.197   2.421   5.728 -0.2085  0.7226 -0.7352
 2546TIP3   OH2 7601   1.388   1.849   1.641  0.0128 -0.0619 -0.0045
 2546TIP3    H1 7602   1.339   1.925   1.674  1.8171  0.0532  2.6766
 2546TIP3    H2 7603   1.321   1.784   1.620 -1.4331  1.3065  0.1947
 2547TIP3   OH2 7604   1.272   5.741   3.129  0.4218 -0.5702  1.0446
 2547TIP3    H1 7605   1.342   5.699   3.080 -1.0819 -0.8665 -0.9862
 2547TIP3    H2 7606   1.290   5.834   3.122  0.9681 -0.6705  1.1038
 2548TIP3   OH2 7607   4.002   3.696   4.701 -0.5610 -0.6459  0.3612
 2548TIP3    H1 7608   3.917   3.735   4.681  0.4465  0.7021 -1.5812
 2548TIP3    H2 7609   4.038   3.672   4.616  1.4321 -0.2450  1.0432
 2549TIP3   OH2 7610   6.439   2.130   0.021 -0.0408  0.7846  0.2210
 2549TIP3    H1 7611   6.445   2.091  -0.066 -2.5912 -0.7051  0.6090
 2549TIP3    H2 7612   6.529   2.131   0.053  0.5197 -2.1965 -0.9649
 2550TIP3   OH2 7613   3.884   0.951   0.318  0.0163  0.3057 -0.3567
 2550TIP3    H1 7614   3.865   0.863   0.352 -0.8885  0.2976 -0.8596
 2550TIP3    H2 7615   3.871   1.009   0.392 -0.6402  0.1508 -0.3499
 2551TIP3   OH2 7616   2.652   5.948   5.039 -0.6440  0.2614  0.3620
 2551TIP3    H1 7617   2.657   6.030   5.088 -1.7954  0.9149 -0.5477
 2551TIP3    H2 7618   2.734   5.946   4.989 -0.4954  0.7358  0.5769
 2552TIP3   OH2 7619   5.027   4.577   3.728 -0.3695  0.7224 -0.1068
 2552TIP3    H1 7620   4.979   4.561   3.810 -1.3213  1.2936 -0.5431
 2552TIP3    H2 7621   4.963   4.563   3.659  0.3593  0.5249 -0.7599
 2553TIP3   OH2 7622   0.176   2.309   1.142 -0.2746 -0.3184 -0.8920
 2553TIP3    H1 7623   0.244   2.259   1.097  0.9207 -1.6467  2.1028
 2553TIP3    H2 7624   0.224   2.379   1.187 -1.1464 -0.0946 -0.2805
 2554TIP3   OH2 7625   4.256   1.435   3.760  0.2264  0.8211 -0.5321
 2554TIP3    H1 7626   4.205   1.363   3.797  3.0493  0.2050  2.7238
 2554TIP3    H2 7627   4.298   1.398   3.683  0.9953 -0.8621  0.6312
 2555TIP3   OH2 7628   3.237   3.547   0.758 -0.1277 -0.3556  0.3812
 2555TIP3    H1 7629   3.210   3.630   0.796  0.3142  0.4494 -0.9699
 2555TIP3    H2 7630   3.197   3.480   0.813 -1.4553  0.7569  0.8170
 2556TIP3   OH2 7631   2.499   3.590   5.313  0.3374 -0.3762 -0.1716
 2556TIP3    H1 7632   2.477   3.537   5.389 -1.0248  0.5923  0.1539
 2556TIP3    H2 7633   2.423   3.648   5.301  2.2939  2.5205  0.3970
 2557TIP3   OH2 7634   5.073   2.515   3.612 -0.3407  0.4433 -0.5492
 2557TIP3    H1 7635   5.136   2.445   3.631  0.0522  0.4408 -1.7733
 2557TIP3    H2 7636   5.072   2.568   3.691  2.1725  1.1781 -0.9244
 2558TIP3   OH2 7637   1.125   0.908   1.744 -0.5187 -0.2495  0.8824
 2558TIP3    H1 7638   1.036   0.901   1.710  0.0269 -0.6161 -0.5397
 2558TIP3    H2 7639   1.138   1.001   1.760  0.2191  0.4929 -2.9944
 2559TIP3   OH2 7640   1.622   1.460   1.876 -0.2290  0.5134  0.0937
 2559TIP3    H1 7641   1.660   1.458   1.788  0.8348 -0.4393  0.5395
 2559TIP3    H2 7642   1.695   1.487   1.932 -1.3406  2.8621  0.5104
 2560TIP3   OH2 7643   5.705   2.856   0.755  0.3353  0.0787  0.5995
 2560TIP3    H1 7644   5.654   2.923   0.709  1.5872  0.2820 -0.5348
 2560TIP3    H2 7645   5.744   2.903   0.829  0.3882  0.3737  0.3861
 2561TIP3   OH2 7646   6.415   1.535   0.553  0.5033  0.5043  0.5284
 2561TIP3    H1 7647   6.499   1.563   0.516  0.1337  1.3228  0.2785
 2561TIP3    H2 7648   6.361   1.514   0.476  0.7470 -0.8717  0.7091
 2562TIP3   OH2 7649   5.881   5.333   5.265  0.1202 -0.4078  0.5879
 2562TIP3    H1 7650   5.789   5.358   5.264 -0.4376 -2.3028  0.1004
 2562TIP3    H2 7651   5.928   5.415   5.275 -1.4833  1.0120 -2.1831
 2563TIP3   OH2 7652   0.897   0.297   5.709 -0.3037 -0.1538 -0.4323
 2563TIP3    H1 7653   0.878   0.212   5.749 -0.1439 -0.1560 -0.3602
 2563TIP3    H2 7654   0.979   0.325   5.751  0.6438 -0.8028 -1.7687
 2564TIP3   OH2 7655   3.660   4.064   3.200  0.3911  0.4771  0.0159
 2564TIP3    H1 7656   3.678   3.971   3.184  1.4955  0.7863 -0.6256
 2564TIP3    H2 7657   3.619   4.094   3.119  3.1127  1.3042 -1.1755
 2565TIP3   OH2 7658   5.145   0.291   2.097  0.5699 -0.5906 -0.6209
 2565TIP3    H1 7659   5.136   0.366   2.156  3.0746  2.1113 -3.2989
 2565TIP3    H2 7660   5.148   0.330   2.010 -1.1839 -4.1985 -2.4978
 2566TIP3   OH2 7661   2.548   2.858   5.247  0.4013 -0.3814  0.3017
 2566TIP3    H1 7662   2.459   2.822   5.244  0.6063 -0.8905  0.3061
 2566TIP3    H2 7663   2.552   2.916   5.171  0.2291 -0.7423  0.0128
 2567TIP3   OH2 7664   0.065   6.097   3.347 -0.8152 -0.8317  0.4452
 2567TIP3    H1 7665   0.064   6.068   3.438  0.6812 -0.6536  0.5488
 2567TIP3    H2 7666  -0.008   6.159   3.341 -0.0924  0.2336  1.9168
 2568TIP3   OH2 7667   4.634   4.790   4.697  0.6797  0.0855 -0.2424
 2568TIP3    H1 7668   4.620   4.841   4.777  1.2358  0.7680 -0.5794
 2568TIP3    H2 7669   4.547   4.781   4.659 -0.0946 -2.6204  1.8341
 2569TIP3   OH2 7670   7.011   1.994   4.933 -0.0976  0.1532  0.1314
 2569TIP3    H1 7671   7.039   1.904   4.919 -0.3640 -0.1325  1.3783
 2569TIP3    H2 7672   7.033   2.039   4.851 -0.9608 -1.2647 -0.9090
 2570TIP3   OH2 7673   3.044   4.501   0.747  0.0524  0.3280  0.3678
 2570TIP3    H1 7674   2.961   4.497   0.795 -0.9574 -0.9526 -1.3862
 2570TIP3    H2 7675   3.058   4.595   0.732  0.1772  0.7519  2.6626
 2571TIP3   OH2 7676   3.690   6.315   3.190 -0.0534 -0.8191  0.0982
 2571TIP3    H1 7677   3.612   6.356   3.151 -0.0310 -0.5040  0.3788
 2571TIP3    H2 7678   3.753   6.387   3.198  0.8115 -1.3545 -1.4850
 2572TIP3   OH2 7679   4.385   6.138   4.775  0.1385  0.2533 -0.2539
 2572TIP3    H1 7680   4.369   6.155   4.868 -0.6887  2.1158 -0.6901
 2572TIP3    H2 7681   4.399   6.043   4.770 -1.0044 -0.0646  1.5980
 2573TIP3   OH2 7682   2.529   5.803   2.513 -0.1114  0.1586  0.4197
 2573TIP3    H1 7683   2.622   5.816   2.496  0.2306 -0.3558  1.7539
 2573TIP3    H2 7684   2.485   5.844   2.439  1.1202  1.9662  0.6097
 2574TIP3   OH2 7685   3.369   2.081   4.637  0.4168 -0.1793  0.0932
 2574TIP3    H1 7686   3.415   2.014   4.688 -1.7082 -0.5396  1.6678
 2574TIP3    H2 7687   3.431   2.106   4.568  2.1324 -2.0875  0.8584
 2575TIP3   OH2 7688   2.159   5.287   5.044 -0.7046  0.8276  0.0632
 2575TIP3    H1 7689   2.246   5.326   5.056 -0.1809  0.6987 -2.6128
 2575TIP3    H2 7690   2.098   5.359   5.059  0.0508  1.7042 -0.9247
 2576TIP3   OH2 7691   6.369   0.070   1.499 -0.2572 -0.5191 -0.0672
 2576TIP3    H1 7692   6.274   0.080   1.501 -0.4621 -1.8610 -1.2403
 2576TIP3    H2 7693   6.383  -0.024   1.484  1.3120 -0.7976  2.5599
 2577TIP3   OH2 7694   2.089   4.751   3.894  0.3444 -0.3595  0.4567
 2577TIP3    H1 7695   2.105   4.736   3.801 -0.5074  0.4741  0.1614
 2577TIP3    H2 7696   2.000   4.786   3.898  1.1264  1.7459  1.3344
 2578TIP3   OH2 7697   5.846   4.263   1.056  0.0305 -0.4870 -0.1638
 2578TIP3    H1 7698   5.818   4.226   0.972  0.3147 -2.1276  0.4376
 2578TIP3    H2 7699   5.872   4.188   1.108  2.7691  0.7090  0.3608
 2579TIP3   OH2 7700   0.348   5.822   5.544  0.0799 -0.0888 -0.4342
 2579TIP3    H1 7701   0.404   5.755   5.506 -0.2008 -0.4162 -0.2780
 2579TIP3    H2 7702   0.312   5.781   5.623  0.2387  0.3916 -0.1055
 2580TIP3   OH2 7703   2.140   4.789   1.215  0.0316 -0.1435  0.3925
 2580TIP3    H1 7704   2.069   4.835   1.169  1.0991  1.2609  0.0822
 2580TIP3    H2 7705   2.102   4.765   1.299 -1.1305 -0.3579 -0.1718
 2581TIP3   OH2 7706   4.682   4.615   0.725  0.3402 -0.4829 -0.6623
 2581TIP3    H1 7707   4.670   4.644   0.815 -1.0803  0.3525 -1.0835
 2581TIP3    H2 7708   4.777   4.609   0.713  0.5893  0.8590  0.4360
 2582TIP3   OH2 7709   5.670   0.215   3.275 -0.4981  0.2875  0.3405
 2582TIP3    H1 7710   5.668   0.300   3.319  0.0685  2.5785 -3.5719
 2582TIP3    H2 7711   5.603   0.221   3.207  1.1711 -1.3810 -1.6243
 2583TIP3   OH2 7712   4.537   3.433   2.369  0.7562 -0.6698 -0.4458
 2583TIP3    H1 7713   4.483   3.512   2.367  2.3171  0.4347 -0.3674
 2583TIP3    H2 7714   4.568   3.423   2.279  2.0921 -0.0777 -0.0706
 2584TIP3   OH2 7715   3.700   2.174   4.247  0.9668 -0.3119  0.0755
 2584TIP3    H1 7716   3.654   2.191   4.329 -0.3382  0.0984 -0.7312
 2584TIP3    H2 7717   3.673   2.085   4.223 -0.5711  0.4361 -1.1172
 2585TIP3   OH2 7718   0.400   5.516   5.522  0.1872 -0.1178 -0.4893
 2585TIP3    H1 7719   0.314   5.542   5.555  1.7666  1.9771  2.4531
 2585TIP3    H2 7720   0.419   5.433   5.567 -0.1741 -0.4390 -0.9263
 2586TIP3   OH2 7721   1.302   3.616   3.602  0.2343  0.0634  0.5892
 2586TIP3    H1 7722   1.386   3.583   3.572 -0.4722 -0.5947 -0.7395
 2586TIP3    H2 7723   1.319   3.648   3.691  2.2356  1.4572 -0.2416
 2587TIP3   OH2 7724   1.415   2.583   2.281 -0.1094  0.3787  0.5906
 2587TIP3    H1 7725   1.389   2.556   2.193 -2.4081 -1.1361  1.6223
 2587TIP3    H2 7726   1.489   2.527   2.303  0.7852  1.0840 -0.4961
 2588TIP3   OH2 7727   3.145   0.290   4.707 -0.3113 -0.0108  0.2439
 2588TIP3    H1 7728   3.060   0.262   4.673 -0.5009  0.1969  0.5443
 2588TIP3    H2 7729   3.130   0.303   4.801  0.3404 -1.1277  0.5251
 2589TIP3   OH2 7730   1.543   6.316   4.049 -0.2857 -0.1996 -0.1001
 2589TIP3    H1 7731   1.549   6.389   3.987 -1.9996 -0.1528 -0.2804
 2589TIP3    H2 7732   1.569   6.353   4.133 -1.7142  0.8426 -0.0654
 2590TIP3   OH2 7733   5.560   4.292   3.964 -0.6151 -0.5796  0.0767
 2590TIP3    H1 7734   5.632   4.250   3.916  2.1529  0.9094  2.5538
 2590TIP3    H2 7735   5.549   4.237   4.042 -1.6991 -0.3989  0.0588
 2591TIP3   OH2 7736   0.952   1.644   2.912  0.1469 -0.5047 -0.0696
 2591TIP3    H1 7737   1.033   1.608   2.947 -1.2082 -1.0934  2.7112
 2591TIP3    H2 7738   0.980   1.709   2.848  2.7410 -2.4008 -1.0255
 2592TIP3   OH2 7739   5.093   2.369   4.436  0.1366 -0.0490  0.7190
 2592TIP3    H1 7740   5.153   2.305   4.398 -0.4722 -1.9988  2.7857
 2592TIP3    H2 7741   5.150   2.432   4.480  0.7137  0.2741 -0.4417
 2593TIP3   OH2 7742   2.498   5.970   0.915 -0.0134  0.1740  0.1267
 2593TIP3    H1 7743   2.591   5.956   0.933  0.3320  1.9796  0.0141
 2593TIP3    H2 7744   2.477   6.050   0.964 -0.7204  1.5324 -2.2462
 2594TIP3   OH2 7745   3.222   4.300   2.872  0.3200  0.2201 -0.5763
 2594TIP3    H1 7746   3.219   4.220   2.925  0.0998  0.2101 -0.6031
 2594TIP3    H2 7747   3.150   4.290   2.809 -0.4778  0.9662  0.1812
 2595TIP3   OH2 7748   0.322   4.215   3.692 -0.8229 -0.1911  0.1016
 2595TIP3    H1 7749   0.321   4.227   3.597 -1.5633  0.4475  0.1704
 2595TIP3    H2 7750   0.332   4.304   3.727  3.4142 -0.7102  0.6386
 2596TIP3   OH2 7751   2.562   1.559   5.252 -0.0025  0.3553  0.0864
 2596TIP3    H1 7752   2.589   1.476   5.211  0.0447  0.3852  0.0567
 2596TIP3    H2 7753   2.630   1.621   5.225 -0.4537  0.5858 -0.5374
 2597TIP3   OH2 7754   5.409   4.267   1.896  0.4846 -0.1971  0.0939
 2597TIP3    H1 7755   5.433   4.274   1.804  1.6894 -0.1538  0.4030
 2597TIP3    H2 7756   5.336   4.205   1.897 -1.6905  2.1628 -1.2303
 2598TIP3   OH2 7757   2.106   1.018   4.491 -0.1184  0.2183  0.0469
 2598TIP3    H1 7758   2.064   1.013   4.405  2.2208  0.2883 -1.1765
 2598TIP3    H2 7759   2.107   0.928   4.522  0.4533 -0.0705 -0.7615
 2599TIP3   OH2 7760   1.897   0.060   5.734 -0.0100  0.2192 -0.0221
 2599TIP3    H1 7761   1.991   0.053   5.717 -0.1398 -1.4003 -0.2217
 2599TIP3    H2 7762   1.888   0.054   5.829  0.2642  3.3969  0.3160
 2600TIP3   OH2 7763   6.583   2.283   3.047 -0.1413  0.2564  0.1043
 2600TIP3    H1 7764   6.493   2.316   3.046 -0.4037 -0.4465 -0.6560
 2600TIP3    H2 7765   6.620   2.316   3.129 -0.8591  1.1604  0.0787
 2601TIP3   OH2 7766   2.742   0.816   5.777 -0.8726  0.4371  0.0016
 2601TIP3    H1 7767   2.809   0.749   5.791 -0.1053  1.5634  2.1238
 2601TIP3    H2 7768   2.707   0.796   5.690  0.9253 -1.3000 -0.4137
 2602TIP3   OH2 7769   2.154   6.231   3.818 -0.1777  0.4955 -0.3439
 2602TIP3    H1 7770   2.177   6.318   3.849  0.1485  0.1506  0.4165
 2602TIP3    H2 7771   2.066   6.240   3.782 -0.2602  1.0754 -0.0073
 2603TIP3   OH2 7772   3.485   3.977   0.005  0.0532  0.9463  0.0865
 2603TIP3    H1 7773   3.538   3.901  -0.015 -3.6666 -1.5451 -1.3681
 2603TIP3    H2 7774   3.532   4.021   0.076  2.3007 -2.8131  1.2051
 2604TIP3   OH2 7775   2.595   4.177   1.791  0.5004  0.3200  0.5997
 2604TIP3    H1 7776   2.503   4.187   1.767  0.9526 -1.7481 -2.7997
 2604TIP3    H2 7777   2.637   4.257   1.759  0.2833 -0.1913 -1.1060
 2605TIP3   OH2 7778   4.473   2.079   0.082 -0.4729 -0.1994  0.4275
 2605TIP3    H1 7779   4.499   2.107  -0.006  1.1865 -1.6919  0.3995
 2605TIP3    H2 7780   4.386   2.118   0.094  0.1262  1.7899 -1.0258
 2606TIP3   OH2 7781   5.691   6.232   5.543  0.1812 -0.0517  0.3242
 2606TIP3    H1 7782   5.771   6.281   5.561  0.3174 -0.6367  1.3933
 2606TIP3    H2 7783   5.646   6.228   5.628  0.1493 -1.7174  0.2553
 2607TIP3   OH2 7784   5.852   0.968   0.313 -0.1959 -0.0690 -0.4384
 2607TIP3    H1 7785   5.934   0.933   0.277  0.1585 -0.3759  0.6287
 2607TIP3    H2 7786   5.806   0.891   0.345 -1.1387  0.0487 -1.4526
 2608TIP3   OH2 7787   6.806   1.489   1.196 -0.1055 -0.0893  0.4113
 2608TIP3    H1 7788   6.857   1.507   1.117  0.6237  1.9441  1.2825
 2608TIP3    H2 7789   6.831   1.400   1.221  1.6514  0.2011 -0.1922
 2609TIP3   OH2 7790   4.788   1.558   4.586  0.2422  0.1436  0.3534
 2609TIP3    H1 7791   4.727   1.595   4.523  0.4737  0.5302  0.3486
 2609TIP3    H2 7792   4.803   1.468   4.557 -2.0827 -0.7316  1.6346
 2610TIP3   OH2 7793   7.066   6.262   3.442 -0.0222  0.5474  0.2205
 2610TIP3    H1 7794   6.994   6.199   3.443  0.6462 -0.2158  1.2495
 2610TIP3    H2 7795   7.058   6.309   3.525  1.3509 -0.3318  0.8621
 2611TIP3   OH2 7796   3.121   0.889   4.866  0.2800  0.5651 -0.1475
 2611TIP3    H1 7797   3.034   0.884   4.826 -0.9140 -0.0252  2.3341
 2611TIP3    H2 7798   3.139   0.982   4.874 -0.5121  0.7042  0.0841
 2612TIP3   OH2 7799   2.489   3.864   3.526 -0.5903  0.0265 -0.0488
 2612TIP3    H1 7800   2.578   3.899   3.516 -0.2922 -0.4938  0.6687
 2612TIP3    H2 7801   2.493   3.813   3.607 -1.3288 -0.6723 -0.4396
 2613TIP3   OH2 7802   2.981   3.606   4.144  0.0022 -0.1993 -0.2181
 2613TIP3    H1 7803   2.919   3.626   4.214 -0.1177 -1.3196  0.0233
 2613TIP3    H2 7804   3.009   3.516   4.162 -0.8150 -0.9079 -2.1558
 2614TIP3   OH2 7805   4.890   5.402   4.693  0.2797  0.5249  0.0335
 2614TIP3    H1 7806   4.943   5.376   4.618 -1.7949 -0.5775 -1.1136
 2614TIP3    H2 7807   4.807   5.356   4.682 -0.1029  0.2666  3.0530
 2615TIP3   OH2 7808   5.006   1.559   1.988  0.1161 -0.0511 -0.4184
 2615TIP3    H1 7809   5.034   1.562   2.080 -0.0463  0.8354 -0.3880
 2615TIP3    H2 7810   5.050   1.633   1.947 -0.6058  0.1637 -0.8243
 2616TIP3   OH2 7811   4.682   6.571   2.929  0.4029  0.3496  0.4910
 2616TIP3    H1 7812   4.634   6.549   3.009 -0.9588  2.0961  0.2121
 2616TIP3    H2 7813   4.755   6.624   2.960  1.8325 -1.6967  0.8407
 2617TIP3   OH2 7814   3.558   0.594   1.720  0.1016  0.8834  0.1033
 2617TIP3    H1 7815   3.648   0.580   1.748  0.1991 -0.9312 -0.9601
 2617TIP3    H2 7816   3.524   0.661   1.779  1.9092  1.0556  0.9954
 2618TIP3   OH2 7817   1.427   1.583   0.826 -0.2725  0.2415 -0.0219
 2618TIP3    H1 7818   1.389   1.669   0.845  1.3128  1.0745 -0.3988
 2618TIP3    H2 7819   1.496   1.602   0.762  0.2118 -1.3042  0.0161
 2619TIP3   OH2 7820   0.446   1.634   4.739 -0.3142 -0.1047  0.0650
 2619TIP3    H1 7821   0.438   1.583   4.658  1.0659 -0.4820  0.1449
 2619TIP3    H2 7822   0.405   1.578   4.805  0.9875 -1.0658  0.1103
 2620TIP3   OH2 7823   0.865   3.944   2.637 -0.1242 -0.6321  0.1055
 2620TIP3    H1 7824   0.898   3.889   2.566 -0.7446 -0.1660 -0.5473
 2620TIP3    H2 7825   0.900   4.031   2.618 -1.5527 -0.1694 -0.4972
 2621TIP3   OH2 7826   3.018   0.270   0.826  0.5594  0.2036  0.6219
 2621TIP3    H1 7827   2.945   0.326   0.852 -0.0816 -1.4897  2.7241
 2621TIP3    H2 7828   2.988   0.228   0.745 -1.2621 -1.1492  1.9129
 2622TIP3   OH2 7829   2.585   3.092   0.535  0.0098  0.1599 -0.0673
 2622TIP3    H1 7830   2.560   3.163   0.593 -2.1319 -1.2367  0.8439
 2622TIP3    H2 7831   2.523   3.096   0.463 -0.0093 -0.6621 -0.1098
 2623TIP3   OH2 7832   2.287   1.203   0.391 -0.3077  0.4152 -0.0069
 2623TIP3    H1 7833   2.366   1.149   0.389  0.8580  2.0727 -1.3251
 2623TIP3    H2 7834   2.251   1.189   0.479  0.3063 -1.9193 -0.0655
 2624TIP3   OH2 7835   1.122   2.340   2.942 -0.8467 -0.8629 -0.4131
 2624TIP3    H1 7836   1.046   2.393   2.965 -0.3788 -0.4551  0.2180
 2624TIP3    H2 7837   1.113   2.324   2.848 -0.1714  1.6715 -0.9674
 2625TIP3   OH2 7838   0.291   0.115   1.537  0.3517 -0.2771  0.5678
 2625TIP3    H1 7839   0.228   0.054   1.499  0.5533  0.4508 -0.9828
 2625TIP3    H2 7840   0.238   0.172   1.592 -0.0305 -0.9686  0.9328
 2626TIP3   OH2 7841   4.044   2.549   2.590 -0.0095  0.4004 -0.1247
 2626TIP3    H1 7842   4.117   2.586   2.540  0.6428  0.6951  1.0048
 2626TIP3    H2 7843   4.043   2.600   2.671  0.3493 -1.4500  1.1115
 2627TIP3   OH2 7844   0.208   0.960   2.127 -0.2814  0.3431  0.5246
 2627TIP3    H1 7845   0.258   1.027   2.080  0.0227  0.3356  0.8380
 2627TIP3    H2 7846   0.175   1.005   2.205 -2.5946  0.9756 -0.7152
 2628TIP3   OH2 7847   4.511   0.894   3.287  0.2067 -0.4305 -0.1289
 2628TIP3    H1 7848   4.591   0.841   3.292 -0.2374 -1.0991 -0.0405
 2628TIP3    H2 7849   4.487   0.892   3.194  0.7847  0.5296 -0.3188
 2629TIP3   OH2 7850   5.041   4.674   3.179  0.0555  0.3812  0.1770
 2629TIP3    H1 7851   5.126   4.634   3.163 -0.6136 -1.4319  0.8776
 2629TIP3    H2 7852   5.036   4.685   3.274 -0.4644  0.5180  0.1410
 2630TIP3   OH2 7853   2.360   2.421   3.064  0.6403  0.0855 -0.9445
 2630TIP3    H1 7854   2.417   2.344   3.057  1.1150  0.3038  0.2202
 2630TIP3    H2 7855   2.289   2.392   3.121  1.3325  0.7599  0.3190
 2631TIP3   OH2 7856   3.769   6.056   0.612  0.0694 -0.0588 -0.4674
 2631TIP3    H1 7857   3.817   6.137   0.625  0.1291 -0.1182 -0.3171
 2631TIP3    H2 7858   3.804   6.020   0.531  3.2693 -2.1777  1.6328
 2632TIP3   OH2 7859   2.317   0.560   0.478  0.1636  0.3117 -0.4670
 2632TIP3    H1 7860   2.362   0.487   0.520 -1.5223 -0.4049  0.1943
 2632TIP3    H2 7861   2.283   0.613   0.551 -2.3998 -0.6920 -0.8160
 2633TIP3   OH2 7862   0.607   6.284   4.182 -0.6130  0.0956  0.2271
 2633TIP3    H1 7863   0.689   6.333   4.180 -1.1500  1.0628  0.9676
 2633TIP3    H2 7864   0.620   6.217   4.249 -0.5315  0.4523  0.5720
 2634TIP3   OH2 7865   5.256   2.131   2.018 -0.5060  0.3122 -0.2088
 2634TIP3    H1 7866   5.216   2.163   1.937 -2.1548 -0.2659  0.3383
 2634TIP3    H2 7867   5.184   2.131   2.081  0.4275 -0.5543  0.8822
 2635TIP3   OH2 7868   6.691   6.303   1.636  0.4475 -0.2275  0.3342
 2635TIP3    H1 7869   6.703   6.312   1.541  3.2146  0.4628  0.6510
 2635TIP3    H2 7870   6.675   6.392   1.667 -0.3192 -0.4345  0.5447
 2636TIP3   OH2 7871   5.655   6.726   1.909 -0.2116  0.1321  0.4854
 2636TIP3    H1 7872   5.675   6.734   1.816 -0.6461 -0.1257  0.3693
 2636TIP3    H2 7873   5.734   6.687   1.947  0.1552  0.6839  0.3089
 2637TIP3   OH2 7874   1.688   5.689   0.465  0.1233 -0.1113  0.0242
 2637TIP3    H1 7875   1.774   5.649   0.474  0.6888  1.0378 -0.1375
 2637TIP3    H2 7876   1.626   5.618   0.483  1.0537 -1.4284 -1.6894
 2638TIP3   OH2 7877   2.391   2.201   0.276  0.2503 -0.0665 -0.1663
 2638TIP3    H1 7878   2.346   2.143   0.215 -0.0059 -2.3900  2.0783
 2638TIP3    H2 7879   2.361   2.173   0.363  0.7214  2.9512  1.1169
 2639TIP3   OH2 7880   0.348   3.005   5.109 -0.0306  0.0578  0.3976
 2639TIP3    H1 7881   0.391   2.920   5.107  0.8955  0.3737  3.0435
 2639TIP3    H2 7882   0.269   2.992   5.161  0.5541  0.9348  1.5693
 2640TIP3   OH2 7883   2.867   0.894   5.054 -0.0722 -0.5043  0.0304
 2640TIP3    H1 7884   2.905   0.960   5.114  1.5324 -0.7692 -0.6397
 2640TIP3    H2 7885   2.793   0.939   5.014  0.2378  0.4820  0.5054
 2641TIP3   OH2 7886   0.140   0.722   0.536 -0.3423  0.4668  0.2120
 2641TIP3    H1 7887   0.061   0.732   0.483  0.2321  1.1793 -0.5339
 2641TIP3    H2 7888   0.178   0.639   0.507 -0.4584  0.4584  0.0835
 2642TIP3   OH2 7889   2.133   2.047   2.883 -0.2699  0.5060  0.2641
 2642TIP3    H1 7890   2.185   2.109   2.831  0.9306 -0.9137 -0.2744
 2642TIP3    H2 7891   2.139   1.964   2.836 -2.4942  0.1151  0.5590
 2643TIP3   OH2 7892   0.732   1.162   0.515 -0.2985 -0.0846  0.2590
 2643TIP3    H1 7893   0.767   1.132   0.432  0.1791  1.3861 -0.0995
 2643TIP3    H2 7894   0.747   1.090   0.576  1.1093 -0.4312 -0.4790
 2644TIP3   OH2 7895   4.612   0.585   0.459 -0.1605 -0.0109  0.3350
 2644TIP3    H1 7896   4.661   0.518   0.507  1.0544 -0.7002 -1.7189
 2644TIP3    H2 7897   4.680   0.643   0.424 -1.0529  0.9503  0.1528
 2645TIP3   OH2 7898   6.548   6.653   4.553 -0.3516  0.3177 -0.2708
 2645TIP3    H1 7899   6.517   6.732   4.508  0.1376  1.7775  1.7829
 2645TIP3    H2 7900   6.487   6.643   4.626  1.4259  0.7231  1.3516
 2646TIP3   OH2 7901   1.352   2.183   5.195 -0.2325  0.0407 -0.6930
 2646TIP3    H1 7902   1.410   2.212   5.266 -1.5442  2.0197 -0.3654
 2646TIP3    H2 7903   1.399   2.109   5.155  0.8536 -0.7533  1.8072
 2647TIP3   OH2 7904   1.120   5.721   1.259 -0.0980 -0.1452  0.3001
 2647TIP3    H1 7905   1.096   5.663   1.187  0.8627  1.1196 -1.0951
 2647TIP3    H2 7906   1.042   5.776   1.273  0.0949  0.3477 -0.5422
 2648TIP3   OH2 7907   0.039   3.885   4.676 -0.1770 -0.4563 -0.1654
 2648TIP3    H1 7908   0.095   3.960   4.692  0.0330 -0.7282  0.3874
 2648TIP3    H2 7909   0.099   3.810   4.673 -0.5007 -0.7429  0.3723
 2649TIP3   OH2 7910   5.675   4.114   1.578  0.3160 -0.1437  0.3269
 2649TIP3    H1 7911   5.652   4.021   1.570  1.1374 -0.3422  0.1691
 2649TIP3    H2 7912   5.731   4.118   1.656  0.3511  0.2098  0.2834
 2650TIP3   OH2 7913   4.226   3.522   0.608 -0.9877  0.4692 -0.2525
 2650TIP3    H1 7914   4.209   3.510   0.701 -0.5165 -0.2447 -0.2512
 2650TIP3    H2 7915   4.224   3.617   0.596  0.6897  0.6944  0.8368
 2651TIP3   OH2 7916   4.463   0.203   4.174  0.4508 -0.4222 -0.3784
 2651TIP3    H1 7917   4.423   0.124   4.137 -1.2860  0.2472 -0.0089
 2651TIP3    H2 7918   4.518   0.237   4.103  1.2674 -1.9648 -0.5275
 2652TIP3   OH2 7919   5.575   2.255   5.542 -0.0274  0.8583  0.4122
 2652TIP3    H1 7920   5.542   2.185   5.487  0.2876  0.0438  1.2258
 2652TIP3    H2 7921   5.499   2.310   5.561 -0.7456 -0.4419  1.4643
 2653TIP3   OH2 7922   2.418   2.635   4.976 -0.0832  0.2336 -0.1058
 2653TIP3    H1 7923   2.379   2.694   4.912  0.9211 -0.0098 -0.9615
 2653TIP3    H2 7924   2.386   2.668   5.061  1.4189  2.8310 -0.4358
 2654TIP3   OH2 7925   5.337   0.215   1.812 -0.1464 -0.0805 -0.4347
 2654TIP3    H1 7926   5.298   0.297   1.842 -0.1598  0.6687 -2.3446
 2654TIP3    H2 7927   5.428   0.221   1.840 -0.6348 -0.4712  1.3922
 2655TIP3   OH2 7928   0.148   2.005   3.160  0.7104 -0.6546 -0.6859
 2655TIP3    H1 7929   0.091   1.972   3.229  1.8806 -0.3309  0.4718
 2655TIP3    H2 7930   0.136   2.100   3.162  1.5269 -0.5495 -0.1882
 2656TIP3   OH2 7931   4.746   1.327   4.881 -0.0375 -0.6510 -0.0145
 2656TIP3    H1 7932   4.664   1.358   4.844 -0.0962 -0.6112  0.1472
 2656TIP3    H2 7933   4.721   1.252   4.936  0.0222 -0.5833  0.1064
 2657TIP3   OH2 7934   3.833   2.606   0.818 -0.0118 -0.1425  0.3879
 2657TIP3    H1 7935   3.881   2.618   0.736  1.0657  0.8627  1.1443
 2657TIP3    H2 7936   3.760   2.548   0.795  0.1786  0.2537 -1.3093
 2658TIP3   OH2 7937   0.680   1.860   0.097 -0.6128  0.2873 -0.5287
 2658TIP3    H1 7938   0.656   1.947   0.066 -0.5671  1.2406  1.8590
 2658TIP3    H2 7939   0.599   1.826   0.136  0.0189  0.4488  0.9983
 2659TIP3   OH2 7940   3.408   5.914   5.106  0.2660  0.6277 -0.3265
 2659TIP3    H1 7941   3.427   5.920   5.200 -1.7978  0.7805  0.1248
 2659TIP3    H2 7942   3.398   6.005   5.078 -0.9298  0.5432 -0.2495
 2660TIP3   OH2 7943   6.656   2.671   4.289 -0.0359 -0.4520 -0.2354
 2660TIP3    H1 7944   6.577   2.672   4.342  0.3259 -2.9544  0.5032
 2660TIP3    H2 7945   6.715   2.732   4.333 -0.4344 -1.0170  1.1503
 2661TIP3   OH2 7946   0.110   4.444   3.138 -0.0495  0.1855 -0.1660
 2661TIP3    H1 7947   0.050   4.456   3.212 -0.5609  0.4024 -0.6074
 2661TIP3    H2 7948   0.183   4.393   3.174  0.1349  1.0462  0.6959
 2662TIP3   OH2 7949   3.258   0.892   1.111  0.0541 -0.4833  0.6115
 2662TIP3    H1 7950   3.246   0.986   1.097 -0.6350 -0.7006 -0.4248
 2662TIP3    H2 7951   3.198   0.871   1.182 -0.0885 -0.2018  0.5773
 2663TIP3   OH2 7952   0.276   0.185   5.232  0.2951 -0.6753  0.5727
 2663TIP3    H1 7953   0.225   0.251   5.279  0.9595  0.9256 -0.8319
 2663TIP3    H2 7954   0.361   0.184   5.277  0.2553 -0.6343  0.6485
 2664TIP3   OH2 7955   4.153   1.105   3.491 -0.4542  0.4026 -0.2222
 2664TIP3    H1 7956   4.232   1.158   3.502 -0.8667  0.7830  0.9861
 2664TIP3    H2 7957   4.178   1.040   3.425 -0.0810  2.3729 -2.1528
 2665TIP3   OH2 7958   4.360   3.392   2.814 -0.0176 -0.3123  0.4901
 2665TIP3    H1 7959   4.430   3.386   2.880  0.1928 -2.5239  0.1544
 2665TIP3    H2 7960   4.299   3.322   2.837 -0.2279 -0.7841 -1.3336
 2666TIP3   OH2 7961   5.436   0.552   1.505  0.2322 -0.2345 -0.0226
 2666TIP3    H1 7962   5.406   0.519   1.421  2.2768  1.3099 -1.4877
 2666TIP3    H2 7963   5.526   0.520   1.513  0.6185  0.9438  0.7629
 2667TIP3   OH2 7964   5.168   1.835   0.217 -0.3679 -0.7998 -0.4466
 2667TIP3    H1 7965   5.108   1.787   0.274  0.5795 -0.6321  0.7261
 2667TIP3    H2 7966   5.149   1.927   0.235 -0.8452 -0.7212 -1.2701
 2668TIP3   OH2 7967   6.084   0.003   2.507  0.0994 -0.4922  0.4087
 2668TIP3    H1 7968   6.081  -0.064   2.575 -1.3963 -0.4322  0.4415
 2668TIP3    H2 7969   6.066   0.085   2.553 -0.2267 -0.3614  0.0547
 2669TIP3   OH2 7970   7.104   2.556   5.379  0.0032  0.3123  0.5615
 2669TIP3    H1 7971   7.194   2.587   5.378  0.1393  0.5549 -4.4442
 2669TIP3    H2 7972   7.107   2.471   5.336 -2.1050  0.0197  0.8712
 2670TIP3   OH2 7973   3.900   2.135   2.934  0.1599  0.0031 -0.2315
 2670TIP3    H1 7974   3.866   2.101   2.852 -0.1176 -0.9727  0.2780
 2670TIP3    H2 7975   3.971   2.194   2.908  0.7864 -1.1193 -1.1350
 2671TIP3   OH2 7976   3.003   6.252   4.378  0.7190  0.2257 -0.4893
 2671TIP3    H1 7977   2.944   6.327   4.385  0.9318  0.5492 -1.7781
 2671TIP3    H2 7978   3.075   6.271   4.437 -1.2224 -0.9799  2.4698
 2672TIP3   OH2 7979   4.650   2.267   2.881 -0.4552  0.5359  0.2361
 2672TIP3    H1 7980   4.716   2.212   2.925  0.6488  0.9748 -0.8284
 2672TIP3    H2 7981   4.647   2.346   2.935  2.1254  1.7889 -1.2792
 2673TIP3   OH2 7982   3.422   0.102   4.941 -0.1563 -0.2045 -0.3349
 2673TIP3    H1 7983   3.333   0.072   4.958 -0.0665 -0.3482 -0.1174
 2673TIP3    H2 7984   3.460   0.034   4.886  0.4983 -1.2120  1.2869
 2674TIP3   OH2 7985   5.543   5.890   2.051 -0.2986 -0.1198 -0.1898
 2674TIP3    H1 7986   5.578   5.898   2.139  1.8208  0.5118 -1.0365
 2674TIP3    H2 7987   5.479   5.819   2.057  0.1218 -0.3826  1.7448
 2675TIP3   OH2 7988   1.013   6.754   2.959 -0.6234 -0.4006  0.1651
 2675TIP3    H1 7989   1.021   6.662   2.983  0.3135 -0.3455  0.1030
 2675TIP3    H2 7990   0.990   6.798   3.041  0.9619 -0.4275  0.6529
 2676TIP3   OH2 7991   2.108   3.904   0.882  0.3430 -0.1198 -0.0818
 2676TIP3    H1 7992   2.141   3.979   0.832 -1.3868  0.5843 -0.2593
 2676TIP3    H2 7993   2.173   3.835   0.868 -0.1852 -0.0846 -3.6666
 2677TIP3   OH2 7994   4.408   4.640   2.687 -0.0247  0.5409  0.1816
 2677TIP3    H1 7995   4.345   4.608   2.622  0.6519  1.1544 -0.8169
 2677TIP3    H2 7996   4.383   4.731   2.702  0.4409  0.7025 -0.0031
 2678TIP3   OH2 7997   0.956   5.051   2.567  0.1230 -0.2276 -0.3227
 2678TIP3    H1 7998   1.042   5.019   2.540 -0.6118 -2.6598 -0.0296
 2678TIP3    H2 7999   0.906   4.972   2.587 -2.6872  1.0051 -1.9148
 2679TIP3   OH2 8000   1.714   4.843   1.734  0.2725 -0.2460 -0.2724
 2679TIP3    H1 8001   1.787   4.904   1.746  0.3679 -0.0256 -1.8143
 2679TIP3    H2 8002   1.749   4.759   1.763  1.0899 -0.1049 -0.8065
 2680TIP3   OH2 8003   2.098   2.114   3.860  0.0212 -0.4296  0.2996
 2680TIP3    H1 8004   2.048   2.046   3.816  0.0191 -0.3579  0.1913
 2680TIP3    H2 8005   2.149   2.155   3.790 -1.7017  1.2402 -0.0714
 2681TIP3   OH2 8006   3.130   3.965   2.041 -0.2275  0.0745  0.5268
 2681TIP3    H1 8007   3.036   3.949   2.029 -0.0518 -0.0325 -0.9848
 2681TIP3    H2 8008   3.170   3.879   2.032 -0.0017  0.0609  1.5707
 2682TIP3   OH2 8009   2.088   3.135   3.663 -0.5651 -0.0794 -0.0076
 2682TIP3    H1 8010   2.100   3.054   3.614  2.1787 -1.0357  1.9369
 2682TIP3    H2 8011   2.143   3.199   3.618  2.0078 -0.9743  1.6289
 2683TIP3   OH2 8012   3.377   0.816   2.642  0.3690  0.0975 -0.1607
 2683TIP3    H1 8013   3.351   0.828   2.734  0.1909 -0.4984 -0.1285
 2683TIP3    H2 8014   3.468   0.844   2.639  0.5393 -0.4039  0.3170
 2684TIP3   OH2 8015   6.662   1.949   4.102 -0.1750 -0.0579 -0.2996
 2684TIP3    H1 8016   6.672   1.866   4.054 -1.0952 -0.6268  0.4683
 2684TIP3    H2 8017   6.591   1.995   4.057  0.5341  0.4726 -0.9109
 2685TIP3   OH2 8018   5.797   0.767   1.830 -0.0935 -0.6349  0.0976
 2685TIP3    H1 8019   5.728   0.793   1.770 -0.9093 -2.5465  0.1204
 2685TIP3    H2 8020   5.756   0.772   1.917  0.4154  0.0579  0.3074
 2686TIP3   OH2 8021   4.753   2.065   1.674  0.7187  0.0171 -0.3063
 2686TIP3    H1 8022   4.695   2.026   1.740  0.7662  0.8586  0.2421
 2686TIP3    H2 8023   4.806   2.128   1.722  1.1602  0.2311 -1.0527
 2687TIP3   OH2 8024   2.728   5.034   3.241 -0.7048 -0.4457 -0.3591
 2687TIP3    H1 8025   2.724   5.027   3.337 -2.6238 -2.3403 -0.5005
 2687TIP3    H2 8026   2.647   5.080   3.218 -0.2445  0.0083 -1.0964
 2688TIP3   OH2 8027   5.816   3.959   0.811 -0.0561 -0.3272 -0.1969
 2688TIP3    H1 8028   5.899   4.001   0.789  1.4484 -3.7607 -1.8873
 2688TIP3    H2 8029   5.757   3.983   0.740 -0.2786  1.3397  0.5041
 2689TIP3   OH2 8030   0.983   1.709   5.684 -0.5952  0.3124 -0.2635
 2689TIP3    H1 8031   0.987   1.749   5.771  1.0893  0.7010 -0.4869
 2689TIP3    H2 8032   1.050   1.641   5.686 -1.8547 -0.9915 -0.6547
 2690TIP3   OH2 8033   0.169   4.075   4.541 -0.2468  0.0711 -0.2188
 2690TIP3    H1 8034   0.202   4.093   4.453 -0.0607  3.7091  0.4174
 2690TIP3    H2 8035   0.114   4.151   4.561 -1.4035 -1.3195  2.3085
 2691TIP3   OH2 8036   4.310   2.403   2.386 -0.3104  0.1996  0.2040
 2691TIP3    H1 8037   4.246   2.368   2.325  1.0694 -0.7653 -0.7646
 2691TIP3    H2 8038   4.321   2.494   2.360 -0.0864 -0.0787 -0.7248
 2692TIP3   OH2 8039   5.897   2.788   5.225 -0.7002 -0.7880 -0.0306
 2692TIP3    H1 8040   5.941   2.704   5.211  0.5317  0.1922 -2.7520
 2692TIP3    H2 8041   5.952   2.835   5.288  0.8496 -0.5595 -1.4871
 2693TIP3   OH2 8042   6.778   5.176   2.533  0.0325 -0.3460  0.3436
 2693TIP3    H1 8043   6.741   5.265   2.534  0.6457 -0.0661 -0.6898
 2693TIP3    H2 8044   6.761   5.143   2.621 -0.2140  0.7926  0.7503
 2694TIP3   OH2 8045   7.025   4.665   1.386  0.4673 -0.1622 -0.2407
 2694TIP3    H1 8046   7.017   4.697   1.297  0.0491 -2.7435 -1.2272
 2694TIP3    H2 8047   6.956   4.599   1.394 -0.3030  0.8258  2.4179
 2695TIP3   OH2 8048   6.095   4.207   2.073  0.3737 -0.1916  0.4553
 2695TIP3    H1 8049   6.070   4.264   2.146  0.8501 -1.1568  1.4183
 2695TIP3    H2 8050   6.071   4.119   2.103 -0.1396 -0.5359 -0.8985
 2696TIP3   OH2 8051   6.817   3.753   4.095  0.5460  0.0751  0.1430
 2696TIP3    H1 8052   6.742   3.744   4.036  0.2874  2.1253  0.0643
 2696TIP3    H2 8053   6.892   3.766   4.037  0.3513  1.6926  0.1887
 2697TIP3   OH2 8054   0.080   1.213   3.177 -0.0722 -0.5782 -0.5757
 2697TIP3    H1 8055   0.073   1.240   3.085 -0.4497 -1.0496 -0.6901
 2697TIP3    H2 8056   0.028   1.278   3.225  2.5245  1.4735 -0.2973
 2698TIP3   OH2 8057   5.917   5.884   0.178 -0.0868 -0.4796  0.4812
 2698TIP3    H1 8058   5.916   5.954   0.244 -2.7853  0.6494 -0.6108
 2698TIP3    H2 8059   5.990   5.828   0.204  0.8877  1.5866  2.6238
 2699TIP3   OH2 8060   4.712   2.846   5.561 -0.0841  0.1580 -0.4946
 2699TIP3    H1 8061   4.706   2.887   5.474  1.1734  1.9796  0.2049
 2699TIP3    H2 8062   4.752   2.914   5.616  1.2248 -1.7326  1.0007
 2700TIP3   OH2 8063   0.524   0.647   4.913 -0.3683 -0.0547  0.0528
 2700TIP3    H1 8064   0.505   0.554   4.925 -1.3377  0.1954  0.5403
 2700TIP3    H2 8065   0.569   0.652   4.829 -1.8602 -0.7654 -0.8195
 2701TIP3   OH2 8066   2.211   5.505   2.646 -0.2621  0.5958  0.3185
 2701TIP3    H1 8067   2.219   5.454   2.726  0.1709 -1.4926 -0.9807
 2701TIP3    H2 8068   2.140   5.463   2.597  0.4503  0.8966 -1.0355
 2702TIP3   OH2 8069   3.821   3.202   0.484 -0.6804 -0.0505  0.3069
 2702TIP3    H1 8070   3.754   3.145   0.522 -1.5351  0.7673  0.0805
 2702TIP3    H2 8071   3.782   3.290   0.488 -0.2535  0.2391 -1.2325
 2703TIP3   OH2 8072   1.258   1.542   2.901  0.1355  0.2109  0.4807
 2703TIP3    H1 8073   1.325   1.585   2.848  0.4440  0.3012  0.9349
 2703TIP3    H2 8074   1.228   1.469   2.847  0.7297  0.0616  0.3419
 2704TIP3   OH2 8075   0.266   0.988   2.628  0.1292  0.2662  0.0657
 2704TIP3    H1 8076   0.360   1.005   2.615  0.4691 -1.4514 -0.0133
 2704TIP3    H2 8077   0.223   1.062   2.587  1.4457  0.5842 -0.8319
 2705TIP3   OH2 8078   6.074   0.407   5.323  0.1245 -0.3424  0.4169
 2705TIP3    H1 8079   6.099   0.442   5.409 -0.7349 -2.5280  1.6394
 2705TIP3    H2 8080   6.037   0.482   5.277  1.4618  1.1104  1.5719
 2706TIP3   OH2 8081   1.495   6.449   4.379  0.1789  0.1368  0.3887
 2706TIP3    H1 8082   1.479   6.362   4.414 -2.2462 -0.3449 -1.6164
 2706TIP3    H2 8083   1.590   6.461   4.384  0.2813 -1.1326  3.8959
 2707TIP3   OH2 8084   0.072   5.945   3.117  0.1565  0.4919  0.0295
 2707TIP3    H1 8085   0.164   5.954   3.095  0.4793 -1.1645  0.5790
 2707TIP3    H2 8086   0.066   5.976   3.208  0.6064 -1.3700  0.7298
 2708TIP3   OH2 8087   3.024   6.740   4.392 -0.2209 -0.0664  0.1056
 2708TIP3    H1 8088   3.024   6.831   4.363 -0.6849 -0.2733 -0.5651
 2708TIP3    H2 8089   3.103   6.703   4.353  0.3444  0.2226  0.9595
 2709TIP3   OH2 8090   4.554   1.756   0.711  0.2818 -0.6050  0.2646
 2709TIP3    H1 8091   4.623   1.821   0.718  0.4707 -0.6227 -1.2737
 2709TIP3    H2 8092   4.537   1.730   0.802  0.9843  0.7450  0.8107
 2710TIP3   OH2 8093   6.627   4.104   2.958 -0.2292 -0.2013  0.0110
 2710TIP3    H1 8094   6.661   4.118   3.046 -1.7577 -1.1123  0.7881
 2710TIP3    H2 8095   6.546   4.156   2.955  0.5223  0.9549 -1.3640
 2711TIP3   OH2 8096   5.992   1.966   1.959 -0.0321 -0.4579  0.2910
 2711TIP3    H1 8097   5.977   2.017   2.039 -0.9895  0.1676 -0.2638
 2711TIP3    H2 8098   5.919   1.991   1.902 -0.0820 -1.8782 -0.2865
 2712TIP3   OH2 8099   3.049   1.425   3.369  0.3193  0.1723 -0.0489
 2712TIP3    H1 8100   3.109   1.487   3.329 -0.7706  1.1804 -0.1894
 2712TIP3    H2 8101   3.045   1.452   3.461  0.4126 -0.1598  0.0529
 2713TIP3   OH2 8102   6.949   5.528   2.308 -0.0330 -0.4448 -0.3440
 2713TIP3    H1 8103   6.962   5.443   2.351  0.2808 -1.2212 -1.9207
 2713TIP3    H2 8104   6.979   5.592   2.373  1.2787 -1.6253  0.2664
 2714TIP3   OH2 8105   5.526   0.905   4.710 -0.8601  0.4021 -0.0136
 2714TIP3    H1 8106   5.512   0.821   4.666 -0.9019  1.4948 -2.2421
 2714TIP3    H2 8107   5.619   0.906   4.731 -0.7982 -0.0979 -0.2560
 2715TIP3   OH2 8108   2.803   3.592   1.894  0.3140 -0.2061  0.1213
 2715TIP3    H1 8109   2.883   3.546   1.918  0.5556 -0.0752 -0.4166
 2715TIP3    H2 8110   2.832   3.660   1.833 -0.0289  0.6963  0.9414
 2716TIP3   OH2 8111   3.971   2.874   3.901 -0.1229 -0.1567  0.9055
 2716TIP3    H1 8112   3.966   2.883   3.996 -0.0275 -1.5636  1.0630
 2716TIP3    H2 8113   3.882   2.850   3.875  0.2421 -1.5666  0.8747
 2717TIP3   OH2 8114   6.592   3.337   5.346 -0.1059  0.1518 -0.0622
 2717TIP3    H1 8115   6.632   3.420   5.372  1.8631 -0.1877 -1.7130
 2717TIP3    H2 8116   6.504   3.360   5.318 -0.0681  1.4490  0.8117
 2718TIP3   OH2 8117   0.479   2.847   3.541 -0.5525 -0.5431 -0.2165
 2718TIP3    H1 8118   0.443   2.820   3.456  0.2526 -1.8365 -0.1765
 2718TIP3    H2 8119   0.561   2.891   3.519 -1.2445  0.8047 -0.1984
 2719TIP3   OH2 8120   5.910   5.171   2.716 -0.4963  0.2261 -0.3604
 2719TIP3    H1 8121   5.858   5.141   2.641 -0.5033  0.8376 -0.6096
 2719TIP3    H2 8122   5.910   5.266   2.707 -2.7924  0.5489  1.9162
 2720TIP3   OH2 8123   5.062   6.392   1.986  0.2898 -0.4954  0.0023
 2720TIP3    H1 8124   5.103   6.464   1.938  0.9792 -0.6537  0.3532
 2720TIP3    H2 8125   4.989   6.434   2.032  0.4207 -0.1015 -0.1392
 2721TIP3   OH2 8126   4.840   1.740   0.507 -0.7496  0.3077 -0.1464
 2721TIP3    H1 8127   4.848   1.770   0.416 -2.5126 -3.0700 -1.6180
 2721TIP3    H2 8128   4.928   1.710   0.530 -0.2638  1.2786 -0.6738
 2722TIP3   OH2 8129   1.968   0.115   0.624  0.0360  0.1329 -0.0402
 2722TIP3    H1 8130   1.954   0.185   0.559 -1.1399  0.6631  0.7477
 2722TIP3    H2 8131   1.991   0.162   0.704 -0.7557 -0.3880  0.4981
 2723TIP3   OH2 8132  -0.019   5.352   1.948 -0.0040 -0.0702 -0.0539
 2723TIP3    H1 8133  -0.024   5.408   1.870 -0.1756  0.2516  0.1878
 2723TIP3    H2 8134   0.074   5.355   1.973 -0.3331  1.7474  1.1421
 2724TIP3   OH2 8135   6.980   4.391   0.604  0.5764  0.3338  0.5093
 2724TIP3    H1 8136   6.904   4.375   0.548  0.1372  1.7794  0.6592
 2724TIP3    H2 8137   7.051   4.407   0.542  0.3503  0.7803  0.3598
 2725TIP3   OH2 8138   2.356   5.091   2.975 -0.1126  0.9456  0.0317
 2725TIP3    H1 8139   2.368   5.111   3.068  0.8126  0.6551 -0.0150
 2725TIP3    H2 8140   2.337   4.997   2.973 -1.2097  1.1494 -0.0031
 2726TIP3   OH2 8141   1.215   4.847   2.645 -0.3317 -0.2077  0.6820
 2726TIP3    H1 8142   1.161   4.800   2.708  1.7466 -1.0150  1.9494
 2726TIP3    H2 8143   1.221   4.788   2.570 -4.1389  1.3961 -1.2033
 2727TIP3   OH2 8144   4.042   1.839   2.750 -0.3988  0.3477 -0.3752
 2727TIP3    H1 8145   3.979   1.881   2.691 -0.3892  1.9019  0.6666
 2727TIP3    H2 8146   4.128   1.861   2.714 -0.4103  0.4135 -0.3622
 2728TIP3   OH2 8147   5.712   3.748   1.745  0.6034 -0.2204 -0.0776
 2728TIP3    H1 8148   5.744   3.661   1.765 -1.3438 -1.5036 -2.0496
 2728TIP3    H2 8149   5.712   3.753   1.649 -0.2794  1.5561 -0.0387
 2729TIP3   OH2 8150   3.438   2.233   2.698  0.6159 -0.0460 -0.6232
 2729TIP3    H1 8151   3.415   2.187   2.618  1.0796  0.4166 -1.0366
 2729TIP3    H2 8152   3.517   2.282   2.675  0.8348 -0.0174  0.1591
 2730TIP3   OH2 8153   6.136   1.412   1.902 -0.5656 -0.3936  0.4848
 2730TIP3    H1 8154   6.219   1.366   1.892  0.2533  0.9907  0.7265
 2730TIP3    H2 8155   6.154   1.481   1.966 -2.0724 -0.4609  1.0166
 2731TIP3   OH2 8156   2.568   2.190   5.723 -0.3103 -0.0458  0.2340
 2731TIP3    H1 8157   2.647   2.139   5.737  0.0923 -0.3126 -2.5291
 2731TIP3    H2 8158   2.597   2.281   5.730 -0.1492 -0.1407  0.9179
 2732TIP3   OH2 8159   0.477   6.406   0.540 -0.2249 -0.3570 -0.1541
 2732TIP3    H1 8160   0.398   6.459   0.542  1.6350  2.6544  0.2630
 2732TIP3    H2 8161   0.454   6.326   0.588 -3.0813  0.1375 -0.5216
 2733TIP3   OH2 8162   6.852   5.098   0.342 -0.4211  0.2207  0.5763
 2733TIP3    H1 8163   6.915   5.093   0.414 -1.4861  1.0836  1.5975
 2733TIP3    H2 8164   6.767   5.102   0.385 -1.3202 -2.2299 -0.7878
 2734TIP3   OH2 8165   1.159   3.744   5.088  0.0251 -0.0424  0.4893
 2734TIP3    H1 8166   1.241   3.696   5.077  0.3993  0.7660 -0.3844
 2734TIP3    H2 8167   1.186   3.828   5.125 -0.2651  0.6495 -0.8213
 2735TIP3   OH2 8168   2.420   6.202   3.248  0.7285  0.1866 -0.4287
 2735TIP3    H1 8169   2.504   6.248   3.250  0.2601  1.0437 -0.3013
 2735TIP3    H2 8170   2.380   6.228   3.165  1.2895 -1.5353 -1.3075
 2736TIP3   OH2 8171   0.668   0.979   1.823  0.3798 -0.1016 -0.1308
 2736TIP3    H1 8172   0.729   0.999   1.752 -1.1247 -1.2105 -1.8294
 2736TIP3    H2 8173   0.674   1.054   1.882  3.0119  0.0229 -0.4475
 2737TIP3   OH2 8174   0.706   2.846   1.754  0.0286 -0.2871 -0.5876
 2737TIP3    H1 8175   0.693   2.896   1.835  0.6782 -0.4618 -0.3648
 2737TIP3    H2 8176   0.670   2.901   1.685 -1.1223 -0.4168 -0.1090
 2738TIP3   OH2 8177   6.307   3.923   5.681  0.5876  0.1902 -0.1234
 2738TIP3    H1 8178   6.271   3.921   5.593  0.9296  0.0858 -0.2635
 2738TIP3    H2 8179   6.400   3.942   5.669  0.8045 -0.6453  0.1564
 2739TIP3   OH2 8180   5.555   3.602   1.459 -0.0039  0.0624  0.0899
 2739TIP3    H1 8181   5.512   3.578   1.376 -1.2727 -0.8975  0.9871
 2739TIP3    H2 8182   5.648   3.586   1.443 -0.1804  0.3099 -1.2953
 2740TIP3   OH2 8183   1.087   1.379   3.978  0.5984  0.2758  0.2472
 2740TIP3    H1 8184   1.026   1.305   3.986  1.4645 -0.4613  0.2573
 2740TIP3    H2 8185   1.062   1.422   3.897  0.8165 -0.7551 -0.3963
 2741TIP3   OH2 8186   1.686   1.896   4.043 -0.3790  0.8390 -0.1247
 2741TIP3    H1 8187   1.686   1.949   4.123  2.6754  1.4520 -0.4118
 2741TIP3    H2 8188   1.671   1.807   4.074 -2.3262  1.3918  0.7196
 2742TIP3   OH2 8189   6.429   3.304   0.851 -0.6569  0.0871 -0.0042
 2742TIP3    H1 8190   6.460   3.378   0.903 -0.2638  0.8902 -1.3433
 2742TIP3    H2 8191   6.431   3.229   0.912 -1.0199  1.1440  1.3596
 2743TIP3   OH2 8192   0.188   0.244   2.842 -0.1444 -0.0527  0.1002
 2743TIP3    H1 8193   0.235   0.194   2.908 -0.8372 -0.5603  0.2158
 2743TIP3    H2 8194   0.236   0.226   2.761 -0.5231 -1.1187  0.0935
 2744TIP3   OH2 8195   4.486   0.491   3.771  0.0232 -0.1645  0.3213
 2744TIP3    H1 8196   4.433   0.520   3.845  0.3405  0.5988  0.2607
 2744TIP3    H2 8197   4.562   0.449   3.810  0.3621  0.5491  0.4385
 2745TIP3   OH2 8198   5.347   1.635   4.973 -0.2804  0.2388 -0.2569
 2745TIP3    H1 8199   5.364   1.717   4.927 -0.0499  0.5659  0.4076
 2745TIP3    H2 8200   5.270   1.653   5.027  1.0999  0.7539  1.6493
 2746TIP3   OH2 8201   4.707   4.345   4.813  0.1981  0.0550 -0.0504
 2746TIP3    H1 8202   4.703   4.434   4.847 -0.4139  0.7485 -1.7988
 2746TIP3    H2 8203   4.717   4.290   4.891 -0.7126  1.5498  1.1912
 2747TIP3   OH2 8204   3.362   6.268   5.413  0.0889 -0.0692  0.0741
 2747TIP3    H1 8205   3.293   6.204   5.394 -0.4309  0.0018  1.5543
 2747TIP3    H2 8206   3.352   6.335   5.346 -0.6405 -0.5553 -0.3218
 2748TIP3   OH2 8207   1.047   2.132   0.289 -0.2943 -0.2670 -0.2597
 2748TIP3    H1 8208   0.969   2.182   0.268 -0.4224  0.4129  1.6529
 2748TIP3    H2 8209   1.084   2.108   0.204 -1.9080  0.4207 -1.1948
 2749TIP3   OH2 8210   5.835   4.170   1.857 -0.1976 -0.1522  0.4814
 2749TIP3    H1 8211   5.760   4.162   1.916  0.6917  0.2552  1.6951
 2749TIP3    H2 8212   5.884   4.088   1.870 -1.0999 -1.0301 -1.3105
 2750TIP3   OH2 8213   6.341   2.359   1.381 -0.0597 -0.1829 -0.4842
 2750TIP3    H1 8214   6.296   2.344   1.298 -0.9440 -1.3383  0.1763
 2750TIP3    H2 8215   6.297   2.436   1.418 -1.1268 -0.9318 -0.1328
 2751TIP3   OH2 8216   2.760   5.755   1.329 -0.1588  0.1071 -0.4361
 2751TIP3    H1 8217   2.683   5.698   1.326 -1.5302  1.8187  0.2130
 2751TIP3    H2 8218   2.751   5.811   1.252  1.1314 -0.4770 -1.0329
 2752TIP3   OH2 8219   5.544   2.188   4.732 -0.1660 -0.7916 -0.1269
 2752TIP3    H1 8220   5.583   2.266   4.694 -1.6329 -0.5317 -1.1668
 2752TIP3    H2 8221   5.527   2.130   4.658  0.5031 -1.9610  0.5778
 2753TIP3   OH2 8222   2.419   4.812   5.612 -0.0092  0.3533  0.2280
 2753TIP3    H1 8223   2.386   4.750   5.677  0.3266  0.3198  0.3687
 2753TIP3    H2 8224   2.490   4.766   5.567 -0.3272  0.3293 -0.2579
 2754TIP3   OH2 8225   7.135   0.709   5.526  0.1149  0.4440 -0.3198
 2754TIP3    H1 8226   7.085   0.670   5.454  3.0445 -0.4351 -2.0165
 2754TIP3    H2 8227   7.157   0.636   5.584  0.0177  0.7095  0.0582
 2755TIP3   OH2 8228   3.335   3.675   5.343 -0.5661 -0.2133 -0.2576
 2755TIP3    H1 8229   3.272   3.717   5.402  1.2017  1.1737  0.7589
 2755TIP3    H2 8230   3.404   3.642   5.401 -1.2038 -3.5206 -1.1274
 2756TIP3   OH2 8231   4.868   4.264   4.585  0.0508  0.7718  0.2259
 2756TIP3    H1 8232   4.864   4.340   4.644 -0.1799 -0.1099  1.3889
 2756TIP3    H2 8233   4.795   4.208   4.613  0.1722  0.1502 -0.6636
 2757TIP3   OH2 8234   2.573   3.818   1.893  0.0725  0.1008 -0.2568
 2757TIP3    H1 8235   2.503   3.778   1.841 -0.2687  2.8315 -2.1019
 2757TIP3    H2 8236   2.650   3.766   1.874 -1.1824 -2.5665  1.2894
 2758TIP3   OH2 8237   4.497   1.828   0.176  0.6790  0.2647  0.0581
 2758TIP3    H1 8238   4.489   1.921   0.154  2.1681  0.5414  0.5856
 2758TIP3    H2 8239   4.406   1.798   0.188  0.1595  1.5324 -0.5382
 2759TIP3   OH2 8240   3.727   2.665   1.534  0.2211  0.2068 -0.0036
 2759TIP3    H1 8241   3.676   2.629   1.461  0.5614 -1.3456  0.4970
 2759TIP3    H2 8242   3.661   2.686   1.601  0.0306  0.4143 -0.2535
 2760TIP3   OH2 8243   4.983   6.082   0.831  0.5874  0.5159  0.4855
 2760TIP3    H1 8244   5.003   6.003   0.781  3.0896  1.9573 -0.9914
 2760TIP3    H2 8245   5.041   6.077   0.907  1.0484  1.1178  0.1758
 2761TIP3   OH2 8246   5.122   6.614   3.505  0.4288  0.0302 -0.2433
 2761TIP3    H1 8247   5.167   6.621   3.421  0.0534 -0.2430 -0.4737
 2761TIP3    H2 8248   5.104   6.705   3.530  1.1617  0.1417 -0.1129
 2762TIP3   OH2 8249   6.041   4.712   2.161  0.5576  0.3350 -0.0566
 2762TIP3    H1 8250   6.050   4.762   2.080  0.3299 -0.6737 -0.7156
 2762TIP3    H2 8251   5.950   4.725   2.188  0.9192  1.5920  0.6801
 2763TIP3   OH2 8252   2.932   5.927   0.557 -0.5997 -0.1790 -0.0125
 2763TIP3    H1 8253   2.929   6.006   0.612 -1.0712 -0.6318  0.6282
 2763TIP3    H2 8254   2.969   5.957   0.474 -0.8416  0.7293  0.1968
 2764TIP3   OH2 8255   4.382   2.420   0.055  0.3173  0.5769  0.3310
 2764TIP3    H1 8256   4.465   2.404   0.099 -0.5607 -1.1339  1.5045
 2764TIP3    H2 8257   4.400   2.405  -0.038  1.6078  1.6189  0.3832
 2765TIP3   OH2 8258   3.301   6.005   2.723 -0.4499  0.2772 -0.1256
 2765TIP3    H1 8259   3.342   6.010   2.637  0.3573  0.4988  0.2584
 2765TIP3    H2 8260   3.314   5.915   2.751  0.1230  0.4441  0.1571
 2766TIP3   OH2 8261   4.489   6.221   4.302 -0.4427  0.2018  0.4638
 2766TIP3    H1 8262   4.572   6.182   4.274 -0.5964  0.7532 -0.8365
 2766TIP3    H2 8263   4.511   6.274   4.379  0.0235 -1.2381  1.3591
 2767TIP3   OH2 8264   0.697   3.416   5.701 -0.2064 -0.1588  0.2373
 2767TIP3    H1 8265   0.658   3.497   5.735 -0.2956 -0.7247  1.5380
 2767TIP3    H2 8266   0.653   3.346   5.750 -1.5823 -1.1602 -2.2605
 2768TIP3   OH2 8267   3.759   0.946   4.779  0.1835 -0.4434 -0.1849
 2768TIP3    H1 8268   3.795   0.982   4.698  1.8970  1.6046  1.3554
 2768TIP3    H2 8269   3.812   0.868   4.796  1.4428  0.4476  0.1256
 2769TIP3   OH2 8270   4.030   2.144   1.281 -1.3444 -0.0254 -0.6273
 2769TIP3    H1 8271   4.090   2.087   1.233  0.8463  0.8895  0.8911
 2769TIP3    H2 8272   4.036   2.228   1.237 -0.0882  0.5462  0.5670
 2770TIP3   OH2 8273   4.554   2.916   1.059 -0.1320  0.3533 -0.6340
 2770TIP3    H1 8274   4.638   2.924   1.013  0.9637  0.5317  1.2849
 2770TIP3    H2 8275   4.510   2.999   1.045 -0.7104 -0.2582 -2.8915
 2771TIP3   OH2 8276   3.940   6.040   1.573  0.6422  0.2089  0.1673
 2771TIP3    H1 8277   4.023   6.021   1.616  0.4295 -1.7077 -0.1682
 2771TIP3    H2 8278   3.897   5.955   1.565 -0.3530  0.8216 -1.7088
 2772TIP3   OH2 8279   1.279   2.839   2.214  0.4413 -0.0647  0.4704
 2772TIP3    H1 8280   1.280   2.818   2.121 -0.7835 -0.8301  0.6197
 2772TIP3    H2 8281   1.238   2.925   2.219  0.6754  0.0588  0.2981
 2773TIP3   OH2 8282   2.341   4.377   0.173  0.6679 -0.3906  0.4131
 2773TIP3    H1 8283   2.287   4.342   0.102 -0.9507 -0.3909  1.5916
 2773TIP3    H2 8284   2.424   4.331   0.165  0.9635  0.4421 -2.1695
 2774TIP3   OH2 8285   2.959   6.643   0.007  0.3669  0.1713  0.2785
 2774TIP3    H1 8286   2.947   6.616   0.099 -0.0939 -1.8301 -0.3079
 2774TIP3    H2 8287   2.899   6.587  -0.042  1.6997  0.1329 -1.3967
 2775TIP3   OH2 8288   2.684   1.330   0.063  0.5727  0.0474 -0.2443
 2775TIP3    H1 8289   2.678   1.423   0.043 -0.3123  0.2839  0.9824
 2775TIP3    H2 8290   2.593   1.300   0.063  0.8716 -0.8874 -0.9046
 2776TIP3   OH2 8291   4.206   1.173   2.754 -0.8302  0.4903 -0.0807
 2776TIP3    H1 8292   4.300   1.192   2.751 -0.8621  0.5150 -1.3657
 2776TIP3    H2 8293   4.194   1.100   2.694 -1.2182 -1.5210  2.2685
 2777TIP3   OH2 8294   3.516   1.714   5.562  0.0209 -0.3933  0.0899
 2777TIP3    H1 8295   3.517   1.810   5.559  0.2750 -0.3874  0.2937
 2777TIP3    H2 8296   3.607   1.690   5.576  0.2521 -0.7292 -1.7039
 2778TIP3   OH2 8297   7.015   1.871   1.029  0.3851  0.2165 -0.0113
 2778TIP3    H1 8298   6.957   1.947   1.021  0.0074 -0.2181 -1.5944
 2778TIP3    H2 8299   6.989   1.813   0.958  1.3916 -0.9232  0.5248
 2779TIP3   OH2 8300   5.016   2.805   2.709 -0.8409  0.8691 -0.2940
 2779TIP3    H1 8301   4.974   2.721   2.694  2.3951 -0.6623 -1.9048
 2779TIP3    H2 8302   4.980   2.863   2.642 -0.5223 -0.3603 -1.5832
 2780TIP3   OH2 8303   2.717   4.105   3.853  0.2083  0.2895  0.3816
 2780TIP3    H1 8304   2.775   4.178   3.872  0.9291 -0.0540 -0.4392
 2780TIP3    H2 8305   2.772   4.042   3.805 -0.2444 -1.0192  1.5090
 2781TIP3   OH2 8306   4.076   5.449   1.085  0.2338  0.0399 -0.0913
 2781TIP3    H1 8307   4.110   5.465   0.996 -1.3390 -0.3658 -0.7842
 2781TIP3    H2 8308   4.037   5.533   1.110  2.6427  0.8894  1.1901
 2782TIP3   OH2 8309   3.980   2.960   0.737 -0.0814 -0.4817  0.3250
 2782TIP3    H1 8310   4.042   3.002   0.677 -1.0532 -0.1468 -0.4837
 2782TIP3    H2 8311   3.930   2.900   0.682 -0.3211 -0.9150  1.0016
 2783TIP3   OH2 8312   0.203   5.725   2.488 -0.6496 -0.1196  0.2047
 2783TIP3    H1 8313   0.163   5.776   2.558  0.1600  0.2248  0.4252
 2783TIP3    H2 8314   0.223   5.789   2.420 -0.1995 -0.2392  0.2222
 2784TIP3   OH2 8315   6.973   5.390   2.723  0.3980 -0.0088  0.4431
 2784TIP3    H1 8316   6.952   5.324   2.789  0.7404 -0.8401 -0.2547
 2784TIP3    H2 8317   6.899   5.387   2.662  1.0082 -0.7195 -0.3073
 2785TIP3   OH2 8318   6.993   6.545   5.433  0.2251  0.7227  0.0681
 2785TIP3    H1 8319   6.961   6.567   5.520  2.0591 -0.6881  1.1813
 2785TIP3    H2 8320   7.025   6.455   5.441 -1.8542 -0.4063 -2.7511
 2786TIP3   OH2 8321   1.396   3.514   5.690  0.5195  0.7920  0.1386
 2786TIP3    H1 8322   1.371   3.601   5.722 -1.0433  0.0584  1.0281
 2786TIP3    H2 8323   1.324   3.488   5.633 -0.5459 -1.0874  2.1882
 2787TIP3   OH2 8324   5.784   4.146   3.326  0.2845  0.1886 -0.1223
 2787TIP3    H1 8325   5.759   4.182   3.411 -0.0747  2.0289 -0.9432
 2787TIP3    H2 8326   5.714   4.086   3.303  0.2187 -0.0698  0.7302
 2788TIP3   OH2 8327   3.725   2.644   3.054  0.4632  0.3905  0.2969
 2788TIP3    H1 8328   3.718   2.727   3.006  3.0223  0.4521 -0.1293
 2788TIP3    H2 8329   3.748   2.579   2.988 -1.9199 -0.8268  0.5597
 2789TIP3   OH2 8330   2.046   3.525   3.996  0.1324  0.0188 -0.2170
 2789TIP3    H1 8331   2.112   3.458   3.976 -0.5461 -0.8829  0.5079
 2789TIP3    H2 8332   2.087   3.580   4.063  0.4029 -0.1148 -0.2709
 2790TIP3   OH2 8333   2.141   5.241   4.284 -0.7119 -0.2765  0.3810
 2790TIP3    H1 8334   2.103   5.291   4.356 -1.2272 -0.3563  0.1666
 2790TIP3    H2 8335   2.168   5.308   4.221 -0.2775 -0.2074  0.6366
 2791TIP3   OH2 8336   6.357   2.841   4.176  0.4682  0.5324  0.1526
 2791TIP3    H1 8337   6.290   2.793   4.127  1.0944  1.1408 -1.3446
 2791TIP3    H2 8338   6.431   2.848   4.116  1.2575  1.3314  1.1843
 2792TIP3   OH2 8339   6.670   5.723   5.672 -0.1197  0.0208  0.2796
 2792TIP3    H1 8340   6.638   5.668   5.743  0.1517  2.1503  2.1440
 2792TIP3    H2 8341   6.765   5.711   5.672 -0.2218 -0.8821 -0.5455
 2793TIP3   OH2 8342   3.144   5.820   2.447  0.5791 -0.5134 -0.3630
 2793TIP3    H1 8343   3.132   5.725   2.452  3.9271 -1.0218  2.2909
 2793TIP3    H2 8344   3.228   5.830   2.401  0.5645  1.1188 -0.0620
 2794TIP3   OH2 8345   1.502   5.952   2.606  0.1481 -0.1396 -0.3994
 2794TIP3    H1 8346   1.424   5.994   2.642 -0.5387 -1.3831 -0.3899
 2794TIP3    H2 8347   1.549   6.022   2.561 -1.3344  0.4878 -1.0114
 2795TIP3   OH2 8348   1.825   2.416   2.045  0.5063 -0.5319 -0.1823
 2795TIP3    H1 8349   1.796   2.504   2.070  1.8296 -0.0126 -0.3859
 2795TIP3    H2 8350   1.907   2.404   2.093  0.2777 -1.7166 -0.0627
 2796TIP3   OH2 8351   3.080   5.206   0.900  0.1621  0.3025 -0.1147
 2796TIP3    H1 8352   2.986   5.189   0.915 -0.1435  1.1962 -0.9630
 2796TIP3    H2 8353   3.104   5.268   0.969  0.0534  0.3351 -0.1060
 2797TIP3   OH2 8354   4.363   4.193   5.176  0.1144 -0.2933 -0.1093
 2797TIP3    H1 8355   4.363   4.172   5.270  0.9982  0.3011  0.0361
 2797TIP3    H2 8356   4.273   4.221   5.158 -0.0212 -0.2512  0.5988
 2798TIP3   OH2 8357   1.844   2.474   2.903  0.4657  0.6236 -0.3533
 2798TIP3    H1 8358   1.895   2.393   2.901  0.6907  0.6943  1.1812
 2798TIP3    H2 8359   1.902   2.539   2.942 -0.7937  0.6403  1.6950
 2799TIP3   OH2 8360   2.506   4.632   4.027 -0.1923 -0.4113  0.0587
 2799TIP3    H1 8361   2.594   4.622   3.990 -0.3555  0.3793 -0.5732
 2799TIP3    H2 8362   2.514   4.703   4.090 -0.2800 -0.6678  0.3655
 2800TIP3   OH2 8363   0.877   0.585   5.347 -0.4524 -0.3063  0.3498
 2800TIP3    H1 8364   0.926   0.525   5.403  2.2762 -0.0008 -1.5356
 2800TIP3    H2 8365   0.925   0.668   5.353 -0.5856 -0.0276 -1.7337
 2801TIP3   OH2 8366   7.073   6.088   2.938 -0.4413  0.2294 -0.4880
 2801TIP3    H1 8367   7.113   6.071   3.023 -0.7445 -0.2358 -0.4329
 2801TIP3    H2 8368   7.127   6.156   2.898 -0.4255  0.6000  0.1651
 2802TIP3   OH2 8369   4.659   6.746   2.324 -0.6118  0.3148  0.2367
 2802TIP3    H1 8370   4.716   6.670   2.327  0.4495  1.1010  0.5769
 2802TIP3    H2 8371   4.623   6.754   2.412 -2.1013 -0.7735 -0.2245
 2803TIP3   OH2 8372   6.478   5.142   1.216 -0.3284  0.0022  0.3013
 2803TIP3    H1 8373   6.526   5.173   1.140  0.2010 -0.3360  0.4862
 2803TIP3    H2 8374   6.434   5.219   1.250 -2.8734 -0.3314 -1.9342
 2804TIP3   OH2 8375   3.219   1.194   0.982  0.2336  0.1122  0.3981
 2804TIP3    H1 8376   3.308   1.222   0.959  0.2677 -0.7373 -0.5877
 2804TIP3    H2 8377   3.208   1.222   1.073  1.7210 -0.2545  0.7242
 2805TIP3   OH2 8378   2.841   5.053   4.603  0.3296 -0.2145  0.0967
 2805TIP3    H1 8379   2.832   5.096   4.688 -0.1935  0.3447 -0.2291
 2805TIP3    H2 8380   2.761   5.001   4.594  0.0754  0.2398 -0.3260
 2806TIP3   OH2 8381   0.542   1.542   0.081 -0.0098  0.3501  0.1895
 2806TIP3    H1 8382   0.456   1.500   0.090  0.1999 -0.1293 -0.0037
 2806TIP3    H2 8383   0.604   1.469   0.086  0.3098  0.4963 -1.2585
 2807TIP3   OH2 8384   1.493   4.702   3.285 -0.4015  0.2125 -0.2651
 2807TIP3    H1 8385   1.487   4.608   3.301 -0.7881  0.3221  0.2547
 2807TIP3    H2 8386   1.587   4.721   3.291 -0.4098  0.0338  0.6934
 2808TIP3   OH2 8387   4.701   3.631   0.010  0.2043 -0.4959 -0.0168
 2808TIP3    H1 8388   4.630   3.689   0.037 -0.6079 -0.3164 -2.3620
 2808TIP3    H2 8389   4.779   3.687   0.006 -0.4435  0.3367 -1.6434
 2809TIP3   OH2 8390   2.686   0.185   5.762 -0.2102 -0.1173  0.3551
 2809TIP3    H1 8391   2.766   0.233   5.781  0.8490 -2.0853  1.2109
 2809TIP3    H2 8392   2.615   0.240   5.794  0.8407  1.3195  0.2754
 2810TIP3   OH2 8393   2.140   3.695   1.109  0.3418  0.1761 -0.1877
 2810TIP3    H1 8394   2.231   3.724   1.105  0.7007 -0.9499 -0.8124
 2810TIP3    H2 8395   2.089   3.775   1.098  1.1793  1.1746  2.4514
 2811TIP3   OH2 8396   4.965   0.590   1.122  0.1909 -0.7391  0.3151
 2811TIP3    H1 8397   4.954   0.505   1.164 -0.4589 -1.1789 -0.7162
 2811TIP3    H2 8398   4.913   0.584   1.042 -1.0490  1.1345  0.9246
 2812TIP3   OH2 8399   6.760   1.485   0.667  0.4410 -0.2586  0.9477
 2812TIP3    H1 8400   6.723   1.403   0.635  2.6862 -1.1053  0.2720
 2812TIP3    H2 8401   6.716   1.553   0.616 -2.8641 -0.7857  2.8499
 2813TIP3   OH2 8402   0.873   1.379   4.681 -0.0598 -0.0831  0.7612
 2813TIP3    H1 8403   0.954   1.357   4.727  0.2361  1.3243  0.9712
 2813TIP3    H2 8404   0.877   1.474   4.670 -0.4558 -0.2746 -1.5548
 2814TIP3   OH2 8405   2.091   0.036   0.995 -0.3127  0.1980 -1.0207
 2814TIP3    H1 8406   2.001   0.066   0.994 -0.0787  0.9066 -1.5750
 2814TIP3    H2 8407   2.090  -0.040   1.053 -1.1562  0.5116 -0.6056
 2815TIP3   OH2 8408   3.312   6.441   1.742  0.1778 -0.3497  0.3070
 2815TIP3    H1 8409   3.338   6.505   1.808  1.1913 -1.5645  1.1446
 2815TIP3    H2 8410   3.361   6.466   1.664  0.7620 -0.2287  0.7023
 2816TIP3   OH2 8411   3.113   3.985   2.674  0.0986 -0.0838  0.2942
 2816TIP3    H1 8412   3.045   3.972   2.740 -0.6102 -0.5011 -0.5013
 2816TIP3    H2 8413   3.068   4.027   2.601  0.2967 -1.8086 -0.8930
 2817TIP3   OH2 8414   0.638   0.428   0.968 -0.0284  0.0283  0.3228
 2817TIP3    H1 8415   0.551   0.469   0.969  0.1625  0.4387  0.9537
 2817TIP3    H2 8416   0.652   0.403   0.877 -0.2057  1.2721 -0.0637
 2818TIP3   OH2 8417   3.162   2.715   2.855  0.8056 -0.0848  0.4805
 2818TIP3    H1 8418   3.142   2.700   2.763  1.6026  0.4769  0.2046
 2818TIP3    H2 8419   3.078   2.706   2.900  0.6472 -1.9275 -0.0861
 2819TIP3   OH2 8420   3.960   1.732   0.115 -0.2348  0.5064 -0.3479
 2819TIP3    H1 8421   3.884   1.712   0.171 -0.2441  0.9770 -0.1883
 2819TIP3    H2 8422   3.934   1.809   0.065  0.3498  1.0287  0.1328
 2820TIP3   OH2 8423   1.994   3.797   1.671  0.0275 -0.3562  0.2197
 2820TIP3    H1 8424   1.912   3.761   1.705  0.9453 -1.5332  1.2685
 2820TIP3    H2 8425   1.974   3.821   1.581 -1.7343  0.3093  0.7469
 2821TIP3   OH2 8426   3.273   2.498   4.830 -0.5253  0.5141 -0.3061
 2821TIP3    H1 8427   3.270   2.484   4.924 -1.3374 -1.6247 -0.5983
 2821TIP3    H2 8428   3.325   2.578   4.819 -1.2598  1.3781  1.9725
 2822TIP3   OH2 8429   3.877   5.767   5.586  1.0132 -0.1040  0.5094
 2822TIP3    H1 8430   3.815   5.830   5.623 -0.0147  0.0590 -1.3747
 2822TIP3    H2 8431   3.961   5.790   5.626  0.4774  1.8412  0.6143
 2823TIP3   OH2 8432   4.869   1.336   2.352  0.1183 -0.1029 -0.4310
 2823TIP3    H1 8433   4.777   1.358   2.340 -0.7038 -2.9933 -0.2714
 2823TIP3    H2 8434   4.916   1.415   2.327 -2.3763  1.3627 -0.8364
 2824TIP3   OH2 8435   1.870   2.869   4.120  0.0640 -0.0927  0.3148
 2824TIP3    H1 8436   1.844   2.910   4.037 -0.4365  2.2858  1.5513
 2824TIP3    H2 8437   1.803   2.802   4.135  0.2249 -0.6486 -1.2181
 2825TIP3   OH2 8438   6.595   3.471   3.353  0.5643 -0.4969  0.2369
 2825TIP3    H1 8439   6.570   3.547   3.405  0.7279  0.5099 -1.0876
 2825TIP3    H2 8440   6.528   3.405   3.372  0.9837 -0.4095  2.1749
 2826TIP3   OH2 8441   5.815   4.603   5.315 -0.0586 -0.8083  0.2315
 2826TIP3    H1 8442   5.771   4.614   5.399  0.2474 -0.8855  0.4023
 2826TIP3    H2 8443   5.878   4.675   5.310 -0.4267 -0.5130 -0.1546
 2827TIP3   OH2 8444   1.504   5.075   1.111 -0.6083 -0.1839  0.0248
 2827TIP3    H1 8445   1.453   5.107   1.186  0.0475  0.9027  0.0285
 2827TIP3    H2 8446   1.592   5.109   1.126  0.1019 -1.8793 -0.0770
 2828TIP3   OH2 8447   7.182   3.822   5.685 -0.2292 -0.0446  0.1161
 2828TIP3    H1 8448   7.177   3.858   5.596  0.1040 -0.9917 -0.3045
 2828TIP3    H2 8449   7.091   3.816   5.714 -0.4491 -1.1263 -0.7523
 2829TIP3   OH2 8450   2.240   1.204   4.701  0.5959  0.4077  0.5876
 2829TIP3    H1 8451   2.177   1.139   4.671 -0.7209  2.3300 -1.0022
 2829TIP3    H2 8452   2.191   1.259   4.762  0.3677  2.4918 -1.3729
 2830TIP3   OH2 8453   2.916   0.379   5.462  0.0782  0.9452  0.5308
 2830TIP3    H1 8454   2.826   0.407   5.477 -0.4596  0.4160 -1.4869
 2830TIP3    H2 8455   2.933   0.402   5.371  1.2249 -0.9919  0.2135
 2831TIP3   OH2 8456   2.760   3.133   2.588 -0.1381 -0.1023  0.4452
 2831TIP3    H1 8457   2.683   3.101   2.542  0.2490  1.5018 -1.4222
 2831TIP3    H2 8458   2.728   3.157   2.675 -1.7944  0.7115 -0.3632
 2832TIP3   OH2 8459   4.437   1.620   0.927 -0.0639 -0.0481 -0.3360
 2832TIP3    H1 8460   4.342   1.629   0.930  0.0339  0.8549  2.1282
 2832TIP3    H2 8461   4.463   1.605   1.018  2.1256 -0.7775 -1.0035
 2833TIP3   OH2 8462   1.607   5.613   5.617  0.1311 -0.1586  0.5662
 2833TIP3    H1 8463   1.603   5.518   5.628 -1.4174 -0.0112  1.6386
 2833TIP3    H2 8464   1.531   5.634   5.563  1.0561  0.3911 -0.5653
 2834TIP3   OH2 8465   1.716   6.322   2.284 -0.5734  0.3894  0.1323
 2834TIP3    H1 8466   1.756   6.317   2.197  0.2869 -1.0144  0.5733
 2834TIP3    H2 8467   1.625   6.348   2.267 -0.1722  1.0735 -1.1006
 2835TIP3   OH2 8468   3.352   3.140   5.052 -0.6480 -0.1800  0.0192
 2835TIP3    H1 8469   3.406   3.180   5.121 -0.5996  0.5850 -0.4502
 2835TIP3    H2 8470   3.412   3.080   5.008 -0.5072 -0.2156  0.2543
 2836TIP3   OH2 8471   0.312   1.660   2.580  0.3101  0.3937  0.4218
 2836TIP3    H1 8472   0.353   1.644   2.495 -0.0815 -0.9516  0.4606
 2836TIP3    H2 8473   0.377   1.629   2.644  1.4516  3.1871  0.7699
 2837TIP3   OH2 8474   2.759   0.437   1.696 -0.1593  0.4695 -0.8847
 2837TIP3    H1 8475   2.843   0.397   1.671 -0.1290 -0.0712  0.0560
 2837TIP3    H2 8476   2.710   0.366   1.736 -0.4709  1.1504 -0.0288
 2838TIP3   OH2 8477   6.411   4.246   3.350  0.2224  0.2300  0.4033
 2838TIP3    H1 8478   6.339   4.304   3.323  0.5342  0.3620 -0.1569
 2838TIP3    H2 8479   6.372   4.159   3.355  0.3028  0.0888 -1.1375
 2839TIP3   OH2 8480   2.622   1.578   0.397 -0.2298  0.3670  0.5068
 2839TIP3    H1 8481   2.661   1.629   0.468 -0.8778  0.9276  0.4630
 2839TIP3    H2 8482   2.649   1.623   0.318  1.3158 -0.8096  0.3113
 2840TIP3   OH2 8483   2.205   0.388   3.801 -0.3016 -0.0805 -0.7577
 2840TIP3    H1 8484   2.197   0.318   3.737  0.5306  0.1524 -1.1378
 2840TIP3    H2 8485   2.191   0.468   3.750 -1.6165  0.0332 -0.2599
 2841TIP3   OH2 8486   0.601   2.452   2.112  0.3359  0.1196 -0.7832
 2841TIP3    H1 8487   0.639   2.531   2.074 -0.0531 -0.2502 -2.0025
 2841TIP3    H2 8488   0.562   2.406   2.037 -0.4885 -0.6379  0.0791
 2842TIP3   OH2 8489   0.223   4.547   3.967  0.3175 -0.4302 -0.4737
 2842TIP3    H1 8490   0.286   4.580   4.032  0.2545  0.1156 -0.6825
 2842TIP3    H2 8491   0.165   4.621   3.950 -0.0055 -0.7404 -0.7463
 2843TIP3   OH2 8492   2.646   4.998   5.129  0.2745  0.0547  0.3712
 2843TIP3    H1 8493   2.660   5.039   5.044  2.8484 -0.2653  0.5497
 2843TIP3    H2 8494   2.682   4.910   5.119 -1.3829 -0.7671  1.1995
 2844TIP3   OH2 8495   3.763   5.363   5.792  0.4421  0.2515  0.1140
 2844TIP3    H1 8496   3.788   5.271   5.790  0.2470  0.1922  0.4063
 2844TIP3    H2 8497   3.837   5.408   5.833  0.9015  0.3447 -0.7825
 2845TIP3   OH2 8498   0.218   0.134   4.518  0.0067 -0.4242  0.2267
 2845TIP3    H1 8499   0.137   0.152   4.471 -1.4782 -1.6188  2.1690
 2845TIP3    H2 8500   0.284   0.184   4.471 -0.9412 -2.6840 -4.0851
 2846TIP3   OH2 8501   5.293   0.620   5.363 -0.2177  0.2531 -0.6801
 2846TIP3    H1 8502   5.281   0.533   5.402 -1.0720  1.6124  2.4040
 2846TIP3    H2 8503   5.204   0.652   5.350 -0.1260  2.3668  2.6998
 2847TIP3   OH2 8504   1.537   2.204   0.580  0.4202  0.1129  0.2882
 2847TIP3    H1 8505   1.497   2.216   0.494  1.9317 -1.5703 -0.7273
 2847TIP3    H2 8506   1.463   2.209   0.641 -0.7773  0.7922 -1.1298
 2848TIP3   OH2 8507   6.933   6.442   4.427  0.2750 -0.1538  0.3263
 2848TIP3    H1 8508   6.863   6.389   4.465 -0.7560 -0.5283 -1.9428
 2848TIP3    H2 8509   6.993   6.378   4.389  0.1347  0.2169 -0.5495
 2849TIP3   OH2 8510   5.684   0.045   1.541 -0.1168  0.3345  0.4979
 2849TIP3    H1 8511   5.596   0.022   1.513  0.1463  1.8656 -1.8958
 2849TIP3    H2 8512   5.740  -0.022   1.502 -0.0598  0.4401  0.3981
 2850TIP3   OH2 8513   3.979   3.209   0.255  0.1321 -0.8577  0.0201
 2850TIP3    H1 8514   4.036   3.284   0.273  1.0168 -1.6106  0.4483
 2850TIP3    H2 8515   3.952   3.179   0.342 -1.8240  0.1314 -0.1913
 2851TIP3   OH2 8516   5.378   0.259   2.561  0.2035 -0.0082  0.0237
 2851TIP3    H1 8517   5.460   0.210   2.553 -0.0123 -0.4758  0.5741
 2851TIP3    H2 8518   5.406   0.350   2.574  0.7552 -0.4517  2.6942
 2852TIP3   OH2 8519   5.772   3.153   1.791 -0.2752  0.7890  0.1471
 2852TIP3    H1 8520   5.856   3.115   1.765 -0.0958  2.0888 -1.3063
 2852TIP3    H2 8521   5.761   3.127   1.883  1.5124  0.2550  0.2398
 2853TIP3   OH2 8522   6.461   2.700   4.800  0.4269  0.2986 -0.2383
 2853TIP3    H1 8523   6.525   2.635   4.770  1.2555  1.3725 -0.8850
 2853TIP3    H2 8524   6.382   2.681   4.751 -0.1334 -1.6989  1.3060
 2854TIP3   OH2 8525   6.467   4.108   1.241  0.1688 -0.1747  0.0411
 2854TIP3    H1 8526   6.512   4.175   1.189  1.2733 -0.9620 -0.0513
 2854TIP3    H2 8527   6.516   4.105   1.323 -0.1458 -0.5617  0.2153
 2855TIP3   OH2 8528   3.771   1.852   2.135 -0.0550  0.0507  0.3232
 2855TIP3    H1 8529   3.845   1.854   2.074  0.5275 -1.0459  0.9560
 2855TIP3    H2 8530   3.715   1.925   2.108 -0.7700 -1.4546 -2.7202
 2856TIP3   OH2 8531   5.919   0.205   2.825 -0.2401  0.2150 -0.5412
 2856TIP3    H1 8532   5.860   0.254   2.882  1.6702  1.7153  0.2572
 2856TIP3    H2 8533   5.918   0.116   2.859 -0.1624  0.7977  1.0447
 2857TIP3   OH2 8534   1.712   5.172   3.096 -0.3059 -0.0597 -0.2883
 2857TIP3    H1 8535   1.743   5.141   3.181 -1.0671  0.2642  0.1168
 2857TIP3    H2 8536   1.693   5.265   3.110 -0.8626 -0.1097 -0.6876
 2858TIP3   OH2 8537   5.830   2.963   1.316  0.5984  0.2562 -0.7742
 2858TIP3    H1 8538   5.899   2.977   1.252  0.8688  2.6424 -0.0551
 2858TIP3    H2 8539   5.797   3.051   1.335 -0.7574 -0.5703  0.9530
 2859TIP3   OH2 8540   3.094   1.527   3.673 -0.1758 -0.0829 -0.0060
 2859TIP3    H1 8541   3.071   1.449   3.724  0.4137 -0.9742 -1.0558
 2859TIP3    H2 8542   3.174   1.560   3.715 -0.0851 -0.4036  0.0777
 2860TIP3   OH2 8543   0.137   1.774   5.595  0.0757  0.7452 -0.0171
 2860TIP3    H1 8544   0.185   1.709   5.543 -1.8027  0.4919 -1.5442
 2860TIP3    H2 8545   0.177   1.857   5.572 -0.0472  0.5202 -1.1095
 2861TIP3   OH2 8546   1.639   3.972   2.481 -0.4179 -0.3944 -0.0091
 2861TIP3    H1 8547   1.666   3.882   2.503 -1.4619 -0.8583 -0.5493
 2861TIP3    H2 8548   1.550   3.978   2.514 -1.3501 -0.4748 -2.3702
 2862TIP3   OH2 8549   2.123   3.499   2.259  0.4209  0.3973 -0.5415
 2862TIP3    H1 8550   2.167   3.437   2.317 -1.4330 -1.7827 -1.3054
 2862TIP3    H2 8551   2.105   3.576   2.314 -0.1763 -1.0963  1.4501
 2863TIP3   OH2 8552   6.357   6.333   1.524  0.0989  0.3160 -0.1449
 2863TIP3    H1 8553   6.412   6.399   1.567  1.5636 -1.1444  0.3117
 2863TIP3    H2 8554   6.409   6.303   1.450 -0.8035  0.0759 -0.7003
 2864TIP3   OH2 8555   3.131   5.670   3.414 -0.4923  0.0124  0.3377
 2864TIP3    H1 8556   3.166   5.620   3.488 -1.0608  0.4991  0.9457
 2864TIP3    H2 8557   3.078   5.738   3.454  1.0079  1.7057 -0.4194
 2865TIP3   OH2 8558   0.338   5.155   3.346 -0.5227 -0.0264 -0.3054
 2865TIP3    H1 8559   0.342   5.060   3.362 -3.3818 -0.5342 -1.8898
 2865TIP3    H2 8560   0.294   5.190   3.423  0.6671  0.0832  0.3497
 2866TIP3   OH2 8561   5.715   3.141   5.259  0.6647  0.1714  0.2127
 2866TIP3    H1 8562   5.736   3.210   5.197  0.5638 -0.7555 -0.8879
 2866TIP3    H2 8563   5.735   3.060   5.212  1.1096 -0.5490  1.5899
 2867TIP3   OH2 8564   5.833   0.985   0.020 -0.2763 -0.2692 -0.1277
 2867TIP3    H1 8565   5.741   0.960   0.010  0.3459 -3.1654  0.5590
 2867TIP3    H2 8566   5.846   0.992   0.114  0.4283 -0.8835 -0.1713
 2868TIP3   OH2 8567   5.059   4.305   2.773 -0.4516 -0.3487 -0.7628
 2868TIP3    H1 8568   5.024   4.216   2.762  1.5748 -1.3390  0.3214
 2868TIP3    H2 8569   5.034   4.329   2.863  1.8429 -1.2263  0.1703
 2869TIP3   OH2 8570   5.635   1.565   2.067 -0.0737  0.7405 -0.4797
 2869TIP3    H1 8571   5.716   1.614   2.052  0.5687  0.8416  2.6971
 2869TIP3    H2 8572   5.653   1.478   2.030  0.2516  1.6446 -2.5962
 2870TIP3   OH2 8573   5.404   0.724   0.139 -0.5263  0.6404 -0.4929
 2870TIP3    H1 8574   5.402   0.767   0.053 -0.3162 -0.2530 -0.9549
 2870TIP3    H2 8575   5.456   0.783   0.193 -2.3411  2.2272 -0.3978
 2871TIP3   OH2 8576   4.669   0.638   1.177  0.3083  0.5481  0.4457
 2871TIP3    H1 8577   4.713   0.585   1.110  1.2579  0.9212  0.7621
 2871TIP3    H2 8578   4.671   0.583   1.256  1.4959  1.1330  0.8336
 2872TIP3   OH2 8579   5.701   6.758   3.843  0.3433  0.2861  0.2463
 2872TIP3    H1 8580   5.622   6.787   3.888 -0.8424 -0.6254 -1.1643
 2872TIP3    H2 8581   5.766   6.747   3.913 -2.3380 -4.4699  2.4219
 2873TIP3   OH2 8582   4.001   6.449   4.403 -0.2727  0.0460  0.0334
 2873TIP3    H1 8583   4.081   6.451   4.350 -1.0609  1.4312 -1.1850
 2873TIP3    H2 8584   4.027   6.406   4.485  2.0761  1.6198  0.2216
 2874TIP3   OH2 8585   7.115   3.974   3.216 -0.2788  0.3588 -0.1117
 2874TIP3    H1 8586   7.077   3.926   3.290 -2.1001  1.6074 -0.1588
 2874TIP3    H2 8587   7.209   3.963   3.226 -0.4944  0.0632  2.0993
 2875TIP3   OH2 8588   6.182   1.884   2.398 -0.1802  0.2266 -0.3225
 2875TIP3    H1 8589   6.168   1.808   2.343  2.2475  0.4079 -1.2890
 2875TIP3    H2 8590   6.228   1.851   2.475 -2.8268  0.1092  1.3273
 2876TIP3   OH2 8591   2.343   3.823   2.116 -0.1746  0.2529  0.2472
 2876TIP3    H1 8592   2.426   3.826   2.068  0.1414  0.0602  0.7692
 2876TIP3    H2 8593   2.276   3.844   2.051  0.2678  0.2165 -0.2216
 2877TIP3   OH2 8594   3.610   3.636   3.078 -0.3396 -0.0933  0.0963
 2877TIP3    H1 8595   3.533   3.612   3.128 -0.3808 -2.8129 -1.1228
 2877TIP3    H2 8596   3.658   3.696   3.136 -2.4893  0.3697  1.5298
 2878TIP3   OH2 8597   2.100   0.301   4.751  0.1416 -0.2744 -0.5478
 2878TIP3    H1 8598   2.057   0.234   4.698  0.8854 -0.2519 -1.2001
 2878TIP3    H2 8599   2.150   0.353   4.687  0.0612  0.5204  0.0240
 2879TIP3   OH2 8600   5.662   4.525   4.857  0.0114 -0.0389  0.4076
 2879TIP3    H1 8601   5.709   4.609   4.854 -0.3734  0.1411 -1.2610
 2879TIP3    H2 8602   5.689   4.486   4.940  2.3276  0.5058 -0.0182
 2880TIP3   OH2 8603   0.501   3.433   1.339 -0.1056 -0.0289 -0.3279
 2880TIP3    H1 8604   0.442   3.391   1.276 -1.5177 -0.3539  1.1604
 2880TIP3    H2 8605   0.482   3.526   1.331 -1.9848 -0.2318  1.2029
 2881TIP3   OH2 8606   1.567   5.970   2.184 -0.2609  0.3831  0.0849
 2881TIP3    H1 8607   1.525   6.025   2.118 -0.1806 -1.0192 -1.1983
 2881TIP3    H2 8608   1.503   5.901   2.202  0.6803 -0.6760 -0.4465
 2882TIP3   OH2 8609   7.192   3.616   4.720 -0.4325  0.2053 -0.2360
 2882TIP3    H1 8610   7.166   3.706   4.700  0.0145  0.4614  0.3094
 2882TIP3    H2 8611   7.167   3.566   4.642 -0.7940  0.7765 -0.4946
 2883TIP3   OH2 8612   0.030   6.597   1.759  0.0125 -0.2054  0.3001
 2883TIP3    H1 8613  -0.030   6.660   1.798  0.5962  1.0697 -0.7546
 2883TIP3    H2 8614   0.034   6.525   1.822 -1.1296  0.5448  1.2775
 2884TIP3   OH2 8615   3.290   2.694   0.961  0.2112 -0.0426 -0.1576
 2884TIP3    H1 8616   3.293   2.600   0.977 -0.4462  0.1200  1.0655
 2884TIP3    H2 8617   3.364   2.729   1.009 -0.5496  0.2260  0.8650
 2885TIP3   OH2 8618   5.057   5.821   1.043  0.0665  0.4753 -0.1853
 2885TIP3    H1 8619   5.135   5.836   1.096  1.1048  0.0120 -1.5116
 2885TIP3    H2 8620   4.984   5.847   1.099  1.1298  0.3721  1.2997
 2886TIP3   OH2 8621   5.973   4.181   5.157 -0.1493 -0.3624 -0.3557
 2886TIP3    H1 8622   5.940   4.118   5.093 -2.7148 -0.0029  0.5196
 2886TIP3    H2 8623   5.976   4.133   5.239  2.2987 -0.5663 -0.4744
 2887TIP3   OH2 8624   6.989   1.376   3.813  0.3950 -0.0667 -0.1800
 2887TIP3    H1 8625   7.075   1.366   3.771 -0.1894  2.6024 -2.3629
 2887TIP3    H2 8626   6.927   1.335   3.753  0.0711 -2.2129  1.5102
 2888TIP3   OH2 8627   1.770   0.816   2.906  0.2467  0.0702  0.2217
 2888TIP3    H1 8628   1.819   0.886   2.862  1.2996 -0.9765 -0.3331
 2888TIP3    H2 8629   1.796   0.822   2.998  1.6084 -0.5819 -0.0954
 2889TIP3   OH2 8630   1.560   1.270   0.547  0.0624  0.3098  0.5341
 2889TIP3    H1 8631   1.489   1.227   0.594 -1.0554  0.2444 -1.1018
 2889TIP3    H2 8632   1.575   1.215   0.470  1.9166  0.3268  0.8437
 2890TIP3   OH2 8633   3.905   2.498   4.282 -0.4402 -0.1529 -0.0959
 2890TIP3    H1 8634   3.900   2.406   4.310 -1.1248 -0.1103 -0.0508
 2890TIP3    H2 8635   3.946   2.494   4.196  1.9737 -0.2574  0.9881
 2891TIP3   OH2 8636   5.667   2.050   3.550  0.1902 -0.2436 -0.1957
 2891TIP3    H1 8637   5.655   1.982   3.484  1.2409 -0.7746  0.1428
 2891TIP3    H2 8638   5.692   2.003   3.630 -2.0199  0.2817  0.9042
 2892TIP3   OH2 8639   4.868   1.810   0.225 -0.3004 -0.2386 -0.1213
 2892TIP3    H1 8640   4.829   1.863   0.156  0.7740 -0.4554 -0.9067
 2892TIP3    H2 8641   4.883   1.725   0.185  0.0437 -0.4607  0.4676
 2893TIP3   OH2 8642   5.258   3.702   1.838  0.2979 -0.9157  0.2325
 2893TIP3    H1 8643   5.309   3.622   1.828 -0.4341 -1.6538  1.9435
 2893TIP3    H2 8644   5.322   3.767   1.868  0.9311 -0.7688 -1.3392
 2894TIP3   OH2 8645   2.698   0.071   4.951 -0.3985  0.1235 -0.2356
 2894TIP3    H1 8646   2.680   0.150   5.001  0.1266  0.7263 -0.9727
 2894TIP3    H2 8647   2.686   0.098   4.860  0.3301 -0.4906 -0.5224
 2895TIP3   OH2 8648   1.108   5.957   2.861  0.9456 -0.3036  0.6372
 2895TIP3    H1 8649   1.189   5.923   2.900  2.4211  0.8620 -1.2498
 2895TIP3    H2 8650   1.041   5.893   2.886  2.4034 -1.2538  2.3479
 2896TIP3   OH2 8651   0.807   0.769   1.963  0.2919 -0.5932 -0.2432
 2896TIP3    H1 8652   0.743   0.702   1.940  0.0641 -0.6527  0.5485
 2896TIP3    H2 8653   0.760   0.852   1.954 -0.0963 -0.6675  0.9262
 2897TIP3   OH2 8654   5.134   6.077   3.878  0.1366  0.6883 -0.0849
 2897TIP3    H1 8655   5.193   6.120   3.940 -0.6384 -1.7286  2.6054
 2897TIP3    H2 8656   5.049   6.119   3.892 -0.6805 -1.5563  2.7257
 2898TIP3   OH2 8657   3.124   2.646   0.551  0.1490  0.0514  0.1107
 2898TIP3    H1 8658   3.058   2.619   0.615 -0.7301  0.3137 -0.6494
 2898TIP3    H2 8659   3.193   2.687   0.603  0.7160 -2.0425  1.1246
 2899TIP3   OH2 8660   2.220   4.040   4.618 -0.0103  0.1654 -0.0197
 2899TIP3    H1 8661   2.165   4.050   4.697  1.4606  2.2213  0.8334
 2899TIP3    H2 8662   2.291   3.983   4.646 -0.0844 -0.0270 -0.2208
 2900TIP3   OH2 8663   2.445   1.932   2.134  0.5207  0.0643  0.1131
 2900TIP3    H1 8664   2.389   1.973   2.068 -0.5676  0.1178  1.0480
 2900TIP3    H2 8665   2.385   1.881   2.189  1.1122  1.3964  2.1253
 2901TIP3   OH2 8666   1.705   0.581   5.201  0.4504 -0.6823  0.4260
 2901TIP3    H1 8667   1.650   0.550   5.129  0.2532 -2.6625  1.3539
 2901TIP3    H2 8668   1.735   0.501   5.244  3.1588  0.3568  0.6565
 2902TIP3   OH2 8669   0.607   2.260   3.728 -0.1832  0.3150  0.2197
 2902TIP3    H1 8670   0.583   2.336   3.674  1.1455  1.5526  1.2649
 2902TIP3    H2 8671   0.526   2.210   3.737 -1.5687  2.5473  0.9584
 2903TIP3   OH2 8672   0.889   4.322   3.286 -0.1519  0.2391 -0.1416
 2903TIP3    H1 8673   0.945   4.387   3.242 -0.2125 -0.6982 -1.6805
 2903TIP3    H2 8674   0.837   4.283   3.215 -2.9961  1.2392  1.2525
 2904TIP3   OH2 8675   0.774   6.742   5.466  0.2028 -0.3099  0.2421
 2904TIP3    H1 8676   0.705   6.798   5.504  0.2232  0.9545 -1.4619
 2904TIP3    H2 8677   0.729   6.660   5.446 -0.1633 -0.4512  1.5383
 2905TIP3   OH2 8678   7.158   0.854   2.485 -0.4657  0.2215 -0.5760
 2905TIP3    H1 8679   7.167   0.941   2.524  0.9022 -0.6913  1.2453
 2905TIP3    H2 8680   7.237   0.807   2.511 -1.1122 -1.5579 -1.6302
 2906TIP3   OH2 8681   2.497   5.432   5.637  0.0131 -0.0187 -0.0853
 2906TIP3    H1 8682   2.527   5.502   5.579 -0.1235 -0.0577 -0.2041
 2906TIP3    H2 8683   2.567   5.367   5.636  0.1908  0.1673  0.1136
 2907TIP3   OH2 8684   6.539   0.605   1.002 -0.4164 -0.3076 -0.0727
 2907TIP3    H1 8685   6.479   0.673   0.971  0.5939  0.3765 -0.5755
 2907TIP3    H2 8686   6.605   0.599   0.933 -0.5758 -1.9283 -0.1076
 2908TIP3   OH2 8687   1.333   0.054   1.926 -0.0306 -0.6607 -0.1632
 2908TIP3    H1 8688   1.291  -0.030   1.904 -0.4376 -0.5661  0.2340
 2908TIP3    H2 8689   1.408   0.030   1.980 -0.9230 -0.7012  1.1002
 2909TIP3   OH2 8690   2.905   3.786   4.693 -0.5619  0.1492  0.3823
 2909TIP3    H1 8691   2.856   3.706   4.711 -0.2796  0.0317  0.6458
 2909TIP3    H2 8692   2.997   3.761   4.707 -0.3563  0.1710 -0.8120
 2910TIP3   OH2 8693   4.115   4.243   4.212 -0.0000 -0.0140 -0.4976
 2910TIP3    H1 8694   4.056   4.248   4.287 -1.8314 -1.1272 -1.7580
 2910TIP3    H2 8695   4.065   4.281   4.140  0.9876 -0.5884 -1.5272
 2911TIP3   OH2 8696   6.066   6.474   0.527 -0.0121  0.2552  0.1172
 2911TIP3    H1 8697   5.974   6.456   0.505  0.1746 -0.0055 -0.4589
 2911TIP3    H2 8698   6.116   6.442   0.452  0.3991  2.4546 -0.6478
 2912TIP3   OH2 8699   5.867   2.030   3.193 -0.3466  0.4082  1.0087
 2912TIP3    H1 8700   5.947   2.073   3.167 -0.8002 -0.1781 -1.6868
 2912TIP3    H2 8701   5.797   2.079   3.149 -1.2068 -0.6889  1.0946
 2913TIP3   OH2 8702   0.884   5.821   1.006 -0.2478 -0.3199  0.3842
 2913TIP3    H1 8703   0.958   5.882   1.007 -1.1430  0.8184 -0.7580
 2913TIP3    H2 8704   0.925   5.734   1.000  1.0019  0.3437 -1.5858
 2914TIP3   OH2 8705   1.141   3.663   2.462  0.3865  0.1453 -0.0593
 2914TIP3    H1 8706   1.096   3.598   2.517  0.2622  0.1963 -0.0994
 2914TIP3    H2 8707   1.153   3.618   2.378 -0.3648  0.4222 -0.3269
 2915TIP3   OH2 8708   5.865   1.234   2.914  0.0925  0.4833 -0.0022
 2915TIP3    H1 8709   5.866   1.169   2.844  0.8057  0.2993  0.1670
 2915TIP3    H2 8710   5.942   1.213   2.968 -0.2438  0.8368  0.6353
 2916TIP3   OH2 8711   4.087   3.617   5.519 -0.0596  0.3473  0.1976
 2916TIP3    H1 8712   3.993   3.602   5.530 -0.0505  0.3970  0.3563
 2916TIP3    H2 8713   4.125   3.585   5.601  0.2279 -1.1453 -0.4969
 2917TIP3   OH2 8714   2.977   4.253   0.950  0.1483  0.5672  0.0298
 2917TIP3    H1 8715   3.037   4.327   0.946 -0.7162  1.4793  2.2393
 2917TIP3    H2 8716   2.913   4.278   1.016 -1.0979 -1.5051 -0.3157
 2918TIP3   OH2 8717   3.441   1.048   4.366 -0.2477  0.0544  0.0813
 2918TIP3    H1 8718   3.470   1.057   4.457 -0.8990  1.4538  0.1765
 2918TIP3    H2 8719   3.452   1.135   4.328  0.0290 -0.5056 -1.2059
 2919TIP3   OH2 8720   0.852   6.627   0.255 -0.7906 -0.0206  0.3004
 2919TIP3    H1 8721   0.823   6.718   0.258 -0.9869 -0.0934  0.5883
 2919TIP3    H2 8722   0.787   6.579   0.306 -0.6671 -0.3166  0.1793
 2920TIP3   OH2 8723   3.490   4.866   4.223 -0.1465 -0.5223  0.6442
 2920TIP3    H1 8724   3.496   4.868   4.319 -2.1796 -1.5083  0.8462
 2920TIP3    H2 8725   3.467   4.955   4.199 -1.0009 -0.5719  1.2238
 2921TIP3   OH2 8726   1.552   1.501   5.183 -0.4855  0.2968 -0.6784
 2921TIP3    H1 8727   1.508   1.486   5.100  0.5969  0.1695 -1.2568
 2921TIP3    H2 8728   1.628   1.443   5.180 -0.8295 -0.2784  0.7298
 2922TIP3   OH2 8729   2.639   6.257   2.363 -0.7068  0.2631 -0.1347
 2922TIP3    H1 8730   2.688   6.260   2.281 -0.0536  0.2867  0.2477
 2922TIP3    H2 8731   2.706   6.245   2.431 -1.3246 -0.8928  0.3027
 2923TIP3   OH2 8732   5.930   1.041   5.404 -0.1492  0.5476  0.2521
 2923TIP3    H1 8733   5.839   1.026   5.378 -0.1950 -1.2322  1.3618
 2923TIP3    H2 8734   5.949   1.130   5.372 -2.5239  1.2892  0.7372
 2924TIP3   OH2 8735   2.017   5.678   3.594 -0.4870 -0.2053 -0.0812
 2924TIP3    H1 8736   2.093   5.641   3.639 -1.3085  0.9143  2.4175
 2924TIP3    H2 8737   2.053   5.739   3.531  0.7298  0.8968  1.5999
 2925TIP3   OH2 8738   5.860   5.267   0.889  0.3762 -0.3117 -0.0700
 2925TIP3    H1 8739   5.893   5.263   0.978  0.4125  2.2570  0.0919
 2925TIP3    H2 8740   5.938   5.260   0.834  0.5958  0.3216  0.1595
 2926TIP3   OH2 8741   0.679   1.103   5.460 -0.6715 -0.2989 -0.0550
 2926TIP3    H1 8742   0.770   1.085   5.433 -0.3809 -0.5897  1.0892
 2926TIP3    H2 8743   0.664   1.043   5.533 -2.2505 -1.2423 -1.0978
 2927TIP3   OH2 8744   5.716   3.260   0.742  0.4345 -0.3665 -0.1671
 2927TIP3    H1 8745   5.795   3.288   0.697  0.3472  1.7204  0.8749
 2927TIP3    H2 8746   5.663   3.217   0.674  2.1035 -1.1408 -1.0280
 2928TIP3   OH2 8747   4.296   3.661   2.303 -0.1113  0.5266 -0.0300
 2928TIP3    H1 8748   4.219   3.649   2.248 -0.5433  1.2194  0.4189
 2928TIP3    H2 8749   4.328   3.748   2.280  0.2359  0.4521  0.1649
 2929TIP3   OH2 8750   5.108   6.042   3.059  0.1112 -0.7163  0.1840
 2929TIP3    H1 8751   5.072   5.972   3.005 -1.3369 -0.7575  1.1332
 2929TIP3    H2 8752   5.065   6.122   3.027  0.9235 -0.4214 -0.1777
 2930TIP3   OH2 8753   2.131   5.601   4.319 -0.2709  0.3257  0.1123
 2930TIP3    H1 8754   2.170   5.678   4.278 -0.0685  0.4244  0.4867
 2930TIP3    H2 8755   2.142   5.532   4.255  1.8791 -0.0188  0.7897
 2931TIP3   OH2 8756   6.181   1.538   5.049 -0.2370  0.4129  0.3014
 2931TIP3    H1 8757   6.264   1.563   5.011  0.7676  0.7680  2.5622
 2931TIP3    H2 8758   6.120   1.608   5.025  0.6456  1.2049  0.3522
 2932TIP3   OH2 8759   4.704   1.128   1.296  0.2791  0.4236 -0.1780
 2932TIP3    H1 8760   4.764   1.171   1.357 -1.1614  2.3851 -0.0447
 2932TIP3    H2 8761   4.712   1.035   1.317  2.3975  0.7173  0.5916
 2933TIP3   OH2 8762   3.466   1.960   3.472  0.1246 -0.3776 -0.1272
 2933TIP3    H1 8763   3.508   1.876   3.461 -0.5008 -0.5745 -1.1193
 2933TIP3    H2 8764   3.434   1.984   3.385 -1.2005  0.0701  0.4366
 2934TIP3   OH2 8765   4.501   3.929   3.985  0.1176  0.1953 -0.3674
 2934TIP3    H1 8766   4.499   3.935   4.080 -1.1924  2.6357 -0.4758
 2934TIP3    H2 8767   4.409   3.941   3.958  0.3223 -1.3062 -1.9381
 2935TIP3   OH2 8768   2.551   3.518   1.921 -0.0326  0.0314  0.1748
 2935TIP3    H1 8769   2.643   3.543   1.914 -0.3301  1.0797 -0.2718
 2935TIP3    H2 8770   2.527   3.492   1.832 -0.0896 -0.5357  0.3547
 2936TIP3   OH2 8771   2.637   5.640   2.879  0.1438  0.0224 -0.6242
 2936TIP3    H1 8772   2.669   5.550   2.869  1.1926  0.3306 -0.1769
 2936TIP3    H2 8773   2.710   5.695   2.850  0.1222  0.7610  0.6598
 2937TIP3   OH2 8774   1.129   4.771   0.940 -0.1953  0.1333  0.2913
 2937TIP3    H1 8775   1.115   4.756   1.034  0.4116  0.9724  0.5264
 2937TIP3    H2 8776   1.212   4.817   0.936 -0.1623 -0.0066 -0.6772
 2938TIP3   OH2 8777   0.750   3.817   5.403  0.6025  0.1030 -0.4142
 2938TIP3    H1 8778   0.821   3.782   5.349 -0.2401 -1.0410 -0.8193
 2938TIP3    H2 8779   0.682   3.841   5.340 -0.7203 -1.9964  0.1302
 2939TIP3   OH2 8780   3.725   2.690   4.311  0.6123 -0.5893 -0.2553
 2939TIP3    H1 8781   3.768   2.605   4.322 -0.3782 -0.9632  1.0050
 2939TIP3    H2 8782   3.710   2.721   4.400 -1.7110 -0.5129 -0.5889
 2940TIP3   OH2 8783   6.673   6.440   1.297 -0.5128  0.0764  0.4227
 2940TIP3    H1 8784   6.613   6.514   1.302  0.7694  1.2233 -0.2895
 2940TIP3    H2 8785   6.755   6.473   1.333  0.8424 -0.1152 -2.2156
 2941TIP3   OH2 8786   1.095   6.722   4.713  0.2286  0.6114 -0.4318
 2941TIP3    H1 8787   1.093   6.704   4.619 -3.3090  1.3257 -0.6666
 2941TIP3    H2 8788   1.020   6.674   4.748  0.2490  1.9479  1.6598
 2942TIP3   OH2 8789   1.639   5.342   2.884 -0.2431 -0.4887  0.2428
 2942TIP3    H1 8790   1.642   5.248   2.900 -0.4206 -0.4278  0.6686
 2942TIP3    H2 8791   1.640   5.381   2.972  0.0696 -0.0876  0.0640
 2943TIP3   OH2 8792   5.379   0.667   3.508  0.6674  0.4133 -0.2484
 2943TIP3    H1 8793   5.439   0.611   3.459  0.8382 -0.8239  1.3176
 2943TIP3    H2 8794   5.434   0.711   3.573  0.4172  1.9198 -0.9944
 2944TIP3   OH2 8795   0.693   2.710   2.054  0.2603  0.2940 -0.6261
 2944TIP3    H1 8796   0.781   2.672   2.057 -0.0381 -0.4118 -0.6844
 2944TIP3    H2 8797   0.700   2.791   2.104  0.6591 -0.3439  0.3735
 2945TIP3   OH2 8798   5.019   1.161   5.559  0.1542 -0.0526 -0.3682
 2945TIP3    H1 8799   5.085   1.130   5.620 -0.2721  1.7553  1.0724
 2945TIP3    H2 8800   4.983   1.080   5.521  0.5810 -1.2501  1.6049
 2946TIP3   OH2 8801   3.307   5.422   4.311 -0.0130  0.0973  0.4450
 2946TIP3    H1 8802   3.305   5.450   4.219 -0.3584 -0.1479  0.3754
 2946TIP3    H2 8803   3.315   5.503   4.361  2.9611  0.1228  0.1299
 2947TIP3   OH2 8804   1.844   0.959   5.633 -0.1225  0.5131  0.5491
 2947TIP3    H1 8805   1.856   1.038   5.582  0.0987  0.5607  0.6752
 2947TIP3    H2 8806   1.781   0.907   5.583  0.9270  0.0610 -0.3470
 2948TIP3   OH2 8807   3.000   3.158   1.867  0.1018  0.1646 -0.5508
 2948TIP3    H1 8808   2.945   3.149   1.945  1.4623 -0.3967  0.3863
 2948TIP3    H2 8809   3.057   3.232   1.887 -0.8233  1.2767 -1.8572
 2949TIP3   OH2 8810   3.277   1.190   0.267 -0.0137 -0.0534  0.3646
 2949TIP3    H1 8811   3.268   1.095   0.262 -1.3300 -0.1049  2.3972
 2949TIP3    H2 8812   3.210   1.223   0.207  0.3509 -0.3965 -0.2420
 2950TIP3   OH2 8813   3.743   6.562   1.612 -0.0644 -0.2341  0.2455
 2950TIP3    H1 8814   3.671   6.500   1.598 -1.0905  1.1664 -1.0640
 2950TIP3    H2 8815   3.791   6.564   1.529  0.0428  0.5787  0.3127
 2951TIP3   OH2 8816   7.103   1.953   1.437 -0.0262 -0.5725 -0.3769
 2951TIP3    H1 8817   7.010   1.969   1.419  0.2674  1.7328 -0.1153
 2951TIP3    H2 8818   7.110   1.858   1.443 -2.4794 -0.7924  0.1625
 2952TIP3   OH2 8819   0.520   1.496   0.465  0.0615 -0.0079  0.4632
 2952TIP3    H1 8820   0.597   1.496   0.408 -0.1157  0.9441  0.2195
 2952TIP3    H2 8821   0.555   1.484   0.553  0.5952  1.5220  0.4765
 2953TIP3   OH2 8822   2.852   4.808   2.542  0.0573 -0.4978  0.3779
 2953TIP3    H1 8823   2.876   4.796   2.451 -2.5165 -1.9648 -0.2190
 2953TIP3    H2 8824   2.870   4.723   2.583  1.6329  0.2854  1.4036
 2954TIP3   OH2 8825   2.401   0.192   2.013  0.5060 -0.4243  0.1753
 2954TIP3    H1 8826   2.364   0.131   2.078 -0.0577  0.6746  0.9147
 2954TIP3    H2 8827   2.330   0.208   1.952  0.5832 -0.3349  0.1088
 2955TIP3   OH2 8828   5.709   2.895   4.014  0.6982  0.1077  0.7768
 2955TIP3    H1 8829   5.751   2.969   4.057  1.6707 -1.1610  2.1210
 2955TIP3    H2 8830   5.718   2.823   4.076 -2.7599 -0.4812  0.7968
 2956TIP3   OH2 8831   6.313   1.645   3.931  0.2224  0.5423  0.2179
 2956TIP3    H1 8832   6.352   1.601   3.855  0.8246  2.1802 -0.4667
 2956TIP3    H2 8833   6.281   1.729   3.896 -2.4131  0.0106  1.1150
 2957TIP3   OH2 8834   1.863   3.190   3.800 -0.3861  0.1474 -0.1125
 2957TIP3    H1 8835   1.953   3.188   3.767 -0.6376 -0.8044 -0.7842
 2957TIP3    H2 8836   1.835   3.280   3.786 -0.2877 -0.0790 -2.0267
 2958TIP3   OH2 8837   1.934   1.436   3.703 -0.0056 -0.6400  0.4062
 2958TIP3    H1 8838   2.006   1.482   3.748 -1.5662  0.9950  1.3655
 2958TIP3    H2 8839   1.964   1.345   3.699  1.8486 -0.1427  1.3364
 2959TIP3   OH2 8840   6.175   6.259   0.350 -0.4271 -0.3562  0.3263
 2959TIP3    H1 8841   6.247   6.255   0.413  0.9256  1.0462 -1.0164
 2959TIP3    H2 8842   6.179   6.177   0.302 -0.7711 -0.9651  1.3228
 2960TIP3   OH2 8843   3.310   5.599   0.752  0.2566 -0.1293 -0.5613
 2960TIP3    H1 8844   3.318   5.636   0.664 -1.6684  0.7832 -0.4039
 2960TIP3    H2 8845   3.273   5.670   0.805 -0.8132 -1.3677  0.4211
 2961TIP3   OH2 8846   5.942   3.506   4.280  0.3416 -0.9506 -0.3362
 2961TIP3    H1 8847   5.859   3.553   4.280  0.1249 -1.2400  1.9268
 2961TIP3    H2 8848   5.941   3.456   4.198 -0.5794  0.9192 -1.5238
 2962TIP3   OH2 8849   0.417   0.087   4.104  0.1321 -0.2147  0.5646
 2962TIP3    H1 8850   0.440   0.172   4.141  0.6676 -0.3894  0.6395
 2962TIP3    H2 8851   0.350   0.107   4.038  1.5425  0.5003 -0.7200
 2963TIP3   OH2 8852   3.465   0.090   2.058 -0.3208  0.3315  0.0224
 2963TIP3    H1 8853   3.423   0.025   2.114 -0.7182  0.3401 -0.2620
 2963TIP3    H2 8854   3.508   0.039   1.990 -3.1706  0.4023 -2.0097
 2964TIP3   OH2 8855   4.254   1.470   2.051 -0.4861  0.3060  0.0004
 2964TIP3    H1 8856   4.210   1.416   2.116 -0.5868 -1.7726 -1.7041
 2964TIP3    H2 8857   4.244   1.423   1.969  1.0055  2.0428 -1.2760
 2965TIP3   OH2 8858   2.434   2.516   2.816 -0.3379 -0.0391 -0.2465
 2965TIP3    H1 8859   2.395   2.511   2.904  0.1737  1.6868  0.1118
 2965TIP3    H2 8860   2.452   2.425   2.793 -0.7218 -0.5526  1.3299
 2966TIP3   OH2 8861   3.284   5.438   1.548 -0.4789  0.0636  0.2623
 2966TIP3    H1 8862   3.301   5.386   1.627 -1.9869 -1.8924 -0.6229
 2966TIP3    H2 8863   3.278   5.374   1.478 -1.6609  1.5274 -1.0417
 2967TIP3   OH2 8864   3.637   2.372   5.360  0.4482  0.8719 -0.3102
 2967TIP3    H1 8865   3.558   2.383   5.413 -0.3017  0.9616 -1.4154
 2967TIP3    H2 8866   3.662   2.280   5.374  0.2831  0.9048  0.2252
 2968TIP3   OH2 8867   4.322   2.400   4.165 -0.1816 -0.1303  0.1747
 2968TIP3    H1 8868   4.375   2.330   4.205 -0.7104 -2.5583 -2.9799
 2968TIP3    H2 8869   4.235   2.389   4.204 -0.1559 -0.9988  0.0029
 2969TIP3   OH2 8870   3.150   2.126   5.825 -0.4494 -0.3038  0.2274
 2969TIP3    H1 8871   3.242   2.138   5.801 -0.6825 -0.7164 -0.9242
 2969TIP3    H2 8872   3.128   2.205   5.876  0.9794 -0.9627  1.9918
 2970TIP3   OH2 8873   3.919   5.658   4.941 -0.1455  0.0838 -0.1666
 2970TIP3    H1 8874   3.857   5.728   4.957  0.0577 -0.1111  1.6600
 2970TIP3    H2 8875   3.878   5.580   4.978 -0.1248 -0.6908 -1.6637
 2971TIP3   OH2 8876   5.838   1.799   4.723  0.5799 -0.0871  0.4246
 2971TIP3    H1 8877   5.829   1.816   4.629  3.0906 -0.2550  0.0896
 2971TIP3    H2 8878   5.858   1.885   4.761  0.5094 -0.1785  0.6706
 2972TIP3   OH2 8879   5.996   3.071   0.624  0.2744 -0.0848 -0.3696
 2972TIP3    H1 8880   6.061   3.137   0.646 -0.3115 -0.1676  1.8976
 2972TIP3    H2 8881   6.043   2.988   0.633  0.4887 -0.0579 -1.2106
 2973TIP3   OH2 8882   6.401   3.235   5.104  0.5614  0.2650  0.5758
 2973TIP3    H1 8883   6.315   3.238   5.063  1.1373 -0.3483 -0.7533
 2973TIP3    H2 8884   6.420   3.142   5.114  1.3985  0.3626  0.0728
 2974TIP3   OH2 8885   1.216   4.620   2.123  0.0236  0.0830  0.3439
 2974TIP3    H1 8886   1.245   4.546   2.177  1.5884 -0.1274 -0.7190
 2974TIP3    H2 8887   1.158   4.580   2.058 -1.1654  0.2085  1.2844
 2975TIP3   OH2 8888   2.782   1.979   5.754  0.2707 -0.5494 -0.1093
 2975TIP3    H1 8889   2.850   2.000   5.690 -1.4520  0.6380 -1.6469
 2975TIP3    H2 8890   2.788   1.884   5.765  1.8221 -0.5354 -0.5491
 2976TIP3   OH2 8891   2.992   0.501   3.260 -0.1596  0.2760  0.4794
 2976TIP3    H1 8892   3.064   0.528   3.204  0.8244  0.3732  1.7540
 2976TIP3    H2 8893   2.913   0.515   3.207  0.7409  0.2976 -0.8755
 2977TIP3   OH2 8894   5.432   2.020   2.800 -0.3696 -0.3666 -0.0689
 2977TIP3    H1 8895   5.365   2.043   2.736  0.5665  1.0943 -0.5955
 2977TIP3    H2 8896   5.485   2.100   2.808  1.1802 -1.3972  0.4496
 2978TIP3   OH2 8897   6.645   3.171   4.738 -0.0614  0.5407 -0.3949
 2978TIP3    H1 8898   6.734   3.196   4.716 -0.4527  1.2381 -1.2584
 2978TIP3    H2 8899   6.601   3.254   4.758 -0.4478  0.1793  0.2849
 2979TIP3   OH2 8900   6.760   1.912   4.654  0.0004  0.0095 -0.1035
 2979TIP3    H1 8901   6.784   1.824   4.627 -0.2436 -0.5224  1.3517
 2979TIP3    H2 8902   6.665   1.910   4.665 -0.4951  1.3474 -3.0893
 2980TIP3   OH2 8903   2.830   3.305   0.369  0.6542  0.0498  0.2691
 2980TIP3    H1 8904   2.738   3.298   0.393  0.7969 -0.6620  0.6224
 2980TIP3    H2 8905   2.874   3.334   0.449  0.9583 -1.1618  0.5529
 2981TIP3   OH2 8906   5.742   1.913   2.986 -0.0181 -0.4965  0.2749
 2981TIP3    H1 8907   5.808   1.916   2.917 -0.5236 -0.9129 -0.2309
 2981TIP3    H2 8908   5.791   1.932   3.066  0.5728 -0.0235 -0.1903
 2982TIP3   OH2 8909   0.210   4.069   1.315  0.3035  0.7058  0.3413
 2982TIP3    H1 8910   0.233   4.103   1.228 -1.9760 -0.8850 -1.0125
 2982TIP3    H2 8911   0.167   4.143   1.358 -1.1116  0.7583 -1.0414
 2983TIP3   OH2 8912   1.715   2.049   0.728 -0.0865 -0.1140  0.1338
 2983TIP3    H1 8913   1.677   2.133   0.704  0.9781  0.6392  0.9413
 2983TIP3    H2 8914   1.657   2.014   0.796 -1.0111 -0.4633 -0.8148
 2984TIP3   OH2 8915   4.218   4.994   4.454  0.3012  0.0660  0.3462
 2984TIP3    H1 8916   4.298   4.942   4.454  0.6938  0.6064  2.1202
 2984TIP3    H2 8917   4.195   5.003   4.546 -0.8456  1.3704 -0.0310
 2985TIP3   OH2 8918   2.302   1.764   0.706 -0.3001  0.3885 -0.2732
 2985TIP3    H1 8919   2.302   1.676   0.744  1.7903  0.9847  1.3274
 2985TIP3    H2 8920   2.316   1.749   0.613 -1.8055 -1.0038 -0.3269
 2986TIP3   OH2 8921   5.533   3.653   4.799  0.1999  0.1306 -0.5955
 2986TIP3    H1 8922   5.565   3.620   4.883 -0.1832  2.2152  0.4495
 2986TIP3    H2 8923   5.516   3.746   4.815 -0.8378  0.3718 -2.7243
 2987TIP3   OH2 8924   5.410   2.734   4.004  0.0004 -0.0749 -0.2232
 2987TIP3    H1 8925   5.389   2.818   3.963 -0.6371 -0.0454  0.1473
 2987TIP3    H2 8926   5.481   2.698   3.951 -1.8838 -0.8255 -2.3979
 2988TIP3   OH2 8927   5.438   3.185   1.257 -0.3025 -0.2462 -0.2453
 2988TIP3    H1 8928   5.382   3.262   1.245 -0.6550 -0.3924  0.3971
 2988TIP3    H2 8929   5.527   3.220   1.254 -0.4182 -0.0168 -1.3083
 2989TIP3   OH2 8930   3.013   3.664   3.442 -0.3051  0.5466 -0.1345
 2989TIP3    H1 8931   3.075   3.592   3.437  1.4254  1.7858  1.8373
 2989TIP3    H2 8932   3.035   3.720   3.368  0.8682  0.8715  0.4290
 2990TIP3   OH2 8933   0.764   0.823   5.670 -0.9322 -0.0583  0.3785
 2990TIP3    H1 8934   0.677   0.862   5.677 -1.1654 -0.6288  0.7784
 2990TIP3    H2 8935   0.750   0.744   5.618 -0.5124  0.2529 -0.2113
 2991TIP3   OH2 8936   5.604   6.566   3.656 -0.1450 -0.4033  0.0965
 2991TIP3    H1 8937   5.558   6.641   3.619 -0.6428 -0.3147  0.8674
 2991TIP3    H2 8938   5.604   6.582   3.750  1.3969 -0.4534  0.1255
 2992TIP3   OH2 8939   3.446   1.256   5.284  0.1775  0.5076  0.5770
 2992TIP3    H1 8940   3.508   1.229   5.216  0.1903 -1.3089  1.2609
 2992TIP3    H2 8941   3.476   1.343   5.311  1.8268  0.0925  0.1842
 2993TIP3   OH2 8942   5.882   2.539   4.566 -0.0527 -0.3584 -0.0282
 2993TIP3    H1 8943   5.900   2.446   4.560  0.0726 -0.2608 -2.1070
 2993TIP3    H2 8944   5.930   2.577   4.492 -1.5179  1.0959 -0.3028
 2994TIP3   OH2 8945   2.219   0.116   0.320  0.3121 -0.1278 -0.1328
 2994TIP3    H1 8946   2.170   0.185   0.276  0.0501  1.2311  2.1348
 2994TIP3    H2 8947   2.159   0.041   0.323 -0.5898  0.5843  0.0829
 2995TIP3   OH2 8948   3.896   3.372   4.560 -0.0825  0.0423 -0.3920
 2995TIP3    H1 8949   3.894   3.282   4.593  1.2762  0.1680  0.1025
 2995TIP3    H2 8950   3.835   3.420   4.616  0.1532 -0.3134  0.1763
 2996TIP3   OH2 8951   6.445   2.398   1.940  0.1945 -0.3193 -0.2079
 2996TIP3    H1 8952   6.512   2.459   1.910 -0.0131  0.4760  0.8446
 2996TIP3    H2 8953   6.494   2.322   1.972  0.5762  0.0280  0.0532
 2997TIP3   OH2 8954   7.125   1.639   5.481 -0.1130  0.3192 -0.0109
 2997TIP3    H1 8955   7.168   1.553   5.478 -2.5640 -1.0734  1.2313
 2997TIP3    H2 8956   7.166   1.683   5.556  0.2687 -0.2978  0.1570
 2998TIP3   OH2 8957   7.212   0.736   2.178 -0.4510 -0.3302  0.2838
 2998TIP3    H1 8958   7.172   0.820   2.199  0.2113 -0.0571  0.4709
 2998TIP3    H2 8959   7.157   0.700   2.108  0.2519  1.0412 -1.0283
 2999TIP3   OH2 8960   6.623   6.010   4.190 -0.4881 -0.3259 -0.2961
 2999TIP3    H1 8961   6.699   5.952   4.188  0.4430  0.7748  1.2597
 2999TIP3    H2 8962   6.658   6.096   4.168 -1.0945  0.3398  1.1857
 3000TIP3   OH2 8963   3.584   2.843   0.339 -0.2405  0.9508  0.5874
 3000TIP3    H1 8964   3.546   2.799   0.415 -1.5364 -0.6611 -0.9043
 3000TIP3    H2 8965   3.533   2.811   0.265  1.4850  1.8381 -1.0717
 3001TIP3   OH2 8966   1.479   2.998   1.902 -0.0614 -0.6762  0.1818
 3001TIP3    H1 8967   1.525   3.047   1.833 -1.4486  0.8057  0.2444
 3001TIP3    H2 8968   1.467   2.911   1.865 -1.1789  0.2000 -1.6993
 3002TIP3   OH2 8969   1.741   5.161   3.715  0.1378  0.6419  0.2543
 3002TIP3    H1 8970   1.737   5.235   3.775  1.1041 -0.8823  2.3210
 3002TIP3    H2 8971   1.658   5.115   3.729  1.0172 -0.5905  1.7010
 3003TIP3   OH2 8972   3.050   3.535   5.045  0.3296  0.0633  0.7047
 3003TIP3    H1 8973   3.125   3.510   5.099  1.3820  1.3310 -0.1091
 3003TIP3    H2 8974   3.088   3.566   4.963 -1.1027  0.5163  0.1688
 3004TIP3   OH2 8975   5.503   2.073   4.496 -0.3385  0.0723  0.0029
 3004TIP3    H1 8976   5.588   2.053   4.457 -0.8590 -1.2718 -0.5286
 3004TIP3    H2 8977   5.447   1.999   4.470 -2.6894  2.5698 -2.7123
 3005TIP3   OH2 8978   1.460   4.809   4.945  0.6656 -0.2921 -0.6371
 3005TIP3    H1 8979   1.435   4.766   5.027  1.5385 -1.8852 -1.1782
 3005TIP3    H2 8980   1.556   4.806   4.944  0.7308  1.0939 -1.0207
 3006TIP3   OH2 8981   3.165   3.174   0.239  0.9003  0.2662  0.1424
 3006TIP3    H1 8982   3.175   3.137   0.327  1.8312 -0.0390 -0.0890
 3006TIP3    H2 8983   3.227   3.127   0.185 -0.6700 -0.5650 -1.0284
 3007TIP3   OH2 8984   0.030   1.383   4.818 -0.1491 -0.7686  0.1308
 3007TIP3    H1 8985  -0.030   1.450   4.850  2.0180  1.1708  0.4723
 3007TIP3    H2 8986   0.059   1.337   4.897  0.3957 -0.2656  0.2302
 3008TIP3   OH2 8987   1.094   1.891   2.923  0.1001  0.4380 -0.6831
 3008TIP3    H1 8988   1.117   1.882   3.015 -0.0340 -0.7641 -0.7566
 3008TIP3    H2 8989   1.159   1.953   2.888  0.0842  0.9913  0.2252
 3009TIP3   OH2 8990   3.723   2.018   4.939  0.3375  0.5536 -0.4331
 3009TIP3    H1 8991   3.673   2.080   4.992 -1.3841 -1.0402 -0.0777
 3009TIP3    H2 8992   3.807   2.060   4.925 -0.0626  2.1010  1.4546
 3010TIP3   OH2 8993   4.064   0.666   1.677 -0.0725 -0.3013 -0.8036
 3010TIP3    H1 8994   4.057   0.607   1.603  1.3634  0.7011 -1.7925
 3010TIP3    H2 8995   4.151   0.706   1.668 -0.0027  0.1010  1.2283
 3011TIP3   OH2 8996   4.572   6.388   0.601 -0.7435 -0.1241 -0.7938
 3011TIP3    H1 8997   4.633   6.324   0.638  0.2340 -0.2843 -2.5688
 3011TIP3    H2 8998   4.577   6.463   0.661  0.0562 -0.7244 -0.0824
 3012TIP3   OH2 8999   0.043   4.088   0.983  0.1363 -0.8194  0.4152
 3012TIP3    H1 9000   0.057   4.008   1.035  2.4302  0.9806  2.8584
 3012TIP3    H2 9001  -0.040   4.123   1.016  0.7687 -0.5414  1.8101
 3013TIP3   OH2 9002   0.460   4.786   3.156 -0.1454 -0.1820 -0.2966
 3013TIP3    H1 9003   0.383   4.843   3.151  0.0868  0.1853  0.2195
 3013TIP3    H2 9004   0.513   4.809   3.080 -0.1050  0.2247 -0.1481
 3014TIP3   OH2 9005   3.939   2.968   4.428 -0.0047 -0.5341  0.0263
 3014TIP3    H1 9006   3.941   2.978   4.523 -0.9045 -3.2485  0.4011
 3014TIP3    H2 9007   3.858   3.012   4.401  1.0938  1.7729  0.2032
 3015TIP3   OH2 9008   1.381   5.725   4.619  0.2145 -0.6356 -0.0360
 3015TIP3    H1 9009   1.352   5.715   4.710  1.0157 -1.1551  0.1701
 3015TIP3    H2 9010   1.329   5.798   4.585 -0.8578 -1.1234  0.5084
 3016TIP3   OH2 9011   5.699   4.494   3.399  0.3551  0.0788 -0.0703
 3016TIP3    H1 9012   5.634   4.559   3.426  1.9197  1.8351 -0.3444
 3016TIP3    H2 9013   5.742   4.469   3.481 -0.6610 -1.1554  0.1243
 3017TIP3   OH2 9014   6.760   1.028   5.610  0.2514  0.3294  0.1372
 3017TIP3    H1 9015   6.842   1.056   5.570  0.2399  1.1768  0.6799
 3017TIP3    H2 9016   6.782   1.013   5.702  0.4789 -2.4301 -0.2664
 3018TIP3   OH2 9017   2.311   3.147   0.744 -0.4050  0.5008  0.4741
 3018TIP3    H1 9018   2.387   3.189   0.784 -0.5229  1.0537  0.1321
 3018TIP3    H2 9019   2.297   3.068   0.796  1.0173 -0.1483 -0.0888
 3019TIP3   OH2 9020   3.183   6.460   2.273 -0.4386  0.5022 -0.3589
 3019TIP3    H1 9021   3.189   6.419   2.187  0.7722 -0.5542  0.1944
 3019TIP3    H2 9022   3.137   6.395   2.327  0.8066  0.1513  0.3274
 3020TIP3   OH2 9023   4.189   6.657   4.057  0.2806 -0.1539 -0.0112
 3020TIP3    H1 9024   4.270   6.626   4.097  0.9972  1.3259 -0.2529
 3020TIP3    H2 9025   4.157   6.582   4.007  1.9350 -0.5329 -0.5664
 3021TIP3   OH2 9026   6.877   6.605   1.150  0.0191  0.2939 -0.3992
 3021TIP3    H1 9027   6.904   6.514   1.137  4.6959  1.7152 -3.1372
 3021TIP3    H2 9028   6.900   6.624   1.241  1.5543 -0.6696 -0.5382
 3022TIP3   OH2 9029   3.065   1.999   1.959 -0.0360 -0.0002  0.2101
 3022TIP3    H1 9030   3.047   2.045   2.041 -0.5505 -0.2019  0.2171
 3022TIP3    H2 9031   2.981   1.962   1.934  0.6846 -2.4420  1.1237
 3023TIP3   OH2 9032   1.028   5.609   3.172  0.2187 -0.2230  0.3471
 3023TIP3    H1 9033   1.121   5.634   3.170  0.4879 -0.7826  2.6539
 3023TIP3    H2 9034   0.993   5.653   3.250 -0.8768 -1.7582  0.7778
 3024TIP3   OH2 9035   1.592   1.140   3.766  0.3134  0.3678  0.5545
 3024TIP3    H1 9036   1.632   1.122   3.681  1.1422 -0.4840  1.1102
 3024TIP3    H2 9037   1.616   1.231   3.786 -2.8492  1.8935 -1.6986
 3025TIP3   OH2 9038   0.719   6.409   0.893 -0.2624  0.4878  0.2413
 3025TIP3    H1 9039   0.712   6.318   0.866  2.1447  0.6176 -1.0383
 3025TIP3    H2 9040   0.629   6.435   0.913 -1.3181 -1.4542 -1.6498
 3026TIP3   OH2 9041   5.232   0.266   0.264 -0.4441  0.2150 -0.1972
 3026TIP3    H1 9042   5.198   0.215   0.337  0.4395  0.1735  0.2053
 3026TIP3    H2 9043   5.301   0.320   0.303  1.4827 -1.3124 -1.3209
 3027TIP3   OH2 9044   0.292   4.333   1.406  0.6182  0.4066  0.1524
 3027TIP3    H1 9045   0.261   4.374   1.326 -1.1476  0.3735  0.7836
 3027TIP3    H2 9046   0.380   4.302   1.385 -0.2446 -0.6607 -2.1602
 3028TIP3   OH2 9047   3.658   2.753   4.585  0.1235 -0.6200  0.0752
 3028TIP3    H1 9048   3.696   2.697   4.653 -1.8253  0.7770  2.4950
 3028TIP3    H2 9049   3.692   2.840   4.605 -0.6097 -0.1578 -0.6704
 3029TIP3   OH2 9050   4.509   4.602   5.675 -0.4522  0.2991  0.1242
 3029TIP3    H1 9051   4.467   4.583   5.759 -0.3780 -0.4260  0.0036
 3029TIP3    H2 9052   4.518   4.517   5.633 -0.2730  0.6319 -0.5208
 3030TIP3   OH2 9053   3.079   4.555   3.649 -0.3072 -0.4037  0.0105
 3030TIP3    H1 9054   3.032   4.474   3.669  0.7038 -0.9436  0.2377
 3030TIP3    H2 9055   3.171   4.536   3.669  0.1382  0.3710 -1.1746
 3031TIP3   OH2 9056   5.005   3.740   1.983  0.5966  0.3072 -0.0319
 3031TIP3    H1 9057   4.979   3.650   1.965 -0.4450  0.6686 -0.4141
 3031TIP3    H2 9058   5.094   3.747   1.949  0.9224 -0.7377  0.5451
 3032TIP3   OH2 9059   3.173   2.703   3.156 -0.4847  0.2454 -0.1453
 3032TIP3    H1 9060   3.096   2.754   3.181 -0.2729  0.2799  0.4643
 3032TIP3    H2 9061   3.246   2.763   3.166 -0.1499 -0.3617  1.2957
 3033TIP3   OH2 9062   0.111   4.067   2.958  0.1870 -0.3242  0.3118
 3033TIP3    H1 9063   0.185   4.128   2.951 -0.6688  0.5783 -2.0398
 3033TIP3    H2 9064   0.150   3.981   2.944  0.7457  0.2313 -2.1316
 3034TIP3   OH2 9065   2.606   5.664   3.363  0.2297 -0.0661 -0.5193
 3034TIP3    H1 9066   2.689   5.639   3.405 -0.3631 -2.1634 -0.4910
 3034TIP3    H2 9067   2.554   5.702   3.434  0.9077  0.6721 -0.3994
 3035TIP3   OH2 9068   1.530   6.416   0.383  0.3572 -0.0567 -0.2477
 3035TIP3    H1 9069   1.434   6.411   0.386  0.3815 -0.6260 -0.4085
 3035TIP3    H2 9070   1.549   6.506   0.411 -0.1557 -0.3492  1.1243
 3036TIP3   OH2 9071   4.667   5.848   3.774  0.3615 -0.0757 -0.3883
 3036TIP3    H1 9072   4.640   5.859   3.682  1.4912 -0.2730 -0.7636
 3036TIP3    H2 9073   4.627   5.922   3.820  0.3372  0.4119 -1.1709
 3037TIP3   OH2 9074   0.233   5.379   4.911  0.3835 -0.1694  0.6178
 3037TIP3    H1 9075   0.199   5.463   4.943 -0.0731 -0.2423  0.3259
 3037TIP3    H2 9076   0.196   5.370   4.823 -0.2267 -1.0579  0.9512
 3038TIP3   OH2 9077   3.678   1.355   3.597 -0.1715  0.5594 -0.0320
 3038TIP3    H1 9078   3.751   1.376   3.655  0.6581 -2.6397  0.2630
 3038TIP3    H2 9079   3.618   1.430   3.606  2.2699  2.5496  0.9450
 3039TIP3   OH2 9080   6.913   2.073   2.674  0.4932 -0.4527 -0.4693
 3039TIP3    H1 9081   6.963   2.120   2.742  1.1416 -0.8196 -0.6860
 3039TIP3    H2 9082   6.976   2.013   2.635 -0.2725 -1.3429 -0.3616
 3040TIP3   OH2 9083   0.871   3.150   0.911  0.0489  0.0453 -0.4769
 3040TIP3    H1 9084   0.806   3.219   0.899 -0.2380 -0.3260 -1.1384
 3040TIP3    H2 9085   0.826   3.070   0.884  0.8854 -0.1708 -1.2836
 3041TIP3   OH2 9086   3.575   4.872   2.579 -0.1418 -0.4239  0.5188
 3041TIP3    H1 9087   3.585   4.843   2.670  0.1378  0.5459  0.8119
 3041TIP3    H2 9088   3.485   4.848   2.556 -0.5708  0.2293  1.4142
 3042TIP3   OH2 9089   0.609   2.805   5.317 -0.1407 -0.0874  0.3787
 3042TIP3    H1 9090   0.529   2.766   5.280  1.9273 -2.2275 -2.3076
 3042TIP3    H2 9091   0.649   2.851   5.244  0.9451  1.2681  1.7616
 3043TIP3   OH2 9092   5.728   5.534   2.052  0.4610  0.4978 -0.0219
 3043TIP3    H1 9093   5.798   5.599   2.061 -1.1113  2.4124 -0.9543
 3043TIP3    H2 9094   5.655   5.571   2.101 -0.5905 -0.4429 -0.8370
 3044TIP3   OH2 9095   1.663   5.970   4.871 -0.2471  0.3049  0.0053
 3044TIP3    H1 9096   1.747   5.944   4.834  0.0692 -1.0471  1.5451
 3044TIP3    H2 9097   1.609   5.993   4.795  1.0905 -0.0901 -1.0967
 3045TIP3   OH2 9098   3.622   5.562   0.433 -0.8133 -0.3848 -0.4888
 3045TIP3    H1 9099   3.666   5.499   0.490  0.2644  0.6202 -0.1915
 3045TIP3    H2 9100   3.679   5.569   0.356  0.0186  1.5646  0.2707
 3046TIP3   OH2 9101   5.329   2.722   5.638 -0.3533 -0.0203 -0.5126
 3046TIP3    H1 9102   5.244   2.685   5.664  0.1796 -0.1466  1.1395
 3046TIP3    H2 9103   5.325   2.813   5.668  0.0469  0.0130 -0.5622
 3047TIP3   OH2 9104   4.520   4.656   3.480 -0.2269  0.1272  0.7688
 3047TIP3    H1 9105   4.472   4.574   3.468  0.2943 -0.0986  0.1560
 3047TIP3    H2 9106   4.519   4.697   3.393  1.7560 -0.4792  0.4194
 3048TIP3   OH2 9107   2.553   3.314   0.733 -0.3709 -0.3449 -0.6557
 3048TIP3    H1 9108   2.632   3.347   0.777 -0.5033 -0.1799 -0.5384
 3048TIP3    H2 9109   2.536   3.378   0.663 -1.3858  0.5826  0.3971
 3049TIP3   OH2 9110   2.455   3.733   4.281 -0.0473  0.3590 -0.1179
 3049TIP3    H1 9111   2.376   3.704   4.236 -0.4932  2.5689 -0.8629
 3049TIP3    H2 9112   2.520   3.665   4.260 -1.6073 -1.3408  0.2604
 3050TIP3   OH2 9113   0.385   5.901   2.676 -0.0898 -0.5157 -0.0194
 3050TIP3    H1 9114   0.325   5.854   2.734  0.0743  0.6630  1.1419
 3050TIP3    H2 9115   0.328   5.943   2.612 -0.5906  0.7806  1.2066
 3051TIP3   OH2 9116   3.912   2.295   0.957 -0.4344  0.4761  0.0686
 3051TIP3    H1 9117   3.900   2.381   0.916 -0.1757 -0.3334 -1.7906
 3051TIP3    H2 9118   4.005   2.274   0.943 -0.8942 -0.8978 -1.1748
 3052TIP3   OH2 9119   4.266   3.819   4.844  0.0605 -0.4668  0.6429
 3052TIP3    H1 9120   4.342   3.819   4.902  0.6531  0.4646 -0.0952
 3052TIP3    H2 9121   4.266   3.732   4.804  1.2791 -0.1876 -0.0177
 3053TIP3   OH2 9122   4.936   6.717   5.231  0.0930  0.3532 -0.5943
 3053TIP3    H1 9123   4.979   6.801   5.219 -0.0097  0.5221  0.1746
 3053TIP3    H2 9124   5.007   6.656   5.253 -0.0405  0.6235  0.6344
 3054TIP3   OH2 9125   2.027   5.649   3.178 -0.5240 -0.2126 -0.8655
 3054TIP3    H1 9126   1.981   5.725   3.213 -2.9063 -1.4405 -1.1606
 3054TIP3    H2 9127   2.083   5.620   3.250 -0.3996  1.1444 -0.3857
 3055TIP3   OH2 9128   6.646   4.462   4.320  0.4073 -0.4865  0.2185
 3055TIP3    H1 9129   6.742   4.462   4.325  0.4529  0.4432 -0.4295
 3055TIP3    H2 9130   6.624   4.545   4.277 -0.8544  1.4167  4.0298
 3056TIP3   OH2 9131   3.869   5.938   2.966  0.0485  0.7175  0.4478
 3056TIP3    H1 9132   3.869   5.910   3.058  1.9877  0.5559  0.4315
 3056TIP3    H2 9133   3.879   5.858   2.916 -0.1759  0.8943  0.1151
 3057TIP3   OH2 9134   2.208   4.405   3.739 -0.0244  0.3068 -0.0061
 3057TIP3    H1 9135   2.259   4.418   3.819  0.1964  0.6381 -0.2003
 3057TIP3    H2 9136   2.124   4.371   3.770 -0.1851  1.0664  0.4216
 3058TIP3   OH2 9137   5.298   4.768   3.350  0.4348 -0.1080 -0.1961
 3058TIP3    H1 9138   5.350   4.844   3.324  0.1793 -0.2943 -1.3003
 3058TIP3    H2 9139   5.309   4.705   3.278 -0.4370 -0.5755  0.0605
 3059TIP3   OH2 9140   2.437   2.673   0.810  0.4772 -0.4992  0.0705
 3059TIP3    H1 9141   2.504   2.692   0.876  0.1229 -1.0719  0.6085
 3059TIP3    H2 9142   2.354   2.673   0.859 -0.1502  1.8713 -0.8767
 3060TIP3   OH2 9143   5.198   5.899   5.248 -0.4142  0.4124 -0.3609
 3060TIP3    H1 9144   5.221   5.921   5.158  0.3669  0.5469 -0.1347
 3060TIP3    H2 9145   5.188   5.983   5.292  3.2277  0.4870  0.6712
 3061TIP3   OH2 9146   4.381   4.243   4.409  0.1002 -0.1272  0.0364
 3061TIP3    H1 9147   4.456   4.302   4.405  0.7460 -0.9738 -0.7396
 3061TIP3    H2 9148   4.309   4.298   4.441  0.9392  0.8048  0.3656
 3062TIP3   OH2 9149   3.874   1.080   3.296 -0.0163 -0.1821  0.2092
 3062TIP3    H1 9150   3.813   1.097   3.368  0.4272 -0.7757  0.7317
 3062TIP3    H2 9151   3.954   1.128   3.320  0.0714 -0.2304  0.0176
 3063TIP3   OH2 9152   1.730   1.948   4.670 -0.1198  0.1281 -0.0229
 3063TIP3    H1 9153   1.644   1.905   4.676 -1.3121  2.3547  0.0386
 3063TIP3    H2 9154   1.735   1.978   4.580  0.7328 -0.1900 -0.0877
 3064TIP3   OH2 9155   4.047   6.706   0.568  0.2095 -0.2563 -0.3215
 3064TIP3    H1 9156   4.141   6.724   0.562  0.4243 -1.4707 -1.0854
 3064TIP3    H2 9157   4.006   6.792   0.569  1.3384  0.2996  0.2323
 3065TIP3   OH2 9158   5.884   0.715   0.516  0.2139  0.1667 -0.4221
 3065TIP3    H1 9159   5.878   0.665   0.598 -2.0533 -1.6996 -1.6247
 3065TIP3    H2 9160   5.974   0.700   0.486  1.4858  1.7679  2.1461
 3066TIP3   OH2 9161   1.089   3.177   1.078 -0.4053 -0.1277 -0.3229
 3066TIP3    H1 9162   1.019   3.171   1.013 -1.5017  0.7619  0.7325
 3066TIP3    H2 9163   1.044   3.198   1.160  0.8609 -1.7839  0.8809
 3067TIP3   OH2 9164   5.191   0.589   2.915  0.7112  0.2383  0.3788
 3067TIP3    H1 9165   5.147   0.664   2.956  0.9739  0.9389 -0.5859
 3067TIP3    H2 9166   5.283   0.599   2.940  0.4647 -0.8859  1.8845
 3068TIP3   OH2 9167   5.268   1.196   2.788  0.2703  0.1736 -0.0002
 3068TIP3    H1 9168   5.226   1.133   2.730  2.0458 -1.5174  0.4735
 3068TIP3    H2 9169   5.201   1.264   2.802 -1.4734 -1.2583 -1.0323
 3069TIP3   OH2 9170   0.604   1.476   3.051 -0.3208  0.3789  0.5782
 3069TIP3    H1 9171   0.662   1.400   3.052 -0.2539  0.4110 -0.1976
 3069TIP3    H2 9172   0.642   1.536   3.115  0.4639  0.3642  0.1394
 3070TIP3   OH2 9173   7.042   3.781   3.929 -0.2741 -0.2006 -0.2259
 3070TIP3    H1 9174   7.094   3.817   4.001  0.3082  1.0952 -1.2716
 3070TIP3    H2 9175   7.101   3.721   3.884  0.4152  1.3365 -1.4661
 3071TIP3   OH2 9176   6.456   2.382   5.732 -0.1245 -0.3270  0.2102
 3071TIP3    H1 9177   6.413   2.330   5.800 -0.4287  0.3984  0.5779
 3071TIP3    H2 9178   6.396   2.454   5.715  0.3359 -0.0392 -0.2291
 3072TIP3   OH2 9179   3.586   2.228   5.045 -0.2133  0.2634 -0.4151
 3072TIP3    H1 9180   3.562   2.265   4.960  0.4596  0.7262 -0.4146
 3072TIP3    H2 9181   3.639   2.296   5.086  0.8082 -0.5716 -0.2921
 3073TIP3   OH2 9182   2.437   4.087   0.448 -1.1879  0.8285  0.2362
 3073TIP3    H1 9183   2.460   4.126   0.532 -0.1526 -1.0364  0.8878
 3073TIP3    H2 9184   2.461   3.994   0.457 -0.9829  0.5775 -2.1345
 3074TIP3   OH2 9185   5.254   1.740   5.532 -0.0339 -0.2773  0.2576
 3074TIP3    H1 9186   5.327   1.695   5.576 -0.2422 -1.6710 -0.7558
 3074TIP3    H2 9187   5.179   1.726   5.589  0.1860 -0.1042  0.5888
 3075TIP3   OH2 9188   6.735   1.088   3.601 -0.2228  0.5616 -0.4841
 3075TIP3    H1 9189   6.650   1.057   3.572 -0.6364  1.7422 -0.5912
 3075TIP3    H2 9190   6.788   1.009   3.610 -1.3360 -0.1869 -0.3712
 3076TIP3   OH2 9191   5.072   3.031   4.836 -0.0994  0.3150 -0.0673
 3076TIP3    H1 9192   4.997   3.081   4.868 -2.1918 -1.9177 -1.1895
 3076TIP3    H2 9193   5.122   3.093   4.783 -2.0714  1.4554 -0.6584
 3077TIP3   OH2 9194   2.595   3.398   3.711  0.0264 -0.7561  0.2382
 3077TIP3    H1 9195   2.660   3.467   3.700  0.2821 -1.1087 -0.5458
 3077TIP3    H2 9196   2.511   3.444   3.712  0.1764 -0.4549 -0.5271
 3078TIP3   OH2 9197   7.027   5.527   0.696  0.0860  0.2376  0.0815
 3078TIP3    H1 9198   7.045   5.547   0.788 -0.9979 -0.6156  0.4961
 3078TIP3    H2 9199   7.114   5.526   0.655  0.6865 -0.3900  1.3120
 3079TIP3   OH2 9200   7.149   0.360   3.929  0.3313 -0.0454 -0.6889
 3079TIP3    H1 9201   7.132   0.266   3.930  1.8422 -0.3848  2.3820
 3079TIP3    H2 9202   7.235   0.369   3.888  0.4628 -0.0553 -0.4134
 3080TIP3   OH2 9203   2.834   3.094   5.174 -0.3038 -0.2052 -0.2437
 3080TIP3    H1 9204   2.921   3.087   5.135 -0.1321  2.9898 -0.6997
 3080TIP3    H2 9205   2.839   3.042   5.254  2.0405 -0.1133 -0.2592
 3081TIP3   OH2 9206   3.669   4.411   1.869  0.4078  0.4844 -0.0821
 3081TIP3    H1 9207   3.763   4.406   1.851  0.3056 -1.3126 -0.3331
 3081TIP3    H2 9208   3.651   4.504   1.879  2.1219  0.8975 -0.5389
 3082TIP3   OH2 9209   5.744   5.649   0.107 -0.1978 -0.3821  0.6027
 3082TIP3    H1 9210   5.763   5.709   0.179  0.2126 -0.6418  0.7186
 3082TIP3    H2 9211   5.759   5.700   0.028 -0.6969 -0.0800  0.6986
 3083TIP3   OH2 9212   0.210   3.397   4.193 -0.3194 -0.1320  0.8651
 3083TIP3    H1 9213   0.290   3.428   4.236 -0.3447  0.1802  0.6918
 3083TIP3    H2 9214   0.192   3.463   4.125  0.9195 -1.6584 -1.0768
 3084TIP3   OH2 9215   3.642   4.006   1.132  0.1276  0.0018  0.3330
 3084TIP3    H1 9216   3.612   4.089   1.170 -0.0658  0.8990 -1.6316
 3084TIP3    H2 9217   3.720   3.983   1.182 -0.4963  0.7479  1.6915
 3085TIP3   OH2 9218   5.922   6.163   2.205 -0.1391 -0.4229  0.2806
 3085TIP3    H1 9219   5.962   6.249   2.196  0.9314 -1.0856 -2.0906
 3085TIP3    H2 9220   5.833   6.180   2.235  0.1453  1.4862  0.1388
 3086TIP3   OH2 9221   0.575   5.279   3.268  0.1744 -0.3408 -0.2027
 3086TIP3    H1 9222   0.482   5.259   3.274  0.3001 -0.9719 -0.3326
 3086TIP3    H2 9223   0.618   5.194   3.265  0.7654 -0.0535 -0.0171
 3087TIP3   OH2 9224   2.340   2.104   0.558 -0.0717 -0.0944 -0.3908
 3087TIP3    H1 9225   2.384   2.019   0.563 -0.1944 -0.1963 -0.9947
 3087TIP3    H2 9226   2.255   2.089   0.600  0.8564  0.3887  1.8164
 3088TIP3   OH2 9227   3.457   2.644   5.410  0.1084 -0.1984  0.2801
 3088TIP3    H1 9228   3.497   2.705   5.471  0.3470  0.6930 -0.7595
 3088TIP3    H2 9229   3.456   2.689   5.326 -0.3741 -1.3397 -0.3582
 3089TIP3   OH2 9230   3.021   5.138   3.258 -0.0943 -0.2165 -0.8400
 3089TIP3    H1 9231   2.932   5.110   3.237  0.4017 -1.4488 -1.4023
 3089TIP3    H2 9232   3.068   5.133   3.174  0.1347  2.0030 -0.9107
 3090TIP3   OH2 9233   7.016   5.282   2.434 -0.2999 -0.3559  0.1827
 3090TIP3    H1 9234   7.102   5.268   2.394 -0.4403 -0.8869  0.0606
 3090TIP3    H2 9235   7.017   5.227   2.512 -0.3427  0.0378  0.4678
 3091TIP3   OH2 9236   1.684   1.576   3.986 -0.5317 -0.6917 -0.5530
 3091TIP3    H1 9237   1.605   1.582   3.932 -0.6441  0.9965 -0.2610
 3091TIP3    H2 9238   1.660   1.618   4.069  0.9413  0.7891 -0.8182
 3092TIP3   OH2 9239   0.598   2.756   1.300 -0.1968  0.5092  0.2712
 3092TIP3    H1 9240   0.529   2.743   1.364  0.4106 -1.4150  0.5878
 3092TIP3    H2 9241   0.647   2.674   1.300 -0.1724  0.4130 -2.6549
 3093TIP3   OH2 9242   3.533   5.768   3.130 -0.1713  1.1343  0.0022
 3093TIP3    H1 9243   3.454   5.780   3.183  0.1529 -1.9239  1.4003
 3093TIP3    H2 9244   3.520   5.683   3.088  2.4130  0.4278  0.4486
 3094TIP3   OH2 9245   5.366   6.114   5.560 -0.0303 -0.1222 -0.4013
 3094TIP3    H1 9246   5.354   6.188   5.620  1.0924  0.6015 -1.0296
 3094TIP3    H2 9247   5.281   6.107   5.515 -0.8278 -0.5689  1.1046
 3095TIP3   OH2 9248   4.045   0.141   1.156 -0.3076 -0.9064 -0.5870
 3095TIP3    H1 9249   4.125   0.187   1.182  0.0114 -1.1772 -1.0544
 3095TIP3    H2 9250   3.996   0.128   1.237  0.6783 -1.7798 -0.1023
 3096TIP3   OH2 9251   5.981   0.420   3.733 -0.2256 -0.2204  0.1154
 3096TIP3    H1 9252   5.968   0.419   3.638  2.5718 -1.1690 -0.3478
 3096TIP3    H2 9253   6.076   0.418   3.744 -0.3795  1.8395  2.9565
 3097TIP3   OH2 9254   6.212   6.283   2.992  0.1803 -0.4287 -0.3794
 3097TIP3    H1 9255   6.198   6.334   3.072 -1.4612 -0.7312 -0.4520
 3097TIP3    H2 9256   6.277   6.217   3.017 -1.3796 -1.4639  1.1642
 3098TIP3   OH2 9257   1.632   2.992   2.918  0.6199  0.1066 -0.1861
 3098TIP3    H1 9258   1.586   3.041   2.987  1.5492  0.5922  0.0973
 3098TIP3    H2 9259   1.562   2.966   2.857 -0.4179 -1.4573  1.5670
 3099TIP3   OH2 9260   6.078   5.146   5.308  0.0046 -0.2409  0.0474
 3099TIP3    H1 9261   6.010   5.210   5.286  0.6938  0.5322  0.1040
 3099TIP3    H2 9262   6.157   5.199   5.323  0.4576 -1.0631  0.6585
 3100TIP3   OH2 9263   2.654   1.393   4.528  0.1167  0.1793  0.5495
 3100TIP3    H1 9264   2.564   1.382   4.559  0.1101 -1.4086  0.0949
 3100TIP3    H2 9265   2.703   1.326   4.576  1.0468  0.9967  0.7477
 3101TIP3   OH2 9266   6.110   0.712   0.668  0.4357 -0.5375 -0.2005
 3101TIP3    H1 9267   6.178   0.651   0.697  0.5555 -0.8508 -1.0985
 3101TIP3    H2 9268   6.029   0.677   0.706  0.5114 -1.2376 -0.6587
 3102TIP3   OH2 9269   2.783   6.115   0.904 -0.4692  0.3004 -0.3729
 3102TIP3    H1 9270   2.823   6.106   0.991  0.2480  0.6634 -0.6532
 3102TIP3    H2 9271   2.856   6.105   0.843 -0.7404  1.2784 -0.8873
 3103TIP3   OH2 9272   1.649   0.250   0.262  0.3820  0.1050 -0.2270
 3103TIP3    H1 9273   1.657   0.228   0.355  0.2572 -1.0895 -0.4795
 3103TIP3    H2 9274   1.623   0.342   0.261  1.3853  0.4158  0.8926
 3104TIP3   OH2 9275   5.397   1.414   1.232 -0.3419  0.0095  0.1420
 3104TIP3    H1 9276   5.469   1.472   1.258  0.5294 -0.4131 -1.2138
 3104TIP3    H2 9277   5.425   1.327   1.258 -0.7567 -0.0593  0.3701
 3105TIP3   OH2 9278   5.751   5.100   5.421 -0.4530 -0.3574 -0.5514
 3105TIP3    H1 9279   5.798   5.183   5.427 -0.6397 -0.2808 -0.0950
 3105TIP3    H2 9280   5.717   5.098   5.331 -0.5295  0.1025 -0.5335
 3106TIP3   OH2 9281   5.317  -0.005   5.227  0.5465 -0.1152 -0.0838
 3106TIP3    H1 9282   5.259   0.064   5.197 -1.5279 -0.8105  2.0936
 3106TIP3    H2 9283   5.363  -0.034   5.147 -0.5914  1.8192 -1.5074
 3107TIP3   OH2 9284   1.422   0.287   3.833  0.1018 -0.1526  0.5846
 3107TIP3    H1 9285   1.513   0.312   3.824 -0.4412  2.1665  0.8673
 3107TIP3    H2 9286   1.424   0.194   3.854  2.3237 -0.3827 -0.4368
 3108TIP3   OH2 9287   1.060   6.116   1.288  0.4334 -0.5527 -0.2138
 3108TIP3    H1 9288   1.049   6.208   1.262  1.7717 -0.4023 -0.3155
 3108TIP3    H2 9289   0.971   6.084   1.301 -0.0603  0.7298 -0.2962
 3109TIP3   OH2 9290   2.002   3.253   2.195  0.2808  0.7570  0.1669
 3109TIP3    H1 9291   2.069   3.217   2.253  0.8194  1.4923  0.0228
 3109TIP3    H2 9292   2.016   3.348   2.199 -0.7180  0.9198  0.0861
 3110TIP3   OH2 9293   5.890   4.208   4.837  0.4729 -0.1888 -0.6752
 3110TIP3    H1 9294   5.912   4.122   4.872  1.4271  0.2546 -0.1491
 3110TIP3    H2 9295   5.972   4.257   4.842  0.2797  0.3351 -2.2343
 3111TIP3   OH2 9296   3.804   6.030   1.263 -0.5178 -0.3995 -0.4115
 3111TIP3    H1 9297   3.873   6.078   1.309 -2.5553  1.3426  1.0008
 3111TIP3    H2 9298   3.771   5.967   1.327 -1.3991 -0.0203 -0.4857
 3112TIP3   OH2 9299   1.639   0.560   4.069  0.0766  0.3767  0.2812
 3112TIP3    H1 9300   1.699   0.509   4.124 -0.0609 -2.0583 -1.6487
 3112TIP3    H2 9301   1.691   0.582   3.992 -0.4344  1.6331  0.2711
 3113TIP3   OH2 9302   1.728   2.517   3.604 -0.4226  0.1488  0.1901
 3113TIP3    H1 9303   1.697   2.597   3.561  0.8011 -0.1509 -1.3378
 3113TIP3    H2 9304   1.658   2.453   3.588 -0.8449  0.5684  0.3285
 3114TIP3   OH2 9305   4.780   4.724   2.017 -0.4836 -0.5314 -0.0860
 3114TIP3    H1 9306   4.743   4.775   2.089 -1.1727 -0.9859 -0.1040
 3114TIP3    H2 9307   4.826   4.651   2.060 -3.0589 -2.3104 -0.0607
 3115TIP3   OH2 9308   5.112   0.288   4.794  0.0081 -0.1497 -0.0938
 3115TIP3    H1 9309   5.071   0.230   4.730 -1.6195  0.1373  0.6463
 3115TIP3    H2 9310   5.166   0.230   4.848 -2.7666 -1.3380  1.6060
 3116TIP3   OH2 9311   3.472   0.769   1.262 -0.1513  0.5539 -0.1922
 3116TIP3    H1 9312   3.447   0.766   1.354  0.6735  1.3573  0.0652
 3116TIP3    H2 9313   3.414   0.834   1.223  1.0306  1.9222  0.2646
 3117TIP3   OH2 9314   2.308   6.294   5.711  0.0302  0.4317 -0.1358
 3117TIP3    H1 9315   2.364   6.250   5.648  1.0015 -0.7885  1.4888
 3117TIP3    H2 9316   2.285   6.377   5.670  2.5815  0.7214 -1.1075
 3118TIP3   OH2 9317   5.095   4.874   3.843  0.0708  0.3089  0.0131
 3118TIP3    H1 9318   5.141   4.913   3.917  1.2396  0.4767 -0.7741
 3118TIP3    H2 9319   5.143   4.793   3.825  0.1804  0.5793 -0.9516
 3119TIP3   OH2 9320   0.333   3.582   5.078  0.2499 -0.2662  0.4848
 3119TIP3    H1 9321   0.408   3.588   5.137  1.8906 -1.1928 -1.3923
 3119TIP3    H2 9322   0.351   3.646   5.010 -0.4374 -0.8217 -0.2338
 3120TIP3   OH2 9323   3.177   1.694   0.842 -0.5246 -0.6719  0.7565
 3120TIP3    H1 9324   3.262   1.651   0.830  0.3917  0.8275  1.4833
 3120TIP3    H2 9325   3.200   1.783   0.868 -2.3245  0.2159 -0.5009
 3121TIP3   OH2 9326   2.569   2.232   4.391 -0.0309  0.0441  0.2922
 3121TIP3    H1 9327   2.585   2.230   4.297 -2.5034 -0.3812 -0.1680
 3121TIP3    H2 9328   2.552   2.324   4.411 -2.2528 -0.2098 -0.2355
 3122TIP3   OH2 9329   3.187   4.249   5.480  0.8101  0.2682 -0.0946
 3122TIP3    H1 9330   3.179   4.342   5.502  0.1725  0.5299 -1.3171
 3122TIP3    H2 9331   3.271   4.243   5.435 -0.7146  1.0508 -3.3822
 3123TIP3   OH2 9332   3.669   3.793   4.188  0.0602 -0.3501  0.2864
 3123TIP3    H1 9333   3.602   3.859   4.174 -0.5778 -0.8499  0.9397
 3123TIP3    H2 9334   3.623   3.720   4.229  1.2562 -0.1253  2.1594
 3124TIP3   OH2 9335   1.027   4.669   2.853 -0.2684  0.2553 -0.9918
 3124TIP3    H1 9336   0.973   4.611   2.799  0.6207 -1.5604 -0.0276
 3124TIP3    H2 9337   1.108   4.621   2.866 -0.1344  0.9886  1.2582
 3125TIP3   OH2 9338   0.062   4.887   5.813  0.2606  0.9297 -0.4369
 3125TIP3    H1 9339   0.003   4.822   5.776 -0.4491  0.5202  1.3265
 3125TIP3    H2 9340   0.149   4.860   5.784 -0.1473 -0.1181 -0.7228
 3126TIP3   OH2 9341   3.981   6.796   3.323 -0.2077  0.3316 -0.2708
 3126TIP3    H1 9342   4.008   6.773   3.411  1.2784  0.1626 -0.7510
 3126TIP3    H2 9343   3.923   6.725   3.296 -1.3493  0.7932  0.8357
 3127TIP3   OH2 9344   6.744   0.967   0.834 -0.1960  0.2802 -0.0083
 3127TIP3    H1 9345   6.699   0.952   0.917  0.2827 -0.6674  0.0946
 3127TIP3    H2 9346   6.823   1.017   0.858 -0.6859  1.1013 -0.0664
 3128TIP3   OH2 9347   5.915   4.036   1.232 -0.4368  0.4503 -0.3099
 3128TIP3    H1 9348   5.962   4.008   1.310 -0.2482  1.4589 -0.0437
 3128TIP3    H2 9349   5.824   4.014   1.249 -0.4754  1.1490  0.4337
 3129TIP3   OH2 9350   6.573   6.525   5.204  0.2714  0.2061  0.0456
 3129TIP3    H1 9351   6.571   6.516   5.108  1.1916 -2.3455  0.1764
 3129TIP3    H2 9352   6.660   6.560   5.223 -0.2770  1.6864 -0.0647
 3130TIP3   OH2 9353   4.053   2.275   2.701  0.1561  0.6051 -0.3239
 3130TIP3    H1 9354   4.023   2.356   2.659  0.2442  1.1950  0.7312
 3130TIP3    H2 9355   4.147   2.285   2.709  0.4746 -0.4927 -2.0134
 3131TIP3   OH2 9356   2.306   3.423   2.005  0.2509  0.0923 -0.0192
 3131TIP3    H1 9357   2.382   3.473   1.974 -0.6898  1.3808 -0.3367
 3131TIP3    H2 9358   2.251   3.488   2.049 -0.3065 -0.9718  0.8812
 3132TIP3   OH2 9359   5.915   2.469   4.061 -0.0119 -0.3992 -0.1559
 3132TIP3    H1 9360   5.892   2.387   4.016 -1.9310 -0.3940  0.7176
 3132TIP3    H2 9361   5.999   2.450   4.104  0.7321 -1.1198 -1.8286
 3133TIP3   OH2 9362   0.317   3.588   4.628  0.0279 -0.0201  0.1467
 3133TIP3    H1 9363   0.315   3.654   4.698  1.0096 -0.3556  0.5130
 3133TIP3    H2 9364   0.290   3.636   4.549 -0.6108  0.4838  0.6500
 3134TIP3   OH2 9365   0.296   6.707   2.734 -0.0570 -0.4736 -0.0176
 3134TIP3    H1 9366   0.356   6.671   2.799 -1.3137 -0.5246  1.1491
 3134TIP3    H2 9367   0.299   6.802   2.747  0.9120 -0.3612 -0.9950
 3135TIP3   OH2 9368   3.507   1.065   0.092  0.2361 -0.3999  0.2015
 3135TIP3    H1 9369   3.584   1.014   0.068  1.5252  1.0176  1.1779
 3135TIP3    H2 9370   3.436   1.001   0.095  1.1570 -1.5950 -1.5858
 3136TIP3   OH2 9371   1.383   3.944   2.912  0.5014  0.2850  0.3227
 3136TIP3    H1 9372   1.467   3.935   2.957  1.2044  0.7208 -0.8552
 3136TIP3    H2 9373   1.359   3.854   2.888  1.4357  0.2872 -0.7152
 3137TIP3   OH2 9374   6.022   3.291   0.890 -0.1310  0.3554  0.4310
 3137TIP3    H1 9375   6.088   3.301   0.960  2.2315  0.1146 -1.6112
 3137TIP3    H2 9376   6.074   3.274   0.811 -2.7014  0.2036 -1.3325
 3138TIP3   OH2 9377   0.705   1.420   4.404 -0.1786  0.6276  0.2990
 3138TIP3    H1 9378   0.674   1.431   4.315  0.2332 -0.2605  0.0316
 3138TIP3    H2 9379   0.767   1.491   4.418  0.4414  0.2399 -0.4405
 3139TIP3   OH2 9380   2.997   0.778   4.077 -0.1581 -0.0950 -0.3012
 3139TIP3    H1 9381   2.980   0.860   4.030 -2.1217 -0.6995 -0.7173
 3139TIP3    H2 9382   2.966   0.794   4.166 -1.7055 -0.7377 -0.6923
 3140TIP3   OH2 9383   0.442   3.761   1.830 -1.2355  0.5452 -0.1181
 3140TIP3    H1 9384   0.357   3.742   1.869 -1.9754 -0.1816 -1.9698
 3140TIP3    H2 9385   0.435   3.727   1.741  1.7679 -1.6080  0.3102
 3141TIP3   OH2 9386   1.079   4.512   4.919  0.4769  0.4641 -0.3675
 3141TIP3    H1 9387   1.123   4.546   4.998  1.9516 -0.4018 -0.7675
 3141TIP3    H2 9388   1.139   4.445   4.886 -0.9749 -0.4548 -1.2267
 3142TIP3   OH2 9389   1.716   5.820   2.473  0.0911 -0.0894 -0.0804
 3142TIP3    H1 9390   1.645   5.884   2.464  0.2746 -0.0439 -1.4662
 3142TIP3    H2 9391   1.737   5.820   2.566 -2.0007 -0.3864  0.4401
 3143TIP3   OH2 9392   4.667   3.024   2.397  0.2557  0.9515  0.3611
 3143TIP3    H1 9393   4.666   3.046   2.304  0.5193  1.2113  0.4185
 3143TIP3    H2 9394   4.583   3.056   2.430 -0.6739 -0.8050 -0.1585
 3144TIP3   OH2 9395   1.912   2.558   5.516  0.5853 -0.0522  0.4462
 3144TIP3    H1 9396   1.878   2.606   5.591 -0.0366 -0.8414  0.6914
 3144TIP3    H2 9397   1.954   2.481   5.555  1.1802  0.0697  0.0431
 3145TIP3   OH2 9398   0.983   5.768   3.413 -0.0720  0.1204 -0.0189
 3145TIP3    H1 9399   0.950   5.845   3.460  0.9873 -0.7533  2.2666
 3145TIP3    H2 9400   1.074   5.760   3.440  0.2228 -1.1738 -1.2811
 3146TIP3   OH2 9401   1.873   6.504   4.689  0.5179 -0.2172 -0.2740
 3146TIP3    H1 9402   1.825   6.505   4.606  0.3682  0.5613 -0.1824
 3146TIP3    H2 9403   1.943   6.568   4.678  0.0906  0.3925  0.4273
 3147TIP3   OH2 9404   3.770   3.035   4.665 -0.7204  0.0051  0.0080
 3147TIP3    H1 9405   3.748   3.032   4.758 -0.8577 -0.4820 -0.0385
 3147TIP3    H2 9406   3.697   3.082   4.624 -1.4970 -1.2512 -0.0910
 3148TIP3   OH2 9407   5.097   4.954   0.581 -0.2657  0.2626  0.6959
 3148TIP3    H1 9408   5.136   5.028   0.534  1.7188 -0.2344  1.4394
 3148TIP3    H2 9409   5.018   4.933   0.532  1.6972 -0.2701 -2.5555
 3149TIP3   OH2 9410   2.242   3.168   1.354  0.1269  0.0688 -0.4342
 3149TIP3    H1 9411   2.337   3.173   1.366  0.2220 -0.2131 -1.0280
 3149TIP3    H2 9412   2.227   3.078   1.325 -0.2218  0.3528 -1.1727
 3150TIP3   OH2 9413   2.290   5.650   3.366  0.4086  0.1223  0.4824
 3150TIP3    H1 9414   2.328   5.677   3.449  2.5494 -0.9240 -0.0862
 3150TIP3    H2 9415   2.336   5.702   3.300  1.1223 -1.3638 -0.2447
 3151TIP3   OH2 9416   1.301   2.144   4.696 -0.4214 -0.0441 -0.3260
 3151TIP3    H1 9417   1.284   2.238   4.705  1.2000  0.1270  1.3762
 3151TIP3    H2 9418   1.221   2.103   4.729 -0.3115  0.7426  0.9853
 3152TIP3   OH2 9419   2.344   4.249   5.816  0.7454 -0.0104 -0.5276
 3152TIP3    H1 9420   2.298   4.270   5.735  0.0103  0.8307  0.0829
 3152TIP3    H2 9421   2.310   4.312   5.880  3.0760  0.9668 -0.1530
 3153TIP3   OH2 9422   2.102   3.093   3.308  0.3741  0.0065 -0.4655
 3153TIP3    H1 9423   2.015   3.113   3.343 -0.2796  1.9039 -2.9407
 3153TIP3    H2 9424   2.133   3.021   3.363 -1.5561  1.0867  2.2966
 3154TIP3   OH2 9425   3.852   1.344   0.424  0.1971 -1.5052 -0.0623
 3154TIP3    H1 9426   3.782   1.344   0.359 -0.2228 -0.7190  0.3803
 3154TIP3    H2 9427   3.844   1.259   0.468  1.2442 -2.5739 -1.8099
 3155TIP3   OH2 9428   5.270   5.940   4.898 -0.0096 -0.7699  0.3016
 3155TIP3    H1 9429   5.350   5.934   4.950  0.6669 -1.5955 -0.7957
 3155TIP3    H2 9430   5.265   6.032   4.873  0.1080 -0.5339  1.1066
 3156TIP3   OH2 9431   0.585   4.807   5.166  0.0496  0.0236 -0.1889
 3156TIP3    H1 9432   0.584   4.903   5.171  0.3176  0.0257 -0.1761
 3156TIP3    H2 9433   0.669   4.786   5.126  0.7081 -0.2747  1.2893
 3157TIP3   OH2 9434   6.253   5.169   3.116  1.0109 -0.4133 -0.1334
 3157TIP3    H1 9435   6.192   5.164   3.189  0.8661  0.1068 -0.2150
 3157TIP3    H2 9436   6.253   5.080   3.079 -1.1264  0.0015 -1.2695
 3158TIP3   OH2 9437   5.618   4.435   0.662 -0.2470  0.9993 -0.2714
 3158TIP3    H1 9438   5.649   4.496   0.729 -2.1904  1.1106  0.5734
 3158TIP3    H2 9439   5.564   4.489   0.604 -1.5972  0.1978  0.2151
 3159TIP3   OH2 9440   4.235   4.227   5.786 -0.1899  0.3187 -0.0672
 3159TIP3    H1 9441   4.251   4.203   5.694  1.2152 -1.5866  0.6106
 3159TIP3    H2 9442   4.250   4.146   5.835 -0.1766  1.4736  1.9362
 3160TIP3   OH2 9443   7.030   2.384   2.035  0.0818 -0.5035  0.0924
 3160TIP3    H1 9444   7.026   2.348   1.946  0.2121  1.5145 -0.7703
 3160TIP3    H2 9445   6.939   2.397   2.060  0.0025 -2.0132  0.6971
 3161TIP3   OH2 9446   4.187   5.363   3.327  0.6672  0.1746  0.3719
 3161TIP3    H1 9447   4.152   5.452   3.319  2.3384  0.8266 -0.1777
 3161TIP3    H2 9448   4.168   5.338   3.417 -0.2935  0.8756  0.3787
 3162TIP3   OH2 9449   3.184   1.866   4.757  0.2193 -0.2824  0.8077
 3162TIP3    H1 9450   3.142   1.915   4.686 -0.2962 -0.3309  1.0739
 3162TIP3    H2 9451   3.201   1.932   4.825 -0.4995 -0.4588  1.1771
 3163TIP3   OH2 9452   5.273   1.041   1.762  0.4528 -0.6287 -0.3120
 3163TIP3    H1 9453   5.338   1.097   1.805 -0.4779 -0.3473  0.7753
 3163TIP3    H2 9454   5.217   1.102   1.713 -0.2214 -0.6477  0.4185
 3164TIP3   OH2 9455   0.351   0.871   4.023 -0.3750 -0.7343  0.0150
 3164TIP3    H1 9456   0.294   0.872   3.946  0.5212 -2.0141 -0.7138
 3164TIP3    H2 9457   0.292   0.879   4.098 -1.3854 -0.8589 -0.7457
 3165TIP3   OH2 9458   4.085   0.465   5.020 -0.0117 -0.0934 -0.2649
 3165TIP3    H1 9459   4.036   0.547   5.030  0.0914 -0.0512 -0.1003
 3165TIP3    H2 9460   4.176   0.491   5.032  0.0395 -0.1928 -0.4480
 3166TIP3   OH2 9461   3.947   6.233   2.195  0.2902 -0.1108 -0.5065
 3166TIP3    H1 9462   3.936   6.256   2.103  2.4549  1.2455 -0.5171
 3166TIP3    H2 9463   3.973   6.141   2.194 -0.6258 -0.3718 -1.1553
 3167TIP3   OH2 9464   1.228   1.726   3.992 -0.0606  0.3410 -0.5409
 3167TIP3    H1 9465   1.283   1.794   3.953  0.8093  0.4558  0.8300
 3167TIP3    H2 9466   1.165   1.773   4.047 -0.2832  0.1055 -0.5918
 3168TIP3   OH2 9467   1.495   5.637   0.753  0.5076  0.4732  0.6204
 3168TIP3    H1 9468   1.478   5.727   0.725 -0.4852  0.3454  0.7888
 3168TIP3    H2 9469   1.455   5.631   0.840 -0.4086 -0.4419  0.1496
 3169TIP3   OH2 9470   1.887   1.866   3.484 -0.6076  0.2359 -0.2618
 3169TIP3    H1 9471   1.851   1.803   3.546  0.4629  1.0665  1.2800
 3169TIP3    H2 9472   1.811   1.915   3.453 -1.1585 -0.1290  0.4844
 3170TIP3   OH2 9473   2.034   1.203   0.297 -0.2353 -0.0525  0.2706
 3170TIP3    H1 9474   2.001   1.281   0.342 -2.4233 -1.1330  0.6811
 3170TIP3    H2 9475   2.126   1.198   0.322  0.5931  3.4714 -1.3680
 3171TIP3   OH2 9476   6.979   4.090   4.309 -0.3698  0.0589 -0.2700
 3171TIP3    H1 9477   6.970   4.127   4.397 -1.3244 -0.4428 -0.1386
 3171TIP3    H2 9478   6.899   4.039   4.297  0.4727 -1.1936 -0.8062
 3172TIP3   OH2 9479   0.311   5.515   3.862  0.0647  0.1526 -0.0120
 3172TIP3    H1 9480   0.406   5.508   3.853  0.1327 -0.3758  0.9574
 3172TIP3    H2 9481   0.278   5.512   3.772  0.9434 -0.0241 -0.3378
 3173TIP3   OH2 9482   5.505   5.515   3.008  0.3324  0.5208 -0.2210
 3173TIP3    H1 9483   5.594   5.499   2.974  0.2157 -2.1197  0.4803
 3173TIP3    H2 9484   5.451   5.450   2.964 -0.8932  0.8552  0.7487
 3174TIP3   OH2 9485   4.363   3.354   3.142 -0.5237  0.5091  0.1201
 3174TIP3    H1 9486   4.413   3.375   3.062 -0.0482  1.7021  0.7086
 3174TIP3    H2 9487   4.301   3.287   3.114  2.2861 -2.1262 -0.3633
 3175TIP3   OH2 9488   1.406   2.710   0.926  0.3441 -0.4230  0.0657
 3175TIP3    H1 9489   1.327   2.763   0.941 -0.3721 -2.4463  6.1464
 3175TIP3    H2 9490   1.375   2.634   0.877 -1.0409 -0.2195  0.5781
 3176TIP3   OH2 9491   1.554   6.546   1.480  0.0612 -0.3132  0.5191
 3176TIP3    H1 9492   1.514   6.481   1.423 -0.4164  0.5159 -0.1057
 3176TIP3    H2 9493   1.514   6.532   1.566  0.3055 -1.1370  0.5023
 3177TIP3   OH2 9494   3.493   5.462   3.183 -0.1604 -0.0766 -0.7058
 3177TIP3    H1 9495   3.444   5.395   3.230  0.5341 -1.0416 -1.3186
 3177TIP3    H2 9496   3.562   5.414   3.137  3.3622  1.4300  2.4820
 3178TIP3   OH2 9497   0.878   3.886   4.877 -0.1409 -0.3942 -0.5016
 3178TIP3    H1 9498   0.795   3.930   4.860 -0.1782  0.2669  1.1877
 3178TIP3    H2 9499   0.943   3.957   4.877  0.2907 -0.7851 -0.9478
 3179TIP3   OH2 9500   5.492   5.313   2.851  0.2119  0.6557  0.3705
 3179TIP3    H1 9501   5.564   5.317   2.788  1.8620 -1.6086  1.9740
 3179TIP3    H2 9502   5.416   5.290   2.798  1.7944 -2.4635 -0.7657
 3180TIP3   OH2 9503   0.687   6.699   1.897  0.1332 -0.0852 -0.0900
 3180TIP3    H1 9504   0.769   6.737   1.929 -0.6020  1.5896 -0.0848
 3180TIP3    H2 9505   0.641   6.772   1.856 -2.0095 -0.6145  1.1905
 3181TIP3   OH2 9506   4.100   1.271   2.185  0.0712  0.2132 -0.1714
 3181TIP3    H1 9507   4.023   1.240   2.137 -0.1573 -0.4479  0.6020
 3181TIP3    H2 9508   4.156   1.194   2.192  0.3683  0.4538  0.1194
 3182TIP3   OH2 9509   6.473   0.903   4.017 -0.1227 -0.8317 -0.1332
 3182TIP3    H1 9510   6.496   0.811   4.031 -1.4524 -1.1785 -0.0572
 3182TIP3    H2 9511   6.537   0.952   4.069  1.7359 -1.5980 -1.6055
 3183TIP3   OH2 9512   0.537   1.137   4.176 -0.5827  0.3339 -0.2476
 3183TIP3    H1 9513   0.530   1.127   4.271 -1.6136  0.4410 -0.2992
 3183TIP3    H2 9514   0.449   1.161   4.148  0.3004  3.2149 -0.8966
 3184TIP3   OH2 9515   3.533   2.658   1.719 -0.2344 -0.1640  0.1533
 3184TIP3    H1 9516   3.500   2.746   1.737 -1.4641 -0.5430 -0.1731
 3184TIP3    H2 9517   3.456   2.609   1.690  0.2442 -1.6060  1.2096
 3185TIP3   OH2 9518   1.488   6.162   4.510 -0.4526  0.1959  0.1325
 3185TIP3    H1 9519   1.430   6.086   4.508  0.8419 -0.8164 -0.0737
 3185TIP3    H2 9520   1.576   6.125   4.515  0.2648  1.6528 -0.9412
 3186TIP3   OH2 9521   4.305   1.715   3.305 -0.1270 -0.5419  0.2956
 3186TIP3    H1 9522   4.357   1.685   3.379 -1.0970  1.0590  1.6985
 3186TIP3    H2 9523   4.232   1.763   3.345 -0.7384  0.2765 -1.7002
 3187TIP3   OH2 9524   2.024   3.120   4.011 -0.3939 -0.1251  0.0326
 3187TIP3    H1 9525   1.936   3.135   3.976 -0.0387  0.2042 -0.7462
 3187TIP3    H2 9526   2.060   3.050   3.956 -0.0030  0.0588  0.0495
 3188TIP3   OH2 9527   7.187   6.653   5.243 -0.7272  0.4871  0.1304
 3188TIP3    H1 9528   7.184   6.645   5.338 -1.2740 -0.7086  0.0269
 3188TIP3    H2 9529   7.103   6.619   5.213  0.4144 -1.5915 -0.9082
 3189TIP3   OH2 9530   6.255   4.913   1.853 -0.2095 -0.0705  0.3913
 3189TIP3    H1 9531   6.329   4.936   1.909  0.2569  0.5901 -0.4824
 3189TIP3    H2 9532   6.286   4.840   1.801 -0.0063  0.4956 -0.2944
 3190TIP3   OH2 9533   6.787   4.696   3.523 -0.0091 -0.0303  0.5895
 3190TIP3    H1 9534   6.740   4.750   3.587 -3.0778 -1.3597 -0.3150
 3190TIP3    H2 9535   6.746   4.609   3.531  2.7708 -1.4920  0.0333
 3191TIP3   OH2 9536   5.711   2.364   1.815  0.6615 -0.1443 -0.3851
 3191TIP3    H1 9537   5.709   2.315   1.732  0.6029  1.6606 -1.4948
 3191TIP3    H2 9538   5.620   2.388   1.830  0.3293 -2.1704  1.3322
 3192TIP3   OH2 9539   6.956   6.376   3.659 -0.1408  0.0031  0.2070
 3192TIP3    H1 9540   6.891   6.419   3.603  0.3478 -0.7833 -0.9948
 3192TIP3    H2 9541   6.942   6.415   3.746 -0.2802  1.9594 -0.6424
 3193TIP3   OH2 9542   7.138   4.809   4.113  0.0314  0.1540 -0.1898
 3193TIP3    H1 9543   7.195   4.781   4.042  1.0115 -1.1474  1.0572
 3193TIP3    H2 9544   7.187   4.877   4.159  1.3988 -2.0751  1.8547
 3194TIP3   OH2 9545   4.207   1.121   4.969  0.4081 -0.4474 -0.5303
 3194TIP3    H1 9546   4.116   1.150   4.978 -0.1265 -2.0720 -0.3469
 3194TIP3    H2 9547   4.255   1.174   5.033 -0.1802  1.2657 -1.4573
 3195TIP3   OH2 9548   0.529   2.375   4.394  0.3534  0.7945 -0.6185
 3195TIP3    H1 9549   0.547   2.435   4.466  0.3840  0.6810 -0.5315
 3195TIP3    H2 9550   0.439   2.347   4.408  1.0208 -0.9093  0.6163
 3196TIP3   OH2 9551   0.926   6.542   2.447 -0.3012  0.2459  0.0667
 3196TIP3    H1 9552   0.930   6.527   2.541  1.7355  0.0849  0.0175
 3196TIP3    H2 9553   1.018   6.546   2.420 -0.8257 -0.7810 -2.0863
 3197TIP3   OH2 9554   6.935   4.099   4.822 -0.1808  0.2486  0.2401
 3197TIP3    H1 9555   6.967   4.121   4.910 -0.4453 -2.2533  1.0290
 3197TIP3    H2 9556   6.842   4.119   4.825 -0.0676  0.7758  0.3109
 3198TIP3   OH2 9557   4.257   2.845   2.467 -0.0555 -0.0646  0.5604
 3198TIP3    H1 9558   4.337   2.834   2.517  0.8294  2.6704 -0.0854
 3198TIP3    H2 9559   4.218   2.926   2.501 -1.5293 -0.2962 -0.4619
 3199TIP3   OH2 9560   3.241   3.992   3.465 -0.4448  0.2256  0.0107
 3199TIP3    H1 9561   3.170   3.953   3.415  0.4611  0.1009 -1.2317
 3199TIP3    H2 9562   3.314   3.930   3.457  0.6221  1.5464 -0.9685
 3200TIP3   OH2 9563   3.823   2.463   2.443 -0.3972 -0.1578 -0.3113
 3200TIP3    H1 9564   3.857   2.434   2.359  1.5064  0.9935  0.0022
 3200TIP3    H2 9565   3.901   2.479   2.497 -1.3511  2.9726  0.3369
 3201TIP3   OH2 9566   0.619   3.073   1.145  0.3162  0.0558 -0.8168
 3201TIP3    H1 9567   0.620   3.024   1.063  0.8899  0.7944 -1.2573
 3201TIP3    H2 9568   0.579   3.157   1.123  0.4516  0.2526 -0.3354
 3202TIP3   OH2 9569   3.624   5.559   1.659 -0.3572 -0.6048 -0.1154
 3202TIP3    H1 9570   3.611   5.558   1.564 -0.0503  0.4404 -0.1859
 3202TIP3    H2 9571   3.665   5.475   1.679 -0.9283 -1.0615 -0.8310
 3203TIP3   OH2 9572   6.466   4.933   2.037  0.0859 -0.1183  0.1522
 3203TIP3    H1 9573   6.421   4.904   2.117  0.7299 -1.0247  0.2041
 3203TIP3    H2 9574   6.559   4.914   2.054  0.1202 -1.3412 -1.2228
 3204TIP3   OH2 9575   4.234   5.895   4.859 -0.0531 -0.1725 -0.4252
 3204TIP3    H1 9576   4.173   5.829   4.890  0.8426 -0.6309  0.4052
 3204TIP3    H2 9577   4.311   5.846   4.832 -0.3131  0.3224 -2.2136
 3205TIP3   OH2 9578   6.032   3.408   3.765 -0.1797  0.3319 -0.0156
 3205TIP3    H1 9579   6.005   3.500   3.759 -0.7702  0.1666  0.0526
 3205TIP3    H2 9580   6.128   3.412   3.773  0.1782  0.8074 -3.3653
 3206TIP3   OH2 9581   4.737   2.097   1.952 -0.1203  0.2254  0.1757
 3206TIP3    H1 9582   4.714   2.013   1.912 -0.1641 -0.6340  1.9111
 3206TIP3    H2 9583   4.722   2.084   2.045 -0.5201  2.3152  0.4496
 3207TIP3   OH2 9584   5.484   5.184   3.457 -0.2843  0.7024  0.6671
 3207TIP3    H1 9585   5.508   5.092   3.443 -1.6319  0.6956 -2.2526
 3207TIP3    H2 9586   5.567   5.228   3.474  0.8298 -0.5366 -1.2533
 3208TIP3   OH2 9587   1.569   1.998   5.421  0.0953  0.4239  0.5223
 3208TIP3    H1 9588   1.638   2.017   5.358  1.4248 -1.1386  1.4222
 3208TIP3    H2 9589   1.578   1.904   5.439 -3.9098 -0.4745 -1.1999
 3209TIP3   OH2 9590   5.620   0.825   3.248  0.2030  0.4444  0.2505
 3209TIP3    H1 9591   5.642   0.848   3.157 -1.3457 -1.4062 -0.6764
 3209TIP3    H2 9592   5.694   0.771   3.277 -0.0992 -0.4799 -0.6029
 3210TIP3   OH2 9593   6.543   0.923   0.138  0.2039 -0.2824 -0.2021
 3210TIP3    H1 9594   6.477   0.860   0.111  0.4604 -1.4607  1.7122
 3210TIP3    H2 9595   6.625   0.888   0.103  0.3191 -0.9663  0.6989
 3211TIP3   OH2 9596   7.115   3.144   2.656  0.1944 -0.2216 -0.2049
 3211TIP3    H1 9597   7.124   3.226   2.608 -2.1944  0.4218  0.3162
 3211TIP3    H2 9598   7.078   3.170   2.741  0.1920 -1.7410  0.2890
 3212TIP3   OH2 9599   5.877   2.173   2.175 -0.1013 -0.0640  0.6310
 3212TIP3    H1 9600   5.812   2.116   2.215  0.4735 -1.9188 -0.9195
 3212TIP3    H2 9601   5.959   2.148   2.218  0.1806 -0.5577 -0.1780
 3213TIP3   OH2 9602   5.372   5.292   2.133 -0.1095  0.0778  0.1840
 3213TIP3    H1 9603   5.384   5.198   2.144  1.4133  0.2758  0.5287
 3213TIP3    H2 9604   5.391   5.308   2.041  2.0840  0.3165  0.6155
 3214TIP3   OH2 9605   2.104   6.612   1.176 -0.2045  0.7510 -0.0418
 3214TIP3    H1 9606   2.048   6.652   1.243 -0.9382  0.2434 -0.3484
 3214TIP3    H2 9607   2.045   6.590   1.104  0.0919 -1.2489  0.2702
 3215TIP3   OH2 9608   3.176   3.784   4.075  0.3133 -0.0302 -0.1055
 3215TIP3    H1 9609   3.119   3.723   4.121 -1.3050  1.4979  0.0103
 3215TIP3    H2 9610   3.117   3.838   4.022  1.7269  1.0443 -0.6706
 3216TIP3   OH2 9611   1.905   5.419   1.721  0.3295 -0.3268 -0.0094
 3216TIP3    H1 9612   1.939   5.430   1.632 -0.2040  0.1864 -0.1559
 3216TIP3    H2 9613   1.835   5.484   1.728  0.6225 -0.0930  0.9221
 3217TIP3   OH2 9614   2.465   4.575   0.350 -0.3758 -0.6031  0.1906
 3217TIP3    H1 9615   2.422   4.527   0.278  1.4359 -0.8154 -0.8127
 3217TIP3    H2 9616   2.394   4.619   0.395 -1.5667 -0.1365 -1.9954
 3218TIP3   OH2 9617   2.150   1.396   5.381  0.0777 -0.8757  0.0923
 3218TIP3    H1 9618   2.177   1.477   5.425 -1.0742 -0.3786 -0.0799
 3218TIP3    H2 9619   2.232   1.356   5.353  0.6525  1.1534 -1.4227
 3219TIP3   OH2 9620   1.082   1.146   2.895  0.1614  0.2183  0.1755
 3219TIP3    H1 9621   1.108   1.164   2.985 -0.9321  0.1699  0.5129
 3219TIP3    H2 9622   1.050   1.230   2.861 -1.5577 -0.2278  0.5884
 3220TIP3   OH2 9623   4.470   4.986   5.675  0.2540 -0.5233 -0.3355
 3220TIP3    H1 9624   4.563   4.970   5.687  0.5456  0.2284 -1.4982
 3220TIP3    H2 9625   4.459   4.998   5.581 -1.0438 -0.7468 -0.2302
 3221TIP3   OH2 9626   6.236   5.293   5.830  0.3727  0.3908 -0.1685
 3221TIP3    H1 9627   6.283   5.365   5.789  0.8894 -0.0552 -0.3667
 3221TIP3    H2 9628   6.191   5.332   5.905  0.2644  1.0076 -0.5495
 3222TIP3   OH2 9629   2.856   0.975   3.915  0.0973  0.0021  0.0164
 3222TIP3    H1 9630   2.808   1.056   3.933 -1.4362 -0.5538 -1.2399
 3222TIP3    H2 9631   2.907   0.994   3.837 -0.3674 -0.2638 -0.3581
 3223TIP3   OH2 9632   5.997   5.109   2.973 -0.3174  0.3321 -0.3600
 3223TIP3    H1 9633   5.942   5.113   2.895 -0.0346  2.1699 -0.5182
 3223TIP3    H2 9634   6.079   5.070   2.943 -0.6877 -0.2425 -0.6475
 3224TIP3   OH2 9635   6.460   5.823   4.119 -0.0299  0.5896  0.1615
 3224TIP3    H1 9636   6.524   5.884   4.157  2.2386 -1.0708 -0.8185
 3224TIP3    H2 9637   6.490   5.809   4.029 -1.1924 -1.0580 -0.0130
 3225TIP3   OH2 9638   0.329   4.423   5.583 -0.1663  0.2896 -0.5566
 3225TIP3    H1 9639   0.348   4.338   5.544  1.0385 -0.7618  2.0930
 3225TIP3    H2 9640   0.416   4.462   5.597 -0.2908 -0.3350  2.8354
 3226TIP3   OH2 9641   2.964   4.601   2.723  0.5892  0.1334  0.0645
 3226TIP3    H1 9642   2.995   4.686   2.755  1.4750  0.5710 -1.8063
 3226TIP3    H2 9643   2.897   4.575   2.786  1.0426  1.7047  1.2785
 3227TIP3   OH2 9644   0.474   0.406   1.701  0.4009 -0.0230 -0.2427
 3227TIP3    H1 9645   0.482   0.329   1.757  1.9220 -0.2716 -0.7410
 3227TIP3    H2 9646   0.523   0.383   1.622 -1.2404  0.5266 -1.4612
 3228TIP3   OH2 9647   4.343   2.527   4.945  0.5182 -0.2408 -0.3861
 3228TIP3    H1 9648   4.312   2.565   4.862  0.9501  0.3012 -0.3094
 3228TIP3    H2 9649   4.439   2.532   4.939  0.5510  0.7797  0.5767
 3229TIP3   OH2 9650   2.785   2.135   3.681 -0.5876  0.6072 -0.1910
 3229TIP3    H1 9651   2.714   2.121   3.743 -0.5408  1.1452 -0.0083
 3229TIP3    H2 9652   2.795   2.051   3.636 -0.5414  0.1747  0.6108
 3230TIP3   OH2 9653   4.216   0.061   1.596 -0.5826 -0.2262 -0.2420
 3230TIP3    H1 9654   4.206   0.039   1.689 -0.6472 -1.2284 -0.4828
 3230TIP3    H2 9655   4.187   0.152   1.591 -1.5003 -0.4509  0.5628
 3231TIP3   OH2 9656   0.621   3.043   1.938  0.5306 -0.1728 -0.5882
 3231TIP3    H1 9657   0.540   3.082   1.905  0.1684 -0.2275  0.2128
 3231TIP3    H2 9658   0.690   3.099   1.902  0.1329 -0.0012 -1.1054
 3232TIP3   OH2 9659   5.436   5.515   1.685 -0.0807 -0.3762  0.2851
 3232TIP3    H1 9660   5.341   5.522   1.691 -0.1110 -1.1613  0.8478
 3232TIP3    H2 9661   5.462   5.587   1.628 -0.8491  0.8488  1.4447
 3233TIP3   OH2 9662   0.554   5.134   4.364  0.4556  0.1778  0.0061
 3233TIP3    H1 9663   0.568   5.219   4.406  1.2061 -0.7040  1.6516
 3233TIP3    H2 9664   0.463   5.137   4.335  0.5478  1.6307 -0.2048
 3234TIP3   OH2 9665   5.602   3.947   4.569 -0.0427 -0.1906 -0.2915
 3234TIP3    H1 9666   5.537   3.877   4.577  0.2394 -0.6018 -1.4461
 3234TIP3    H2 9667   5.557   4.025   4.603 -1.3298 -0.3557 -1.4954
 3235TIP3   OH2 9668   3.369   5.917   2.263 -0.1153 -0.3953  0.0231
 3235TIP3    H1 9669   3.300   5.975   2.231 -0.2706 -1.2542 -1.2678
 3235TIP3    H2 9670   3.447   5.942   2.213  0.4850  0.4220  1.3179
 3236TIP3   OH2 9671   5.086   2.055   3.215  0.0057  0.7859 -0.2596
 3236TIP3    H1 9672   5.048   2.040   3.128 -2.0237  1.5798  0.4336
 3236TIP3    H2 9673   5.086   1.969   3.256 -0.6255  0.6853 -0.4540
 3237TIP3   OH2 9674   6.514   1.300   3.554  0.0211  0.0192  0.6934
 3237TIP3    H1 9675   6.561   1.237   3.499  0.0033  0.1222  0.5625
 3237TIP3    H2 9676   6.447   1.337   3.497  0.0838  0.2181  0.7492
 3238TIP3   OH2 9677   2.426   2.412   4.053 -0.0782 -0.8468  0.2386
 3238TIP3    H1 9678   2.375   2.468   4.110 -1.3099 -0.6371 -1.0311
 3238TIP3    H2 9679   2.448   2.467   3.978 -0.5496 -1.8014 -0.6118
 3239TIP3   OH2 9680   6.485   6.212   4.608  0.2564 -0.1447  0.1293
 3239TIP3    H1 9681   6.423   6.264   4.556 -0.0016 -0.3621  0.2183
 3239TIP3    H2 9682   6.438   6.191   4.688  1.3957  2.0442  1.4659
 3240TIP3   OH2 9683   4.721   2.396   0.764  0.4591 -0.5654 -0.2237
 3240TIP3    H1 9684   4.780   2.340   0.815  0.3086 -0.3372  0.2094
 3240TIP3    H2 9685   4.774   2.424   0.689  0.7344 -0.7856 -0.1140
 3241TIP3   OH2 9686   3.210   2.032   3.592  0.6189  0.1590 -0.0583
 3241TIP3    H1 9687   3.299   2.004   3.569  0.6085 -1.1236  1.3057
 3241TIP3    H2 9688   3.211   2.126   3.579  1.4787 -0.0860 -2.2653
 3242TIP3   OH2 9689   3.430   0.396   3.067 -0.2634 -0.0016 -0.3283
 3242TIP3    H1 9690   3.353   0.352   3.031 -1.8077  2.6597 -0.5605
 3242TIP3    H2 9691   3.473   0.436   2.991  0.4955 -0.1784 -0.0065
 3243TIP3   OH2 9692   3.804   1.582   4.283 -0.0988  0.1183 -0.0173
 3243TIP3    H1 9693   3.862   1.530   4.228  0.5233 -1.2362  1.8528
 3243TIP3    H2 9694   3.824   1.673   4.260  1.1492 -0.3763 -0.9900
 3244TIP3   OH2 9695   6.212   1.715   1.129  0.0821  0.1260  0.2841
 3244TIP3    H1 9696   6.121   1.690   1.140  0.2447 -0.8842 -0.5140
 3244TIP3    H2 9697   6.210   1.782   1.060 -0.0349 -0.0474  0.1183
 3245TIP3   OH2 9698   2.449   1.856   0.212 -0.6538  0.4112 -0.0003
 3245TIP3    H1 9699   2.443   1.920   0.141 -0.8486  2.5221  1.8160
 3245TIP3    H2 9700   2.537   1.821   0.206 -0.5266  0.8745 -1.0136
 3246TIP3   OH2 9701   0.363   4.812   0.419  0.1630  0.2375  0.3989
 3246TIP3    H1 9702   0.337   4.835   0.330 -1.2250  2.3124  1.2584
 3246TIP3    H2 9703   0.280   4.793   0.463  0.8073 -0.4875  1.3342
 3247TIP3   OH2 9704   6.686   5.220   5.049 -0.4203  0.1192 -0.2616
 3247TIP3    H1 9705   6.765   5.249   5.096 -0.6372  0.2259  0.0406
 3247TIP3    H2 9706   6.679   5.127   5.070  0.5471 -0.2964 -1.6167
 3248TIP3   OH2 9707   5.215   1.250   5.278 -0.0946  0.0494 -0.4644
 3248TIP3    H1 9708   5.218   1.160   5.310  0.3546  0.1532 -0.2050
 3248TIP3    H2 9709   5.216   1.304   5.357 -0.9903  0.2750 -0.6007
 3249TIP3   OH2 9710   0.859   5.032   1.851  0.2179  0.1511  0.1004
 3249TIP3    H1 9711   0.942   5.079   1.861  1.1869 -0.9528 -1.8982
 3249TIP3    H2 9712   0.813   5.079   1.782  0.1066 -0.3751 -0.1945
 3250TIP3   OH2 9713   1.569   3.212   0.470  0.0954 -0.1105 -0.7672
 3250TIP3    H1 9714   1.589   3.271   0.543 -2.9231 -1.2632  1.2076
 3250TIP3    H2 9715   1.654   3.191   0.431  1.7406  1.3489  1.7594
 3251TIP3   OH2 9716   6.286   5.304   4.306  0.0030 -0.3905  0.2809
 3251TIP3    H1 9717   6.219   5.363   4.270  1.2336  0.8157 -0.1173
 3251TIP3    H2 9718   6.352   5.363   4.342  0.5854 -1.5678  1.1765
 3252TIP3   OH2 9719   2.335   5.469   0.610  0.4056  0.0110  0.7449
 3252TIP3    H1 9720   2.389   5.546   0.595 -0.7465  0.7339  0.2595
 3252TIP3    H2 9721   2.268   5.498   0.672  0.7637 -0.9781  1.6360
 3253TIP3   OH2 9722   2.613   4.196   4.913 -0.2392  0.7345 -0.5316
 3253TIP3    H1 9723   2.620   4.287   4.886 -1.7491  0.8676 -0.5428
 3253TIP3    H2 9724   2.585   4.200   5.005  3.2110  0.2693  0.7123
 3254TIP3   OH2 9725   6.923   0.921   0.457  0.0813 -0.5486  0.3717
 3254TIP3    H1 9726   6.839   0.889   0.425  0.3247 -1.1465  0.3116
 3254TIP3    H2 9727   6.906   1.011   0.486 -0.0271  0.2637 -1.9900
 3255TIP3   OH2 9728   7.114   0.985   5.028 -0.2706  0.1954 -0.4964
 3255TIP3    H1 9729   7.133   1.075   5.002 -1.0925 -0.2728 -2.9628
 3255TIP3    H2 9730   7.061   0.950   4.957 -2.4223 -1.3872  1.7149
 3256TIP3   OH2 9731   5.261   2.986   2.818 -0.3045 -0.2035  0.5306
 3256TIP3    H1 9732   5.284   2.900   2.853  0.3710 -0.0451  0.4930
 3256TIP3    H2 9733   5.304   2.989   2.733  0.3009  0.4546  0.8487
 3257TIP3   OH2 9734   5.399   1.355   0.635 -0.1375  0.4108 -0.5676
 3257TIP3    H1 9735   5.363   1.443   0.637 -1.4706 -0.0817 -1.4015
 3257TIP3    H2 9736   5.471   1.359   0.572 -0.4244  0.8150 -0.8716
 3258TIP3   OH2 9737   6.139   2.552   3.610 -0.3503 -0.4267 -0.2369
 3258TIP3    H1 9738   6.174   2.616   3.672  0.3439  1.8456 -2.7779
 3258TIP3    H2 9739   6.068   2.599   3.566  0.7404 -1.0099 -2.7972
 3259TIP3   OH2 9740   4.824   2.443   1.129 -0.0380  0.0250  0.5436
 3259TIP3    H1 9741   4.907   2.450   1.177 -0.2323  2.0399  0.6650
 3259TIP3    H2 9742   4.843   2.480   1.043 -0.5035 -0.7109  0.1107
 3260TIP3   OH2 9743   4.138   5.730   5.667  0.3839  0.1206  0.2748
 3260TIP3    H1 9744   4.201   5.691   5.727  0.9997  1.5642  0.5992
 3260TIP3    H2 9745   4.130   5.666   5.596  1.8720 -0.3040  0.4539
 3261TIP3   OH2 9746   1.841   4.714   5.548 -0.4473  0.6295  0.4024
 3261TIP3    H1 9747   1.775   4.738   5.482 -2.3505 -0.6357  1.7564
 3261TIP3    H2 9748   1.873   4.798   5.581  0.0854  1.2829 -1.6179
 3262TIP3   OH2 9749   0.689   6.722   3.556  0.6137 -0.2930  0.1868
 3262TIP3    H1 9750   0.679   6.681   3.642 -1.6867  0.7495  0.5048
 3262TIP3    H2 9751   0.693   6.816   3.574 -1.0822  0.0243 -0.8519
 3263TIP3   OH2 9752   7.005   2.935   4.613  0.2152  0.2267  0.4838
 3263TIP3    H1 9753   6.969   3.019   4.582 -1.0493 -0.7321 -0.7494
 3263TIP3    H2 9754   7.073   2.961   4.675  0.3956  2.1869 -0.4346
 3264TIP3   OH2 9755   2.931   4.701   4.472  0.4320 -0.4820 -0.2258
 3264TIP3    H1 9756   2.959   4.613   4.447  1.3469 -0.2815  0.0561
 3264TIP3    H2 9757   2.960   4.710   4.562 -0.3524 -0.1669  0.0030
 3265TIP3   OH2 9758   0.658   4.316   0.691  0.3389  0.0508 -0.2830
 3265TIP3    H1 9759   0.579   4.321   0.745  0.5895  1.9908 -0.0111
 3265TIP3    H2 9760   0.626   4.294   0.603 -0.2721 -1.1641  0.2272
 3266TIP3   OH2 9761   6.168   3.190   0.397  0.1397 -0.1005 -0.0794
 3266TIP3    H1 9762   6.081   3.228   0.412  0.3983  1.0611 -1.2804
 3266TIP3    H2 9763   6.222   3.265   0.372  1.1220 -1.0182 -0.7829
 3267TIP3   OH2 9764   5.557   6.522   5.764 -0.0028 -0.3027 -0.1563
 3267TIP3    H1 9765   5.499   6.569   5.825  1.2063 -0.6495  1.3149
 3267TIP3    H2 9766   5.621   6.588   5.737  0.7004 -0.6519  0.6061
 3268TIP3   OH2 9767   0.423   6.762   0.291 -0.1645  0.1641  0.2855
 3268TIP3    H1 9768   0.342   6.789   0.334 -0.4193 -0.5705  0.2692
 3268TIP3    H2 9769   0.394   6.707   0.218  0.3647 -0.3690  0.4743
 3269TIP3   OH2 9770   0.819   0.765   0.554  0.7120  0.0310  0.4342
 3269TIP3    H1 9771   0.909   0.766   0.522  0.3960  2.2931 -0.5444
 3269TIP3    H2 9772   0.770   0.719   0.486  0.7541  0.9289 -0.2164
 3270TIP3   OH2 9773   1.155   5.497   5.060 -0.0512  0.4649 -0.5871
 3270TIP3    H1 9774   1.140   5.577   5.111  0.7027 -1.2452  2.6057
 3270TIP3    H2 9775   1.106   5.511   4.979  0.1826  4.1734 -0.2686
 3271TIP3   OH2 9776   5.951   4.330   0.695  0.1350 -0.1933  0.1747
 3271TIP3    H1 9777   6.006   4.398   0.735  0.8753 -0.8609  0.3136
 3271TIP3    H2 9778   5.972   4.251   0.744  0.1694 -0.7774 -0.7793
 3272TIP3   OH2 9779   4.360   2.601   3.344  0.0033  0.5707  0.0675
 3272TIP3    H1 9780   4.325   2.514   3.324  2.2001 -0.1875 -0.6976
 3272TIP3    H2 9781   4.338   2.614   3.437 -2.8985  0.5145 -0.5136
 3273TIP3   OH2 9782   4.301   5.243   4.348 -1.1631 -0.2009  0.0283
 3273TIP3    H1 9783   4.291   5.148   4.339 -1.0673 -0.1989 -0.1095
 3273TIP3    H2 9784   4.271   5.262   4.437 -1.6358 -0.2977 -0.1064
 3274TIP3   OH2 9785   2.835   6.624   4.779 -0.1579  0.7357  0.0829
 3274TIP3    H1 9786   2.818   6.617   4.873 -2.8933 -3.2792 -0.4586
 3274TIP3    H2 9787   2.926   6.597   4.769 -0.2795 -0.3475  1.5266
 3275TIP3   OH2 9788   1.739   4.807   5.110  0.0657  0.2242  0.2223
 3275TIP3    H1 9789   1.668   4.816   5.173  1.1290 -2.3542  1.9208
 3275TIP3    H2 9790   1.784   4.892   5.112 -2.1916  1.4986 -0.0489
 3276TIP3   OH2 9791   5.703   4.180   0.607  0.2381 -0.1794 -0.4137
 3276TIP3    H1 9792   5.682   4.262   0.651  0.1308 -0.1055 -0.6035
 3276TIP3    H2 9793   5.796   4.166   0.625  0.5129  0.5215 -1.2701
 3277TIP3   OH2 9794   6.078   3.170   4.301 -0.5000  0.2088 -0.1169
 3277TIP3    H1 9795   6.102   3.262   4.311  3.9032 -0.4816 -1.8279
 3277TIP3    H2 9796   6.156   3.122   4.329 -1.6152 -2.8861 -1.8153
 3278TIP3   OH2 9797   3.023   3.998   1.021  0.4454 -0.4868 -0.2486
 3278TIP3    H1 9798   3.117   3.995   1.004  0.3637 -2.5886 -0.5596
 3278TIP3    H2 9799   2.994   4.079   0.978  2.0546  0.0999 -0.3039
 3279TIP3   OH2 9800   1.152   5.012   2.365  0.3038 -0.3767  0.4815
 3279TIP3    H1 9801   1.244   4.998   2.388 -0.2994 -2.4237  2.0233
 3279TIP3    H2 9802   1.138   4.957   2.288  0.0903 -1.1440  1.0522
 3280TIP3   OH2 9803   1.718   0.674   3.431  0.6205  0.3988 -0.2846
 3280TIP3    H1 9804   1.733   0.615   3.357  1.6432  0.8795 -0.4729
 3280TIP3    H2 9805   1.671   0.748   3.393  1.8664  1.0236 -0.6235
 3281TIP3   OH2 9806   0.091   2.337   1.931 -0.4236 -0.6493  0.4829
 3281TIP3    H1 9807   0.014   2.347   1.987 -1.3353  0.8688 -0.9909
 3281TIP3    H2 9808   0.153   2.402   1.964  0.7744 -2.6046  2.3900
 3282TIP3   OH2 9809   6.373   4.397   1.364 -0.0481  0.1317 -0.0012
 3282TIP3    H1 9810   6.356   4.322   1.307  1.0311 -0.4439  0.4057
 3282TIP3    H2 9811   6.455   4.375   1.408 -0.3789  0.9862  1.0757
 3283TIP3   OH2 9812   2.423   4.630   5.067  0.5394  0.0871 -0.0697
 3283TIP3    H1 9813   2.338   4.674   5.068 -0.1990 -1.2665 -0.8120
 3283TIP3    H2 9814   2.405   4.542   5.098  1.9067  0.1313  0.9358
 3284TIP3   OH2 9815   4.396   6.583   2.430  0.2231  0.4113 -0.3818
 3284TIP3    H1 9816   4.426   6.666   2.392  1.8210  1.7756  3.3553
 3284TIP3    H2 9817   4.308   6.602   2.463  0.8945  0.9869  1.1895
 3285TIP3   OH2 9818   0.992   6.647   3.649 -0.0891  0.3640  0.2037
 3285TIP3    H1 9819   1.047   6.595   3.590 -1.8251 -0.0118 -1.1803
 3285TIP3    H2 9820   1.030   6.735   3.645  0.4932  0.0913 -0.6150
 3286TIP3   OH2 9821   4.894   6.364   0.505 -0.1953  0.6371  0.5106
 3286TIP3    H1 9822   4.857   6.448   0.532 -0.4057  1.2579 -1.4909
 3286TIP3    H2 9823   4.983   6.385   0.476  0.6505 -0.2963  2.2939
 3287TIP3   OH2 9824   1.776   1.716   1.784  0.2081  0.4467 -0.3206
 3287TIP3    H1 9825   1.800   1.804   1.812  1.3922  0.9544 -2.6715
 3287TIP3    H2 9826   1.801   1.660   1.857  1.2064  1.8560  0.4762
 3288TIP3   OH2 9827   0.780   1.898   3.689 -0.5001  0.3150 -0.0979
 3288TIP3    H1 9828   0.755   1.961   3.621  1.4146  1.1397 -0.1094
 3288TIP3    H2 9829   0.867   1.868   3.662 -1.1550 -1.9993  0.1717
 3289TIP3   OH2 9830   5.333   4.554   3.140 -0.1444 -0.3675 -0.3403
 3289TIP3    H1 9831   5.400   4.596   3.086 -0.8360  0.4452 -0.5978
 3289TIP3    H2 9832   5.371   4.470   3.166  1.0445  0.1561 -0.3205
 3290TIP3   OH2 9833   5.854   3.144   2.657  0.4482 -0.1791  0.5665
 3290TIP3    H1 9834   5.772   3.107   2.688  0.4855 -0.2286  0.6065
 3290TIP3    H2 9835   5.830   3.231   2.624  0.2772 -0.4395  0.0046
 3291TIP3   OH2 9836   3.182   0.516   1.802 -0.1720 -0.3636 -0.2004
 3291TIP3    H1 9837   3.100   0.515   1.853  0.8836  0.3039  1.6209
 3291TIP3    H2 9838   3.228   0.436   1.830 -0.1217 -0.6618 -1.1081
 3292TIP3   OH2 9839   3.400   4.274   1.082 -0.2564  0.5124 -0.5942
 3292TIP3    H1 9840   3.315   4.303   1.050 -1.1431 -1.8326 -0.5278
 3292TIP3    H2 9841   3.460   4.292   1.010 -1.2071  0.2970 -1.4646
 3293TIP3   OH2 9842   5.976   4.540   3.971 -0.0250 -0.1330 -0.1080
 3293TIP3    H1 9843   6.051   4.506   3.922 -0.3731 -1.9037  0.5378
 3293TIP3    H2 9844   5.974   4.490   4.052 -1.3546  0.5350  0.3168
 3294TIP3   OH2 9845   7.031   1.556   0.605  0.3318 -0.2516  0.6359
 3294TIP3    H1 9846   7.056   1.490   0.541 -2.3403 -0.6182 -0.1631
 3294TIP3    H2 9847   6.949   1.523   0.643  0.2206  1.4412  1.9881
 3295TIP3   OH2 9848   0.106   1.928   0.102  0.2598  0.1676  0.3732
 3295TIP3    H1 9849   0.096   2.023   0.096 -1.4411  0.0649  1.1162
 3295TIP3    H2 9850   0.200   1.915   0.118  0.6485  1.6620 -0.4894
 3296TIP3   OH2 9851   6.923   2.523   3.072 -0.3535  0.0972  0.0835
 3296TIP3    H1 9852   6.897   2.485   3.156 -1.0576  0.6118  0.1095
 3296TIP3    H2 9853   6.849   2.502   3.014  0.3574 -0.7211 -0.5587
 3297TIP3   OH2 9854   3.317   4.079   4.601 -0.2416 -0.5342  0.1683
 3297TIP3    H1 9855   3.228   4.065   4.567 -0.2235 -0.6255  0.1563
 3297TIP3    H2 9856   3.310   4.156   4.657 -0.2473 -0.3150 -0.1316
 3298TIP3   OH2 9857   1.045   4.899   4.894 -0.6610 -0.0538 -0.5864
 3298TIP3    H1 9858   1.050   4.882   4.800 -0.1738 -1.8810 -0.2743
 3298TIP3    H2 9859   0.988   4.830   4.928  1.5318 -1.3001  0.8249
 3299TIP3   OH2 9860   3.474   6.240   3.820  0.0905 -0.0075 -0.2242
 3299TIP3    H1 9861   3.543   6.230   3.755  1.2632 -0.6332  1.0708
 3299TIP3    H2 9862   3.473   6.334   3.841 -0.3605  0.2128 -1.1783
 3300TIP3   OH2 9863   2.344   2.026   5.863 -0.4156  0.5820  0.2709
 3300TIP3    H1 9864   2.329   1.932   5.858  0.1500  0.4746  0.5144
 3300TIP3    H2 9865   2.401   2.045   5.788 -0.3564  0.6945  0.3447
 3301TIP3   OH2 9866   5.354   1.681   3.099 -0.3589  0.3715 -0.3549
 3301TIP3    H1 9867   5.305   1.724   3.029  0.5762  0.2489 -1.1060
 3301TIP3    H2 9868   5.309   1.707   3.179 -1.9882 -0.1636 -1.0332
 3302TIP3   OH2 9869   5.405   3.990   1.166 -0.4973 -0.4618 -0.2247
 3302TIP3    H1 9870   5.374   4.055   1.229  0.5484  1.1624 -1.2944
 3302TIP3    H2 9871   5.327   3.968   1.114 -0.6864  0.6797 -0.4514
 3303TIP3   OH2 9872   3.607   2.206   3.548  0.1224  0.1167  0.5254
 3303TIP3    H1 9873   3.555   2.275   3.589  1.6750  1.6287  0.0628
 3303TIP3    H2 9874   3.551   2.129   3.551 -3.1469  2.1141 -1.9335
 3304TIP3   OH2 9875   3.712   1.689   2.512  0.7775  0.4742  0.1419
 3304TIP3    H1 9876   3.725   1.652   2.600  1.9996  0.8204  0.1331
 3304TIP3    H2 9877   3.801   1.711   2.483  0.1748  2.7338 -0.1464
 3305TIP3   OH2 9878   4.121   6.270   2.483  0.0395 -0.1995 -0.3109
 3305TIP3    H1 9879   4.202   6.221   2.492 -0.7412 -1.7644 -1.3236
 3305TIP3    H2 9880   4.091   6.251   2.394  0.0033  2.6669 -1.0152
 3306TIP3   OH2 9881   0.493   0.241   5.406 -0.7508  0.0169  0.3439
 3306TIP3    H1 9882   0.537   0.275   5.328 -2.4928 -2.8257 -2.0676
 3306TIP3    H2 9883   0.564   0.223   5.468  0.9234  0.5126 -1.3440
 3307TIP3   OH2 9884   2.507   5.008   2.523  0.4887 -0.0879 -0.8097
 3307TIP3    H1 9885   2.443   4.953   2.568  1.3627 -0.1575  0.4230
 3307TIP3    H2 9886   2.466   5.030   2.440 -1.2600  0.1268  0.0563
 3308TIP3   OH2 9887   0.661   0.893   4.500 -0.3602  0.3196  0.3321
 3308TIP3    H1 9888   0.660   0.989   4.496  1.5060  0.3607 -0.4136
 3308TIP3    H2 9889   0.690   0.866   4.413 -2.0620 -1.0079  0.1406
 3309TIP3   OH2 9890   5.134   0.876   1.933  0.3907 -0.2857  0.2288
 3309TIP3    H1 9891   5.124   0.921   2.017 -1.4955  0.0084 -0.1146
 3309TIP3    H2 9892   5.168   0.942   1.873  0.0947 -0.0229  0.3508
 3310TIP3   OH2 9893   1.085   0.196   1.059 -0.6453  0.4804  0.4181
 3310TIP3    H1 9894   1.144   0.191   0.984  0.7172 -0.0532  1.4581
 3310TIP3    H2 9895   0.997   0.194   1.022 -0.0105  0.4117 -1.1521
 3311TIP3   OH2 9896   5.378   5.782   4.293  0.6914  0.5478 -0.0674
 3311TIP3    H1 9897   5.471   5.798   4.309  0.9523 -0.7882 -0.1821
 3311TIP3    H2 9898   5.377   5.718   4.222 -0.3273  0.5971 -0.1066
 3312TIP3   OH2 9899   2.087   2.537   5.278  0.2051  0.2598 -0.0146
 3312TIP3    H1 9900   2.014   2.564   5.334 -0.2571  0.3585 -0.6532
 3312TIP3    H2 9901   2.055   2.457   5.235  0.7210 -0.0569  0.1846
 3313TIP3   OH2 9902   5.684   0.806   2.116  0.5508  0.0756 -0.5761
 3313TIP3    H1 9903   5.611   0.853   2.075 -0.9095 -0.4749  1.2560
 3313TIP3    H2 9904   5.642   0.738   2.169  2.2700  0.8122  1.9230
 3314TIP3   OH2 9905   6.775   3.716   4.572  0.1698 -0.0773  0.9431
 3314TIP3    H1 9906   6.825   3.720   4.653  0.0858 -1.1256  1.0573
 3314TIP3    H2 9907   6.841   3.699   4.504  0.4817  2.4942  0.5128
 3315TIP3   OH2 9908   3.024   4.835   3.824 -0.4747 -0.4876  0.3185
 3315TIP3    H1 9909   3.064   4.898   3.884  0.4595 -1.1393  0.3921
 3315TIP3    H2 9910   2.930   4.839   3.845 -0.2867  0.0316  1.1189
 3316TIP3   OH2 9911   2.458   0.819   0.582 -0.0243 -0.0676  0.1741
 3316TIP3    H1 9912   2.381   0.780   0.624  0.5317  0.4338  1.7362
 3316TIP3    H2 9913   2.435   0.911   0.571  1.0821  0.5943  2.6691
 3317TIP3   OH2 9914   2.803   4.505   2.217  0.2568  0.0060  0.6841
 3317TIP3    H1 9915   2.781   4.544   2.133  0.2389 -0.8601  0.2761
 3317TIP3    H2 9916   2.718   4.480   2.255  0.2973 -0.1022  0.7057
 3318TIP3   OH2 9917   3.941   3.060   5.309  0.1256  0.4233 -0.2810
 3318TIP3    H1 9918   3.912   3.061   5.218 -0.8594 -1.5858 -0.0289
 3318TIP3    H2 9919   3.977   3.148   5.323 -1.1095  1.2968 -2.1374
 3319TIP3   OH2 9920   2.335   0.319   1.197 -0.0179 -0.4321  0.1410
 3319TIP3    H1 9921   2.352   0.227   1.218  2.1188  0.1390  1.2386
 3319TIP3    H2 9922   2.279   0.350   1.268 -0.3082 -0.7551  0.0539
 3320TIP3   OH2 9923   6.185   1.873   3.326 -0.0015 -0.2482 -0.0125
 3320TIP3    H1 9924   6.241   1.846   3.399 -0.5989  0.4082  0.7155
 3320TIP3    H2 9925   6.162   1.792   3.282  0.4126 -0.6509  0.5051
 3321TIP3   OH2 9926   0.818   0.030   1.064 -0.3446 -0.0443  0.0687
 3321TIP3    H1 9927   0.775  -0.045   1.105 -2.1575 -0.4212 -2.3374
 3321TIP3    H2 9928   0.760   0.104   1.082  0.5404  0.4841  0.9092
 3322TIP3   OH2 9929   0.315   2.618   5.382  0.2702  0.5302 -0.6932
 3322TIP3    H1 9930   0.336   2.591   5.471  0.8216 -1.0771 -1.2852
 3322TIP3    H2 9931   0.242   2.679   5.393 -0.9650 -1.1093  0.7422
 3323TIP3   OH2 9932   5.241   0.626   3.973  0.1147  0.5325 -0.0020
 3323TIP3    H1 9933   5.217   0.718   3.988 -1.2202  0.2830 -0.5329
 3323TIP3    H2 9934   5.184   0.577   4.032  0.0342 -0.0194 -0.5379
 3324TIP3   OH2 9935   2.795   1.014   1.492 -0.4059 -0.5429  0.1636
 3324TIP3    H1 9936   2.825   1.055   1.412 -1.0512 -1.5263 -0.6046
 3324TIP3    H2 9937   2.871   1.017   1.551  0.1194  0.0343 -0.5294
 3325TIP3   OH2 9938   5.911   3.854   4.309 -0.5282 -0.0127 -0.1555
 3325TIP3    H1 9939   5.937   3.819   4.224 -0.6597  0.2752 -0.3163
 3325TIP3    H2 9940   5.978   3.919   4.330  1.6130 -2.6111  1.6807
 3326TIP3   OH2 9941   4.089   0.526   5.822 -0.2789  0.0355 -0.0972
 3326TIP3    H1 9942   4.148   0.452   5.807  0.7575  1.0907 -1.4975
 3326TIP3    H2 9943   4.109   0.588   5.752 -0.7792  1.8639  1.2856
 3327TIP3   OH2 9944   5.189   2.109   1.740 -0.0450 -0.5439  0.6137
 3327TIP3    H1 9945   5.217   2.165   1.668 -2.2698 -1.3500 -0.9850
 3327TIP3    H2 9946   5.103   2.144   1.765 -0.4881 -1.8939  1.0519
 3328TIP3   OH2 9947   0.255   0.471   0.136 -0.8046  0.1698  0.3839
 3328TIP3    H1 9948   0.344   0.489   0.166  0.3181 -0.5551 -2.1446
 3328TIP3    H2 9949   0.212   0.556   0.132  0.6901  0.9172 -0.7901
 3329TIP3   OH2 9950   5.475   2.372   0.180  0.5188 -0.0566  0.2483
 3329TIP3    H1 9951   5.502   2.361   0.089  0.3369 -0.0860  0.1963
 3329TIP3    H2 9952   5.486   2.466   0.197  1.6454 -0.2350  0.5545
 3330TIP3   OH2 9953   0.655   6.588   5.849  0.1393  0.3227  0.0206
 3330TIP3    H1 9954   0.576   6.639   5.830 -0.1580 -0.9546 -2.6074
 3330TIP3    H2 9955   0.724   6.653   5.863 -1.0896  1.4413  1.2189
 3331TIP3   OH2 9956   6.856   1.241   5.098 -0.8162  0.0716  0.0254
 3331TIP3    H1 9957   6.782   1.181   5.093 -0.8558  0.1857 -0.8699
 3331TIP3    H2 9958   6.897   1.237   5.011 -0.2765  0.6452  0.2443
 3332TIP3   OH2 9959   3.284   1.182   4.689 -0.6187 -0.6240 -0.0898
 3332TIP3    H1 9960   3.279   1.166   4.783  3.0980  1.1140  0.5824
 3332TIP3    H2 9961   3.369   1.148   4.663 -0.9779  0.1388 -2.5627
 3333TIP3   OH2 9962   4.746   0.665   2.500 -0.0478  0.1558  0.5060
 3333TIP3    H1 9963   4.704   0.736   2.548 -1.6796 -1.3037  1.3321
 3333TIP3    H2 9964   4.717   0.585   2.544 -0.9911 -1.2372 -2.3771
 3334TIP3   OH2 9965   3.319   3.775   2.133  0.0819 -0.2055  0.4643
 3334TIP3    H1 9966   3.287   3.721   2.205  0.7861  0.1296  1.0402
 3334TIP3    H2 9967   3.388   3.722   2.093  1.7626  0.8062  1.9141
 3335TIP3   OH2 9968   0.362   3.875   0.101  0.1783  0.3303 -0.4496
 3335TIP3    H1 9969   0.321   3.954   0.065  0.3605  1.1643  1.1103
 3335TIP3    H2 9970   0.426   3.908   0.164  0.6589 -1.0545 -0.1896
 3336TIP3   OH2 9971   4.145   1.937   5.684  0.1567 -0.2658  0.2479
 3336TIP3    H1 9972   4.177   1.882   5.612  0.9452  0.5383 -0.0363
 3336TIP3    H2 9973   4.088   1.879   5.734 -1.0934 -0.6105 -1.4837
 3337TIP3   OH2 9974   4.588   1.956   0.937 -0.2366  0.2890 -0.4256
 3337TIP3    H1 9975   4.593   2.041   0.981  1.5020 -0.9268  1.9368
 3337TIP3    H2 9976   4.657   1.959   0.871  1.4578 -0.0522  1.2475
 3338TIP3   OH2 9977   3.809   5.919   2.566 -0.0137  0.0937  0.0801
 3338TIP3    H1 9978   3.864   5.982   2.613  1.9891 -0.9753 -0.7407
 3338TIP3    H2 9979   3.811   5.840   2.621  0.0831 -0.2752 -0.4528
 3339TIP3   OH2 9980   6.071   0.450   3.476  0.6760  0.1374 -0.5041
 3339TIP3    H1 9981   6.099   0.380   3.416  0.6408  1.1696 -1.7774
 3339TIP3    H2 9982   6.144   0.512   3.476  1.4226 -0.6622  1.9368
 3340TIP3   OH2 9983   0.543   4.418   2.295  0.0408 -0.2255  0.2417
 3340TIP3    H1 9984   0.562   4.510   2.275 -0.7980  0.3166  1.7216
 3340TIP3    H2 9985   0.592   4.369   2.230  0.2248  1.2773 -0.8191
 3341TIP3   OH2 9986   5.325   5.691   2.491  0.1749 -0.2218  0.0422
 3341TIP3    H1 9987   5.353   5.603   2.467 -1.9522 -1.2283  1.0151
 3341TIP3    H2 9988   5.326   5.692   2.586  0.3344  0.8989  0.0502
 3342TIP3   OH2 9989   5.740   0.844   2.526 -0.2999  0.2744 -0.0103
 3342TIP3    H1 9990   5.778   0.758   2.509 -0.9682 -0.4647  1.8993
 3342TIP3    H2 9991   5.650   0.838   2.492 -0.0201  0.5912 -0.8171
 3343TIP3   OH2 9992   3.251   4.693   3.927 -0.1815 -0.3733 -0.2077
 3343TIP3    H1 9993   3.224   4.712   4.017 -2.6407 -1.9194 -0.5143
 3343TIP3    H2 9994   3.175   4.716   3.873  0.5270 -1.2557 -1.6639
 3344TIP3   OH2 9995   0.370   2.989   1.292  0.0353 -0.1663 -0.0065
 3344TIP3    H1 9996   0.317   3.063   1.262  0.7333  0.5986  0.5737
 3344TIP3    H2 9997   0.457   3.005   1.255 -0.0196 -1.1969 -0.6255
 3345TIP3   OH2 9998   6.473   2.027   3.233  0.2610  0.4042  0.2128
 3345TIP3    H1 9999   6.493   2.073   3.151  1.1811  0.3887  0.4226
 3345TIP3    H210000   6.411   2.084   3.277 -0.6299  0.1869 -0.7033
 3346TIP3   OH210001   6.031   2.665   4.366 -0.1908  0.1177  0.4529
 3346TIP3    H110002   6.102   2.665   4.301 -0.9994 -0.3530 -0.4561
 3346TIP3    H210003   6.040   2.749   4.410  1.7388 -0.4522  1.2831
 3347TIP3   OH210004   3.175   3.604   1.873 -0.1086 -0.0923  0.1585
 3347TIP3    H110005   3.185   3.634   1.963  0.1885 -1.2124  0.5157
 3347TIP3    H210006   3.229   3.665   1.822 -0.7991  0.9486  0.6379
 3348TIP3   OH210007   7.031   1.740   4.151 -0.3589  0.1065  0.3217
 3348TIP3    H110008   6.966   1.679   4.117 -0.9028  0.5766  0.5011
 3348TIP3    H210009   7.075   1.692   4.221  1.4047 -1.2005 -1.5631
 3349TIP3   OH210010   2.960   1.096   3.705 -0.1557  0.1620  0.1870
 3349TIP3    H110011   2.964   1.186   3.739  0.3091 -0.1688  1.0501
 3349TIP3    H210012   3.009   1.099   3.623  1.1529  0.3931  0.9471
 3350TIP3   OH210013   2.859   4.149   3.424 -0.4669  0.5615 -0.1804
 3350TIP3    H110014   2.861   4.098   3.343  1.2659  1.7335 -0.9383
 3350TIP3    H210015   2.946   4.188   3.430 -0.4710  0.3669  2.3699
 3351TIP3   OH210016   2.229   3.925   3.052  0.4035  0.6362 -0.3132
 3351TIP3    H110017   2.280   3.846   3.036  2.0107  1.7702 -1.0872
 3351TIP3    H210018   2.191   3.912   3.139  0.3254 -1.1192 -0.5786
 3352TIP3   OH210019   6.744   2.234   0.372  0.0819  0.5316 -0.3073
 3352TIP3    H110020   6.751   2.327   0.349 -0.9190  0.6631 -0.1303
 3352TIP3    H210021   6.650   2.217   0.371  0.2097 -0.2530  0.5824
 3353TIP3   OH210022   1.870   2.245   4.416  0.3346 -0.2132  0.3000
 3353TIP3    H110023   1.944   2.241   4.355 -0.3607 -0.7879 -0.5364
 3353TIP3    H210024   1.841   2.154   4.425 -0.8048  0.0949 -0.0750
 3354TIP3   OH210025   5.862   1.022   2.079  0.7769 -0.5410 -0.1030
 3354TIP3    H110026   5.853   1.056   2.169  0.5841  0.2951 -0.4290
 3354TIP3    H210027   5.830   0.932   2.085  0.3328 -0.3501  0.5748
 3355TIP3   OH210028   4.280   4.019   3.513  0.5425  0.2411 -0.4137
 3355TIP3    H110029   4.201   4.047   3.469  1.7106  1.6142 -1.7208
 3355TIP3    H210030   4.297   3.931   3.479  0.1386  0.3500 -0.8982
 3356TIP3   OH210031   4.877   1.930   4.650 -0.0092 -0.5173 -0.2328
 3356TIP3    H110032   4.804   1.934   4.712 -0.6002  1.6604 -0.9939
 3356TIP3    H210033   4.945   1.984   4.689  1.1202 -2.2168  0.2826
 3357TIP3   OH210034   5.773   6.683   5.698 -0.7490  0.0376  0.3014
 3357TIP3    H110035   5.829   6.605   5.701 -2.5964 -1.4142 -0.4194
 3357TIP3    H210036   5.754   6.695   5.605 -0.3586  1.4750  0.3900
 3358TIP3   OH210037   0.933   0.649   0.845 -0.0155  1.0155  0.1550
 3358TIP3    H110038   0.971   0.596   0.776  0.3794  0.7449  0.5700
 3358TIP3    H210039   0.869   0.705   0.801 -2.5449 -1.7142  0.0280
 3359TIP3   OH210040   1.826   0.192   4.145  0.3403  0.5860  0.5370
 3359TIP3    H110041   1.771   0.171   4.221 -0.9192  1.5732 -0.0517
 3359TIP3    H210042   1.784   0.146   4.072 -0.5670  2.3893 -0.1673
 3360TIP3   OH210043   0.798   4.863   4.568  0.0048  0.6130 -0.2897
 3360TIP3    H110044   0.869   4.819   4.614 -1.7271 -1.5555  0.4505
 3360TIP3    H210045   0.792   4.949   4.610  2.1536  0.8526 -0.3813
 3361TIP3   OH210046   0.051   3.191   4.192  0.0902 -0.2881  0.4104
 3361TIP3    H110047   0.091   3.272   4.222  0.5074 -0.3917  0.1496
 3361TIP3    H210048   0.015   3.212   4.106 -0.6258 -0.1343  0.7429
 3362TIP3   OH210049   1.028   4.259   5.061 -0.2682  0.2388  0.1596
 3362TIP3    H110050   0.961   4.320   5.092 -0.1057  0.3309  0.3256
 3362TIP3    H210051   1.110   4.306   5.069 -0.0556 -0.2449  0.9521
 3363TIP3   OH210052   0.661   0.032   3.963 -0.1876  0.0991 -0.3522
 3363TIP3    H110053   0.620   0.026   3.876  0.3570  0.0557 -0.6126
 3363TIP3    H210054   0.587   0.033   4.024 -0.6656  1.5606 -0.8842
 3364TIP3   OH210055   4.080   4.101   3.349 -0.4482 -0.0873 -0.0825
 3364TIP3    H110056   3.994   4.138   3.329 -0.3429  0.0353 -0.3087
 3364TIP3    H210057   4.134   4.123   3.274 -0.4304 -0.8645 -0.3115
 3365TIP3   OH210058   5.728   0.142   4.422 -0.0931  0.1576 -0.0830
 3365TIP3    H110059   5.705   0.068   4.365 -1.2595 -0.1083  0.7055
 3365TIP3    H210060   5.691   0.218   4.378  3.4335  0.8321 -2.3787
 3366TIP3   OH210061   0.988   5.817   4.841 -0.3080  0.6175 -0.2150
 3366TIP3    H110062   0.980   5.723   4.855  1.1368  0.6283  0.8886
 3366TIP3    H210063   1.049   5.826   4.768  0.9838  0.6856  0.8357
 3367TIP3   OH210064   0.991   6.673   1.882  0.0572  0.0997 -0.1061
 3367TIP3    H110065   1.044   6.670   1.803  0.8052  0.0902  0.3845
 3367TIP3    H210066   1.035   6.614   1.943 -2.0165 -2.0269 -0.5562
 3368TIP3   OH210067   4.951   5.034   4.436 -0.4224  0.1431 -0.1941
 3368TIP3    H110068   4.993   5.114   4.469 -1.5929  0.6311  0.1713
 3368TIP3    H210069   4.949   5.045   4.341  2.4965 -1.0295 -0.4763
 3369TIP3   OH210070   2.324   5.717   2.233  0.3157  0.1527  0.0707
 3369TIP3    H110071   2.327   5.642   2.292  0.9284 -2.3281 -2.8395
 3369TIP3    H210072   2.233   5.745   2.233 -0.4293 -2.0766 -0.3881
 3370TIP3   OH210073   5.386   4.335   0.194  0.1991  0.3138 -0.2265
 3370TIP3    H110074   5.357   4.351   0.283 -1.6292 -1.3769 -0.4307
 3370TIP3    H210075   5.316   4.371   0.139  1.1253  1.0141 -0.9950
 3371TIP3   OH210076   4.903   2.306   2.170 -0.0850  0.2230 -0.0700
 3371TIP3    H110077   4.869   2.332   2.084 -0.4160 -1.8676 -0.6321
 3371TIP3    H210078   4.825   2.291   2.223  0.1160  1.2021  0.5300
 3372TIP3   OH210079   1.718   0.087   0.497 -0.2324 -0.0429  0.5475
 3372TIP3    H110080   1.669   0.088   0.580 -1.2972  2.0506 -0.0325
 3372TIP3    H210081   1.810   0.095   0.524 -0.5146 -0.0021  1.5609
 3373TIP3   OH210082   0.227   4.897   2.787 -0.4867  0.1938 -0.4287
 3373TIP3    H110083   0.241   4.804   2.802 -0.1480  0.5490  1.9197
 3373TIP3    H210084   0.280   4.918   2.710  0.5895 -1.2744 -0.1331
 3374TIP3   OH210085   0.449   0.810   1.837 -0.4872  0.1861 -0.1050
 3374TIP3    H110086   0.514   0.878   1.853 -0.6787 -0.0389  2.0542
 3374TIP3    H210087   0.463   0.746   1.908 -1.4086 -1.1613 -1.0779
 3375TIP3   OH210088   2.822   4.008   0.278 -0.1449 -0.2165  0.5239
 3375TIP3    H110089   2.822   3.931   0.221 -2.6980  0.5113 -0.6196
 3375TIP3    H210090   2.877   4.071   0.232 -0.7495 -0.2472 -0.2679
 3376TIP3   OH210091   5.464   5.984   2.819 -0.5881 -0.0745 -0.2399
 3376TIP3    H110092   5.513   6.045   2.874  0.8001 -0.4500 -1.0287
 3376TIP3    H210093   5.379   6.027   2.806 -1.1532 -0.1759  2.5227
 3377TIP3   OH210094   4.222   0.388   1.699  0.1625 -0.4340  0.4038
 3377TIP3    H110095   4.256   0.472   1.730  1.6187 -0.8546  0.0229
 3377TIP3    H210096   4.288   0.357   1.637 -1.4646 -0.7938 -1.2257
 3378TIP3   OH210097   5.535   3.229   3.289  0.3162  0.1440 -0.0536
 3378TIP3    H110098   5.622   3.255   3.257  0.8331 -2.5804 -1.1811
 3378TIP3    H210099   5.477   3.300   3.261  2.1553  2.1293  0.8809
 3379TIP3   OH210100   5.547   0.626   4.691  0.1856  0.0610 -0.1155
 3379TIP3    H110101   5.623   0.577   4.660 -1.4388 -3.2269  0.6473
 3379TIP3    H210102   5.563   0.639   4.785  0.0820 -0.0585 -0.0815
 3380TIP3   OH210103   3.483   6.370   0.800 -0.0338 -0.2076 -0.4779
 3380TIP3    H110104   3.390   6.388   0.815  0.1164 -0.0285  0.2713
 3380TIP3    H210105   3.500   6.289   0.849  0.0896 -0.5255 -1.0391
 3381TIP3   OH210106   6.876   2.989   2.169  0.0391  0.2363  0.3001
 3381TIP3    H110107   6.861   3.074   2.211 -0.0325  0.1332  0.4825
 3381TIP3    H210108   6.925   3.010   2.090 -1.2461  0.6076 -0.4242
 3382TIP3   OH210109   3.105   1.797   3.462 -0.5838 -0.1468 -0.1895
 3382TIP3    H110110   3.040   1.740   3.502 -1.4958  0.8711 -0.1964
 3382TIP3    H210111   3.117   1.868   3.524  0.9413 -0.5864  0.0605
 3383TIP3   OH210112   1.179   4.950   0.387  0.0532  0.4916 -0.1845
 3383TIP3    H110113   1.145   4.931   0.299  0.0092  0.7229 -0.2160
 3383TIP3    H210114   1.262   4.903   0.391 -0.5962 -0.6769  0.1487
 3384TIP3   OH210115   0.771   5.187   3.838  0.1842 -0.5022 -0.4251
 3384TIP3    H110116   0.731   5.133   3.906 -0.7338  0.3378 -0.2731
 3384TIP3    H210117   0.701   5.200   3.774  0.0755  1.2537 -0.0028
 3385TIP3   OH210118   1.933   2.223   2.940  0.3027  0.0882 -0.8300
 3385TIP3    H110119   2.012   2.169   2.941  0.7936  0.6897  2.0845
 3385TIP3    H210120   1.890   2.204   3.024 -1.8743  0.8877 -1.7059
 3386TIP3   OH210121   4.497   4.029   4.544 -0.0736 -0.1119  0.4580
 3386TIP3    H110122   4.423   3.970   4.555 -0.8446  0.6022 -0.6517
 3386TIP3    H210123   4.458   4.110   4.511  1.0311  0.7994  1.3020
 3387TIP3   OH210124   4.051   3.370   1.243  0.0459  0.1742 -0.5385
 3387TIP3    H110125   3.980   3.306   1.239  1.7800 -1.8928 -0.0724
 3387TIP3    H210126   4.015   3.444   1.292 -1.4638 -1.2109  0.5095
 3388TIP3   OH210127   1.236   3.242   3.229  0.3716  0.2388  0.1222
 3388TIP3    H110128   1.259   3.268   3.318  1.8980 -1.9808  0.4518
 3388TIP3    H210129   1.160   3.184   3.239  1.2318 -0.9252  0.1506
 3389TIP3   OH210130   4.774   1.267   3.210 -0.2573  0.2893  0.0333
 3389TIP3    H110131   4.726   1.258   3.292  0.1096 -0.9820  0.1290
 3389TIP3    H210132   4.862   1.294   3.237 -0.4197  0.8947 -0.0242
 3390TIP3   OH210133   6.249   0.680   5.362 -0.6635 -0.2811 -0.4149
 3390TIP3    H110134   6.338   0.661   5.333 -0.4623  1.8858 -1.4188
 3390TIP3    H210135   6.252   0.667   5.457  1.3829  1.8161 -0.0894
 3391TIP3   OH210136   0.172   1.137   5.780 -0.0285  0.5494 -0.2233
 3391TIP3    H110137   0.218   1.209   5.824 -1.7951 -0.0359  2.8292
 3391TIP3    H210138   0.085   1.136   5.820 -0.4445 -2.5946 -0.9642
 3392TIP3   OH210139   5.891   1.526   0.930 -0.6321  0.2110  0.1373
 3392TIP3    H110140   5.960   1.565   0.876  0.8232  1.0668  2.4578
 3392TIP3    H210141   5.926   1.441   0.956  0.2054  1.1588  2.3420
 3393TIP3   OH210142   3.954   2.161   4.107  0.5062  0.1829  0.0044
 3393TIP3    H110143   3.874   2.179   4.155  0.0231  0.9818 -1.0595
 3393TIP3    H210144   4.019   2.141   4.175 -0.6375 -0.7555  0.8617
 3394TIP3   OH210145   2.862   6.674   5.508 -0.4671  0.5840 -0.5207
 3394TIP3    H110146   2.909   6.715   5.435 -2.4152  1.2116 -1.4760
 3394TIP3    H210147   2.916   6.597   5.530  2.0531  2.3141 -0.1945
 3395TIP3   OH210148   2.230   0.841   1.822  0.1534 -0.6477  0.1727
 3395TIP3    H110149   2.268   0.782   1.758 -1.6337 -1.0757 -0.5668
 3395TIP3    H210150   2.209   0.920   1.773 -2.1565 -1.3505 -0.0860
 3396TIP3   OH210151   6.151   1.733   4.402 -0.1586 -0.2120 -0.1131
 3396TIP3    H110152   6.087   1.663   4.384  2.0377 -1.9088 -1.9010
 3396TIP3    H210153   6.184   1.758   4.315  2.1900 -0.0378  0.7625
 3397TIP3   OH210154   3.016   4.534   1.977  0.5329  0.0219  0.2490
 3397TIP3    H110155   2.931   4.544   2.021 -0.0469  0.2140 -0.8669
 3397TIP3    H210156   2.998   4.557   1.886  2.0210  1.0696  0.1915
 3398TIP3   OH210157   3.537   3.854   0.907  0.6797  0.1096  0.5911
 3398TIP3    H110158   3.539   3.931   0.850  1.6488 -0.3001  0.0595
 3398TIP3    H210159   3.600   3.874   0.977  0.7913 -0.1244  0.5580
 3399TIP3   OH210160   0.219   0.739   3.214 -0.2515  0.6855  0.0397
 3399TIP3    H110161   0.193   0.656   3.255 -0.2869  1.4838  1.7102
 3399TIP3    H210162   0.146   0.798   3.232  0.2245  1.3748 -0.2660
 3400TIP3   OH210163   0.733   1.681   4.630  0.4285 -0.8899  0.2421
 3400TIP3    H110164   0.650   1.662   4.675 -0.3177  0.5456 -0.4798
 3400TIP3    H210165   0.708   1.727   4.550  1.9414 -0.2813  0.0777
 3401TIP3   OH210166   6.563   6.595   2.222  0.1473 -0.0609  0.7320
 3401TIP3    H110167   6.479   6.565   2.256 -0.3481  0.5330  0.0751
 3401TIP3    H210168   6.627   6.563   2.284 -0.3380 -2.3344  0.1470
 3402TIP3   OH210169   2.139   5.761   2.569 -0.2479 -0.0324  0.0861
 3402TIP3    H110170   2.110   5.756   2.478  1.5005  0.1313 -0.5248
 3402TIP3    H210171   2.172   5.674   2.589 -2.2198 -0.5942  1.1984
 3403TIP3   OH210172   6.437   6.177   1.775 -0.1600  0.1447 -0.1309
 3403TIP3    H110173   6.489   6.232   1.716  1.9262 -0.4266  1.0533
 3403TIP3    H210174   6.474   6.089   1.764 -1.1569 -0.3729  0.4842
 3404TIP3   OH210175   2.376   3.935   5.058 -0.0549 -0.0698 -0.2598
 3404TIP3    H110176   2.379   3.998   4.987 -0.6568 -0.5977 -0.7646
 3404TIP3    H210177   2.442   3.966   5.120 -0.4818  1.1674 -0.3895
 3405TIP3   OH210178   2.303   3.240   1.756 -0.1633  0.7917 -0.6648
 3405TIP3    H110179   2.256   3.222   1.837 -0.4346  2.7950 -0.3438
 3405TIP3    H210180   2.352   3.320   1.773  1.8685 -0.1669 -1.6314
 3406TIP3   OH210181   3.651   3.471   5.156  0.1402  0.7820 -0.5460
 3406TIP3    H110182   3.626   3.379   5.170 -0.1355  0.7955 -0.9456
 3406TIP3    H210183   3.653   3.481   5.061  1.0477  0.9530 -0.5119
 3407TIP3   OH210184   1.281   1.309   5.552 -1.0819 -0.2259  0.0022
 3407TIP3    H110185   1.255   1.271   5.468  0.7205 -0.3149 -0.5464
 3407TIP3    H210186   1.292   1.234   5.610  1.1408 -0.5327 -0.7096
 3408TIP3   OH210187   0.999   1.307   3.205 -0.4875  0.1763  0.4860
 3408TIP3    H110188   1.081   1.355   3.198 -1.3460  1.7356  0.7139
 3408TIP3    H210189   1.024   1.222   3.242  0.8412  1.1404  1.9298
 3409TIP3   OH210190   5.395   4.993   0.443 -0.0381  0.3263 -0.1330
 3409TIP3    H110191   5.386   4.970   0.350 -1.9158  0.3049  0.0258
 3409TIP3    H210192   5.368   4.914   0.490 -0.5612  0.8214  0.4194
 3410TIP3   OH210193   3.623   3.048   3.209  0.2106 -0.5151 -0.1594
 3410TIP3    H110194   3.542   3.058   3.159  1.2509 -1.0734 -2.0687
 3410TIP3    H210195   3.651   3.138   3.227 -0.7265 -0.3142  0.3980
 3411TIP3   OH210196   0.222   4.206   5.838  0.3922 -0.1424 -0.2197
 3411TIP3    H110197   0.156   4.139   5.853 -0.2149  0.1825 -1.3884
 3411TIP3    H210198   0.178   4.275   5.788  1.7035 -0.1338 -1.4582
 3412TIP3   OH210199   2.205   0.229   4.264  0.5160  0.4485  0.0391
 3412TIP3    H110200   2.151   0.251   4.340  0.0345  1.0490 -0.4650
 3412TIP3    H210201   2.145   0.237   4.190  0.8378 -0.6822 -0.3515
 3413TIP3   OH210202   0.285   4.112   4.300 -0.3404 -0.1557  0.0477
 3413TIP3    H110203   0.291   4.031   4.249  0.6023 -1.0812  1.5384
 3413TIP3    H210204   0.324   4.179   4.244 -1.7517 -0.5583 -1.4886
 3414TIP3   OH210205   6.706   6.335   0.068 -0.0800  0.2045  0.3651
 3414TIP3    H110206   6.672   6.248   0.045  2.5266 -0.8336  0.0719
 3414TIP3    H210207   6.651   6.396   0.020  0.4091 -1.5021 -2.6480
 3415TIP3   OH210208   4.932   4.039   4.008 -0.0716  0.5393 -0.2503
 3415TIP3    H110209   4.945   4.134   4.013 -1.9459  0.7745  0.6909
 3415TIP3    H210210   4.911   4.013   4.098  0.8115 -0.8528 -0.4213
 3416TIP3   OH210211   0.766   5.667   1.874  0.7152 -0.2624 -0.3522
 3416TIP3    H110212   0.814   5.717   1.809  1.3276  1.2574  1.1709
 3416TIP3    H210213   0.733   5.733   1.936  0.7567 -1.6542  1.2531
 3417TIP3   OH210214   4.661   5.946   2.478 -0.4653  0.0897 -0.0785
 3417TIP3    H110215   4.743   5.996   2.475 -0.0544 -0.4583  1.1748
 3417TIP3    H210216   4.618   5.976   2.558 -1.2266 -0.0370 -0.4345
 3418TIP3   OH210217   2.836   4.450   1.062  0.4507  0.3801  0.2250
 3418TIP3    H110218   2.745   4.463   1.035  0.6895  1.3033 -0.1788
 3418TIP3    H210219   2.833   4.443   1.157 -0.1505 -0.6252  0.1450
 3419TIP3   OH210220   6.502   0.355   4.807  0.7122  0.7033  0.2728
 3419TIP3    H110221   6.500   0.412   4.884  2.8326 -0.7570  1.5098
 3419TIP3    H210222   6.577   0.297   4.821  1.2296  0.3661 -2.9237
 3420TIP3   OH210223   5.225   1.127   3.462 -0.1220  0.0601 -0.0160
 3420TIP3    H110224   5.281   1.061   3.421 -0.1754 -0.2230  0.3574
 3420TIP3    H210225   5.253   1.210   3.424  0.2504 -0.1292 -0.1564
 3421TIP3   OH210226   2.345   4.244   1.681  0.0655  0.1028 -0.4368
 3421TIP3    H110227   2.277   4.177   1.682 -0.6930  0.8426  1.3599
 3421TIP3    H210228   2.335   4.289   1.765  1.2997  1.7089 -1.1145
 3422TIP3   OH210229   5.768   1.955   0.990 -0.3190  0.0290 -0.4732
 3422TIP3    H110230   5.833   2.024   0.998 -0.0567  0.3842 -4.0878
 3422TIP3    H210231   5.813   1.876   1.022  1.3612  0.5626 -1.3853
 3423TIP3   OH210232   1.725   1.171   3.094 -0.0023  0.2038  0.4323
 3423TIP3    H110233   1.806   1.220   3.080  0.3366 -0.6469 -0.7377
 3423TIP3    H210234   1.681   1.218   3.164 -0.4256  3.1431 -1.5901
 3424TIP3   OH210235   4.345   3.691   1.986  0.5694 -0.5729  0.2419
 3424TIP3    H110236   4.381   3.604   1.969  1.1589 -0.1111 -0.9820
 3424TIP3    H210237   4.410   3.752   1.951  0.3152  0.3909  1.3518
 3425TIP3   OH210238   3.259   4.822   3.246 -0.3582  0.6826 -0.6107
 3425TIP3    H110239   3.249   4.916   3.228 -2.3666  0.1827 -2.4829
 3425TIP3    H210240   3.305   4.788   3.170 -1.9093 -0.2137 -1.1975
 3426TIP3   OH210241   2.787   5.800   2.485 -0.2310 -0.0960  0.0247
 3426TIP3    H110242   2.828   5.751   2.556 -1.5585 -0.4889  0.5418
 3426TIP3    H210243   2.827   5.765   2.406  0.2043 -0.6822  0.4934
 3427TIP3   OH210244   3.142   1.124   4.472  0.2321 -0.0198 -0.1843
 3427TIP3    H110245   3.209   1.058   4.457 -0.8288 -1.1300 -0.1556
 3427TIP3    H210246   3.177   1.178   4.542  1.9402  0.6319 -1.4594
 3428TIP3   OH210247   3.456   2.633   2.948  0.2542  0.8819 -0.5130
 3428TIP3    H110248   3.447   2.628   2.852  1.2667 -0.5869 -0.5772
 3428TIP3    H210249   3.550   2.644   2.962 -0.0238  2.4532  0.3145
 3429TIP3   OH210250   0.920   4.915   2.980  0.0190  0.1076  0.0448
 3429TIP3    H110251   0.982   4.923   3.052  0.2678 -1.3808  0.0308
 3429TIP3    H210252   0.937   4.828   2.943 -1.5302 -0.0077 -0.4740
 3430TIP3   OH210253   5.233   0.047   4.574  0.0561 -0.4849  0.4379
 3430TIP3    H110254   5.298  -0.005   4.526  0.1473  0.1137 -0.1032
 3430TIP3    H210255   5.206  -0.009   4.647 -1.0040 -1.9194 -0.9955
 3431TIP3   OH210256   1.956   1.590   4.071  0.5832  0.7024  0.0261
 3431TIP3    H110257   1.887   1.563   4.011  0.1121  0.7478  0.5406
 3431TIP3    H210258   1.997   1.665   4.028 -1.4893  2.4520  0.9371
 3432TIP3   OH210259   3.446   2.572   2.395 -0.2020 -0.5384  0.0978
 3432TIP3    H110260   3.432   2.504   2.328  1.2516 -1.6328  0.8505
 3432TIP3    H210261   3.528   2.614   2.369 -1.9390  2.2376 -1.3606
 3433TIP3   OH210262   5.879   1.707   2.031  0.3360  0.3418 -0.2542
 3433TIP3    H110263   5.844   1.791   2.002  1.0042  1.0404  0.8833
 3433TIP3    H210264   5.973   1.720   2.034  0.3294  0.2247  1.8254
 3434TIP3   OH210265   0.015   0.380   2.046 -0.4186  0.3824  0.3360
 3434TIP3    H110266  -0.012   0.314   2.111  0.1512 -0.9606 -0.7390
 3434TIP3    H210267   0.109   0.364   2.034 -0.2529  1.4596  0.0951
 3435TIP3   OH210268   4.864   5.219   4.151 -0.7786 -0.3387 -0.1048
 3435TIP3    H110269   4.796   5.192   4.090 -0.7036 -0.7519 -0.0058
 3435TIP3    H210270   4.910   5.138   4.174 -0.7094 -0.1631  0.3830
 3436TIP3   OH210271   7.106   5.567   0.965  0.4342  0.5031  0.0557
 3436TIP3    H110272   7.034   5.525   1.011 -1.0788  3.3682  0.5505
 3436TIP3    H210273   7.184   5.546   1.017 -0.6168  0.3131  1.6221
 3437TIP3   OH210274   6.330   4.598   2.176  0.4227  0.1332  0.1901
 3437TIP3    H110275   6.344   4.510   2.211  0.1921 -1.4279 -3.2589
 3437TIP3    H210276   6.354   4.591   2.084 -2.3340  2.9722 -0.8955
 3438TIP3   OH210277   1.811   0.083   3.217  0.3892  0.0309 -0.2211
 3438TIP3    H110278   1.811   0.085   3.121  0.5186 -1.6168 -0.2758
 3438TIP3    H210279   1.767   0.001   3.239 -0.6765  0.9330  1.1629
 3439TIP3   OH210280   0.359   5.183   1.522  0.3004  0.0007 -0.2368
 3439TIP3    H110281   0.391   5.095   1.540  0.2085 -0.4614 -2.1818
 3439TIP3    H210282   0.295   5.200   1.591  2.5697 -0.1431  2.0886
 3440TIP3   OH210283   2.212   0.614   4.120  0.0341 -0.0562 -0.0109
 3440TIP3    H110284   2.126   0.644   4.091 -0.1985 -1.6535 -1.0865
 3440TIP3    H210285   2.214   0.633   4.214 -1.0943  0.8772 -0.1524
 3441TIP3   OH210286   7.025   2.800   0.639  0.3118 -0.3463 -0.0054
 3441TIP3    H110287   7.109   2.845   0.627  0.8421 -1.5314 -0.9828
 3441TIP3    H210288   7.039   2.742   0.714 -0.2336  0.7574  0.9792
 3442TIP3   OH210289   0.078   1.110   2.315  0.0327  0.7816  0.0483
 3442TIP3    H110290  -0.012   1.141   2.301  0.5548  1.6285 -1.7712
 3442TIP3    H210291   0.100   1.138   2.404 -1.2175  1.3003  0.2091
 3443TIP3   OH210292   2.278   2.134   1.501  0.1642 -0.3117 -0.1394
 3443TIP3    H110293   2.291   2.217   1.455  1.7263 -0.2181  0.4169
 3443TIP3    H210294   2.237   2.158   1.584  1.7919  0.0900  0.5861
 3444TIP3   OH210295   1.221   3.828   3.437  0.2866 -0.2912  0.0795
 3444TIP3    H110296   1.194   3.795   3.351  2.4134 -2.1340  0.0388
 3444TIP3    H210297   1.220   3.751   3.493 -0.8339  0.8520  1.7051
 3445TIP3   OH210298   4.039   0.539   3.104 -0.2352 -0.2014 -0.2010
 3445TIP3    H110299   4.017   0.448   3.122  0.5170 -0.6230 -1.3585
 3445TIP3    H210300   4.028   0.549   3.010  1.1458  0.4866 -0.3063
 3446TIP3   OH210301   4.569   5.633   0.063 -0.4695 -0.3148 -0.4426
 3446TIP3    H110302   4.614   5.551   0.042  2.4733  0.6387  1.4874
 3446TIP3    H210303   4.623   5.700   0.022 -0.1841  0.9062  1.8349
 3447TIP3   OH210304   7.035   4.112   3.806  0.4962  0.1149  0.1538
 3447TIP3    H110305   7.034   4.207   3.808  1.0895  0.1443 -0.6684
 3447TIP3    H210306   7.103   4.087   3.869  2.0536  0.3220 -1.3874
 3448TIP3   OH210307   5.047   1.417   5.831  0.4057 -0.0865  0.1112
 3448TIP3    H110308   4.959   1.418   5.791  1.1649 -0.9502 -1.7043
 3448TIP3    H210309   5.060   1.326   5.857  1.8684 -0.7037 -2.4105
 3449TIP3   OH210310   3.509   6.437   4.316  0.1850  0.2465 -0.2930
 3449TIP3    H110311   3.466   6.469   4.395  0.6312 -0.0598  0.0798
 3449TIP3    H210312   3.449   6.460   4.244 -0.5996 -0.1756  0.2125
 3450TIP3   OH210313   3.819   5.822   3.210  0.1519 -0.0640  0.4720
 3450TIP3    H110314   3.724   5.825   3.202  0.0644 -0.2782  1.3815
 3450TIP3    H210315   3.840   5.885   3.279  0.6869  0.1141  0.1511
 3451TIP3   OH210316   6.529   2.090   1.892  0.5425  0.6440 -0.4145
 3451TIP3    H110317   6.526   2.148   1.817  3.3379  1.1618 -0.2225
 3451TIP3    H210318   6.507   2.004   1.857 -3.7393  1.6574 -0.6819
 3452TIP3   OH210319   6.163   4.337   0.429 -0.1833 -1.1077  0.3308
 3452TIP3    H110320   6.140   4.286   0.351  0.7226 -3.1636  1.3402
 3452TIP3    H210321   6.161   4.428   0.399 -1.8129 -1.6903 -1.5603
 3453TIP3   OH210322   0.964   3.214   5.605  0.0332 -0.2246 -0.0658
 3453TIP3    H110323   0.928   3.261   5.530  0.7247 -1.2791 -1.0872
 3453TIP3    H210324   0.911   3.135   5.611  0.4228 -0.4718  0.1258
 3454TIP3   OH210325   2.266   3.705   4.560 -0.4758  0.3213 -0.0967
 3454TIP3    H110326   2.277   3.695   4.466  0.2749 -0.1353  0.0292
 3454TIP3    H210327   2.178   3.740   4.571 -1.1207 -0.9885 -0.8954
 3455TIP3   OH210328   3.665   0.463   0.344  0.4982 -0.2059  0.1643
 3455TIP3    H110329   3.672   0.389   0.405  0.8066  0.8832  1.4843
 3455TIP3    H210330   3.740   0.518   0.365  0.0821  0.6628 -0.5777
 3456TIP3   OH210331   3.180   5.502   3.633  0.1739  0.1902  0.4979
 3456TIP3    H110332   3.214   5.557   3.703 -1.6018  0.6579  1.0517
 3456TIP3    H210333   3.119   5.443   3.676  1.8291 -2.1185 -0.1312
 3457TIP3   OH210334   1.911  -0.006   4.812 -0.0051 -0.0221 -0.1964
 3457TIP3    H110335   1.992  -0.030   4.766  0.2508 -1.1608  0.7987
 3457TIP3    H210336   1.864   0.051   4.750  1.4738  0.5438 -0.8551
 3458TIP3   OH210337   0.156   5.210   1.711  0.0503 -0.3744  0.3069
 3458TIP3    H110338   0.111   5.129   1.735  0.3220 -0.5707  0.1629
 3458TIP3    H210339   0.085   5.270   1.686 -0.2214 -0.2359  1.3548
 3459TIP3   OH210340   3.959   3.079   4.943 -0.1268  0.4645  0.4751
 3459TIP3    H110341   3.973   3.168   4.975 -2.2006  0.0814  2.7279
 3459TIP3    H210342   3.869   3.059   4.966  0.2882 -2.2504  0.0856
 3460TIP3   OH210343   0.549   3.881   0.555 -0.2010  1.3109 -0.3496
 3460TIP3    H110344   0.556   3.962   0.606  0.4537 -0.6807  3.0814
 3460TIP3    H210345   0.458   3.878   0.527 -1.0999  1.8094  2.2215
 3461TIP3   OH210346   6.607   4.317   2.698  0.3183  0.2414 -0.4812
 3461TIP3    H110347   6.568   4.230   2.688 -0.8694  0.6320  0.5579
 3461TIP3    H210348   6.542   4.377   2.661  0.1306  0.8545  0.7742
 3462TIP3   OH210349   0.927   4.895   5.379  0.2455  0.1697  0.2876
 3462TIP3    H110350   0.993   4.860   5.438 -0.1304 -1.3706 -0.1618
 3462TIP3    H210351   0.857   4.927   5.436  0.7535  0.5370  0.7152
 3463TIP3   OH210352   1.300   3.832   5.755  0.2363  0.1983  0.2242
 3463TIP3    H110353   1.392   3.842   5.734  0.2250  0.9436  0.4878
 3463TIP3    H210354   1.277   3.913   5.802 -0.2816 -0.4405  1.1162
 3464TIP3   OH210355   1.882   3.258   0.822 -0.0242 -0.0362 -0.1992
 3464TIP3    H110356   1.898   3.166   0.839 -2.2605 -0.1537  1.7984
 3464TIP3    H210357   1.969   3.299   0.824  1.0148 -2.0658 -1.2952
 3465TIP3   OH210358   6.441   4.169   1.969 -0.4785  0.0128 -0.5377
 3465TIP3    H110359   6.392   4.251   1.981 -0.1015  0.0318  1.1252
 3465TIP3    H210360   6.404   4.110   2.035  1.4095 -0.1070  0.4679
 3466TIP3   OH210361   4.560   0.039   5.407  0.0357  0.1856 -0.0882
 3466TIP3    H110362   4.554  -0.014   5.328  0.4764 -0.4338  0.2912
 3466TIP3    H210363   4.602  -0.018   5.472 -1.8421  0.0752  1.1164
 3467TIP3   OH210364   5.857   4.494   1.362  0.3118  0.6519 -0.5941
 3467TIP3    H110365   5.935   4.528   1.406 -0.7811  1.7435  0.6029
 3467TIP3    H210366   5.870   4.513   1.270  1.1080  1.5516 -0.3028
 3468TIP3   OH210367   6.331   0.202   1.734 -0.0100  0.2183 -0.1372
 3468TIP3    H110368   6.417   0.195   1.776  0.6760  0.4374 -1.4749
 3468TIP3    H210369   6.344   0.166   1.647 -0.7155  2.2786 -1.1450
 3469TIP3   OH210370   5.547   3.244   1.651  0.7836  0.1554 -0.8507
 3469TIP3    H110371   5.574   3.154   1.671  0.0104  0.0226 -0.3462
 3469TIP3    H210372   5.629   3.293   1.643  1.2086  0.0782  2.0745
 3470TIP3   OH210373   1.293   1.767   1.208  0.3082 -0.4047  0.7000
 3470TIP3    H110374   1.350   1.733   1.277 -0.8840 -0.1167  1.8601
 3470TIP3    H210375   1.205   1.755   1.242 -0.2309  1.8786  0.2294
 3471TIP3   OH210376   4.313   6.319   1.010  0.1406 -0.4454  0.2113
 3471TIP3    H110377   4.368   6.365   0.948 -1.9969 -0.1030 -1.5374
 3471TIP3    H210378   4.303   6.231   0.974 -1.0681 -0.2666  0.0637
 3472TIP3   OH210379   1.708   3.734   0.540  0.0137 -0.2669  0.0816
 3472TIP3    H110380   1.691   3.823   0.509 -0.9481  0.0463  1.4283
 3472TIP3    H210381   1.776   3.745   0.607  1.2697 -0.7957 -1.0712
 3473TIP3   OH210382   6.159   1.075   4.579 -0.2138  0.1758  0.2196
 3473TIP3    H110383   6.108   0.996   4.594 -1.1367  0.3644 -1.6271
 3473TIP3    H210384   6.139   1.131   4.654 -2.1279 -0.0822 -0.0526
 3474TIP3   OH210385   3.609   3.395   0.274 -0.6980  0.2425 -0.9019
 3474TIP3    H110386   3.592   3.301   0.282 -3.9571  0.7902  0.0088
 3474TIP3    H210387   3.649   3.419   0.358  0.7474 -0.3810 -1.3814
 3475TIP3   OH210388   6.633   0.331   2.780 -0.1488 -0.3560 -0.1977
 3475TIP3    H110389   6.721   0.339   2.816 -0.3853 -0.2714  0.3861
 3475TIP3    H210390   6.606   0.421   2.763  0.1549 -0.4242 -1.0907
 3476TIP3   OH210391   1.951   4.810   4.671 -0.3788 -0.1157 -0.1369
 3476TIP3    H110392   1.972   4.728   4.628 -0.5341  0.5511 -1.5481
 3476TIP3    H210393   1.933   4.786   4.762  1.4945 -1.3634 -0.0536
 3477TIP3   OH210394   1.845   5.709   1.145 -0.5660 -0.0288 -0.0817
 3477TIP3    H110395   1.801   5.762   1.078 -0.4555 -0.7888 -0.7688
 3477TIP3    H210396   1.803   5.736   1.227 -0.2076  1.4357 -0.3409
 3478TIP3   OH210397   5.794   1.355   3.820 -0.0516 -0.1312  0.1313
 3478TIP3    H110398   5.837   1.403   3.891 -3.4227  4.2739 -0.3641
 3478TIP3    H210399   5.860   1.352   3.751  1.8590 -0.5882  1.8615
 3479TIP3   OH210400   2.627   0.979   4.957 -0.1234  0.0165 -0.1877
 3479TIP3    H110401   2.591   0.957   4.871  0.5754 -0.2871 -0.4183
 3479TIP3    H210402   2.593   1.066   4.977 -2.5724 -1.0278  0.5119
 3480TIP3   OH210403   7.043   1.358   0.939 -0.0274  0.4203  0.3525
 3480TIP3    H110404   6.953   1.391   0.939  0.1579  0.9260  0.3177
 3480TIP3    H210405   7.097   1.434   0.955  0.2718 -0.3006  3.2603
 3481TIP3   OH210406   2.143   0.069   1.899  0.3107 -0.5482  0.6474
 3481TIP3    H110407   2.086  -0.006   1.915  0.4818 -0.4914  1.5850
 3481TIP3    H210408   2.094   0.144   1.930  0.0066 -0.2134 -0.5951
 3482TIP3   OH210409   2.033   1.588   2.755  0.0195  0.2891 -0.2371
 3482TIP3    H110410   1.950   1.554   2.789  0.3784  0.1915  0.5802
 3482TIP3    H210411   2.051   1.536   2.677 -0.7354  0.3757 -0.4718
 3483TIP3   OH210412   1.822   3.380   5.581 -0.2726 -0.4481 -0.2262
 3483TIP3    H110413   1.863   3.358   5.497  0.2166  1.2028 -0.4506
 3483TIP3    H210414   1.881   3.344   5.647  0.0939 -0.4994 -0.5782
 3484TIP3   OH210415   2.040   3.251   5.440  0.1245  0.1028 -0.5136
 3484TIP3    H110416   2.090   3.184   5.486 -1.7017 -0.1535  1.2363
 3484TIP3    H210417   2.103   3.320   5.421  1.0426  0.1052  2.2238
 3485TIP3   OH210418   0.952   0.096   2.777 -0.3356  0.2061  0.4041
 3485TIP3    H110419   0.998   0.178   2.756  0.7999 -0.4007  0.4790
 3485TIP3    H210420   1.017   0.042   2.822 -0.2524 -1.7484 -1.8813
 3486TIP3   OH210421   2.342   5.915   3.235  0.5874 -0.3634  0.3145
 3486TIP3    H110422   2.362   6.004   3.206 -0.1030  0.2484  1.5780
 3486TIP3    H210423   2.372   5.858   3.164  1.3060  0.8564 -0.3912
 3487TIP3   OH210424   1.848   4.047   5.103 -0.3308  0.3265 -0.2574
 3487TIP3    H110425   1.864   4.140   5.090  2.0327  0.0387  0.2518
 3487TIP3    H210426   1.776   4.043   5.165 -1.8233  1.7566 -1.7985
 3488TIP3   OH210427   1.255   4.169   3.952 -0.1895 -0.1899 -0.4746
 3488TIP3    H110428   1.286   4.237   4.012  0.2629 -0.6260 -0.2049
 3488TIP3    H210429   1.290   4.088   3.988 -0.9009 -0.5919 -0.6730
 3489TIP3   OH210430   3.269   4.831   5.595  0.2248  0.5455  0.0222
 3489TIP3    H110431   3.221   4.914   5.593  0.0568  0.4969  1.1522
 3489TIP3    H210432   3.347   4.850   5.648  0.4031  0.0939 -0.0757
 3490TIP3   OH210433   4.053   6.777   1.946 -0.2911 -0.4771 -0.5849
 3490TIP3    H110434   4.031   6.780   2.039 -0.0588  1.5906 -0.5592
 3490TIP3    H210435   4.090   6.690   1.933 -1.4141 -1.2330  0.9880
 3491TIP3   OH210436   1.491   2.617   3.809 -0.1545  0.6070  0.0174
 3491TIP3    H110437   1.570   2.627   3.757 -0.9471 -0.2283 -1.4109
 3491TIP3    H210438   1.420   2.608   3.745 -0.9865 -1.9855  1.1392
 3492TIP3   OH210439   5.953   6.393   1.621 -0.0098 -0.7803  0.1206
 3492TIP3    H110440   5.906   6.319   1.659 -0.9894  0.1629  0.7985
 3492TIP3    H210441   5.896   6.468   1.636 -0.1470 -0.2239 -2.6245
 3493TIP3   OH210442   5.847   6.486   0.720  0.6193  0.3951  0.2714
 3493TIP3    H110443   5.830   6.498   0.627  0.8757 -0.4723  0.0955
 3493TIP3    H210444   5.940   6.507   0.731  0.9413 -0.8201  0.0559
 3494TIP3   OH210445   2.742   5.982   0.099  0.1382  0.2162  0.6327
 3494TIP3    H110446   2.668   5.995   0.157  0.4656 -0.4814  1.2207
 3494TIP3    H210447   2.741   6.058   0.040 -2.6145 -1.0143 -1.1148
 3495TIP3   OH210448   4.797   1.289   0.306  0.0487  0.0496  0.5126
 3495TIP3    H110449   4.720   1.319   0.258  0.1974 -0.5369 -0.1078
 3495TIP3    H210450   4.836   1.223   0.249  0.5268 -0.2768  1.2104
 3496TIP3   OH210451   7.130   5.710   3.679  0.4709  0.3458  0.1641
 3496TIP3    H110452   7.166   5.621   3.682  0.2232  0.0652 -2.5709
 3496TIP3    H210453   7.196   5.761   3.631  1.5131  2.2047  3.2674
 3497TIP3   OH210454   0.578   4.083   2.333  0.5482  0.5654  0.1320
 3497TIP3    H110455   0.562   4.063   2.425  2.7501 -2.3423  0.0465
 3497TIP3    H210456   0.518   4.027   2.285  0.6165  0.7632 -0.1881
 3498TIP3   OH210457   5.209   1.163   2.409 -0.1279 -0.0057  0.0130
 3498TIP3    H110458   5.177   1.092   2.465  1.1159 -0.3116  0.3705
 3498TIP3    H210459   5.171   1.242   2.447  0.6438 -0.2132  1.2893
 3499TIP3   OH210460   6.851   0.181   0.337 -0.4621  0.4289 -0.0383
 3499TIP3    H110461   6.767   0.148   0.306 -0.3329  0.0356  0.0238
 3499TIP3    H210462   6.894   0.104   0.374 -0.2768  0.7283  0.3687
 3500TIP3   OH210463   2.074   3.035   3.033  0.3461  0.1602  0.1573
 3500TIP3    H110464   2.099   3.076   3.115  0.3303  2.0601 -0.7458
 3500TIP3    H210465   2.021   3.101   2.988  0.8555 -0.6044 -1.6344
 3501TIP3   OH210466   6.240   5.993   0.309 -0.2844 -0.2389 -0.0307
 3501TIP3    H110467   6.223   5.907   0.271 -0.1645 -1.2171  2.0116
 3501TIP3    H210468   6.204   5.988   0.398 -0.4196  1.8842  0.0878
 3502TIP3   OH210469   2.059   0.438   2.182 -0.4027  0.1263  0.0374
 3502TIP3    H110470   1.978   0.448   2.232 -1.7062 -0.4355 -1.8798
 3502TIP3    H210471   2.052   0.502   2.112  0.9732  0.2550 -0.0183
 3503TIP3   OH210472   1.428   5.364   0.955 -0.2671 -0.2710  0.6280
 3503TIP3    H110473   1.345   5.345   0.998 -0.2087  0.8509  1.2785
 3503TIP3    H210474   1.475   5.420   1.018  0.0720  0.9263 -0.6550
 3504TIP3   OH210475   4.459   2.446   0.783  0.8040 -0.4753  0.4961
 3504TIP3    H110476   4.554   2.433   0.787  0.8173 -0.2953  0.8832
 3504TIP3    H210477   4.429   2.422   0.871  0.5519 -0.0704  0.5222
 3505TIP3   OH210478   5.143   2.740   1.811  0.0601  0.5253 -0.1716
 3505TIP3    H110479   5.099   2.743   1.896 -0.5792  0.7049 -0.4999
 3505TIP3    H210480   5.226   2.785   1.825  0.8475 -1.1582  0.8490
 3506TIP3   OH210481   3.539   2.812   3.576 -0.6282 -0.0364  0.2253
 3506TIP3    H110482   3.551   2.741   3.513 -0.9018  0.4466 -0.3857
 3506TIP3    H210483   3.618   2.865   3.568 -1.2258  0.7322 -0.6424
 3507TIP3   OH210484   6.203   1.965   1.505 -0.1091  0.2099  0.3103
 3507TIP3    H110485   6.153   1.884   1.496 -0.7120  0.4496  1.4007
 3507TIP3    H210486   6.251   1.973   1.422 -1.7250 -0.1220 -0.6985
 3508TIP3   OH210487   6.401   4.724   5.302 -0.5472 -0.0134 -0.5260
 3508TIP3    H110488   6.338   4.716   5.373 -0.1778 -0.7906 -0.2783
 3508TIP3    H210489   6.400   4.817   5.279 -1.8349 -0.0205 -0.5754
 3509TIP3   OH210490   6.283   5.027   1.598  0.5696 -0.0269 -0.1068
 3509TIP3    H110491   6.340   4.955   1.570  1.8705 -0.3296  2.9501
 3509TIP3    H210492   6.245   4.997   1.680 -1.1024  1.6941 -0.1934
 3510TIP3   OH210493   3.883   0.449   2.340  0.2291  0.0776 -0.6847
 3510TIP3    H110494   3.814   0.514   2.349 -0.1293 -0.3795 -0.0192
 3510TIP3    H210495   3.866   0.407   2.256 -0.6641 -0.4311 -0.2646
 3511TIP3   OH210496   0.423   5.874   3.404 -0.3373  0.0223  0.0017
 3511TIP3    H110497   0.470   5.810   3.351  0.2177 -0.7962  1.4214
 3511TIP3    H210498   0.419   5.952   3.349 -1.3731 -1.2954 -1.9405
 3512TIP3   OH210499   0.487   1.574   2.812  0.2061 -0.2998 -0.2657
 3512TIP3    H110500   0.517   1.664   2.797 -0.1798 -0.5368 -2.9206
 3512TIP3    H210501   0.530   1.547   2.893  1.7658  1.6559 -0.3813
 3513TIP3   OH210502   4.468   4.797   2.451 -0.0412  0.1051  0.4416
 3513TIP3    H110503   4.466   4.744   2.530  0.7865 -1.9286 -0.8154
 3513TIP3    H210504   4.397   4.762   2.397  0.0365  0.7994 -0.1385
 3514TIP3   OH210505   0.762   5.305   0.185  0.5072  0.1861  0.4096
 3514TIP3    H110506   0.764   5.216   0.151  0.9730  0.9234 -1.5984
 3514TIP3    H210507   0.711   5.354   0.121  0.6623  1.4658  1.2377
 3515TIP3   OH210508   1.038   5.780   1.935 -0.0826  0.7230 -0.6648
 3515TIP3    H110509   1.031   5.686   1.918 -0.4756  0.1491  2.1802
 3515TIP3    H210510   1.128   5.802   1.912 -0.0641 -0.2593 -1.6356
 3516TIP3   OH210511   5.833   2.905   4.351  0.4799 -0.0053 -0.3441
 3516TIP3    H110512   5.815   2.817   4.317 -1.1689  0.0725  0.2250
 3516TIP3    H210513   5.755   2.956   4.329  0.5755  0.7888  1.0277
 3517TIP3   OH210514   2.758   1.245   2.458  0.0595  0.1342 -0.4501
 3517TIP3    H110515   2.680   1.284   2.497 -0.1239  1.9842 -2.4527
 3517TIP3    H210516   2.831   1.285   2.505 -0.1258 -1.1037  0.9782
 3518TIP3   OH210517   0.620   5.121   4.723  0.0320  0.3262  0.7418
 3518TIP3    H110518   0.587   5.208   4.746 -1.1184  0.1881 -0.2589
 3518TIP3    H210519   0.705   5.137   4.682  0.0210  0.9391  0.9505
 3519TIP3   OH210520   3.022   0.460   1.208 -0.1668  0.2990 -0.1339
 3519TIP3    H110521   3.028   0.522   1.135  0.9173  0.2588 -0.1048
 3519TIP3    H210522   3.107   0.467   1.252  1.1958 -3.2184 -1.7929
 3520TIP3   OH210523   4.709   3.688   4.133  0.1556  1.0651  0.7992
 3520TIP3    H110524   4.670   3.607   4.102  0.8898  1.2233 -0.6224
 3520TIP3    H210525   4.654   3.715   4.207 -1.2860  0.3312  0.0177
 3521TIP3   OH210526   5.561   1.870   0.840  0.1210 -0.0003  0.8057
 3521TIP3    H110527   5.624   1.862   0.768 -1.0961 -0.6351 -0.2211
 3521TIP3    H210528   5.612   1.908   0.912  1.0274  2.2021 -0.8572
 3522TIP3   OH210529   1.017   4.430   0.168  0.1213  0.0256  0.7352
 3522TIP3    H110530   0.995   4.447   0.077  0.5556 -4.2208 -0.3629
 3522TIP3    H210531   0.934   4.407   0.209  0.2863 -0.5879  0.7283
 3523TIP3   OH210532   1.595   5.294   5.291 -0.3686  0.1220  0.3202
 3523TIP3    H110533   1.526   5.279   5.227 -0.9468  0.2820  0.9027
 3523TIP3    H210534   1.576   5.380   5.329  0.2124  0.2206  0.4076
 3524TIP3   OH210535   3.341   6.533   0.359 -0.0002  0.0172  0.5563
 3524TIP3    H110536   3.290   6.573   0.288 -1.7263 -0.3288  1.5453
 3524TIP3    H210537   3.324   6.590   0.434  1.6161  0.2400  0.7791
 3525TIP3   OH210538   3.496   4.052   2.527  0.0227 -0.1984 -0.3610
 3525TIP3    H110539   3.477   4.018   2.615  0.0330  0.0593 -0.2586
 3525TIP3    H210540   3.415   4.040   2.478 -0.0526 -0.1413 -0.2514
 3526TIP3   OH210541   2.671   1.437   4.261 -0.4416 -0.1002 -0.4481
 3526TIP3    H110542   2.579   1.433   4.237  0.2472 -0.9965 -3.2453
 3526TIP3    H210543   2.673   1.414   4.354 -3.0983  1.1161 -0.0004
 3527TIP3   OH210544   4.811   4.028   2.476  0.3315 -0.4942 -0.0480
 3527TIP3    H110545   4.723   4.065   2.468  0.7237  0.3646 -0.3954
 3527TIP3    H210546   4.833   4.039   2.568 -0.0641 -1.0474  0.1203
 3528TIP3   OH210547   0.144   4.386   0.840  0.0088  0.3963  1.0190
 3528TIP3    H110548   0.122   4.301   0.879  2.5611  0.0443  1.9176
 3528TIP3    H210549   0.076   4.445   0.872 -3.3919 -1.6317 -1.6660
 3529TIP3   OH210550   5.131   3.418   2.235  0.0483  0.1536  0.4959
 3529TIP3    H110551   5.058   3.388   2.289 -0.7578 -1.9196 -1.5357
 3529TIP3    H210552   5.132   3.513   2.245 -1.5262  0.0400  2.2498
 3530TIP3   OH210553   1.882   4.924   3.803  0.0533 -0.4517 -0.1727
 3530TIP3    H110554   1.857   5.014   3.826 -0.1707 -0.3693 -0.7441
 3530TIP3    H210555   1.805   4.887   3.761 -0.2305 -1.2770  1.0363
 3531TIP3   OH210556   5.678   1.678   3.586  0.4511 -0.0881  0.2869
 3531TIP3    H110557   5.738   1.611   3.554  1.1381  0.4663  0.4130
 3531TIP3    H210558   5.732   1.755   3.602 -0.4111  0.6846 -0.3743
 3532TIP3   OH210559   1.179   2.885   0.929 -0.1949  0.1299 -0.5358
 3532TIP3    H110560   1.143   2.942   0.860 -0.8322  0.1013 -0.2357
 3532TIP3    H210561   1.102   2.859   0.980  0.1717 -0.5048 -0.3008
 3533TIP3   OH210562   5.379   2.873   1.800  0.0813 -0.3914 -0.3899
 3533TIP3    H110563   5.458   2.918   1.831  0.3145 -2.2088  1.9340
 3533TIP3    H210564   5.408   2.828   1.720  0.7300  0.8420 -0.8794
 3534TIP3   OH210565   2.333   4.507   2.404 -0.0699 -0.1720 -0.4064
 3534TIP3    H110566   2.308   4.596   2.380 -2.1874 -0.8728 -1.0202
 3534TIP3    H210567   2.271   4.483   2.473  1.0308 -0.9075  0.3673
 3535TIP3   OH210568   6.652   2.530   1.638  0.5765 -0.1773  0.3782
 3535TIP3    H110569   6.715   2.603   1.635  0.0074  0.2884 -0.5991
 3535TIP3    H210570   6.617   2.525   1.549  0.0763 -1.1890  0.6233
 3536TIP3   OH210571   5.192   2.165   1.134  0.1934 -0.0126 -0.4148
 3536TIP3    H110572   5.277   2.123   1.142 -0.1805 -0.4542  2.0943
 3536TIP3    H210573   5.138   2.102   1.086  0.1411 -1.7088  1.7284
 3537TIP3   OH210574   2.642   4.435   1.731 -0.0150 -0.3583  0.1000
 3537TIP3    H110575   2.628   4.477   1.816 -0.5639  0.1081 -0.2121
 3537TIP3    H210576   2.594   4.490   1.669 -0.3445 -1.1773 -0.3888
 3538TIP3   OH210577   4.050   5.466   2.793  0.5360 -0.2856 -0.1680
 3538TIP3    H110578   4.038   5.434   2.882 -2.0314  0.9851  0.0398
 3538TIP3    H210579   4.122   5.528   2.798  1.0297 -0.9224  0.8039
 3539TIP3   OH210580   7.035   5.242   3.670  0.0125 -0.2735  0.3244
 3539TIP3    H110581   7.027   5.151   3.699  1.5455 -0.5646 -0.0622
 3539TIP3    H210582   7.078   5.236   3.584 -0.3002  0.7972  0.0707
 3540TIP3   OH210583   0.897   3.329   1.315 -0.0008 -0.5551 -0.3342
 3540TIP3    H110584   0.817   3.326   1.367 -0.1645 -1.1572 -0.6173
 3540TIP3    H210585   0.872   3.374   1.234  0.7247  2.2337  0.8961
 3541TIP3   OH210586   6.254   2.478   3.905  0.2270  0.0750 -0.5719
 3541TIP3    H110587   6.282   2.391   3.874  1.0223 -1.1105  3.0551
 3541TIP3    H210588   6.328   2.535   3.887  0.4225 -0.3902 -1.3057
 3542TIP3   OH210589   1.582   0.020   2.050  0.0223 -0.0412 -0.5545
 3542TIP3    H110590   1.609   0.111   2.035 -0.8689  0.2332 -0.5470
 3542TIP3    H210591   1.649  -0.015   2.109  0.3815  0.6041 -0.5626
 3543TIP3   OH210592   6.777   0.477   3.062 -0.6684  0.4819  0.0956
 3543TIP3    H110593   6.842   0.486   2.992 -0.6688  0.2831  0.0669
 3543TIP3    H210594   6.788   0.387   3.092 -2.0403 -0.0998 -1.0244
 3544TIP3   OH210595   4.715   6.257   3.052 -0.2375 -0.2215  0.4370
 3544TIP3    H110596   4.656   6.327   3.022 -1.7452 -1.5147  0.2735
 3544TIP3    H210597   4.756   6.293   3.130 -2.7144  0.0756  1.7012
 3545TIP3   OH210598   6.657   0.171   3.059  0.3366  0.6014 -0.3372
 3545TIP3    H110599   6.712   0.093   3.048 -0.2488 -0.0103  0.9111
 3545TIP3    H210600   6.602   0.172   2.980  1.2408  0.5012 -0.9806
 3546TIP3   OH210601   2.870   5.552   3.412  0.0988 -0.1240  0.6016
 3546TIP3    H110602   2.867   5.457   3.429  0.7795 -0.0376  1.2606
 3546TIP3    H210603   2.964   5.572   3.408 -0.0429  0.5867  0.8449
 3547TIP3   OH210604   1.071   6.014   0.974 -0.4644  0.1471  0.1660
 3547TIP3    H110605   1.111   5.999   0.888 -0.7053  2.3558 -0.3876
 3547TIP3    H210606   1.143   6.044   1.030 -0.6676  0.6671  0.1569
 3548TIP3   OH210607   4.748   0.812   3.717  0.3079 -0.1022  0.5628
 3548TIP3    H110608   4.694   0.811   3.796 -1.1119  0.2038 -0.3734
 3548TIP3    H210609   4.754   0.904   3.692  1.1420 -0.1495  0.5572
 3549TIP3   OH210610   5.595   3.117   2.717  0.0643 -0.1615 -0.1713
 3549TIP3    H110611   5.505   3.106   2.685  0.2174  0.9328 -1.0836
 3549TIP3    H210612   5.611   3.212   2.709  0.5997 -0.0345  1.9346
 3550TIP3   OH210613   6.473   0.054   4.261  0.0907 -0.0132  0.3898
 3550TIP3    H110614   6.540   0.123   4.258 -0.1800  0.2875  0.9109
 3550TIP3    H210615   6.510  -0.018   4.211  0.5623  0.3618  0.1876
 3551TIP3   OH210616   5.487   5.759   4.782 -0.4528 -0.3948 -0.0084
 3551TIP3    H110617   5.547   5.729   4.713 -0.7511 -2.2022  0.4556
 3551TIP3    H210618   5.431   5.823   4.739 -0.0626 -0.8457 -1.2331
 3552TIP3   OH210619   5.245   3.865   4.968 -0.2359 -0.1147  0.0288
 3552TIP3    H110620   5.340   3.855   4.955 -0.0938 -1.9792  2.0082
 3552TIP3    H210621   5.209   3.862   4.879  1.3131 -2.8975 -0.6174
 3553TIP3   OH210622   6.381   2.708   0.498  0.4055 -0.2707 -0.3333
 3553TIP3    H110623   6.363   2.750   0.414  1.4992 -0.7415 -0.8282
 3553TIP3    H210624   6.472   2.678   0.491  0.3166 -0.8763  0.7845
 3554TIP3   OH210625   0.046   2.531   0.452 -0.2633 -0.4396 -0.2690
 3554TIP3    H110626   0.040   2.625   0.473  1.3742  0.1913 -2.2398
 3554TIP3    H210627   0.110   2.497   0.513 -0.9730 -0.3183  0.5558
 3555TIP3   OH210628   6.356   1.075   1.939 -0.1142 -0.2198  0.0067
 3555TIP3    H110629   6.379   0.993   1.982  0.6605 -0.0709 -0.1174
 3555TIP3    H210630   6.338   1.136   2.011 -0.0350 -0.3154  0.1069
 3556TIP3   OH210631   6.741   4.920   4.838  0.3904 -0.1276  0.4643
 3556TIP3    H110632   6.705   4.855   4.899 -0.4396  1.9598  2.3532
 3556TIP3    H210633   6.814   4.960   4.886  0.1332  1.1268 -0.1482
 3557TIP3   OH210634   1.194   5.237   3.293  0.1319 -0.2696 -0.0766
 3557TIP3    H110635   1.190   5.313   3.351  0.1612  0.6081 -1.1967
 3557TIP3    H210636   1.287   5.227   3.273 -0.0010  0.2802 -1.0379
 3558TIP3   OH210637   3.563   3.086   4.224 -0.5725  0.2373 -0.2410
 3558TIP3    H110638   3.615   3.165   4.236  0.5319 -0.4545 -0.3117
 3558TIP3    H210639   3.526   3.095   4.136  0.7231  0.0289 -0.8272
 3559TIP3   OH210640   5.837   4.980   4.689 -0.0283  0.1723 -0.0516
 3559TIP3    H110641   5.784   5.058   4.705 -0.2442 -0.1670  0.9175
 3559TIP3    H210642   5.927   5.011   4.697 -0.0669 -0.1992  3.3340
 3560TIP3   OH210643   4.612   3.244   1.603 -0.2588  0.0594 -0.4077
 3560TIP3    H110644   4.521   3.239   1.633 -0.5283  1.1594 -0.9583
 3560TIP3    H210645   4.605   3.258   1.509  0.4864  0.0561 -0.4666
 3561TIP3   OH210646   1.528   0.440   2.703  0.1124  0.8822 -0.7084
 3561TIP3    H110647   1.602   0.484   2.661  0.9460 -0.7928 -1.1032
 3561TIP3    H210648   1.546   0.347   2.690 -0.8917  0.3757  1.2482
 3562TIP3   OH210649   1.218   2.799   1.949 -0.4766  0.5752  0.2382
 3562TIP3    H110650   1.175   2.881   1.925 -3.5110 -0.9269  0.1054
 3562TIP3    H210651   1.284   2.785   1.881 -1.7155  1.6011 -1.2184
 3563TIP3   OH210652   1.469   1.797   2.685  0.1511  0.3586 -0.2884
 3563TIP3    H110653   1.488   1.875   2.633 -0.9640  1.7772  1.3225
 3563TIP3    H210654   1.423   1.739   2.625 -1.4533  2.0993 -0.8496
 3564TIP3   OH210655   2.820   2.274   5.583  0.0903  0.6241 -0.2688
 3564TIP3    H110656   2.905   2.251   5.546  0.4555  3.1276 -1.2021
 3564TIP3    H210657   2.840   2.329   5.658 -0.7212 -0.3989  0.7283
 3565TIP3   OH210658   1.567   1.202   4.624 -0.1631 -0.4074 -0.0640
 3565TIP3    H110659   1.546   1.114   4.593 -0.5328 -0.4562  0.3150
 3565TIP3    H210660   1.611   1.244   4.550 -2.0371 -0.1170 -1.0808
 3566TIP3   OH210661   3.851   1.091   2.610  0.2311 -0.2677 -0.5549
 3566TIP3    H110662   3.918   1.081   2.542  0.7496  0.7932 -0.2185
 3566TIP3    H210663   3.823   1.183   2.604  2.2723  0.7148  2.4057
 3567TIP3   OH210664   0.518   4.942   1.674  0.1283 -0.5656 -0.3348
 3567TIP3    H110665   0.487   4.852   1.669  0.2015 -0.6235  0.2019
 3567TIP3    H210666   0.492   4.972   1.761  1.2817 -0.5101  0.0114
 3568TIP3   OH210667   1.099   1.204   0.625  0.4349  0.4061  0.3970
 3568TIP3    H110668   1.044   1.127   0.635  0.4340  0.3172 -0.2548
 3568TIP3    H210669   1.060   1.269   0.684 -0.2163  0.2609  0.1369
 3569TIP3   OH210670   6.182   3.695   2.432  0.2453  0.3440  0.3024
 3569TIP3    H110671   6.264   3.737   2.459  0.0809  0.8435  0.0215
 3569TIP3    H210672   6.208   3.634   2.363 -0.0170  2.8161 -2.1427
 3570TIP3   OH210673   2.312   3.897   4.039 -0.0387  0.4944 -0.5509
 3570TIP3    H110674   2.261   3.823   4.072  0.1926 -0.1542 -1.6039
 3570TIP3    H210675   2.277   3.973   4.087 -1.6454 -0.0010 -0.8563
 3571TIP3   OH210676   2.351   5.139   0.622 -0.1397  0.6876  0.5125
 3571TIP3    H110677   2.433   5.187   0.616 -0.0801  0.4541 -0.8574
 3571TIP3    H210678   2.284   5.207   0.635  0.1611  0.9604  0.6356
 3572TIP3   OH210679   3.978   3.512   2.489  0.5638 -0.2326 -0.6301
 3572TIP3    H110680   3.965   3.606   2.501  2.4871 -0.1557  1.5199
 3572TIP3    H210681   3.922   3.472   2.555  2.1141 -0.4068  0.6237
 3573TIP3   OH210682   2.149   2.667   4.663  0.0730 -0.5283 -0.4023
 3573TIP3    H110683   2.179   2.590   4.712 -0.2408  0.6790  1.8239
 3573TIP3    H210684   2.054   2.670   4.679  0.4855  2.0219  2.2853
 3574TIP3   OH210685   3.871   2.056   3.853 -0.3169  0.6716 -0.2795
 3574TIP3    H110686   3.948   2.003   3.874  0.6936  1.7125 -1.2402
 3574TIP3    H210687   3.861   2.115   3.927 -0.4613  0.2479  0.0433
 3575TIP3   OH210688   2.009   6.413   3.471  0.0193 -0.8509  0.5103
 3575TIP3    H110689   1.987   6.471   3.544  0.8275 -0.3125  0.3387
 3575TIP3    H210690   1.925   6.379   3.441 -0.4728  0.2481  0.5926
 3576TIP3   OH210691   0.970   2.243   2.015 -0.4481 -0.2228 -0.3990
 3576TIP3    H110692   1.037   2.203   1.960 -0.6873 -2.3681  0.7569
 3576TIP3    H210693   0.888   2.201   1.988 -0.8951  0.3374  0.0623
 3577TIP3   OH210694  -0.001   5.240   0.775 -0.1889  0.3545  0.3309
 3577TIP3    H110695   0.071   5.292   0.809  0.4810 -0.6104  0.4342
 3577TIP3    H210696   0.008   5.246   0.680 -0.4579  0.8831  0.3367
 3578TIP3   OH210697   6.140   4.444   2.496  0.2188  0.2318  0.9707
 3578TIP3    H110698   6.046   4.459   2.509  0.4968  1.3436  1.8024
 3578TIP3    H210699   6.146   4.406   2.408 -1.1439 -1.4118  1.5194
 3579TIP3   OH210700   2.749   0.981   2.417  0.1796 -0.6033 -0.4628
 3579TIP3    H110701   2.730   1.072   2.438 -0.5413 -0.7952 -0.2587
 3579TIP3    H210702   2.839   0.982   2.383  0.6183  0.0013  0.6732
 3580TIP3   OH210703   0.035   6.257   0.453 -0.2342  0.5809 -0.1072
 3580TIP3    H110704  -0.054   6.280   0.480 -0.5541 -0.6802 -0.0003
 3580TIP3    H210705   0.023   6.180   0.397  0.8569 -0.2620  0.7650
 3581TIP3   OH210706   4.048   0.103   0.617  0.2632  0.3899  0.2666
 3581TIP3    H110707   4.004   0.022   0.591 -0.2238  1.1010 -1.2475
 3581TIP3    H210708   4.043   0.103   0.713 -0.6164 -0.8698  0.2506
 3582TIP3   OH210709   5.246   3.148   3.281  0.1346 -0.3285 -0.0678
 3582TIP3    H110710   5.286   3.164   3.196  2.4031 -1.4676  0.6957
 3582TIP3    H210711   5.317   3.113   3.335 -1.5241 -0.8245  1.9395
 3583TIP3   OH210712   5.960   5.960   4.005  0.1646  0.0971  0.5489
 3583TIP3    H110713   5.942   5.983   3.914 -0.1975  0.1704  0.6387
 3583TIP3    H210714   5.883   5.912   4.034 -0.0906  0.7916  1.0631
 3584TIP3   OH210715   2.080   3.295   5.835 -0.2186 -0.0949  0.1024
 3584TIP3    H110716   2.021   3.327   5.903 -1.4955 -1.4727 -0.3129
 3584TIP3    H210717   2.102   3.206   5.863  0.4330 -0.1447 -0.5429
 3585TIP3   OH210718   1.548   0.239   3.219  0.4417  0.7253  0.5611
 3585TIP3    H110719   1.479   0.193   3.171 -1.0760  0.1467  3.0711
 3585TIP3    H210720   1.606   0.169   3.250 -0.2018  0.7390  1.8831
 3586TIP3   OH210721   1.222   4.269   1.536 -0.4174 -0.0564 -0.2592
 3586TIP3    H110722   1.294   4.244   1.478 -0.7370 -2.5047  0.2872
 3586TIP3    H210723   1.206   4.191   1.590 -1.7919  1.2810  1.4033
 3587TIP3   OH210724   0.119   2.818   0.601  0.1196  0.3296 -0.5185
 3587TIP3    H110725   0.132   2.848   0.511  0.4957 -0.8564 -0.8790
 3587TIP3    H210726   0.185   2.865   0.652  2.7392 -1.9369 -1.5415
 3588TIP3   OH210727   2.607   1.773   2.493 -0.1517 -0.0365 -0.8211
 3588TIP3    H110728   2.604   1.690   2.541 -3.7542 -0.0994 -0.9126
 3588TIP3    H210729   2.524   1.777   2.447  0.3688  3.1661 -1.6865
 3589TIP3   OH210730   5.130   4.303   4.810  0.3544  0.0790 -0.6726
 3589TIP3    H110731   5.155   4.380   4.861  0.6800 -1.8339  2.3647
 3589TIP3    H210732   5.039   4.286   4.838  0.2520 -0.5656 -1.3864
 3590TIP3   OH210733   5.518   1.741   2.794 -0.1998  0.2345  0.3389
 3590TIP3    H110734   5.592   1.744   2.733 -0.5909 -1.4371 -0.2761
 3590TIP3    H210735   5.483   1.830   2.793  2.1983  1.2665  1.1982
 3591TIP3   OH210736   5.226   2.565   5.146  0.1651 -0.0061 -0.2797
 3591TIP3    H110737   5.223   2.656   5.173  2.5670  0.2492 -0.6243
 3591TIP3    H210738   5.314   2.535   5.172  0.2118 -1.5995 -2.0435
 3592TIP3   OH210739   3.123   0.114   2.090 -0.6264  0.5330 -0.2762
 3592TIP3    H110740   3.195   0.053   2.110 -2.0833 -1.3161 -0.4193
 3592TIP3    H210741   3.047   0.075   2.132 -1.6613  2.1719 -0.5826
 3593TIP3   OH210742   5.748   6.622   4.227 -0.1804 -0.2600 -0.2661
 3593TIP3    H110743   5.819   6.596   4.169 -0.5157 -0.2311 -0.6985
 3593TIP3    H210744   5.694   6.544   4.237 -0.6196 -0.0282 -0.7329
 3594TIP3   OH210745   3.117   2.739   4.683  0.0652  0.6367  0.1820
 3594TIP3    H110746   3.052   2.674   4.657  1.5313 -0.2887 -1.3473
 3594TIP3    H210747   3.071   2.794   4.747 -2.1886 -0.0028 -0.7839
 3595TIP3   OH210748   5.892   0.626   3.391 -0.1440 -0.9274 -0.0483
 3595TIP3    H110749   5.956   0.566   3.430 -0.3473 -0.8283  0.4369
 3595TIP3    H210750   5.897   0.607   3.297 -0.9424 -2.4580  0.1830
 3596TIP3   OH210751   0.756   0.838   4.210 -0.0934  0.0978  0.0801
 3596TIP3    H110752   0.697   0.876   4.144 -1.3457 -0.6177  0.7476
 3596TIP3    H210753   0.841   0.878   4.191 -0.9272  1.7578 -0.4453
 3597TIP3   OH210754   6.984   5.894   2.777 -0.1607 -0.0695 -0.2500
 3597TIP3    H110755   7.006   5.967   2.836  0.6255 -0.2234 -0.3345
 3597TIP3    H210756   7.010   5.816   2.826 -0.0004 -0.2274 -0.5835
 3598TIP3   OH210757   1.867   3.044   3.427  0.5835 -0.1866  0.1350
 3598TIP3    H110758   1.857   2.949   3.419  1.6404 -0.4523  1.5204
 3598TIP3    H210759   1.817   3.067   3.505 -1.7053  0.8234 -1.5270
 3599TIP3   OH210760   0.533   5.354   2.346 -0.6241  0.2608  0.2624
 3599TIP3    H110761   0.469   5.416   2.311 -0.8840 -1.0687 -1.8250
 3599TIP3    H210762   0.618   5.391   2.322 -0.7146  0.5712  0.4125
 3600TIP3   OH210763   3.395   2.407   2.190 -0.1926 -0.1563 -0.0381
 3600TIP3    H110764   3.484   2.383   2.163 -0.7118 -1.3099 -0.7664
 3600TIP3    H210765   3.355   2.445   2.112 -0.5516 -0.2186  0.1161
 3601TIP3   OH210766   6.925   1.128   5.388 -0.3868 -0.3685 -0.8243
 3601TIP3    H110767   6.906   1.213   5.428  1.5948  0.3854 -1.3649
 3601TIP3    H210768   6.913   1.143   5.294  1.3606 -0.2178 -1.0645
 3602TIP3   OH210769   0.741   3.415   3.151  0.2065 -0.2774 -0.1857
 3602TIP3    H110770   0.830   3.447   3.136  0.0550  0.9764  1.3673
 3602TIP3    H210771   0.713   3.381   3.066  2.2976 -1.0817 -0.6125
 3603TIP3   OH210772   2.200   0.087   5.376 -0.3969 -1.2047 -0.3114
 3603TIP3    H110773   2.128   0.035   5.342  0.5904 -2.9207  0.1104
 3603TIP3    H210774   2.169   0.178   5.372 -3.4416 -2.0044  1.9662
 3604TIP3   OH210775   5.207   4.784   0.233 -0.7621  0.1096  0.1301
 3604TIP3    H110776   5.273   4.741   0.178 -0.1823 -1.6352  2.0511
 3604TIP3    H210777   5.145   4.822   0.171  0.8251 -0.1523 -1.7170
 3605TIP3   OH210778   1.089   2.914   4.726  0.2528  0.0087  0.1716
 3605TIP3    H110779   1.149   2.863   4.673  1.6923  1.1144  0.6743
 3605TIP3    H210780   1.036   2.962   4.663  1.9511  1.3154 -0.3477
 3606TIP3   OH210781   0.874   2.456   3.019 -0.1710  0.9586  0.4838
 3606TIP3    H110782   0.780   2.455   3.003 -0.3606 -0.8888  1.4365
 3606TIP3    H210783   0.883   2.432   3.111  1.1746  3.2629  1.0178
 3607TIP3   OH210784   5.550   2.753   1.126 -0.8508 -0.3505  0.6154
 3607TIP3    H110785   5.481   2.759   1.191 -0.3582 -1.2086  1.2423
 3607TIP3    H210786   5.541   2.832   1.073 -1.1705  0.4344  1.8053
 3608TIP3   OH210787   4.624   0.414   1.755 -0.6440  0.5761  0.1104
 3608TIP3    H110788   4.677   0.473   1.809 -0.4245 -0.9643  1.6713
 3608TIP3    H210789   4.687   0.358   1.711 -0.8758 -0.9437  1.6001
 3609TIP3   OH210790   6.666   6.220   4.997 -0.3666  0.5687 -0.0559
 3609TIP3    H110791   6.749   6.191   5.035  0.3718  0.3643 -1.7420
 3609TIP3    H210792   6.687   6.242   4.906 -2.2620  0.0147 -0.6801
 3610TIP3   OH210793   5.444   6.383   3.476 -0.4720 -0.8259 -0.0761
 3610TIP3    H110794   5.397   6.347   3.551  0.3068  1.3587  1.5381
 3610TIP3    H210795   5.524   6.420   3.512 -0.5498  1.2123 -1.8220
 3611TIP3   OH210796   2.516   4.023   3.185 -0.2616  0.6156  0.1560
 3611TIP3    H110797   2.490   3.964   3.114  0.0471 -1.5489  1.7192
 3611TIP3    H210798   2.608   4.000   3.202  0.4189  2.8155 -0.3218
 3612TIP3   OH210799   1.538   6.763   5.273  0.4226 -0.6048  0.1172
 3612TIP3    H110800   1.445   6.758   5.295  0.8038 -1.7485  1.7050
 3612TIP3    H210801   1.548   6.708   5.196 -0.4813  1.0229 -1.2266
 3613TIP3   OH210802   7.045   1.979   1.929  0.4130 -0.2105 -0.0485
 3613TIP3    H110803   7.107   1.906   1.929 -1.5140 -1.9716  1.3072
 3613TIP3    H210804   7.086   2.044   1.986  2.0096 -0.3365 -0.9848
 3614TIP3   OH210805   0.373   1.378   3.141  0.1028 -0.2172  0.9863
 3614TIP3    H110806   0.305   1.388   3.074  0.1135 -2.0276  0.6587
 3614TIP3    H210807   0.452   1.414   3.101 -0.2761  0.3750  0.7435
 3615TIP3   OH210808   5.736   4.680   3.896  0.0514 -0.3032 -0.0046
 3615TIP3    H110809   5.824   4.656   3.925 -0.0620 -1.4148 -0.5425
 3615TIP3    H210810   5.685   4.600   3.906 -1.2216  0.6273  1.4547
 3616TIP3   OH210811   5.545   3.022   4.585 -0.0365  0.2755  0.2446
 3616TIP3    H110812   5.489   2.965   4.532 -0.0960 -0.0025  0.6016
 3616TIP3    H210813   5.528   3.110   4.552 -1.2828  0.2924  0.8776
 3617TIP3   OH210814   3.383   0.818   4.151  0.2000  0.1986 -0.0104
 3617TIP3    H110815   3.335   0.745   4.111 -1.2110  1.1901 -0.2218
 3617TIP3    H210816   3.330   0.895   4.130  0.3032  0.9833  2.3362
 3618TIP3   OH210817   3.325   6.242   1.159  0.0568  0.2995  0.2396
 3618TIP3    H110818   3.393   6.193   1.114 -0.0093 -0.7076  1.1978
 3618TIP3    H210819   3.301   6.188   1.234 -3.5034 -0.5616 -1.2922
 3619TIP3   OH210820   6.244   2.955   2.558  0.2078 -0.2967  0.1832
 3619TIP3    H110821   6.287   3.013   2.621  0.8829 -0.9858  0.3632
 3619TIP3    H210822   6.283   2.869   2.574 -1.5592 -1.0540  0.6890
 3620TIP3   OH210823   3.829   3.767   5.226 -0.2209  0.0841  0.2915
 3620TIP3    H110824   3.786   3.696   5.179  0.1410 -0.0473  0.1546
 3620TIP3    H210825   3.788   3.847   5.193 -1.2897 -0.1062  1.1255
 3621TIP3   OH210826   5.629   1.301   0.083 -0.3128 -0.4416  0.2483
 3621TIP3    H110827   5.605   1.251   0.161 -0.0459 -1.4730 -0.3089
 3621TIP3    H210828   5.547   1.343   0.056 -0.5324 -0.5325  0.7626
 3622TIP3   OH210829   0.459   6.545   2.911  0.6896 -0.4012  0.4749
 3622TIP3    H110830   0.505   6.468   2.877 -0.4256 -0.9070  0.0868
 3622TIP3    H210831   0.397   6.510   2.974 -1.2916 -0.0833 -1.1922
 3623TIP3   OH210832   3.090   3.351   2.068  0.1712  0.4140 -0.6181
 3623TIP3    H110833   3.039   3.350   2.149 -0.9269  1.1479 -1.2700
 3623TIP3    H210834   3.160   3.415   2.084  0.1556  0.3148 -0.1409
 3624TIP3   OH210835   3.228   6.396   0.044  0.0755 -0.3562 -0.0901
 3624TIP3    H110836   3.215   6.377  -0.049 -0.3127  0.7055 -0.2623
 3624TIP3    H210837   3.315   6.360   0.063  0.8253  0.7591 -1.2540
 3625TIP3   OH210838   6.356   1.058   0.843  0.4060  0.3302 -0.4096
 3625TIP3    H110839   6.426   1.035   0.904  1.4047  0.0129 -1.6274
 3625TIP3    H210840   6.376   1.148   0.817 -0.1231  0.5300 -0.1280
 3626TIP3   OH210841   1.340   1.362   1.902  0.1007  0.2492  0.4114
 3626TIP3    H110842   1.345   1.396   1.813 -1.8575 -0.1950  0.0659
 3626TIP3    H210843   1.426   1.379   1.940  1.0296  0.3249 -1.6006
 3627TIP3   OH210844   4.591   1.439   2.039 -0.4307 -0.1379  0.2927
 3627TIP3    H110845   4.600   1.483   2.124 -0.0427 -0.4563  0.4193
 3627TIP3    H210846   4.512   1.386   2.048  0.8063 -1.8979  1.2465
 3628TIP3   OH210847   3.904   4.110   3.717  0.3159  0.1368  0.2772
 3628TIP3    H110848   3.872   4.053   3.787 -2.0284  3.0038  1.7769
 3628TIP3    H210849   3.840   4.100   3.647  1.1706 -0.7151 -0.4059
 3629TIP3   OH210850   6.127   5.341   4.901 -0.1050 -0.1543 -0.0576
 3629TIP3    H110851   6.193   5.411   4.911 -1.6399  1.2762  0.4981
 3629TIP3    H210852   6.053   5.371   4.953 -1.8598 -0.8860 -2.0171
 3630TIP3   OH210853   2.135   4.617   0.633 -0.5632 -0.1134 -0.1360
 3630TIP3    H110854   2.202   4.667   0.588  0.1164  0.0217  0.9694
 3630TIP3    H210855   2.052   4.644   0.593 -0.0325  0.4104 -0.8840
 3631TIP3   OH210856   6.091   1.168   4.819  0.0095  0.0344 -0.3122
 3631TIP3    H110857   6.149   1.101   4.855 -0.9609 -0.7236 -0.1060
 3631TIP3    H210858   6.086   1.234   4.888  1.7388  0.8338 -0.8977
 3632TIP3   OH210859   7.061   5.583   3.223  0.3220 -0.1796 -0.5740
 3632TIP3    H110860   7.126   5.513   3.232 -0.4063 -0.7066  1.0772
 3632TIP3    H210861   6.997   5.548   3.161  0.5565 -0.4992 -0.6385
 3633TIP3   OH210862   3.892   2.881   1.426 -0.0683  0.7433  0.1243
 3633TIP3    H110863   3.835   2.958   1.419 -0.1334  1.0471  3.0895
 3633TIP3    H210864   3.835   2.812   1.459  0.5314  0.0384 -0.2868
 3634TIP3   OH210865   1.605   3.139   1.709 -0.2510  0.9992 -0.1454
 3634TIP3    H110866   1.566   3.223   1.733  0.6293  1.0789  1.0904
 3634TIP3    H210867   1.697   3.159   1.693  0.4367  0.0113  2.0974
 3635TIP3   OH210868   5.003   1.851   3.402 -0.1413  0.1956  0.2252
 3635TIP3    H110869   4.984   1.929   3.454 -1.1704 -0.7789  1.4098
 3635TIP3    H210870   4.990   1.778   3.464 -1.2394 -1.0081 -1.3303
 3636TIP3   OH210871   2.565   6.393   3.797  0.0116  0.3451 -0.1008
 3636TIP3    H110872   2.533   6.313   3.755  0.3016  0.4528 -0.5282
 3636TIP3    H210873   2.600   6.446   3.725 -1.7133  1.6129 -0.0699
 3637TIP3   OH210874   6.851   0.345   5.077 -0.0421  0.0071  0.2129
 3637TIP3    H110875   6.827   0.255   5.055  0.1861 -0.2099  0.8411
 3637TIP3    H210876   6.837   0.394   4.996 -3.0112 -0.0076  0.5903
 3638TIP3   OH210877   4.054   1.637   1.297 -0.0046  0.1691 -0.5261
 3638TIP3    H110878   4.051   1.607   1.206  0.9305 -0.8162 -0.2637
 3638TIP3    H210879   4.008   1.568   1.346 -0.9497  0.9468 -0.3046
 3639TIP3   OH210880   0.621   5.820   3.666 -0.4410  0.2138 -0.6085
 3639TIP3    H110881   0.654   5.767   3.594 -2.5316  1.6181 -2.7175
 3639TIP3    H210882   0.572   5.891   3.625 -0.0624  2.2678  2.1562
 3640TIP3   OH210883   3.818   5.855   0.359  0.4012 -0.0591 -0.2147
 3640TIP3    H110884   3.869   5.933   0.338 -0.7168 -0.0847 -3.4715
 3640TIP3    H210885   3.728   5.878   0.337 -0.3804 -1.4138  1.3812
 3641TIP3   OH210886   6.650   5.949   4.960  0.0129  0.1595 -0.0760
 3641TIP3    H110887   6.623   6.040   4.950 -0.3015 -0.0281 -1.0014
 3641TIP3    H210888   6.588   5.899   4.907  0.6545 -0.5215 -0.2095
 3642TIP3   OH210889   6.318   2.400   3.075  0.0657  0.5571 -0.3723
 3642TIP3    H110890   6.282   2.324   3.030 -0.0602 -0.3242  1.1499
 3642TIP3    H210891   6.320   2.469   3.008 -3.6056  0.4281 -0.8278
 3643TIP3   OH210892   4.993   2.821   5.895  0.4318  0.2417 -0.0802
 3643TIP3    H110893   4.961   2.905   5.862 -0.3159 -0.2830 -0.7302
 3643TIP3    H210894   4.954   2.756   5.837  2.0139 -0.4939 -0.3762
 3644TIP3   OH210895   6.592   3.518   0.963 -0.3645 -0.1125 -0.5598
 3644TIP3    H110896   6.680   3.501   0.930  0.3198  1.2602  0.4414
 3644TIP3    H210897   6.572   3.607   0.934  0.1118  1.0120  2.1778
 3645TIP3   OH210898   4.415   4.409   3.481 -0.6832 -0.3729  0.1698
 3645TIP3    H110899   4.324   4.403   3.510 -1.5329  2.8829 -1.3314
 3645TIP3    H210900   4.415   4.369   3.394 -1.2508  1.3963 -0.6970
 3646TIP3   OH210901   4.807   5.720   4.899  0.1864 -0.1080  0.3782
 3646TIP3    H110902   4.816   5.812   4.922 -1.4931  0.4103 -0.8151
 3646TIP3    H210903   4.750   5.683   4.967  2.2126 -0.7395  1.8230
 3647TIP3   OH210904   3.452   5.344   1.024 -0.6798 -0.0758  0.1145
 3647TIP3    H110905   3.416   5.261   0.993  0.4948 -0.2672 -0.8269
 3647TIP3    H210906   3.474   5.392   0.944  0.1405  0.4683  0.6397
 3648TIP3   OH210907   3.783   1.890   3.342 -0.0457  0.1171  0.5779
 3648TIP3    H110908   3.795   1.906   3.435 -0.1762 -0.3738  0.6844
 3648TIP3    H210909   3.738   1.805   3.338 -0.4300  0.3384  0.0848
 3649TIP3   OH210910   3.154   0.289   2.995 -0.2347  0.1338  0.2000
 3649TIP3    H110911   3.168   0.311   2.903 -1.1380  3.8760  0.8032
 3649TIP3    H210912   3.061   0.269   3.002 -0.1092 -0.4532  0.2917
 3650TIP3   OH210913   0.096   0.254   2.438 -0.0115  0.0143  0.0738
 3650TIP3    H110914   0.075   0.310   2.363 -2.5499 -1.7998 -0.7102
 3650TIP3    H210915   0.037   0.284   2.507 -2.0938 -2.1193 -0.6443
 3651TIP3   OH210916   5.200   2.691  -0.005 -0.1529  0.0065  0.3604
 3651TIP3    H110917   5.268   2.698   0.062 -1.1886 -0.7502  1.5290
 3651TIP3    H210918   5.120   2.668   0.043 -1.0334 -0.0988 -1.0796
 3652TIP3   OH210919   6.779   6.063   5.650 -0.0239 -0.1448 -0.0608
 3652TIP3    H110920   6.695   6.024   5.626  1.6282 -1.8540 -4.1443
 3652TIP3    H210921   6.787   6.139   5.592  1.3295 -0.1354  0.1166
 3653TIP3   OH210922   6.055   3.254   2.840 -0.0699  0.3978  0.5152
 3653TIP3    H110923   6.103   3.301   2.771 -0.0166  1.0803  1.0080
 3653TIP3    H210924   5.977   3.221   2.796 -0.4124  1.4644  0.2848
 3654TIP3   OH210925   4.761   5.529   0.532 -0.5877  0.2667  0.6849
 3654TIP3    H110926   4.783   5.522   0.439 -1.0504  1.8470  0.4203
 3654TIP3    H210927   4.828   5.477   0.577 -0.6356 -0.9008 -0.5515
 3655TIP3   OH210928   4.703   4.840   2.287 -0.3296 -0.3061  1.0664
 3655TIP3    H110929   4.673   4.811   2.374 -0.0606 -1.9099  0.6597
 3655TIP3    H210930   4.770   4.906   2.306 -0.3870 -0.5206  2.0862
 3656TIP3   OH210931   1.697   3.189   2.499  0.3245 -0.3801  0.3950
 3656TIP3    H110932   1.792   3.185   2.514  0.3946  1.9309  0.9070
 3656TIP3    H210933   1.666   3.258   2.557 -1.6182 -0.7169 -0.1563
 3657TIP3   OH210934   4.805   4.014   0.468 -0.0363 -0.1132 -0.3135
 3657TIP3    H110935   4.890   4.050   0.493 -0.3408 -0.6245  1.6381
 3657TIP3    H210936   4.821   3.920   0.458 -0.2725 -0.1486 -0.3604
 3658TIP3   OH210937   1.182   0.345   4.154 -0.2651  0.5669  0.1891
 3658TIP3    H110938   1.155   0.391   4.075 -0.8176 -0.1718 -0.0579
 3658TIP3    H210939   1.276   0.360   4.159 -0.3648  1.3517 -0.1268
 3659TIP3   OH210940   3.264   2.270   1.208  0.0446 -0.2248  0.4583
 3659TIP3    H110941   3.288   2.207   1.141 -1.0580 -0.8812  0.6594
 3659TIP3    H210942   3.345   2.282   1.259 -0.0884 -2.6798  1.3838
 3660TIP3   OH210943   5.111   5.369   3.925  0.1190  0.0492  0.1348
 3660TIP3    H110944   5.038   5.313   3.897  0.5285 -0.7514  0.6351
 3660TIP3    H210945   5.157   5.391   3.844 -0.2595 -0.0324 -0.1072
 3661TIP3   OH210946   5.659   2.502   2.906 -0.5174  0.4801  0.0487
 3661TIP3    H110947   5.695   2.548   2.831 -2.5413  0.2291 -1.1498
 3661TIP3    H210948   5.679   2.558   2.981 -0.7222  2.0308 -1.0315
 3662TIP3   OH210949   1.465   4.109   5.622  0.5464 -0.2386  0.0616
 3662TIP3    H110950   1.461   4.014   5.617  0.3632 -0.1798 -1.8132
 3662TIP3    H210951   1.550   4.128   5.662 -0.0775 -1.1660  1.9210
 3663TIP3   OH210952   6.183   6.519   5.003 -0.1039 -0.1118  0.4289
 3663TIP3    H110953   6.225   6.469   4.933  0.4132  0.8248  0.0577
 3663TIP3    H210954   6.128   6.583   4.958  0.2114  0.4785  0.8689
 3664TIP3   OH210955   6.381   2.204   5.190 -0.6872 -0.0674  0.0561
 3664TIP3    H110956   6.347   2.265   5.255  0.5287  0.7237 -0.0204
 3664TIP3    H210957   6.461   2.170   5.229 -0.9429 -1.0459 -0.2375
 3665TIP3   OH210958   7.118   1.328   2.192 -0.0123  0.7008  0.6694
 3665TIP3    H110959   7.086   1.417   2.204  0.3130  0.8288  0.6056
 3665TIP3    H210960   7.052   1.272   2.234 -0.3733  0.9487  0.4332
 3666TIP3   OH210961   1.697   3.773   0.168 -0.0145  0.2323 -0.4328
 3666TIP3    H110962   1.637   3.704   0.197  1.3226 -0.0329  1.9513
 3666TIP3    H210963   1.644   3.852   0.168 -1.3092 -0.5560 -2.1949
 3667TIP3   OH210964   4.660   1.121   5.079 -0.7419  0.1562 -0.2156
 3667TIP3    H110965   4.574   1.144   5.115 -0.8466 -1.6761  0.8050
 3667TIP3    H210966   4.721   1.141   5.150 -0.6550 -1.0729  0.0721
 3668TIP3   OH210967   5.738   3.298   2.132  0.0177  0.1304 -0.4406
 3668TIP3    H110968   5.762   3.212   2.096  1.3935  0.5456 -0.5461
 3668TIP3    H210969   5.660   3.323   2.083 -0.1877 -0.8832 -0.6711
 3669TIP3   OH210970   1.920   5.657   5.494 -0.1886 -0.0065 -0.2350
 3669TIP3    H110971   1.903   5.738   5.447 -0.4047 -0.4285 -0.9002
 3669TIP3    H210972   1.836   5.633   5.532  0.3925  1.3712  2.0891
 3670TIP3   OH210973   6.480   2.382   4.267  0.3422  0.2203 -0.0287
 3670TIP3    H110974   6.411   2.336   4.314  1.5139  0.4850  2.0472
 3670TIP3    H210975   6.524   2.313   4.217  0.0668 -0.3443  0.4988
 3671TIP3   OH210976   1.328   0.310   5.536  0.5400 -0.2698 -0.1007
 3671TIP3    H110977   1.337   0.373   5.465 -0.1084 -1.1235 -0.9604
 3671TIP3    H210978   1.358   0.227   5.499 -0.2976 -0.8366  0.4519
 3672TIP3   OH210979   1.678   4.862   4.304 -0.3391  0.3722 -0.2982
 3672TIP3    H110980   1.744   4.905   4.249  0.4144  0.9285  0.9790
 3672TIP3    H210981   1.632   4.803   4.245  1.7217 -0.5150 -1.1339
 3673TIP3   OH210982   5.487   0.156   0.881  0.7176 -0.2879 -0.0125
 3673TIP3    H110983   5.433   0.205   0.819  0.9551 -0.2341 -0.1798
 3673TIP3    H210984   5.440   0.161   0.964  0.1293 -0.8019 -0.3059
 3674TIP3   OH210985   0.363   1.834   0.141  0.3866  0.1909  0.6939
 3674TIP3    H110986   0.361   1.745   0.107  1.6928 -0.0663  1.2476
 3674TIP3    H210987   0.366   1.824   0.236  0.4873  0.8275  0.7645
 3675TIP3   OH210988   1.215   4.705   3.188  0.3797 -0.7128  0.4647
 3675TIP3    H110989   1.305   4.732   3.209 -0.3158  1.0084  1.3513
 3675TIP3    H210990   1.165   4.786   3.184 -0.8271 -1.4565 -1.8161
 3676TIP3   OH210991   3.581   5.824   2.723  0.6317 -0.5489  0.1417
 3676TIP3    H110992   3.548   5.797   2.637 -0.4208  0.7133  0.1126
 3676TIP3    H210993   3.519   5.786   2.785 -0.6314  1.3420  0.1205
 3677TIP3   OH210994   1.976   0.742   4.066  0.0242 -0.5160  0.7424
 3677TIP3    H110995   1.942   0.797   4.137  0.3240 -1.0365  1.3085
 3677TIP3    H210996   1.999   0.803   3.996 -0.8598 -0.0429  0.8474
 3678TIP3   OH210997   6.250   5.221   3.888  0.2733 -0.2993 -0.1188
 3678TIP3    H110998   6.178   5.165   3.858 -0.6638  1.0743 -0.5612
 3678TIP3    H210999   6.206   5.300   3.921  1.5895  0.9786 -1.2844
 3679TIP3   OH211000   4.559   1.368   0.180 -0.2236  0.3903 -0.1889
 3679TIP3    H111001   4.515   1.442   0.222 -1.4067  1.3937 -2.9541
 3679TIP3    H211002   4.495   1.297   0.185 -0.8212  0.8346 -1.1791
 3680TIP3   OH211003   4.213   5.068   0.323 -0.2507 -0.1033 -1.0324
 3680TIP3    H111004   4.236   5.151   0.364  2.4010 -0.7914 -0.9405
 3680TIP3    H211005   4.127   5.046   0.358  0.1607  1.3193  0.9843
 3681TIP3   OH211006   6.841   1.302   4.390 -0.1005  0.5759 -0.0478
 3681TIP3    H111007   6.935   1.317   4.387  0.0444 -0.3988 -0.7562
 3681TIP3    H211008   6.807   1.343   4.310 -0.4051  1.6416  0.6031
 3682TIP3   OH211009   1.818   2.374   5.338 -0.2625  0.6208 -0.2412
 3682TIP3    H111010   1.776   2.436   5.278  1.2454  3.0934  1.0957
 3682TIP3    H211011   1.858   2.429   5.405 -1.4611 -1.9805  2.8381
 3683TIP3   OH211012   2.050   2.942   5.869  0.0725  0.0110 -0.1673
 3683TIP3    H111013   2.090   2.906   5.790 -1.0520 -0.7625 -0.4074
 3683TIP3    H211014   2.122   2.986   5.914  1.1270 -1.0752 -0.7312
 3684TIP3   OH211015   7.124   5.149   5.822 -0.6283 -0.1259  0.2640
 3684TIP3    H111016   7.042   5.142   5.871 -0.1069 -0.5289  1.1135
 3684TIP3    H211017   7.147   5.058   5.802 -0.6126  0.0121 -0.3545
 3685TIP3   OH211018   4.692   0.740   4.897  0.8465 -0.1587  0.0909
 3685TIP3    H111019   4.690   0.678   4.970 -0.2405 -2.2142 -1.5502
 3685TIP3    H211020   4.761   0.706   4.839 -0.9752 -1.0047 -1.7088
 3686TIP3   OH211021   6.434   6.405   0.428 -0.6682  0.0964  0.4325
 3686TIP3    H111022   6.389   6.383   0.509 -1.3872  0.3457  0.1066
 3686TIP3    H211023   6.440   6.500   0.429  1.5117  0.0260  1.3435
 3687TIP3   OH211024   6.412   3.660   2.652 -0.0889 -0.2430 -0.2937
 3687TIP3    H111025   6.442   3.674   2.562  0.3796 -0.4207 -0.1664
 3687TIP3    H211026   6.412   3.747   2.691 -1.2113 -0.0306 -0.7454
 3688TIP3   OH211027   0.232   0.880   1.417  0.6030 -0.5546 -0.2354
 3688TIP3    H111028   0.266   0.914   1.500  0.0181  0.6628 -0.4815
 3688TIP3    H211029   0.234   0.954   1.357 -1.2265 -0.7791 -0.6261
 3689TIP3   OH211030   6.515   1.302   0.050  0.1258 -0.4328 -0.0995
 3689TIP3    H111031   6.509   1.222   0.103  1.5747 -0.6447 -0.1907
 3689TIP3    H211032   6.581   1.355   0.095 -0.8084  0.7212 -0.0512
 3690TIP3   OH211033   6.917   5.266   0.642  0.0676  0.2168 -0.2295
 3690TIP3    H111034   6.936   5.276   0.549  0.3445  1.1949 -0.0776
 3690TIP3    H211035   6.968   5.335   0.685  1.2010 -1.1668  0.8035
 3691TIP3   OH211036   6.548   0.059   0.287 -0.1039  0.3288  0.2601
 3691TIP3    H111037   6.505   0.105   0.359 -3.1741  1.6349 -2.1937
 3691TIP3    H211038   6.489  -0.012   0.264  1.1281 -0.4690 -0.6009
 3692TIP3   OH211039   6.988   2.521   4.953  0.3307 -0.6485 -0.1579
 3692TIP3    H111040   7.041   2.572   4.891  2.3282  1.1170  2.7218
 3692TIP3    H211041   6.928   2.586   4.991 -2.2403 -2.0928 -1.4431
 3693TIP3   OH211042   4.812   5.405   1.920 -0.6012 -0.0273 -0.3778
 3693TIP3    H111043   4.831   5.360   2.002 -1.6550 -0.5884 -0.4290
 3693TIP3    H211044   4.725   5.375   1.895  0.1131 -0.7179 -2.2535
 3694TIP3   OH211045   5.034   2.913   1.440 -0.6034  0.0830  0.4488
 3694TIP3    H111046   5.074   2.952   1.362 -2.1467 -1.5782 -1.2811
 3694TIP3    H211047   4.970   2.977   1.469 -1.5397 -0.1382 -1.0110
 3695TIP3   OH211048   0.612   1.695   5.753  0.0153  0.1584 -0.7848
 3695TIP3    H111049   0.687   1.645   5.720  0.1803  0.0290 -0.2287
 3695TIP3    H211050   0.564   1.632   5.808  1.2882  1.0765  1.5490
 3696TIP3   OH211051   6.008   0.879   3.928 -0.2538  0.1565  0.1872
 3696TIP3    H111052   6.032   0.953   3.873  0.0672 -0.6055 -0.7295
 3696TIP3    H211053   6.017   0.803   3.871 -1.6188 -0.4948  0.7841
 3697TIP3   OH211054   4.604   0.795   5.474 -0.6510  0.1028  0.3420
 3697TIP3    H111055   4.614   0.864   5.539  1.0357  0.5322 -0.3192
 3697TIP3    H211056   4.629   0.836   5.391 -2.0028 -0.6486 -0.4826
 3698TIP3   OH211057   6.809   1.511   1.583 -0.3807  0.0644  0.0664
 3698TIP3    H111058   6.766   1.532   1.499 -1.1833 -1.9652 -0.0868
 3698TIP3    H211059   6.748   1.452   1.627  1.4694 -1.5444  0.6260
 3699TIP3   OH211060   4.450   6.214   3.123  0.2456  0.1501  0.7221
 3699TIP3    H111061   4.426   6.222   3.030  2.1711 -1.9468 -0.0514
 3699TIP3    H211062   4.482   6.301   3.147  1.1549  0.3615 -1.0737
 3700TIP3   OH211063   2.491   1.620   4.873 -0.2637  0.3665 -0.6251
 3700TIP3    H111064   2.542   1.582   4.801 -0.2342  0.9205 -0.8983
 3700TIP3    H211065   2.555   1.666   4.927 -0.5134  1.4668 -1.2263
 3701TIP3   OH211066   4.410   3.990   2.885 -0.1691 -0.4628 -0.7501
 3701TIP3    H111067   4.473   3.925   2.918  0.1890  0.7314  1.0367
 3701TIP3    H211068   4.379   4.035   2.963  0.7457  2.5713 -2.0180
 3702TIP3   OH211069   2.185   0.168   3.610  0.1352 -0.0791 -0.0419
 3702TIP3    H111070   2.152   0.112   3.680  0.8378  0.0012  0.3628
 3702TIP3    H211071   2.156   0.126   3.529 -3.1412  1.3036  0.2752
 3703TIP3   OH211072   1.453   4.287   1.040 -0.0906 -0.8522  0.5499
 3703TIP3    H111073   1.452   4.192   1.048  0.3097 -0.7956  1.3523
 3703TIP3    H211074   1.370   4.308   0.998 -0.3993 -1.5175  0.8089
 3704TIP3   OH211075   6.173   6.059   1.711 -0.1402  0.0578 -0.3346
 3704TIP3    H111076   6.142   6.068   1.801  2.6891 -3.1761  1.1991
 3704TIP3    H211077   6.259   6.100   1.711 -0.1699  0.1755 -1.6542
 3705TIP3   OH211078   3.456   5.497   1.883  0.2882  0.1810  0.3370
 3705TIP3    H111079   3.495   5.511   1.797 -0.7761  0.2343 -0.1585
 3705TIP3    H211080   3.442   5.585   1.917  0.7763  0.1583  0.6003
 3706TIP3   OH211081   1.574   6.149   3.058  0.2670 -0.5021 -0.0343
 3706TIP3    H111082   1.540   6.213   2.995  0.0169 -0.2406  0.3628
 3706TIP3    H211083   1.669   6.153   3.047  0.5032  1.9764  1.8893
 3707TIP3   OH211084   3.334   5.267   1.765 -0.1982  0.0012 -0.1395
 3707TIP3    H111085   3.391   5.326   1.814  0.9208 -0.1972 -1.1869
 3707TIP3    H211086   3.310   5.199   1.829 -0.1642  0.6712  0.6020
 3708TIP3   OH211087   3.312   4.719   1.815 -0.2758  0.1859 -0.6240
 3708TIP3    H111088   3.332   4.805   1.852 -0.7465  0.7179 -1.5734
 3708TIP3    H211089   3.397   4.677   1.805 -0.1692 -0.5189  2.2283
 3709TIP3   OH211090   6.670   4.401   5.250 -0.6848  0.4878  0.4446
 3709TIP3    H111091   6.735   4.459   5.211 -0.7306  0.8097  0.8473
 3709TIP3    H211092   6.717   4.357   5.322 -0.5572 -0.2133 -0.0531
 3710TIP3   OH211093   1.700   2.580   1.265 -0.1509 -0.7069  0.0333
 3710TIP3    H111094   1.612   2.569   1.231 -0.7838  0.4974  1.2039
 3710TIP3    H211095   1.705   2.523   1.341  0.0766 -0.7644 -0.0221
 3711TIP3   OH211096   4.878   3.521   1.486 -0.2984 -0.6745  0.4515
 3711TIP3    H111097   4.832   3.603   1.505 -0.9738 -1.0391  0.3848
 3711TIP3    H211098   4.961   3.529   1.534  1.0926  1.4073 -2.0508
 3712TIP3   OH211099   3.627   0.853   5.744  0.2853 -0.3071  0.1896
 3712TIP3    H111100   3.534   0.830   5.742  0.1271  0.1611 -3.0213
 3712TIP3    H211101   3.672   0.768   5.737  0.0151 -0.4303 -0.1355
 3713TIP3   OH211102   4.279   4.061   3.126 -0.4238  0.6085  0.2891
 3713TIP3    H111103   4.192   4.059   3.087  0.5531  0.5186 -2.0494
 3713TIP3    H211104   4.299   3.969   3.145 -0.6763  0.5887  0.4636
 3714TIP3   OH211105   3.773   1.819   2.973 -0.4872  0.0442  0.1518
 3714TIP3    H111106   3.698   1.877   2.987 -0.2656  0.3335  0.1278
 3714TIP3    H211107   3.736   1.731   2.983 -1.1454  0.1201 -1.3598
 3715TIP3   OH211108   6.416   6.190   4.128  0.1764  0.2055 -0.7640
 3715TIP3    H111109   6.386   6.241   4.204  1.0761 -0.3104 -0.0314
 3715TIP3    H211110   6.484   6.133   4.164  2.6460  1.8780 -2.4466
 3716TIP3   OH211111   4.661   0.073   1.064  0.4331 -0.1840  0.1771
 3716TIP3    H111112   4.687   0.154   1.108 -2.0764  0.1894  1.1121
 3716TIP3    H211113   4.736   0.015   1.076  1.0513  0.9311  2.2807
 3717TIP3   OH211114   3.428   6.644   1.386  0.8306  0.2346 -0.3509
 3717TIP3    H111115   3.435   6.655   1.292 -1.8324 -0.3852 -0.7043
 3717TIP3    H211116   3.476   6.564   1.406  1.2429  0.2675 -1.2057
 3718TIP3   OH211117   0.740   1.954   0.376  0.5660 -0.3812  0.0114
 3718TIP3    H111118   0.833   1.944   0.397  0.5438 -3.2345 -0.8342
 3718TIP3    H211119   0.737   1.952   0.280 -0.3383  0.3133  0.0117
 3719TIP3   OH211120   2.211   6.009   0.095  0.3392  0.1633 -0.3730
 3719TIP3    H111121   2.197   6.073   0.164 -0.4288 -0.5562  0.1571
 3719TIP3    H211122   2.250   6.060   0.023 -3.2744  2.0561 -1.2823
 3720TIP3   OH211123   0.367   2.138   4.539  0.0262 -0.5250  0.3824
 3720TIP3    H111124   0.294   2.199   4.544  0.6438  0.2379  0.3532
 3720TIP3    H211125   0.433   2.175   4.598  1.8103  0.8022 -2.2593
 3721TIP3   OH211126   3.496   5.160   3.788  0.4294 -0.4697  0.4556
 3721TIP3    H111127   3.423   5.209   3.825  1.5608 -0.3505  2.7219
 3721TIP3    H211128   3.572   5.217   3.800  0.6620  0.5104 -4.1545
 3722TIP3   OH211129   0.868   1.921   1.595 -0.2626  0.0666 -0.8422
 3722TIP3    H111130   0.932   1.980   1.557  0.5871  0.1729  0.6541
 3722TIP3    H211131   0.786   1.941   1.550  0.2340  1.6689 -1.0701
 3723TIP3   OH211132   0.682   5.348   0.502 -0.0377 -0.1648  0.0252
 3723TIP3    H111133   0.756   5.288   0.503 -0.7375 -1.0623 -0.4230
 3723TIP3    H211134   0.666   5.365   0.409 -1.3441 -1.1984  0.0391
 3724TIP3   OH211135   4.261   0.057   5.658  0.1036 -0.4568  0.3538
 3724TIP3    H111136   4.183   0.084   5.610 -1.1698 -1.8049  1.5960
 3724TIP3    H211137   4.284  -0.028   5.620  0.5717 -0.3769  0.4553
 3725TIP3   OH211138   5.725   6.779   0.548 -0.0980  0.3280  0.1149
 3725TIP3    H111139   5.644   6.730   0.530 -2.3866  3.4112  1.0706
 3725TIP3    H211140   5.728   6.785   0.644  0.8815  0.8218  0.0603
 3726TIP3   OH211141   5.389   0.403   5.838  0.2187 -0.2216  0.0095
 3726TIP3    H111142   5.314   0.386   5.894 -1.5827  0.6069 -2.0291
 3726TIP3    H211143   5.404   0.321   5.791 -0.1714 -0.0549 -0.4149
 3727TIP3   OH211144   3.500   0.455   2.419  0.2753 -0.1725  0.1290
 3727TIP3    H111145   3.530   0.392   2.484  2.4781  0.6552  0.0130
 3727TIP3    H211146   3.502   0.407   2.336 -0.9991 -0.7724  0.4235
 3728TIP3   OH211147   5.021   5.158   1.842  0.0985 -0.1050  0.7178
 3728TIP3    H111148   4.973   5.113   1.912  0.6019 -1.0274  0.4937
 3728TIP3    H211149   5.058   5.235   1.884  0.4083 -0.6568  1.4770
 3729TIP3   OH211150   6.122   4.117   5.755  0.1949  0.3265  0.4804
 3729TIP3    H111151   6.145   4.164   5.835 -1.3563 -0.5972  1.5189
 3729TIP3    H211152   6.203   4.074   5.728  1.2703  2.3503  0.3338
 3730TIP3   OH211153   7.149   3.920   5.442  0.2050 -0.6427 -0.3932
 3730TIP3    H111154   7.105   3.876   5.368 -0.6711  0.2113 -0.3997
 3730TIP3    H211155   7.205   3.985   5.401 -1.4267  0.8927 -0.3214
 3731TIP3   OH211156   1.140   2.117   4.386 -0.7203  0.0920  0.3353
 3731TIP3    H111157   1.220   2.168   4.396  0.8220 -2.0055 -0.5928
 3731TIP3    H211158   1.133   2.102   4.291 -0.6415 -2.0702  0.6208
 3732TIP3   OH211159   4.781   2.323   3.686  0.3656  0.3134 -0.6690
 3732TIP3    H111160   4.813   2.403   3.728  0.9636  0.0381 -0.5860
 3732TIP3    H211161   4.717   2.288   3.748 -1.3393  1.7012 -1.5397
 3733TIP3   OH211162   2.773   5.728   5.297  0.0658 -0.2037  0.0622
 3733TIP3    H111163   2.842   5.737   5.232 -0.7344 -0.1552 -0.8017
 3733TIP3    H211164   2.743   5.637   5.288 -0.1168 -0.1705  0.3011
 3734TIP3   OH211165   6.966   1.206   4.846  0.7285  0.5206 -0.2184
 3734TIP3    H111166   6.926   1.272   4.790  0.9487 -0.4911 -1.6322
 3734TIP3    H211167   6.957   1.124   4.797 -1.0811 -0.8599  2.2177
 3735TIP3   OH211168   3.499   3.411   4.535 -0.4010  0.0167 -0.0852
 3735TIP3    H111169   3.424   3.449   4.491 -0.7281 -1.9736 -1.3932
 3735TIP3    H211170   3.489   3.317   4.523  1.7615 -0.3710  0.5972
 3736TIP3   OH211171   1.199   0.731   4.426 -0.7397  0.0427  0.2371
 3736TIP3    H111172   1.192   0.718   4.520 -0.2793  1.1068  0.4338
 3736TIP3    H211173   1.114   0.703   4.391 -1.4690  1.0681  1.1435
 3737TIP3   OH211174   1.479   3.619   3.898 -0.1631  0.1068 -0.1362
 3737TIP3    H111175   1.468   3.709   3.866 -0.4303  0.2233  0.2841
 3737TIP3    H211176   1.518   3.629   3.985 -2.3930 -0.0758  0.9556
 3738TIP3   OH211177   5.189   6.303   4.482  0.2558  0.6986  0.1056
 3738TIP3    H111178   5.123   6.237   4.501  0.8800 -0.6068 -1.9298
 3738TIP3    H211179   5.248   6.301   4.557 -0.0158 -0.6933  0.2971
 3739TIP3   OH211180   5.689   5.934   2.691 -0.0142  0.3866  0.1382
 3739TIP3    H111181   5.619   5.958   2.751 -0.6395  0.3697 -0.5620
 3739TIP3    H211182   5.676   5.990   2.614  0.1183 -0.3211 -0.4192
 3740TIP3   OH211183   2.554   1.917   4.670  0.3479  0.3120 -0.0915
 3740TIP3    H111184   2.533   1.987   4.732  1.4300 -0.6755  1.4603
 3740TIP3    H211185   2.630   1.873   4.708  0.1564 -1.2532 -1.3992
 3741TIP3   OH211186   6.949   3.214   4.544 -0.1721  0.3728  0.3647
 3741TIP3    H111187   6.866   3.260   4.533  0.4532  1.6360  0.6559
 3741TIP3    H211188   6.994   3.263   4.614  0.1794 -1.2177  1.3003
 3742TIP3   OH211189   6.358   5.439   2.038  0.0300  0.7369 -0.3851
 3742TIP3    H111190   6.448   5.429   2.069  0.2791  0.4126 -1.1924
 3742TIP3    H211191   6.323   5.350   2.035  0.2304  0.6818 -1.6477
 3743TIP3   OH211192   5.885   4.562   1.098 -0.1489 -0.0558  0.1796
 3743TIP3    H111193   5.908   4.616   1.023 -2.0513  0.3272 -0.1862
 3743TIP3    H211194   5.890   4.472   1.065  1.7338 -0.0587  0.4155
 3744TIP3   OH211195   3.255   3.518   1.180 -0.4484  0.8200 -0.7076
 3744TIP3    H111196   3.293   3.585   1.124  0.4916 -0.7439 -2.0475
 3744TIP3    H211197   3.285   3.540   1.268 -1.2065  2.8207 -0.8983
 3745TIP3   OH211198   4.438   5.767   4.028  0.3410  0.0219 -0.5662
 3745TIP3    H111199   4.346   5.749   4.046  0.2933 -0.0567 -0.8716
 3745TIP3    H211200   4.473   5.682   4.002  0.6702 -0.0951  0.2473
 3746TIP3   OH211201   3.197   6.722   2.598 -0.2904  0.2863  0.1519
 3746TIP3    H111202   3.142   6.788   2.556  2.1360  0.7562 -2.6574
 3746TIP3    H211203   3.227   6.764   2.679 -3.7497  0.0426  1.7205
 3747TIP3   OH211204   1.863   1.668   2.470 -0.4221 -0.2386 -0.0251
 3747TIP3    H111205   1.870   1.590   2.415  0.8902 -1.3636  1.6326
 3747TIP3    H211206   1.943   1.718   2.453 -1.3744  0.9332 -1.2730
 3748TIP3   OH211207   2.790   1.171   1.984  0.4015  0.0713  0.2405
 3748TIP3    H111208   2.885   1.162   1.978  0.0871 -3.0978 -2.7124
 3748TIP3    H211209   2.764   1.206   1.899 -1.1754 -0.6409  0.3927
 3749TIP3   OH211210   2.146   5.490   5.282 -0.0406 -0.0346  0.8199
 3749TIP3    H111211   2.231   5.531   5.301  1.0889 -1.9261  0.1689
 3749TIP3    H211212   2.148   5.407   5.331 -0.1552 -1.5468 -1.5712
 3750TIP3   OH211213   0.600   2.599   4.585  0.2834  0.2293 -0.0402
 3750TIP3    H111214   0.518   2.619   4.631  1.1167  2.0552  0.7839
 3750TIP3    H211215   0.625   2.683   4.545  2.4257  0.0954  0.9008
 3751TIP3   OH211216   1.304   3.151   4.837  0.1005 -0.5567 -0.2999
 3751TIP3    H111217   1.328   3.065   4.873 -0.3999 -0.5753 -0.0106
 3751TIP3    H211218   1.326   3.144   4.744  1.6720 -0.4057  0.0384
 3752TIP3   OH211219   3.486   3.628   1.562 -0.6308  0.2077 -0.4978
 3752TIP3    H111220   3.562   3.575   1.540 -1.3977 -0.8013 -0.7889
 3752TIP3    H211221   3.505   3.714   1.523  0.8135  0.3015  0.3457
 3753TIP3   OH211222   0.761   2.173   1.220  0.4904  0.0933 -0.3534
 3753TIP3    H111223   0.728   2.127   1.143 -1.4180 -0.4525  0.7176
 3753TIP3    H211224   0.775   2.104   1.285  1.9132  0.5577 -0.1442
 3754TIP3   OH211225   0.847   1.637   2.218  0.5503 -0.3809 -0.4541
 3754TIP3    H111226   0.919   1.665   2.161  0.8748  0.6988  0.4429
 3754TIP3    H211227   0.884   1.639   2.306 -0.8029  1.1588  0.1376
 3755TIP3   OH211228   4.204   0.986   4.080 -0.4106 -0.0397 -0.6696
 3755TIP3    H111229   4.112   0.995   4.054 -0.2213  0.4955 -1.1718
 3755TIP3    H211230   4.215   1.052   4.149 -1.1886 -2.1441  1.6389
 3756TIP3   OH211231   3.419   1.707   1.331  0.6740 -0.1333  0.3243
 3756TIP3    H111232   3.481   1.660   1.386  2.0580 -0.6836 -1.5835
 3756TIP3    H211233   3.339   1.655   1.335  1.5642 -1.6045 -0.1952
 3757TIP3   OH211234   6.801   1.689   2.477 -0.7457  0.8160  0.4549
 3757TIP3    H111235   6.815   1.705   2.570  1.4549  1.8145  0.0362
 3757TIP3    H211236   6.769   1.773   2.443 -2.7959  0.0892  0.4733
 3758TIP3   OH211237   7.139   3.052   4.844  0.0850  0.3561 -0.0328
 3758TIP3    H111238   7.060   3.064   4.897 -0.4403 -1.0011 -0.4660
 3758TIP3    H211239   7.208   3.095   4.894 -0.9836  2.0215  0.1173
 3759TIP3   OH211240   6.042   2.561   5.361  0.0426  0.3115  0.3818
 3759TIP3    H111241   6.012   2.510   5.436  0.3588  0.6866  0.7663
 3759TIP3    H211242   6.001   2.518   5.286  1.1841 -1.2243  0.5669
 3760TIP3   OH211243   2.436   6.033   0.357  0.5690  0.1301  0.5890
 3760TIP3    H111244   2.442   6.026   0.453  0.4630  2.8297  0.8757
 3760TIP3    H211245   2.371   6.102   0.343  1.9632  1.1302 -1.3739
 3761TIP3   OH211246   1.141   5.493   0.376  0.1468  0.2144  0.4794
 3761TIP3    H111247   1.128   5.409   0.331 -0.3952  0.0761  0.8831
 3761TIP3    H211248   1.087   5.486   0.455 -0.3396  1.1628  0.2389
 3762TIP3   OH211249   5.202   5.887   1.396  0.0952  0.4968  0.3766
 3762TIP3    H111250   5.239   5.954   1.453 -0.1337 -0.6443  1.9293
 3762TIP3    H211251   5.118   5.865   1.435  0.4463 -1.1450  0.3095
 3763TIP3   OH211252   7.085   6.260   4.287 -0.3294 -0.2584 -0.6629
 3763TIP3    H111253   7.169   6.274   4.329  0.3001 -0.2373 -1.9000
 3763TIP3    H211254   7.090   6.171   4.251 -1.2811 -0.7065  0.2307
 3764TIP3   OH211255   4.864   3.336   0.104 -0.0531  0.1267  0.3931
 3764TIP3    H111256   4.821   3.409   0.149 -1.6712  1.3016 -2.7085
 3764TIP3    H211257   4.823   3.257   0.141 -0.8986  0.9705  1.3321
 3765TIP3   OH211258   1.474   0.319   1.651 -0.2482  0.3688 -0.4900
 3765TIP3    H111259   1.509   0.231   1.639  0.0063  0.5428 -1.0283
 3765TIP3    H211260   1.398   0.323   1.594 -0.5967  0.3140 -0.0405
 3766TIP3   OH211261   6.533   1.474   0.937  0.2172  0.5106  0.3516
 3766TIP3    H111262   6.609   1.433   0.979 -0.0957  0.5883  1.0077
 3766TIP3    H211263   6.513   1.416   0.863  1.7500  1.2315 -0.6767
 3767TIP3   OH211264   6.226   3.217   4.893  0.0211  0.4916  0.4123
 3767TIP3    H111265   6.274   3.293   4.861  0.1031  0.1842 -0.1998
 3767TIP3    H211266   6.273   3.142   4.857 -0.0305  0.1452  1.0525
 3768TIP3   OH211267   6.662   6.175   0.464  0.3575  0.0646 -0.4497
 3768TIP3    H111268   6.625   6.154   0.378 -0.0411  0.7208 -0.4477
 3768TIP3    H211269   6.586   6.194   0.519  0.6684  1.2336 -0.3896
 3769TIP3   OH211270   3.391   5.694   0.504  0.2973 -0.1012 -0.8639
 3769TIP3    H111271   3.452   5.656   0.441  0.5292 -0.7242 -0.2721
 3769TIP3    H211272   3.440   5.764   0.546  1.0045 -1.2883  0.3764
 3770TIP3   OH211273   7.057   0.019   4.648 -0.2746 -0.2369 -0.6132
 3770TIP3    H111274   7.004  -0.036   4.705 -0.2115 -1.6423 -1.8346
 3770TIP3    H211275   7.142   0.024   4.692  0.5068 -3.1548 -1.5112
 3771TIP3   OH211276   6.331   0.842   1.360  0.3548  0.4160  0.2359
 3771TIP3    H111277   6.387   0.768   1.339 -0.0236 -0.1716  1.1991
 3771TIP3    H211278   6.383   0.919   1.338  1.0368 -0.1275 -0.0920
 3772TIP3   OH211279   1.738   2.212   5.047 -0.1890  0.5005  0.3386
 3772TIP3    H111280   1.805   2.240   5.109  0.0330  0.3009  0.1917
 3772TIP3    H211281   1.716   2.123   5.074  1.3133 -0.3533 -1.0110
 3773TIP3   OH211282   4.996   0.059   0.073  0.7943 -0.2254  0.2856
 3773TIP3    H111283   5.057   0.129   0.048 -0.3006  0.5469 -0.3094
 3773TIP3    H211284   4.912   0.086   0.036  0.4895 -2.2536 -0.6331
 3774TIP3   OH211285   2.456   2.034   3.271  0.4505  0.0214  0.4972
 3774TIP3    H111286   2.479   1.941   3.270  2.3441  0.4177 -2.3304
 3774TIP3    H211287   2.371   2.039   3.228  0.3075 -0.3682  0.7263
 3775TIP3   OH211288   4.745   4.717   2.548 -0.9972 -0.1399 -0.3849
 3775TIP3    H111289   4.791   4.646   2.591 -1.3858  0.7548  1.6344
 3775TIP3    H211290   4.675   4.740   2.609 -0.0380  2.8820 -0.2825
 3776TIP3   OH211291   0.305   3.623   3.546 -0.0940 -0.3024 -0.4121
 3776TIP3    H111292   0.389   3.661   3.571 -2.0597  3.0048  1.9321
 3776TIP3    H211293   0.289   3.556   3.613 -0.6955  1.3686  1.2037
 3777TIP3   OH211294   3.768   4.731   4.146 -1.0312 -1.0131 -0.1464
 3777TIP3    H111295   3.718   4.670   4.199 -1.5441 -1.2902 -0.9404
 3777TIP3    H211296   3.767   4.813   4.196 -0.3695 -1.6274  0.9025
 3778TIP3   OH211297   4.822   2.172   1.348  0.2513  0.3181 -0.3154
 3778TIP3    H111298   4.783   2.178   1.261  1.4938 -1.0567 -1.0084
 3778TIP3    H211299   4.750   2.149   1.406 -0.2469 -0.6844 -1.3156
 3779TIP3   OH211300   1.345   0.738   3.766 -0.1464  0.4902  0.0785
 3779TIP3    H111301   1.331   0.832   3.779  0.2681  0.5380  0.2009
 3779TIP3    H211302   1.258   0.703   3.745 -0.5302  0.6857  1.2711
 3780TIP3   OH211303   1.186   3.259   2.958 -0.1486  0.2207 -0.4100
 3780TIP3    H111304   1.237   3.335   2.929  0.3119  0.2466  0.4365
 3780TIP3    H211305   1.215   3.244   3.048 -0.4868 -0.7453 -0.4539
 3781TIP3   OH211306   1.234   0.603   2.001  0.3900  0.0408 -0.1106
 3781TIP3    H111307   1.238   0.691   1.964  1.0066 -0.2620 -0.7759
 3781TIP3    H211308   1.224   0.545   1.926  0.8232 -0.5169  0.2483
 3782TIP3   OH211309   5.814   5.965   3.019 -0.3997 -0.7400  0.4404
 3782TIP3    H111310   5.759   6.040   2.999  2.2920  0.9959 -1.0415
 3782TIP3    H211311   5.779   5.930   3.101 -1.2419  2.6415  1.6642
 3783TIP3   OH211312   7.029   5.149   4.717  0.7476 -0.1612 -0.5301
 3783TIP3    H111313   6.994   5.227   4.673 -0.7776 -1.6924 -2.1868
 3783TIP3    H211314   7.042   5.177   4.808  0.2916  2.0134 -1.0687
 3784TIP3   OH211315   2.187   0.100   1.296  0.0060  0.3600 -0.3543
 3784TIP3    H111316   2.265   0.077   1.245 -0.3519 -0.2734 -0.6333
 3784TIP3    H211317   2.120   0.119   1.231 -0.6978 -1.2750 -0.1698
 3785TIP3   OH211318   7.173   5.234   5.285  0.1729  0.4164 -0.3304
 3785TIP3    H111319   7.230   5.302   5.246  1.9231 -0.7037  0.1705
 3785TIP3    H211320   7.182   5.247   5.379  1.0456 -0.8992 -0.2175
 3786TIP3   OH211321   5.028   3.321   1.690  0.4796 -0.5023  0.0443
 3786TIP3    H111322   4.936   3.308   1.666  0.7442  0.1528 -1.4559
 3786TIP3    H211323   5.077   3.268   1.627  1.1464 -0.6847  0.7012
 3787TIP3   OH211324   3.619   4.176   0.178 -0.3281  0.1132  0.1281
 3787TIP3    H111325   3.627   4.111   0.248 -0.2930  0.7365  0.7137
 3787TIP3    H211326   3.708   4.185   0.143  0.0965  1.3437  1.4348
 3788TIP3   OH211327   2.141   1.671   3.738 -0.2560  0.2783 -0.3648
 3788TIP3    H111328   2.177   1.692   3.651 -1.0831  1.2837 -0.4802
 3788TIP3    H211329   2.123   1.756   3.777 -2.6063 -0.1723 -0.3542
 3789TIP3   OH211330   0.721   1.260   2.803 -0.1704 -0.2827 -0.5739
 3789TIP3    H111331   0.801   1.310   2.818 -0.9007  0.6763  0.2081
 3789TIP3    H211332   0.681   1.252   2.890 -0.8663 -0.8562 -0.9354
 3790TIP3   OH211333   2.239   4.335   5.094 -0.1443 -0.2617 -0.5811
 3790TIP3    H111334   2.260   4.363   5.005 -1.0659  0.8032 -0.4882
 3790TIP3    H211335   2.144   4.339   5.099 -0.0986 -0.0985  0.5090
 3791TIP3   OH211336   3.648   2.448   1.810  0.7512  0.0469 -0.0416
 3791TIP3    H111337   3.714   2.407   1.753  0.8777  0.9025 -0.5366
 3791TIP3    H211338   3.614   2.521   1.758  1.1681  1.1125  1.1333
 3792TIP3   OH211339   7.133   3.824   1.314 -0.1486  0.3898 -0.2654
 3792TIP3    H111340   7.139   3.731   1.293  2.7129  0.1052  1.3004
 3792TIP3    H211341   7.167   3.869   1.237 -0.5829  0.0992 -0.6313
 3793TIP3   OH211342   3.466   2.777   1.151  0.5824 -0.4089 -0.0279
 3793TIP3    H111343   3.413   2.721   1.208 -1.5185  1.1800 -0.3158
 3793TIP3    H211344   3.553   2.778   1.192 -0.0716 -1.6766  1.4636
 3794TIP3   OH211345   4.676   5.476   2.929 -0.2560 -0.3528  0.1249
 3794TIP3    H111346   4.765   5.491   2.897 -0.5562 -1.7837 -1.5725
 3794TIP3    H211347   4.619   5.503   2.856 -1.2475  0.7471  1.2643
 3795TIP3   OH211348   1.611   0.681   5.446  0.2410 -0.4406  0.3513
 3795TIP3    H111349   1.687   0.644   5.402 -0.1335  0.1370 -0.8090
 3795TIP3    H211350   1.626   0.662   5.539  0.7846 -2.1698 -0.0477
 3796TIP3   OH211351   6.608   5.155   4.746 -0.5195 -0.1058  0.1211
 3796TIP3    H111352   6.593   5.180   4.837 -2.5571 -1.1643  0.1419
 3796TIP3    H211353   6.653   5.070   4.752 -0.9362 -0.3270  0.1587
 3797TIP3   OH211354   1.236   5.286   5.604  0.9034 -0.0654 -0.0518
 3797TIP3    H111355   1.188   5.340   5.667  0.0631 -1.2619  0.3733
 3797TIP3    H211356   1.201   5.312   5.519  0.6695  0.2242  0.1300
 3798TIP3   OH211357   1.499   6.645   0.018  0.2102 -0.0182  0.3568
 3798TIP3    H111358   1.418   6.668   0.063 -0.1111 -0.0868 -0.1854
 3798TIP3    H211359   1.513   6.552   0.038  0.0513 -0.0559  0.2891
 3799TIP3   OH211360   0.797   1.098   5.152  0.2690  0.3664  0.3808
 3799TIP3    H111361   0.802   1.185   5.113 -0.1538 -0.1991 -1.0179
 3799TIP3    H211362   0.704   1.083   5.166  0.3477  0.1701  0.7078
 3800TIP3   OH211363   6.032   2.067   4.177 -0.3084  0.3286  0.1198
 3800TIP3    H111364   6.097   1.997   4.174 -0.3780  0.2098  1.2326
 3800TIP3    H211365   6.083   2.147   4.188 -0.0206  0.8259 -3.5701
 3801TIP3   OH211366   5.539   2.272   2.775 -0.7117 -0.0402 -0.0162
 3801TIP3    H111367   5.572   2.360   2.797  0.1514 -0.2549 -0.4008
 3801TIP3    H211368   5.534   2.272   2.679  0.9077 -0.9448 -0.1429
 3802TIP3   OH211369   0.249   1.744   5.171  0.3923  0.1950 -0.2217
 3802TIP3    H111370   0.343   1.729   5.186  0.6942  0.3445 -1.7672
 3802TIP3    H211371   0.209   1.658   5.178  1.2160 -0.5261 -3.0609
 3803TIP3   OH211372   5.122   6.689   4.669  0.0597 -0.0122  0.2108
 3803TIP3    H111373   5.087   6.773   4.641 -0.3167 -0.1477  0.2783
 3803TIP3    H211374   5.183   6.664   4.599 -0.5461 -0.1378 -0.2803
 3804TIP3   OH211375   0.670   5.024   3.230  0.3973  0.2054  0.5769
 3804TIP3    H111376   0.731   5.005   3.302 -1.1973  1.3661  2.3461
 3804TIP3    H211377   0.610   4.950   3.229  0.9375 -0.2291 -0.1689
 3805TIP3   OH211378   6.568   3.760   4.411  0.3781 -1.1165 -0.0016
 3805TIP3    H111379   6.610   3.764   4.497  0.7233 -0.2112 -0.2049
 3805TIP3    H211380   6.554   3.666   4.396  0.2720 -1.2776  1.0541
 3806TIP3   OH211381   3.067   2.131   1.524  0.0217  0.2982  0.1087
 3806TIP3    H111382   2.997   2.157   1.583 -0.0358 -0.4272  0.3718
 3806TIP3    H211383   3.024   2.079   1.456  0.3266 -0.3202  0.3808
 3807TIP3   OH211384   6.746   0.413   5.318  0.3816  0.3848  0.2942
 3807TIP3    H111385   6.776   0.389   5.230 -1.0972  1.2665 -0.4781
 3807TIP3    H211386   6.800   0.488   5.342  0.3653  0.5309 -0.1198
 3808TIP3   OH211387   4.353   6.586   5.712  0.2867  0.5864  0.2453
 3808TIP3    H111388   4.265   6.552   5.728  1.4298 -3.6563 -1.1290
 3808TIP3    H211389   4.351   6.615   5.621  0.5086 -0.3770 -0.0738
 3809TIP3   OH211390   5.028   3.800   0.991 -0.2270  0.8189  0.3403
 3809TIP3    H111391   5.068   3.714   1.006  1.7527  1.6951  0.4991
 3809TIP3    H211392   4.948   3.781   0.942  0.8377 -1.0225 -0.8208
 3810TIP3   OH211393   3.130   5.022   5.098  0.1891 -0.3476  0.0217
 3810TIP3    H111394   3.084   5.021   5.014 -2.0616  0.6500  1.1481
 3810TIP3    H211395   3.061   5.010   5.163  1.7465 -0.2528  1.7752
 3811TIP3   OH211396   0.990   4.544   3.168  0.1505 -0.0622  0.2366
 3811TIP3    H111397   0.916   4.569   3.113 -0.2364 -0.3463  0.6266
 3811TIP3    H211398   1.061   4.602   3.140 -0.3630  0.5668  0.2148
 3812TIP3   OH211399   7.195   0.997   5.452  0.8434 -0.4623 -0.2369
 3812TIP3    H111400   7.156   0.910   5.450  0.9868 -0.5225 -1.3568
 3812TIP3    H211401   7.134   1.052   5.403  0.3772  0.2537  1.0961
 3813TIP3   OH211402   4.933   5.744   5.327 -0.2176  0.0318 -0.2206
 3813TIP3    H111403   4.983   5.792   5.261  0.2680 -1.1531 -0.7395
 3813TIP3    H211404   4.997   5.721   5.394  0.2306 -2.2943 -1.3273
 3814TIP3   OH211405   2.109   1.212   0.623  0.0515 -0.2043 -0.3781
 3814TIP3    H111406   2.078   1.293   0.581 -0.8132  0.0141  0.6235
 3814TIP3    H211407   2.046   1.146   0.597  1.5984 -0.9643 -2.4502
 3815TIP3   OH211408   6.960   2.500   1.212 -0.7938 -0.0936  0.0009
 3815TIP3    H111409   7.015   2.491   1.134 -0.1479 -0.4142  0.4869
 3815TIP3    H211410   6.954   2.594   1.226 -0.3163 -0.0579 -0.0198
 3816TIP3   OH211411   5.747   2.708   1.311  0.4416  0.2888  0.2817
 3816TIP3    H111412   5.794   2.791   1.316  0.8216  0.2099 -1.3766
 3816TIP3    H211413   5.692   2.717   1.233 -1.7040  0.0537  1.6910
 3817TIP3   OH211414   6.821   2.827   2.758  0.3512  0.1619 -0.0310
 3817TIP3    H111415   6.904   2.806   2.801  0.4363  0.5018 -0.0242
 3817TIP3    H211416   6.845   2.848   2.668  0.2877  0.3615 -0.0033
 3818TIP3   OH211417   1.301   1.359   0.890 -0.2667 -0.0258 -0.5779
 3818TIP3    H111418   1.211   1.380   0.869 -0.1102  0.4976 -0.7373
 3818TIP3    H211419   1.349   1.442   0.880 -0.1248  0.2086  1.5650
 3819TIP3   OH211420   2.896   2.728   4.107 -0.3283  0.6394  0.0894
 3819TIP3    H111421   2.825   2.679   4.065  0.4875 -0.3094 -0.2233
 3819TIP3    H211422   2.855   2.809   4.137 -1.5652  0.0641  0.0057
 3820TIP3   OH211423   6.458   3.766   2.410 -0.6194 -0.0576  0.0365
 3820TIP3    H111424   6.488   3.857   2.408 -0.3454  0.0511  3.7587
 3820TIP3    H211425   6.527   3.718   2.366  1.7162  1.0381  2.2679
 3821TIP3   OH211426   2.220   2.152   2.146  0.8977 -0.2882  0.4018
 3821TIP3    H111427   2.285   2.221   2.131  0.7107 -0.3306 -0.7451
 3821TIP3    H211428   2.212   2.145   2.241 -1.3394  3.4548  0.6956
 3822TIP3   OH211429   2.808   1.418   2.211  0.3230  0.2871 -0.2728
 3822TIP3    H111430   2.758   1.496   2.231  1.2448  0.8177  0.0542
 3822TIP3    H211431   2.752   1.345   2.236 -0.1354  0.8711  0.4081
 3823TIP3   OH211432   4.677   5.823   4.608  0.2892  0.2869  0.3496
 3823TIP3    H111433   4.618   5.807   4.535  0.3118 -1.8379  0.7379
 3823TIP3    H211434   4.673   5.918   4.622 -1.7972  0.3941 -0.6388
 3824TIP3   OH211435   5.133   5.913   2.410  0.5311 -0.4178 -0.1201
 3824TIP3    H111436   5.195   5.840   2.417  0.7181 -0.6508 -3.1052
 3824TIP3    H211437   5.186   5.987   2.379 -0.3558 -0.1628 -1.0943
 3825TIP3   OH211438   5.998   1.354   1.682  0.4655  0.3027 -0.1005
 3825TIP3    H111439   5.990   1.260   1.698  0.0687  0.2933 -0.3470
 3825TIP3    H211440   6.049   1.386   1.756  0.8039 -0.1420 -0.1339
 3826TIP3   OH211441   4.748   2.781   1.658  0.0715  0.0257 -0.4052
 3826TIP3    H111442   4.796   2.811   1.580 -1.1818 -0.9538 -1.6076
 3826TIP3    H211443   4.669   2.835   1.660 -0.3482 -0.5747 -0.3660
 3827TIP3   OH211444   0.326   4.467   5.187  0.5939 -0.1667  0.4380
 3827TIP3    H111445   0.280   4.481   5.104 -0.6760  0.0226  1.1437
 3827TIP3    H211446   0.282   4.391   5.225  0.0643  0.7326  1.6670
 3828TIP3   OH211447   3.859   5.690   2.766  0.1992  0.1027  0.5104
 3828TIP3    H111448   3.926   5.623   2.753  0.0005 -0.1733  0.9096
 3828TIP3    H211449   3.779   5.641   2.784  0.0975  0.4495  1.0124
 3829TIP3   OH211450   6.462   4.390   1.739  0.3171  0.4529 -0.6890
 3829TIP3    H111451   6.548   4.406   1.777  1.2928 -3.0277 -1.0260
 3829TIP3    H211452   6.401   4.396   1.813  1.4326 -0.7841  0.3689
 3830TIP3   OH211453   6.951   3.768   3.104 -0.4216  0.3932 -0.2996
 3830TIP3    H111454   6.902   3.769   3.187  1.1472 -1.2339  0.7435
 3830TIP3    H211455   6.894   3.811   3.041 -2.3076  0.3755  1.3061
 3831TIP3   OH211456   2.403   5.520   0.986 -0.3242 -0.1178 -0.0575
 3831TIP3    H111457   2.402   5.615   0.970 -1.0031 -0.2009 -0.5397
 3831TIP3    H211458   2.483   5.490   0.943  0.2994  0.3381  0.7480
 3832TIP3   OH211459   4.229   0.763   0.069 -0.1418 -0.3149 -0.4491
 3832TIP3    H111460   4.207   0.679   0.109 -1.2338 -0.6070 -1.5985
 3832TIP3    H211461   4.215   0.828   0.138  1.4937 -1.1195  0.7010
 3833TIP3   OH211462   2.564   6.222   4.529 -0.5507 -0.0976  0.2862
 3833TIP3    H111463   2.658   6.218   4.548 -0.2649 -0.8139 -1.1496
 3833TIP3    H211464   2.522   6.185   4.606  0.3535  0.0258  0.8530
 3834TIP3   OH211465   0.637   0.559   1.915  0.2926 -0.0199 -0.1384
 3834TIP3    H111466   0.569   0.562   1.982 -0.2303 -0.1232 -0.6538
 3834TIP3    H211467   0.599   0.506   1.845  1.2845 -0.9120 -0.0212
 3835TIP3   OH211468   1.159   6.355   1.181 -0.6559 -0.0409  0.3207
 3835TIP3    H111469   1.140   6.404   1.100  1.4472  0.1959 -0.0867
 3835TIP3    H211470   1.215   6.414   1.232  1.2734 -1.6435  0.1749
 3836TIP3   OH211471   5.970   3.449   3.090 -0.2207 -0.4813  0.0703
 3836TIP3    H111472   5.965   3.516   3.021  0.9660  0.0394  0.4536
 3836TIP3    H211473   6.058   3.413   3.081  0.6842  0.9012  2.4547
 3837TIP3   OH211474   6.622   6.078   3.389  0.5332  0.1565 -0.0587
 3837TIP3    H111475   6.623   6.074   3.484  2.9124  0.0241 -0.0360
 3837TIP3    H211476   6.635   5.988   3.360 -0.8526  0.0850 -0.5720
 3838TIP3   OH211477   6.624   4.308   1.121 -0.0138 -0.5145 -0.3460
 3838TIP3    H111478   6.626   4.310   1.026  1.4861 -0.3125 -0.3288
 3838TIP3    H211479   6.710   4.339   1.148 -1.3878  2.5683  1.1441
 3839TIP3   OH211480   1.914   4.602   2.584 -0.2119  0.0473  0.5159
 3839TIP3    H111481   1.964   4.524   2.608  0.9264  0.4047 -0.5385
 3839TIP3    H211482   1.934   4.615   2.491 -1.4724  0.8114  0.3381
 3840TIP3   OH211483   6.443   4.510   2.944 -0.0143  0.3091  0.5997
 3840TIP3    H111484   6.415   4.443   2.882  2.5202 -0.3769  0.0524
 3840TIP3    H211485   6.538   4.500   2.948  0.5705  4.2456  0.0582
 3841TIP3   OH211486   1.694   2.389   1.480  0.0066  0.0473  0.2156
 3841TIP3    H111487   1.673   2.421   1.567  0.1049 -1.8148  0.9644
 3841TIP3    H211488   1.779   2.346   1.489  0.7633  1.1544 -1.1630
 3842TIP3   OH211489   4.077   3.816   4.364 -0.4241 -0.2487 -0.3430
 3842TIP3    H111490   4.143   3.845   4.301 -0.1254  0.7111  0.3846
 3842TIP3    H211491   4.027   3.750   4.317  0.7918 -0.7015 -1.0605
 3843TIP3   OH211492   0.045   0.521   5.130  0.0574 -0.1489  0.3312
 3843TIP3    H111493   0.111   0.480   5.074 -0.4554  0.6760 -0.8963
 3843TIP3    H211494   0.095   0.552   5.206  0.8808 -0.6007 -0.0126
 3844TIP3   OH211495   4.649   1.419   4.081 -0.4976  0.2597  0.3228
 3844TIP3    H111496   4.732   1.389   4.046 -1.0554 -0.5554 -0.3504
 3844TIP3    H211497   4.666   1.508   4.111 -0.0071  1.0513 -2.0876
 3845TIP3   OH211498   2.094   4.518   4.053  0.1144  0.0765 -0.4252
 3845TIP3    H111499   2.093   4.586   3.986 -0.2237 -0.8991 -1.4408
 3845TIP3    H211500   2.162   4.546   4.114 -0.4555  1.6414 -0.4595
 3846TIP3   OH211501   4.179   4.686   0.201 -0.1561  0.0804  0.0252
 3846TIP3    H111502   4.089   4.717   0.203 -0.1221  0.1513  1.8440
 3846TIP3    H211503   4.181   4.623   0.128 -2.3692 -1.8915  1.5099
 3847TIP3   OH211504   5.496   2.859   3.292 -0.0606  0.1773  0.0419
 3847TIP3    H111505   5.554   2.921   3.247  0.9677 -0.1132  0.9166
 3847TIP3    H211506   5.537   2.846   3.378 -0.0752 -1.9580 -0.2197
 3848TIP3   OH211507   2.175   1.483   2.364 -0.2572  0.2716 -0.0312
 3848TIP3    H111508   2.236   1.422   2.322 -0.4918  0.0569 -0.0642
 3848TIP3    H211509   2.090   1.439   2.358 -0.5437  0.9035 -0.6610
 3849TIP3   OH211510   5.127   6.592   3.034  0.1712 -0.4422 -0.3844
 3849TIP3    H111511   5.213   6.626   3.059 -0.2055 -0.0386  0.4132
 3849TIP3    H211512   5.071   6.615   3.108 -0.6572 -0.5562 -0.9731
 3850TIP3   OH211513   2.023   2.669   2.967 -0.4587  0.6074 -0.2219
 3850TIP3    H111514   2.105   2.715   2.952 -0.2877  0.8294  1.2720
 3850TIP3    H211515   1.958   2.738   2.979 -0.1851  0.5528  2.1228
 3851TIP3   OH211516   6.447   1.569   4.998 -0.3739 -0.3692  0.1158
 3851TIP3    H111517   6.470   1.499   5.059 -0.7579 -0.3038  0.3430
 3851TIP3    H211518   6.483   1.649   5.038 -1.1959 -0.2297  0.6003
 3852TIP3   OH211519   1.150   3.019   0.219  0.1061  0.5301 -0.3081
 3852TIP3    H111520   1.068   3.068   0.221 -0.9899 -1.0323 -2.5492
 3852TIP3    H211521   1.157   2.987   0.129  1.8626 -1.5518  0.4709
 3853TIP3   OH211522   1.544   5.122   1.519  0.8238 -0.3913  0.2662
 3853TIP3    H111523   1.616   5.180   1.546  0.9662 -0.1344 -0.6486
 3853TIP3    H211524   1.472   5.182   1.499  0.8162 -0.5539 -0.2115
 3854TIP3   OH211525   6.369   6.645   0.119  0.5197  0.0580  0.2376
 3854TIP3    H111526   6.435   6.580   0.096 -0.0868 -0.9872  1.3490
 3854TIP3    H211527   6.419   6.720   0.151  1.1882 -0.5507  0.6503
 3855TIP3   OH211528   2.107   1.926   1.014 -0.1391  0.8397 -0.0364
 3855TIP3    H111529   2.172   1.994   1.035  0.0804  1.3214 -2.0470
 3855TIP3    H211530   2.098   1.931   0.919  0.7669 -2.7509 -0.4535
 3856TIP3   OH211531   2.598   0.933   2.181  0.6100  0.5707  0.5110
 3856TIP3    H111532   2.648   0.954   2.102 -0.4375 -0.9901 -0.6359
 3856TIP3    H211533   2.650   0.968   2.253  2.5523  0.3856 -0.7363
 3857TIP3   OH211534   0.120   3.929   2.288  0.0786 -0.0761  0.8826
 3857TIP3    H111535   0.106   3.938   2.382  3.8160 -1.5239  1.7449
 3857TIP3    H211536   0.113   3.835   2.271 -0.9492  0.1986 -0.4184
 3858TIP3   OH211537   4.038   0.673   2.137 -0.0405 -0.0935  0.0511
 3858TIP3    H111538   4.033   0.645   2.228 -0.7549 -0.4348 -0.0817
 3858TIP3    H211539   4.031   0.592   2.086 -0.5070  0.1696 -0.3170
 3859TIP3   OH211540   3.601   2.005   1.348 -0.1432  0.0728 -0.1552
 3859TIP3    H111541   3.547   1.975   1.421  1.7430  0.7199  1.5904
 3859TIP3    H211542   3.583   2.099   1.342 -1.0132 -0.1355 -1.2158
 3860TIP3   OH211543   6.910   4.058   5.576  0.6962  0.1825  0.1049
 3860TIP3    H111544   6.966   3.987   5.545 -0.5692 -1.9192  2.2683
 3860TIP3    H211545   6.955   4.092   5.653  1.6109  2.2856 -1.2729
 3861TIP3   OH211546   1.728   0.631   2.705 -0.2070 -0.0171 -0.2105
 3861TIP3    H111547   1.752   0.686   2.630  0.8056 -0.4555 -0.2326
 3861TIP3    H211548   1.746   0.686   2.782 -0.6493  0.2107 -0.2658
 3862TIP3   OH211549   0.225   4.666   2.983 -0.2521 -0.2430 -0.1194
 3862TIP3    H111550   0.172   4.726   3.034 -1.2303 -0.3919 -0.9358
 3862TIP3    H211551   0.176   4.584   2.984  1.3104 -1.2262  1.4275
 3863TIP3   OH211552   7.194   3.414   5.662 -0.0502  0.3706  0.1294
 3863TIP3    H111553   7.173   3.455   5.578 -1.6018 -1.5751 -0.5133
 3863TIP3    H211554   7.131   3.453   5.724 -2.0367 -1.4226 -0.6342
 3864TIP3   OH211555   4.990   0.015   0.332 -0.0807  0.2297 -0.5316
 3864TIP3    H111556   4.989  -0.006   0.238 -0.6366 -1.0598 -0.2663
 3864TIP3    H211557   4.949   0.101   0.338 -0.6377  0.0446 -1.4261
 3865TIP3   OH211558   4.928   3.470   1.922 -0.4872  0.0174  0.3510
 3865TIP3    H111559   4.845   3.467   1.875  0.1317  0.4023 -0.7864
 3865TIP3    H211560   4.979   3.398   1.886 -0.1319  0.0940  0.6865
 3866TIP3   OH211561   2.325   4.785   2.378 -0.2280 -0.7210  0.2182
 3866TIP3    H111562   2.331   4.859   2.318  0.8711 -0.6474  0.3967
 3866TIP3    H211563   2.310   4.824   2.464 -0.8211 -0.7744  0.1428
 3867TIP3   OH211564   5.487   1.897   5.704 -0.6695  0.0780  0.4674
 3867TIP3    H111565   5.441   1.860   5.779 -1.2256  1.7314  0.9868
 3867TIP3    H211566   5.513   1.821   5.652 -1.5733 -1.0303  1.5695
 3868TIP3   OH211567   4.691   4.813   5.686  0.1228 -0.3617  0.1028
 3868TIP3    H111568   4.754   4.780   5.621 -0.9714  0.7693 -1.6331
 3868TIP3    H211569   4.625   4.743   5.693 -0.2732 -0.0907 -0.7859
 3869TIP3   OH211570   0.265   3.124   4.813 -0.4432 -0.1064  0.2171
 3869TIP3    H111571   0.202   3.130   4.885  0.2009  0.6192  0.7380
 3869TIP3    H211572   0.342   3.171   4.844 -0.3820  0.7990 -1.2007
 3870TIP3   OH211573   1.699   0.901   0.669 -0.2124 -0.0883 -0.9551
 3870TIP3    H111574   1.630   0.878   0.607 -0.8983  0.1157 -0.2775
 3870TIP3    H211575   1.698   0.830   0.734 -1.7738  1.3348  0.6757
 3871TIP3   OH211576   0.100   2.707   1.923  0.9026  0.2148 -0.0198
 3871TIP3    H111577   0.126   2.795   1.949  0.3045  0.2118  0.6220
 3871TIP3    H211578   0.134   2.651   1.993 -0.7551  0.2077  0.8439
 3872TIP3   OH211579   0.267   4.036   1.704  0.5815 -0.1256  0.0159
 3872TIP3    H111580   0.245   3.959   1.651  1.5680  1.3003 -2.6877
 3872TIP3    H211581   0.184   4.064   1.742 -0.2106 -1.1926 -0.8778
 3873TIP3   OH211582   1.406   2.043   4.114  0.0107  0.7171  0.6406
 3873TIP3    H111583   1.312   2.047   4.093  0.2206 -1.3300 -0.9360
 3873TIP3    H211584   1.449   2.039   4.029  1.3183 -1.5660  1.3406
 3874TIP3   OH211585   2.501   4.875   0.669 -0.0603 -0.3836 -0.3646
 3874TIP3    H111586   2.442   4.841   0.602 -0.4017  0.2668 -0.4023
 3874TIP3    H211587   2.504   4.969   0.653 -1.4284  0.0296  1.5003
 3875TIP3   OH211588   5.402   2.340   1.826  0.0311 -0.5424  0.1808
 3875TIP3    H111589   5.330   2.359   1.766 -1.0650  0.8083  1.8353
 3875TIP3    H211590   5.412   2.245   1.821 -1.1033 -0.6425 -0.9113
 3876TIP3   OH211591   4.147   3.516   0.890 -0.3212  0.0584 -0.0481
 3876TIP3    H111592   4.056   3.535   0.871 -0.1239  2.3107  0.9560
 3876TIP3    H211593   4.162   3.552   0.977  1.7020  0.3479 -0.4610
 3877TIP3   OH211594   7.004   0.289   0.804  0.4782 -0.3618 -0.1618
 3877TIP3    H111595   7.020   0.254   0.891  0.7969 -1.1558 -0.5318
 3877TIP3    H211596   6.957   0.371   0.819 -1.7409 -1.6996  0.6952
 3878TIP3   OH211597   3.766   0.369   3.038  0.3912  0.0820 -0.1157
 3878TIP3    H111598   3.720   0.360   3.122 -0.4985  1.3214 -0.4294
 3878TIP3    H211599   3.699   0.402   2.978  1.8281  2.6908 -0.4322
 3879TIP3   OH211600   6.560   2.633   1.865 -0.4983  0.1775 -0.5191
 3879TIP3    H111601   6.599   2.597   1.786  0.8248  1.0629 -0.2904
 3879TIP3    H211602   6.548   2.726   1.846  2.0493  0.9173  1.1028
 3880TIP3   OH211603   1.238   0.450   0.248  0.0199  0.0259 -0.2924
 3880TIP3    H111604   1.292   0.382   0.289  2.7665  1.5725 -1.0857
 3880TIP3    H211605   1.164   0.402   0.211  0.3546 -2.1293  1.5885
 3881TIP3   OH211606   2.892   1.787   2.277  0.2752 -0.2616 -0.1156
 3881TIP3    H111607   2.877   1.735   2.356  2.4604 -1.3883 -0.3582
 3881TIP3    H211608   2.939   1.865   2.309  1.8288 -1.0757 -0.3493
 3882TIP3   OH211609   3.006   4.713   5.097 -0.1415 -0.6461  0.6158
 3882TIP3    H111610   3.063   4.734   5.023 -0.6883  1.2185  0.6702
 3882TIP3    H211611   2.919   4.701   5.057 -0.5526  0.9087  0.9429
 3883TIP3   OH211612   0.838   1.572   1.163 -0.2210 -0.6212  0.1041
 3883TIP3    H111613   0.765   1.531   1.115 -1.2610 -0.7655  1.7381
 3883TIP3    H211614   0.819   1.555   1.255  0.7141  1.2734  0.6930
 3884TIP3   OH211615   0.484   4.556   2.931  0.3350 -0.0604  0.0523
 3884TIP3    H111616   0.412   4.619   2.941 -0.5797 -0.9199 -0.9527
 3884TIP3    H211617   0.475   4.523   2.842  1.0838 -1.2942  0.4122
 3885TIP3   OH211618   4.313   5.158   2.789  0.0376 -0.6837 -0.0885
 3885TIP3    H111619   4.328   5.202   2.873 -0.4454  0.5138 -0.6022
 3885TIP3    H211620   4.394   5.173   2.739 -0.9998  1.8642 -1.1833
 3886TIP3   OH211621   5.793   0.939   0.643  0.1496  0.0742 -0.1140
 3886TIP3    H111622   5.840   1.015   0.609  1.0907 -0.7125 -0.6051
 3886TIP3    H211623   5.807   0.871   0.578 -0.7612 -0.5075  0.2812
 3887TIP3   OH211624   4.513   1.566   3.450  0.0456 -0.2024 -0.4136
 3887TIP3    H111625   4.586   1.570   3.388  0.1089  1.7582 -0.2917
 3887TIP3    H211626   4.551   1.592   3.534 -0.7087  0.4694 -0.2693
 3888TIP3   OH211627   1.870   4.189   3.747  0.1773 -0.1349  0.5176
 3888TIP3    H111628   1.781   4.175   3.778  0.4139 -0.4982  1.0401
 3888TIP3    H211629   1.922   4.200   3.826  0.8496 -1.4699  0.2800
 3889TIP3   OH211630   1.141   5.177   2.844  0.2914 -0.2265  0.2502
 3889TIP3    H111631   1.072   5.129   2.798 -0.1610 -1.4894  2.1583
 3889TIP3    H211632   1.095   5.237   2.902  0.8392  0.3238  0.1332
 3890TIP3   OH211633   0.737   0.181   2.948 -0.8709  0.3169  0.6703
 3890TIP3    H111634   0.776   0.125   3.015 -1.1460 -0.7743 -0.0667
 3890TIP3    H211635   0.794   0.171   2.872 -1.6522  0.0226  0.1167
 3891TIP3   OH211636   0.035   6.532   0.776 -0.7570  0.5297  0.6591
 3891TIP3    H111637  -0.041   6.517   0.832 -1.1952  1.8364  0.4251
 3891TIP3    H211638   0.104   6.478   0.816 -1.4405  0.3345  1.6206
 3892TIP3   OH211639   3.314   2.182   1.896  0.4798  0.3927 -0.1239
 3892TIP3    H111640   3.276   2.094   1.886 -0.2829  0.3066  2.6488
 3892TIP3    H211641   3.262   2.237   1.838  0.2775 -0.7966 -1.1226
 3893TIP3   OH211642   1.712   5.283   4.267 -0.1004 -0.4836  0.3355
 3893TIP3    H111643   1.761   5.357   4.232  0.1720 -0.7276  0.1995
 3893TIP3    H211644   1.719   5.292   4.362  0.1205 -0.4603  0.3170
 3894TIP3   OH211645   4.754   3.726   4.496  0.0575  0.1682 -0.1112
 3894TIP3    H111646   4.816   3.688   4.433 -0.6508 -0.8305 -0.2231
 3894TIP3    H211647   4.699   3.783   4.444 -2.1448 -2.5127 -0.9738
 3895TIP3   OH211648   1.129   0.544   1.244  0.6664 -0.3375 -0.3925
 3895TIP3    H111649   1.034   0.552   1.249  0.7903  0.5257  1.8439
 3895TIP3    H211650   1.152   0.480   1.310  1.5699 -1.9169 -2.1381
 3896TIP3   OH211651   5.641   1.832   0.403 -0.1181  0.3155  0.0559
 3896TIP3    H111652   5.674   1.913   0.363  0.4646  0.2477  0.3887
 3896TIP3    H211653   5.555   1.819   0.363 -0.2093  1.0903 -0.0120
 3897TIP3   OH211654   4.018   6.314   2.977  0.1830 -0.3448  0.2534
 3897TIP3    H111655   4.070   6.351   2.905  0.8444  1.7797  1.7302
 3897TIP3    H211656   4.051   6.225   2.987 -0.9806 -1.2725 -3.0022
 3898TIP3   OH211657   2.866   6.430   5.264 -0.2943  0.0814  0.0740
 3898TIP3    H111658   2.793   6.438   5.325 -0.7326  0.3649 -0.4768
 3898TIP3    H211659   2.944   6.442   5.318 -0.7073  1.3666  0.4134
 3899TIP3   OH211660   4.871   0.025   4.531  0.0112  0.0421 -0.0602
 3899TIP3    H111661   4.868   0.034   4.436 -1.2980 -0.9414 -0.1323
 3899TIP3    H211662   4.919  -0.056   4.547  0.8665  0.5707  0.1706
 3900TIP3   OH211663   6.990   3.360   4.759  0.5587  0.3109 -0.5128
 3900TIP3    H111664   6.967   3.279   4.805  0.4963 -0.2426 -1.5018
 3900TIP3    H211665   7.051   3.404   4.819 -1.3333  0.7784  1.1713
 3901TIP3   OH211666   0.137   0.574   2.590  0.6327  0.7339  0.3835
 3901TIP3    H111667   0.130   0.644   2.654 -0.8526  0.9868 -0.0367
 3901TIP3    H211668   0.231   0.556   2.584  0.8228  0.8401  2.4630
 3902TIP3   OH211669   5.875   6.224   4.614 -0.4435  0.1621 -0.3544
 3902TIP3    H111670   5.915   6.182   4.690  0.8572 -0.4907 -1.3592
 3902TIP3    H211671   5.805   6.164   4.588 -1.4171  0.7830  0.7847
 3903TIP3   OH211672   0.727   0.056   4.678  0.3823 -0.1309 -0.0482
 3903TIP3    H111673   0.642   0.046   4.635  0.0805 -0.4707  0.6202
 3903TIP3    H211674   0.790   0.019   4.616  0.1906  1.0878 -1.0315
 3904TIP3   OH211675   5.855   4.889   3.685 -0.2931 -0.1715 -0.1681
 3904TIP3    H111676   5.818   4.808   3.723 -1.7832  0.8784  0.7620
 3904TIP3    H211677   5.907   4.926   3.756  0.3791 -0.2975 -0.5913
 3905TIP3   OH211678   2.840   3.809   0.985  0.1622 -0.4119  0.3038
 3905TIP3    H111679   2.918   3.864   0.995 -0.1399 -0.1527  1.4648
 3905TIP3    H211680   2.798   3.840   0.905 -1.3820  2.9016  2.2056
 3906TIP3   OH211681   2.191   3.459   5.288 -0.2420  0.2665  0.3758
 3906TIP3    H111682   2.117   3.422   5.240  1.3161 -1.5210 -0.7916
 3906TIP3    H211683   2.210   3.541   5.242 -1.0174  0.3608  0.2118
 3907TIP3   OH211684   2.530   4.666   2.551  0.3974  0.6908 -0.5670
 3907TIP3    H111685   2.600   4.731   2.552  1.3796 -0.3476 -0.9720
 3907TIP3    H211686   2.483   4.683   2.469  0.4052  1.1284 -0.4846
 3908TIP3   OH211687   3.485   6.593   5.824 -0.1743  0.0492  0.4373
 3908TIP3    H111688   3.427   6.570   5.752 -1.9381 -0.8226  2.0727
 3908TIP3    H211689   3.532   6.512   5.844  0.4382  0.3341  0.1822
 3909TIP3   OH211690   1.803   4.595   1.801 -0.1171  0.5756 -0.6712
 3909TIP3    H111691   1.755   4.512   1.801 -0.5959  0.8224 -2.5232
 3909TIP3    H211692   1.839   4.601   1.890 -1.5209 -0.7596  0.0398
 3910TIP3   OH211693   1.967   3.378   5.057 -0.3491 -0.1327  0.1244
 3910TIP3    H111694   1.945   3.405   4.968  0.4810 -0.6377 -0.2550
 3910TIP3    H211695   1.886   3.343   5.093 -1.0547  1.3705  0.0827
 3911TIP3   OH211696   4.655   2.161   2.250  0.1062  0.3619 -0.9053
 3911TIP3    H111697   4.666   2.088   2.311  1.6273  0.4774 -0.9975
 3911TIP3    H211698   4.579   2.137   2.197  0.6251 -1.2148 -0.9994
 3912TIP3   OH211699   0.407   6.152   0.693  0.3475 -0.2596  0.2458
 3912TIP3    H111700   0.343   6.083   0.677  0.3893 -0.3715  0.5572
 3912TIP3    H211701   0.486   6.122   0.648  0.6166 -0.8136  1.0680
 3913TIP3   OH211702   3.594   4.683   1.911 -0.0514 -0.4522 -0.4618
 3913TIP3    H111703   3.664   4.748   1.912 -1.6859  1.3900 -0.0325
 3913TIP3    H211704   3.566   4.676   2.002 -1.2899 -0.1440 -0.7992
 3914TIP3   OH211705   3.534   2.092   3.853 -0.1255  0.0460  0.5849
 3914TIP3    H111706   3.489   2.175   3.840 -0.3938  0.0750  1.5922
 3914TIP3    H211707   3.625   2.110   3.829  0.0630  0.9584  1.8660
 3915TIP3   OH211708   2.052   0.066   2.425 -0.5275  0.1602 -0.2739
 3915TIP3    H111709   2.139   0.053   2.389 -0.8666  0.8723 -1.3817
 3915TIP3    H211710   2.051   0.157   2.455 -0.9070  0.1757 -0.3228
 3916TIP3   OH211711   4.336   3.265   5.341  0.3754  0.2455  0.5063
 3916TIP3    H111712   4.241   3.256   5.354  0.1885 -2.1211 -1.7785
 3916TIP3    H211713   4.346   3.350   5.298 -0.8801 -0.0054 -0.3359
 3917TIP3   OH211714   2.173   2.727   1.075  0.2464  0.2619  0.2033
 3917TIP3    H111715   2.181   2.641   1.115  1.0032 -0.0240 -0.5275
 3917TIP3    H211716   2.132   2.710   0.990  0.7594  0.5663 -0.1106
 3918TIP3   OH211717   0.344   5.770   4.434 -0.3615  0.2822  0.3910
 3918TIP3    H111718   0.328   5.851   4.482 -1.5116  0.6607 -0.5971
 3918TIP3    H211719   0.420   5.789   4.379 -0.7200  0.7646  0.0465
 3919TIP3   OH211720   2.204   6.181   2.006  0.2009  0.0115 -0.2187
 3919TIP3    H111721   2.172   6.168   2.095  2.3388  1.7808  0.9219
 3919TIP3    H211722   2.279   6.123   1.999 -0.5098 -0.8113 -1.2377
 3920TIP3   OH211723   6.961   1.812   2.183  0.2785  0.2833  1.2144
 3920TIP3    H111724   7.049   1.850   2.179 -0.7122  2.6407 -1.3665
 3920TIP3    H211725   6.904   1.886   2.205 -1.1109 -1.1999  2.8564
 3921TIP3   OH211726   3.185   6.060   1.332  0.1089  0.2291 -0.7805
 3921TIP3    H111727   3.238   5.984   1.357 -0.6259 -0.2578 -0.6486
 3921TIP3    H211728   3.095   6.027   1.333 -0.1414  0.8564 -1.6734
 3922TIP3   OH211729   3.590   2.060   2.142 -0.3038  0.1347  0.6294
 3922TIP3    H111730   3.496   2.070   2.156 -0.3379 -0.2248  0.6678
 3922TIP3    H211731   3.619   2.146   2.111 -0.2721  0.9548  2.7086
 3923TIP3   OH211732   3.921   4.583   2.072 -0.8174 -0.2361 -0.3185
 3923TIP3    H111733   3.907   4.656   2.133  2.4411  0.7820 -0.6113
 3923TIP3    H211734   3.915   4.505   2.126  2.0601  0.6300  1.4850
 3924TIP3   OH211735   5.120   1.928   5.410  0.2190 -0.4737 -0.0807
 3924TIP3    H111736   5.042   1.936   5.465  1.4435 -1.2035  1.8312
 3924TIP3    H211737   5.166   1.852   5.444  1.0846 -0.9416 -2.1158
 3925TIP3   OH211738   3.760   4.444   1.006  0.0418  0.1538  0.5419
 3925TIP3    H111739   3.794   4.387   1.075  0.4220  1.4586  1.4699
 3925TIP3    H211740   3.693   4.497   1.048  1.3594  2.0737  0.3666
 3926TIP3   OH211741   3.529   0.069   3.537 -0.0456  0.2695 -0.3411
 3926TIP3    H111742   3.499   0.160   3.539 -1.6141 -0.2134 -0.0668
 3926TIP3    H211743   3.621   0.073   3.562  0.2864  1.9040 -1.6403
 3927TIP3   OH211744   4.124   2.826   3.158 -0.9166  0.0604  0.5874
 3927TIP3    H111745   4.095   2.736   3.146 -2.3957  0.7808 -1.8877
 3927TIP3    H211746   4.045   2.879   3.151  0.0306  1.6201  1.0147
 3928TIP3   OH211747   3.856   5.128   2.785  1.1236 -0.4799 -0.2390
 3928TIP3    H111748   3.770   5.121   2.827  0.5602 -1.3591 -1.5001
 3928TIP3    H211749   3.909   5.177   2.848 -0.8515  1.9222 -0.2771
 3929TIP3   OH211750   2.230   1.030   5.768 -0.1651 -0.5518 -0.1980
 3929TIP3    H111751   2.156   1.058   5.823  0.5212  2.4228 -0.5946
 3929TIP3    H211752   2.279   0.968   5.822 -1.9269 -1.1858  0.7611
 3930TIP3   OH211753   2.616   3.159   2.212 -0.2861  0.1335 -0.6763
 3930TIP3    H111754   2.555   3.231   2.229  0.1501  0.2542  0.4698
 3930TIP3    H211755   2.570   3.104   2.148 -0.9312  1.0368 -1.0204
 3931TIP3   OH211756   1.875   6.448   2.033 -0.1655  0.8053 -0.3792
 3931TIP3    H111757   1.833   6.507   2.095  1.5433  0.8052  0.8502
 3931TIP3    H211758   1.967   6.474   2.034  0.5087 -1.3740 -0.3533
 3932TIP3   OH211759   3.451   6.305   4.737 -0.1751 -0.0648  0.0298
 3932TIP3    H111760   3.453   6.391   4.779  1.4052 -0.3751  0.6525
 3932TIP3    H211761   3.543   6.283   4.723 -0.6020 -0.6929 -2.1700
 3933TIP3   OH211762   4.047   1.799   3.886  0.0512 -0.1065  0.1985
 3933TIP3    H111763   4.033   1.727   3.824 -1.1931  0.1358  0.1845
 3933TIP3    H211764   4.134   1.782   3.922  0.7338 -0.3696 -1.4594
 3934TIP3   OH211765   6.841   3.854   5.289 -0.1434 -0.1930 -0.1157
 3934TIP3    H111766   6.903   3.840   5.218 -0.2219  2.1438 -0.7232
 3934TIP3    H211767   6.756   3.865   5.245 -0.1361  1.6247  0.2592
 3935TIP3   OH211768   3.086   4.529   3.064 -0.2793 -0.3252 -0.0384
 3935TIP3    H111769   3.063   4.518   3.156 -2.7587 -0.1760 -0.5900
 3935TIP3    H211770   3.039   4.460   3.018  1.5805 -0.9268 -1.1543
 3936TIP3   OH211771   0.877   2.233   3.986 -0.3089 -0.0255  0.0014
 3936TIP3    H111772   0.841   2.296   3.924 -1.2472  0.7109  1.2306
 3936TIP3    H211773   0.825   2.154   3.972 -1.1091  0.4078  0.4067
 3937TIP3   OH211774   2.498   0.664   1.548  0.2158  0.0616 -0.2123
 3937TIP3    H111775   2.457   0.679   1.463 -1.8196  0.1989  0.7496
 3937TIP3    H211776   2.589   0.640   1.527 -0.4735 -0.7990 -2.4598
 3938TIP3   OH211777   6.423   1.021   5.814  0.3929  0.7851 -0.3788
 3938TIP3    H111778   6.453   1.101   5.771  1.0063  1.1234  0.6335
 3938TIP3    H211779   6.345   1.048   5.862 -0.1105  0.4851 -1.0334
 3939TIP3   OH211780   3.276   6.679   4.237 -0.2615 -0.2499  0.5123
 3939TIP3    H111781   3.265   6.611   4.171 -0.4272 -0.1543  0.4425
 3939TIP3    H211782   3.370   6.698   4.235 -0.2359 -0.3798  0.4371
 3940TIP3   OH211783   0.297   0.293   2.033  0.0939  0.0787  0.4141
 3940TIP3    H111784   0.364   0.262   1.973  0.5427 -1.4673  1.6489
 3940TIP3    H211785   0.324   0.260   2.119 -1.7696  0.1886  1.0968
 3941TIP3   OH211786   0.474   4.221   4.490  0.0365 -0.0945 -0.6720
 3941TIP3    H111787   0.393   4.217   4.438 -0.9204 -0.8923  0.8322
 3941TIP3    H211788   0.537   4.262   4.431 -1.8031  1.8112 -1.4469
 3942TIP3   OH211789   1.651   0.937   4.975 -0.2658 -0.0488  0.4258
 3942TIP3    H111790   1.669   0.935   5.069  0.9165 -0.3937  0.1990
 3942TIP3    H211791   1.556   0.928   4.969 -0.4984  1.2059  1.6317
 3943TIP3   OH211792   3.823   1.290   5.580  0.2215 -0.5360  0.1464
 3943TIP3    H111793   3.882   1.330   5.516 -2.2493 -0.4402 -2.2653
 3943TIP3    H211794   3.832   1.196   5.565 -1.3992 -0.4839 -1.4835
 3944TIP3   OH211795   2.304   5.010   0.937 -0.0459  0.0656  0.6309
 3944TIP3    H111796   2.241   5.082   0.950 -0.6584 -0.3798  0.1871
 3944TIP3    H211797   2.275   4.967   0.857  1.0517  0.0672  0.2235
 3945TIP3   OH211798   2.619   6.435   3.281  0.2776  0.6116  0.3313
 3945TIP3    H111799   2.691   6.475   3.233  0.1552 -0.5974 -0.9457
 3945TIP3    H211800   2.660   6.399   3.360  0.5947  2.1046  0.8711
 3946TIP3   OH211801   2.997   6.693   2.918 -0.5354 -0.4710  0.0177
 3946TIP3    H111802   2.960   6.702   3.006 -1.5992  0.1447 -0.4678
 3946TIP3    H211803   2.940   6.747   2.863  1.3041  0.8260 -0.7328
 3947TIP3   OH211804   2.051   1.617   5.019 -0.3300  0.1315 -0.0157
 3947TIP3    H111805   2.065   1.693   4.962  0.8612 -0.6988 -0.9175
 3947TIP3    H211806   2.140   1.588   5.042 -0.7822  0.0453  1.7601
 3948TIP3   OH211807   5.607   3.022   4.231  0.0307  0.1584 -0.2763
 3948TIP3    H111808   5.527   3.067   4.258  0.1855  0.5353 -0.4475
 3948TIP3    H211809   5.585   2.983   4.146  0.5221  1.6278 -1.1127
 3949TIP3   OH211810   3.833   1.172   4.289 -0.3227  0.6976 -0.1700
 3949TIP3    H111811   3.787   1.133   4.363 -2.4319  0.4390 -1.5465
 3949TIP3    H211812   3.879   1.098   4.248  0.0047  0.6561  0.2615
 3950TIP3   OH211813   2.979   5.837   4.291  0.1505  0.2895 -0.4765
 3950TIP3    H111814   2.902   5.782   4.275  0.7377 -0.9840  0.8502
 3950TIP3    H211815   3.011   5.858   4.203 -1.7761  1.0113 -1.0670
 3951TIP3   OH211816   5.323   4.931   1.480 -0.4176 -0.5312 -0.1757
 3951TIP3    H111817   5.295   4.951   1.391 -0.3412  3.8998  0.5904
 3951TIP3    H211818   5.404   4.882   1.469  0.0889  0.6862 -2.6093
 3952TIP3   OH211819   3.885   0.450   3.383  0.1617  0.0969  0.0435
 3952TIP3    H111820   3.845   0.402   3.311 -1.2290  0.0240  0.8354
 3952TIP3    H211821   3.822   0.443   3.455  0.1988  2.5455  0.4002
 3953TIP3   OH211822   4.876   3.109   1.535  0.6531 -0.0639  0.3071
 3953TIP3    H111823   4.793   3.156   1.543  1.0707  1.2835 -2.1937
 3953TIP3    H211824   4.904   3.094   1.626 -0.6050  2.6299  1.2571
 3954TIP3   OH211825   1.993   0.265   1.666 -0.5044  0.2399 -0.2733
 3954TIP3    H111826   1.901   0.257   1.638 -1.1790  1.9498  1.2334
 3954TIP3    H211827   1.998   0.353   1.703  1.8898  0.3471 -0.7202
 3955TIP3   OH211828   4.567   5.798   1.945 -0.2840 -0.2468 -0.5953
 3955TIP3    H111829   4.473   5.777   1.945 -0.2011 -0.6227 -0.3632
 3955TIP3    H211830   4.592   5.793   2.037  0.0911 -0.7155 -0.7222
 3956TIP3   OH211831   0.894   6.698   2.223 -0.1425  0.0300  0.3475
 3956TIP3    H111832   0.887   6.763   2.293  0.7112 -0.0078  0.4796
 3956TIP3    H211833   0.918   6.617   2.267  0.8112  0.1009 -0.0167
 3957TIP3   OH211834   2.829   0.925   4.586  0.1963 -0.1321  0.7088
 3957TIP3    H111835   2.737   0.938   4.610 -0.4326 -1.7532 -0.6532
 3957TIP3    H211836   2.839   0.830   4.581  1.9567  0.0220  0.8031
 3958TIP3   OH211837   2.770   5.667   4.796  0.3863 -0.3512 -0.2242
 3958TIP3    H111838   2.738   5.737   4.740 -2.1859 -1.1509  0.1257
 3958TIP3    H211839   2.851   5.702   4.834  2.1818  0.2987 -4.1604
 3959TIP3   OH211840   1.485   1.308   2.871 -0.6385 -0.2224 -0.4849
 3959TIP3    H111841   1.453   1.256   2.945 -2.3505  1.6791  0.2118
 3959TIP3    H211842   1.503   1.394   2.909  2.8086 -0.3770 -1.4303
 3960TIP3   OH211843   6.678   5.390   4.598  0.1371 -0.3514 -0.4038
 3960TIP3    H111844   6.652   5.308   4.640 -0.8078  0.5888  0.9342
 3960TIP3    H211845   6.773   5.394   4.609  0.1485 -1.1208 -0.1996
 3961TIP3   OH211846   3.741   4.748   5.417  0.0209 -0.1561  0.0221
 3961TIP3    H111847   3.658   4.795   5.416 -0.1916 -0.5140  0.3539
 3961TIP3    H211848   3.716   4.655   5.417  0.4312 -0.2878 -0.9606
 3962TIP3   OH211849   0.784   5.678   5.819  0.0905  0.5815 -0.0675
 3962TIP3    H111850   0.769   5.724   5.737 -0.1088 -0.8215 -0.8410
 3962TIP3    H211851   0.867   5.633   5.807 -0.2867 -0.2143  0.2292
 3963TIP3   OH211852   1.064   1.716   1.341 -0.3162 -0.1486 -0.4785
 3963TIP3    H111853   1.088   1.702   1.432 -2.0802  2.3766  0.4961
 3963TIP3    H211854   0.999   1.647   1.322 -0.4438 -0.2765  0.4036
 3964TIP3   OH211855   4.945   2.052   3.598  0.2194 -0.0839  0.7043
 3964TIP3    H111856   4.872   2.007   3.642  1.4907 -0.1205  2.9381
 3964TIP3    H211857   4.909   2.138   3.576 -1.6134 -1.3726 -1.7727
 3965TIP3   OH211858   0.922   5.112   0.502 -0.5207 -0.2825  0.4547
 3965TIP3    H111859   0.988   5.148   0.561 -1.4350  0.4688  1.0422
 3965TIP3    H211860   0.914   5.020   0.528 -0.5587 -0.0801  1.1522
 3966TIP3   OH211861   6.781   0.871   1.914 -0.1132 -0.2702 -0.2705
 3966TIP3    H111862   6.746   0.782   1.922  0.5017 -0.4602  0.5656
 3966TIP3    H211863   6.835   0.881   1.992  1.9740 -0.1294 -1.6683
 3967TIP3   OH211864   3.042   6.466   5.645  0.5637  0.3980 -0.0386
 3967TIP3    H111865   2.976   6.411   5.687 -1.3247  0.7975 -2.2389
 3967TIP3    H211866   3.104   6.405   5.605 -0.0862 -0.0930 -0.3059
 3968TIP3   OH211867   2.429   5.803   2.782  0.4800  0.4432 -0.0284
 3968TIP3    H111868   2.489   5.754   2.837 -0.3653 -0.7178 -0.1083
 3968TIP3    H211869   2.447   5.773   2.693  1.6515  2.1106 -0.4117
 3969TIP3   OH211870   1.476   0.365   4.218 -0.1762  0.2772 -1.0144
 3969TIP3    H111871   1.512   0.411   4.142  3.0541 -0.9956 -0.4506
 3969TIP3    H211872   1.458   0.434   4.281  2.0677  1.0585 -1.1278
 3970TIP3   OH211873   2.695   0.171   0.946  0.8304  0.2352  0.2056
 3970TIP3    H111874   2.739   0.203   1.025 -0.1691  2.7626 -0.1673
 3970TIP3    H211875   2.700   0.244   0.884 -1.0334 -0.5620 -0.9786
 3971TIP3   OH211876   5.145   5.387   5.855  0.2545 -0.0076 -0.4855
 3971TIP3    H111877   5.099   5.452   5.801 -1.3893 -1.4808 -0.9674
 3971TIP3    H211878   5.093   5.307   5.846  0.9400 -0.8144  1.8648
 3972TIP3   OH211879   6.898   2.224   3.343 -0.2776 -0.2615 -0.1061
 3972TIP3    H111880   6.809   2.190   3.333  0.1958 -0.9132 -2.7517
 3972TIP3    H211881   6.935   2.173   3.415 -2.0260  0.0902  1.1057
 3973TIP3   OH211882   6.263   0.502   0.775 -0.0185  0.4356  0.0323
 3973TIP3    H111883   6.226   0.415   0.789  0.6940  0.2027  0.5169
 3973TIP3    H211884   6.283   0.534   0.863 -0.6618  1.2593 -0.1182
 3974TIP3   OH211885   1.124   6.481   5.106 -0.8710 -0.3227 -0.5683
 3974TIP3    H111886   1.121   6.392   5.070 -0.9086 -0.4316 -0.2952
 3974TIP3    H211887   1.033   6.501   5.128 -0.6757 -0.7708  0.7247
 3975TIP3   OH211888   6.571   2.826   5.891 -0.3090 -0.1135 -0.5106
 3975TIP3    H111889   6.541   2.793   5.807  0.2194  0.0253 -0.7552
 3975TIP3    H211890   6.619   2.906   5.871  1.3967 -1.0305 -0.2869
 3976TIP3   OH211891   5.403   4.491   4.711  0.4199 -0.1876 -0.2070
 3976TIP3    H111892   5.430   4.512   4.800  2.9130 -0.8248 -0.7340
 3976TIP3    H211893   5.462   4.422   4.683  0.3210  0.6188 -2.6678
 3977TIP3   OH211894   5.075   6.307   1.371  0.2711  0.7834 -0.0514
 3977TIP3    H111895   5.018   6.323   1.447 -0.0769 -2.8980  0.6862
 3977TIP3    H211896   5.014   6.298   1.297  0.1750  0.2753  0.0807
 3978TIP3   OH211897   1.573   6.101   3.834  0.0827 -0.5466 -0.2901
 3978TIP3    H111898   1.609   6.142   3.913  0.3107 -0.9031 -0.2044
 3978TIP3    H211899   1.589   6.165   3.765 -1.1707  0.2808  0.1478
 3979TIP3   OH211900   3.221   5.908   4.400 -0.2206 -0.1151 -0.3662
 3979TIP3    H111901   3.131   5.879   4.385 -0.0530 -0.8118 -0.0782
 3979TIP3    H211902   3.213   5.981   4.462 -0.7099  1.0530 -1.7430
 3980TIP3   OH211903   1.768   5.669   4.804  0.0014 -0.1500  0.6735
 3980TIP3    H111904   1.862   5.683   4.808  0.1779 -0.3803 -1.5002
 3980TIP3    H211905   1.738   5.728   4.734 -0.9690 -2.1596 -0.7180
 3981TIP3   OH211906   2.813   4.309   0.383 -0.3146 -0.3953 -0.1985
 3981TIP3    H111907   2.795   4.228   0.430  4.1198 -0.9506  0.9629
 3981TIP3    H211908   2.844   4.282   0.297  1.2724  0.0228  0.2226
 3982TIP3   OH211909   1.871   0.052   2.942  0.3709 -0.3017  0.5915
 3982TIP3    H111910   1.834  -0.036   2.945  2.3102 -1.1335  1.0584
 3982TIP3    H211911   1.870   0.076   2.849  2.3115 -1.9476  0.0857
 3983TIP3   OH211912   0.892   1.608   4.113  0.6137  0.2760  0.1864
 3983TIP3    H111913   0.935   1.611   4.027 -0.3163  1.0183 -0.2598
 3983TIP3    H211914   0.804   1.575   4.095  0.3151  0.7091  0.8120
 3984TIP3   OH211915   1.842   1.994   3.111  0.2504 -0.4833  0.5416
 3984TIP3    H111916   1.907   1.960   3.049  1.4385  0.2742  1.3183
 3984TIP3    H211917   1.758   1.987   3.065  1.2047  1.0745 -1.6335
 3985TIP3   OH211918   0.167   1.524   0.867  0.5133 -1.0205  0.6399
 3985TIP3    H111919   0.135   1.588   0.803 -0.3103 -2.4803 -0.4841
 3985TIP3    H211920   0.247   1.563   0.901  1.6376 -0.6515 -2.1415
 3986TIP3   OH211921   4.674   5.923   5.184  0.1782 -0.4042 -0.1457
 3986TIP3    H111922   4.711   5.949   5.269  0.0727 -1.3455  0.2048
 3986TIP3    H211923   4.584   5.956   5.186 -0.1426 -1.2793  0.5355
 3987TIP3   OH211924   3.960   3.806   1.568  0.0617 -0.5054  0.7031
 3987TIP3    H111925   3.879   3.797   1.618 -0.4448 -3.2785 -0.4507
 3987TIP3    H211926   3.933   3.846   1.486  0.5391  1.9422  1.6436
 3988TIP3   OH211927   1.864   0.536   4.227 -0.2172 -0.4125  0.1607
 3988TIP3    H111928   1.903   0.612   4.184  0.3408 -0.1132  1.1671
 3988TIP3    H211929   1.919   0.462   4.201  0.9117 -0.0288  1.3846
 3989TIP3   OH211930   1.020   2.450   0.081 -0.1875 -0.1257 -0.4354
 3989TIP3    H111931   0.997   2.514   0.014 -0.3677 -0.2248 -0.4673
 3989TIP3    H211932   1.079   2.389   0.036 -2.1896 -1.6037 -1.2033
 3990TIP3   OH211933   1.144   6.000   4.358  0.1132  0.0532 -0.5369
 3990TIP3    H111934   1.115   5.931   4.298  2.1043  0.1509 -1.7196
 3990TIP3    H211935   1.174   6.070   4.300  1.8555  0.2709  0.5581
 3991TIP3   OH211936   2.573   1.765   2.824 -0.1539 -0.0836 -0.1041
 3991TIP3    H111937   2.495   1.715   2.802 -0.4499 -2.1237  4.4977
 3991TIP3    H211938   2.546   1.856   2.818 -1.0802 -0.4165 -3.8714
 3992TIP3   OH211939   2.760   5.993   3.581  0.1169  0.1152  0.0958
 3992TIP3    H111940   2.684   6.024   3.531 -0.8783  2.3158  2.6664
 3992TIP3    H211941   2.835   6.031   3.536 -0.7971  2.7710  0.6179
 3993TIP3   OH211942   6.004   0.345   4.550 -0.3402 -0.2399 -1.2767
 3993TIP3    H111943   6.059   0.422   4.539  0.9483 -0.8778  0.2669
 3993TIP3    H211944   5.918   0.380   4.576  0.4037  0.6845  0.0340
 3994TIP3   OH211945   2.326   2.058   4.442 -0.6674 -0.0706 -0.5183
 3994TIP3    H111946   2.309   2.115   4.517  0.4599 -0.3050 -0.0777
 3994TIP3    H211947   2.414   2.081   4.413 -0.7558 -0.5945 -1.2324
 3995TIP3   OH211948   1.360   4.209   5.156 -0.0039 -0.5204 -0.1265
 3995TIP3    H111949   1.368   4.211   5.060  0.5840 -2.3168 -0.1614
 3995TIP3    H211950   1.438   4.255   5.187 -0.6482  0.8599 -0.4902
 3996TIP3   OH211951   6.712   4.930   1.067  0.2461 -0.3799  0.1281
 3996TIP3    H111952   6.759   5.011   1.045 -0.7544  0.2497  0.2262
 3996TIP3    H211953   6.653   4.916   0.994 -0.2413 -0.5073  0.5413
 3997TIP3   OH211954   7.147   4.966   2.868 -0.1446 -0.0149 -0.1676
 3997TIP3    H111955   7.158   5.056   2.899  0.3527 -0.9065  2.4270
 3997TIP3    H211956   7.231   4.944   2.828 -0.0211  0.4363 -0.1592
 3998TIP3   OH211957   5.536   4.107   0.086  0.3424  0.1671  0.0472
 3998TIP3    H111958   5.483   4.038   0.047  2.2676 -0.8383 -0.9497
 3998TIP3    H211959   5.473   4.164   0.130 -1.2796 -2.5898  1.5628
 3999TIP3   OH211960   2.633   4.760   5.426  0.5185  0.2204 -0.3932
 3999TIP3    H111961   2.610   4.767   5.334 -1.0839 -0.3867 -0.0911
 3999TIP3    H211962   2.719   4.801   5.434 -0.7403  3.3618 -1.5530
 4000TIP3   OH211963   3.986   0.467   1.941  0.0133  0.5091  0.2650
 4000TIP3    H111964   4.006   0.492   1.850 -1.5474 -0.8071 -0.4955
 4000TIP3    H211965   3.993   0.371   1.941  2.0781  0.5688  2.1125
 4001TIP3   OH211966   4.676   5.531   2.303  0.0455  0.1071  0.0407
 4001TIP3    H111967   4.665   5.459   2.241  0.8641  1.1043 -1.3078
 4001TIP3    H211968   4.770   5.547   2.306 -0.2000  1.9527 -0.7087
 4002TIP3   OH211969   2.365   4.013   1.868 -0.0969 -0.4058  0.2882
 4002TIP3    H111970   2.448   3.966   1.863  0.4547  0.6659 -0.9443
 4002TIP3    H211971   2.376   4.075   1.940  0.3408  0.0601 -0.1809
 4003TIP3   OH211972   4.601   1.954   2.858  0.2088  0.5129 -0.1587
 4003TIP3    H111973   4.674   1.937   2.918 -0.2618  1.6503  0.7660
 4003TIP3    H211974   4.631   2.026   2.803  0.3940 -0.1058 -0.8823
 4004TIP3   OH211975   6.508   4.058   1.512  0.0404  0.3050  0.7229
 4004TIP3    H111976   6.419   4.061   1.548 -0.8818 -3.3878 -0.7397
 4004TIP3    H211977   6.554   3.996   1.569  0.6689 -0.2767 -0.3993
 4005TIP3   OH211978   1.695   0.691   0.171  0.1078 -0.2800 -0.0889
 4005TIP3    H111979   1.780   0.670   0.133  0.7251  1.6650  0.1323
 4005TIP3    H211980   1.636   0.626   0.133  1.8420 -2.4047  0.6379
 4006TIP3   OH211981   3.795   5.524   4.588  0.0939 -0.2441 -0.5660
 4006TIP3    H111982   3.760   5.613   4.591  0.9753  0.0922  0.2069
 4006TIP3    H211983   3.756   5.481   4.665  0.4333 -0.2329 -0.3880
 4007TIP3   OH211984   0.712   4.466   1.250  0.0284 -0.1266  0.1908
 4007TIP3    H111985   0.668   4.400   1.303  0.3603 -0.6512 -0.1646
 4007TIP3    H211986   0.791   4.421   1.218 -0.1140  0.2009 -0.6528
 4008TIP3   OH211987   4.915   2.933   0.369  0.2580 -0.1256 -0.1899
 4008TIP3    H111988   4.994   2.951   0.317  0.0593 -0.0143 -0.4571
 4008TIP3    H211989   4.872   2.861   0.322 -0.6138  0.8623 -0.9355
 4009TIP3   OH211990   5.486   5.083   4.936 -0.3516  0.2862  0.1458
 4009TIP3    H111991   5.468   5.177   4.945  0.3214  0.4497 -0.1286
 4009TIP3    H211992   5.488   5.069   4.841 -0.3367  0.0189  0.1868
 4010TIP3   OH211993   6.534   3.751   1.238  0.8838 -0.4105  0.2673
 4010TIP3    H111994   6.626   3.730   1.254  0.7760 -0.6077  0.6366
 4010TIP3    H211995   6.490   3.732   1.321  0.4353 -0.7548 -0.0399
 4011TIP3   OH211996   3.299   3.343   2.400 -0.7998 -0.0659  0.3867
 4011TIP3    H111997   3.235   3.362   2.468  0.9816  1.9290  1.6508
 4011TIP3    H211998   3.316   3.249   2.409 -2.0696 -0.2307  1.3401
 4012TIP3   OH211999   0.846   2.266   2.429 -0.2162  0.5294  0.2804
 4012TIP3    H112000   0.791   2.325   2.480  1.1019  2.6867 -0.6557
 4012TIP3    H212001   0.851   2.307   2.342  0.4981 -1.1438 -0.5218
 4013TIP3   OH212002   5.939   2.417   0.901  0.4978 -0.1523  0.2456
 4013TIP3    H112003   5.872   2.352   0.922 -0.2899 -0.1717 -2.0464
 4013TIP3    H212004   5.892   2.501   0.905  1.5799  0.4285  3.5065
 4014TIP3   OH212005   5.428   3.889   4.050  0.2394  0.1299 -0.5233
 4014TIP3    H112006   5.381   3.968   4.025 -1.2540 -0.7884 -0.7561
 4014TIP3    H212007   5.519   3.906   4.025 -0.2049  1.4324 -1.3520
 4015TIP3   OH212008   0.854   2.992   1.280  0.6428 -0.5555 -0.1547
 4015TIP3    H112009   0.762   2.984   1.255  1.0601 -1.7370 -1.3968
 4015TIP3    H212010   0.866   3.087   1.292 -0.2536 -0.1629 -1.9264
 4016TIP3   OH212011   2.796   5.656   3.926  0.2270 -0.6242 -0.0025
 4016TIP3    H112012   2.798   5.563   3.949 -0.0647 -0.5460  0.3472
 4016TIP3    H212013   2.763   5.658   3.836 -1.6069 -0.7472  0.6392
 4017TIP3   OH212014   6.908   5.857   1.907 -1.1967  0.6018  0.1197
 4017TIP3    H112015   6.819   5.890   1.923 -1.1034  0.4819  0.9301
 4017TIP3    H212016   6.922   5.792   1.976 -1.0559 -0.5264 -0.9242
 4018TIP3   OH212017   4.997   0.101   2.210 -0.3195 -0.2155 -0.0462
 4018TIP3    H112018   5.034   0.024   2.167 -2.1403  0.9511 -4.2238
 4018TIP3    H212019   5.054   0.173   2.184  0.3872  0.1981  2.3931
 4019TIP3   OH212020   4.790   6.680   4.007  0.1751 -0.5312  0.1475
 4019TIP3    H112021   4.876   6.655   3.972 -0.0126 -1.3568  0.2570
 4019TIP3    H212022   4.776   6.621   4.080 -0.1856  0.0688  0.5681
 4020TIP3   OH212023   0.930   6.201   2.689  0.2555 -0.2591 -0.2203
 4020TIP3    H112024   0.933   6.157   2.774 -0.5202  1.0654  0.5309
 4020TIP3    H212025   0.983   6.280   2.700  0.2177 -0.1171 -0.9881
 4021TIP3   OH212026   4.085   2.797   3.481 -0.6021 -0.2780 -0.4723
 4021TIP3    H112027   4.157   2.765   3.426 -0.0790  2.3943 -1.4709
 4021TIP3    H212028   4.118   2.787   3.570  1.1254  1.0151 -0.9182
 4022TIP3   OH212029   4.162   2.200   4.287 -0.0948  0.2187  0.1220
 4022TIP3    H112030   4.124   2.229   4.370 -0.1895 -1.1663  0.5863
 4022TIP3    H212031   4.208   2.119   4.309 -0.1559 -0.1884 -1.1928
 4023TIP3   OH212032   1.450   6.336   2.589  0.6628 -0.1344 -0.6379
 4023TIP3    H112033   1.534   6.295   2.567  0.4915 -0.5165 -0.5917
 4023TIP3    H212034   1.400   6.266   2.632  0.8317  0.4601  0.5762
 4024TIP3   OH212035   1.331   1.637   4.338 -0.0655  0.6574  0.3334
 4024TIP3    H112036   1.278   1.574   4.291 -0.3584  0.5847  0.7521
 4024TIP3    H212037   1.269   1.705   4.365  0.3880  1.5967 -0.8850
 4025TIP3   OH212038   5.126   1.640   5.273  0.0321  0.5065  0.0964
 4025TIP3    H112039   5.105   1.667   5.183 -0.9040 -0.5807 -0.0382
 4025TIP3    H212040   5.177   1.712   5.308 -0.6952  1.5417 -0.8904
 4026TIP3   OH212041   3.270   5.027   0.575  0.1726 -0.0498  0.0519
 4026TIP3    H112042   3.282   5.046   0.482  0.8542 -1.6059 -0.2070
 4026TIP3    H212043   3.243   4.935   0.578 -0.1357  0.0647  1.3769
 4027TIP3   OH212044   3.223   0.848   0.418  0.4022 -0.1765  0.3446
 4027TIP3    H112045   3.164   0.922   0.433 -0.4815 -0.6965 -0.4213
 4027TIP3    H212046   3.246   0.855   0.325  2.3380  0.5639  0.8492
 4028TIP3   OH212047   2.260   6.741   1.687 -0.6028  0.8925 -0.3494
 4028TIP3    H112048   2.334   6.798   1.710  0.3561 -0.2386 -0.5504
 4028TIP3    H212049   2.268   6.730   1.592 -0.0762 -0.5179 -0.1547
 4029TIP3   OH212050   6.950   3.692   0.992  0.0594  0.2592 -0.3005
 4029TIP3    H112051   6.910   3.772   1.026  0.7644  0.2321  0.6302
 4029TIP3    H212052   7.005   3.661   1.064 -2.0555 -2.4268  0.3363
 4030TIP3   OH212053   6.337   6.285   5.472  0.2424 -0.3227  0.8198
 4030TIP3    H112054   6.355   6.315   5.383  0.9476  1.3850  1.5021
 4030TIP3    H212055   6.377   6.350   5.529  0.5007 -1.7935  2.4220
 4031TIP3   OH212056   7.105   5.504   1.759  0.1640 -0.5726  0.3623
 4031TIP3    H112057   7.010   5.511   1.751  0.3193 -0.4835 -2.2077
 4031TIP3    H212058   7.137   5.593   1.742  0.7753 -1.1021 -1.4986
 4032TIP3   OH212059   5.166   3.139   4.426  0.7724  0.2519 -0.5316
 4032TIP3    H112060   5.186   3.188   4.505  2.1023  0.5918 -1.0503
 4032TIP3    H212061   5.071   3.125   4.429  0.2721  3.1514 -0.5292
 4033TIP3   OH212062   3.278   0.689   5.547  0.1422 -0.7079  0.3348
 4033TIP3    H112063   3.357   0.639   5.528 -0.6757 -1.6144 -0.8446
 4033TIP3    H212064   3.270   0.749   5.472  0.6925  0.6805  1.3525
 4034TIP3   OH212065   1.291   0.816   1.268 -0.4551 -0.5177  0.7750
 4034TIP3    H112066   1.294   0.850   1.178 -1.6099  0.7351  1.1620
 4034TIP3    H212067   1.230   0.743   1.263 -0.8207 -0.2086  0.5950
 4035TIP3   OH212068   4.898   4.559   2.207 -0.0421  0.6922  0.6487
 4035TIP3    H112069   4.941   4.558   2.292  0.1950 -0.8027  0.5354
 4035TIP3    H212070   4.814   4.601   2.223  0.3559  1.2163  1.4298
 4036TIP3   OH212071   0.568   3.339   4.027  0.0508 -0.0621 -0.0718
 4036TIP3    H112072   0.617   3.293   3.960 -0.1666  1.6110 -1.4653
 4036TIP3    H212073   0.540   3.271   4.089  1.2067 -1.4889 -1.0678
 4037TIP3   OH212074   5.562   1.838   4.167 -0.1423  0.4086  0.4713
 4037TIP3    H112075   5.573   1.870   4.077 -1.1983 -0.6023 -0.0510
 4037TIP3    H212076   5.608   1.754   4.167  0.1895  0.5896  0.9968
 4038TIP3   OH212077   5.794   1.256   4.399  0.1451  0.1839 -0.1545
 4038TIP3    H112078   5.874   1.207   4.383  0.2861 -0.1865  1.5287
 4038TIP3    H212079   5.810   1.304   4.480 -1.9330 -1.3028  1.2244
 4039TIP3   OH212080   3.858   4.900   0.959  0.3293  0.0218 -0.1371
 4039TIP3    H112081   3.903   4.976   0.923  1.6709  0.7524  2.7701
 4039TIP3    H212082   3.926   4.835   0.972 -0.3931 -0.8017 -0.3747
 4040TIP3   OH212083   1.253   5.947   5.429  0.2651 -0.1764 -0.8951
 4040TIP3    H112084   1.171   5.992   5.453  0.0138 -1.0479 -0.0475
 4040TIP3    H212085   1.303   6.013   5.381 -0.0474  1.0575  0.3871
 4041TIP3   OH212086   6.493   5.805   2.466  0.1208 -0.2669  0.4254
 4041TIP3    H112087   6.492   5.709   2.468 -0.4600 -0.2652  0.4565
 4041TIP3    H212088   6.420   5.828   2.409 -0.1559  0.1709  0.9517
 4042TIP3   OH212089   2.739   6.372   1.328  0.4266  0.0923  0.4445
 4042TIP3    H112090   2.735   6.465   1.309  0.7143  0.0058 -0.0721
 4042TIP3    H212091   2.656   6.352   1.372  0.5410  0.6654  0.9217
 4043TIP3   OH212092   4.721   0.063   4.285  0.1918 -0.2552  0.8019
 4043TIP3    H112093   4.657   0.043   4.216  2.4742 -0.2461 -1.4577
 4043TIP3    H212094   4.707   0.156   4.304  0.1238 -0.0132 -0.3497
 4044TIP3   OH212095   3.167   5.628   3.039  0.0973  0.2776 -0.2670
 4044TIP3    H112096   3.185   5.652   3.130  1.6395  1.1911 -0.7788
 4044TIP3    H212097   3.195   5.537   3.032 -2.6801 -0.7690  0.8416
 4045TIP3   OH212098   1.721   5.088   5.442 -0.2960 -0.0752 -0.9218
 4045TIP3    H112099   1.651   5.090   5.507 -1.1129 -3.0672 -1.5622
 4045TIP3    H212100   1.685   5.135   5.366 -1.5201 -1.2308 -1.1000
 4046TIP3   OH212101   2.857   2.158   1.709 -0.1655 -0.9938  0.1610
 4046TIP3    H112102   2.809   2.093   1.760  0.5694 -0.1070  2.0769
 4046TIP3    H212103   2.803   2.237   1.713  1.1585 -0.1140  1.9680
 4047TIP3   OH212104   2.500   6.107   2.540 -0.0767 -0.0920 -0.0948
 4047TIP3    H112105   2.463   6.021   2.525  0.1182 -0.1699 -0.1358
 4047TIP3    H212106   2.520   6.141   2.453 -2.6124  1.1099 -0.2863
 4048TIP3   OH212107   0.725   1.160   3.649 -0.0583  0.5306 -0.1234
 4048TIP3    H112108   0.680   1.220   3.709 -1.7938 -0.8862  0.0597
 4048TIP3    H212109   0.750   1.086   3.704 -0.6343 -0.2649 -0.9070
 4049TIP3   OH212110   0.249   5.254   3.578  0.2107  0.1653  0.7311
 4049TIP3    H112111   0.192   5.191   3.623 -0.1866  1.1154  1.6004
 4049TIP3    H212112   0.219   5.340   3.610 -0.4248  0.9256 -1.7222
 4050TIP3   OH212113   2.227   1.088   3.237  0.8844  0.1946  0.6061
 4050TIP3    H112114   2.294   1.145   3.201 -0.7764  1.8305 -0.0777
 4050TIP3    H212115   2.200   1.034   3.162  0.7659  0.2218  0.6289
 4051TIP3   OH212116   6.472   2.618   0.884 -0.0139 -0.0347  0.0517
 4051TIP3    H112117   6.537   2.664   0.831  1.3955 -1.6872  0.2227
 4051TIP3    H212118   6.495   2.525   0.874 -1.9924 -0.6335  0.6346
 4052TIP3   OH212119   4.322   4.802   5.113 -0.1902  0.3033 -0.1586
 4052TIP3    H112120   4.262   4.745   5.064 -0.1264  1.9201 -2.2904
 4052TIP3    H212121   4.307   4.780   5.205 -1.2366 -2.0297 -0.8177
 4053TIP3   OH212122   5.256   4.509   4.084 -0.2616  0.0037  0.7106
 4053TIP3    H112123   5.317   4.435   4.084 -1.4230 -0.9729  0.8699
 4053TIP3    H212124   5.297   4.573   4.026  0.8166 -0.7134  0.6513
 4054TIP3   OH212125   1.547   0.861   2.220 -0.0505 -0.3092 -0.0068
 4054TIP3    H112126   1.640   0.840   2.227 -0.2975 -1.0129  1.8978
 4054TIP3    H212127   1.511   0.793   2.163  0.7979  0.8544 -2.0502
 4055TIP3   OH212128   4.743   3.137   0.244  0.5069 -0.6152  0.4526
 4055TIP3    H112129   4.793   3.073   0.294 -0.9052 -1.7719  0.4659
 4055TIP3    H212130   4.654   3.130   0.279  0.3012  1.3449  0.4188
 4056TIP3   OH212131   1.584   6.414   0.117  0.7833  0.0946 -0.0800
 4056TIP3    H112132   1.591   6.407   0.213 -1.8714  1.6449  0.3485
 4056TIP3    H212133   1.604   6.326   0.085  0.1068 -0.9199  2.0525
 4057TIP3   OH212134   2.503   0.643   4.649  0.0079 -0.2050  0.1585
 4057TIP3    H112135   2.519   0.738   4.649  0.4236 -0.2735  0.4415
 4057TIP3    H212136   2.413   0.635   4.680 -0.8459  0.2158 -2.0323
 4058TIP3   OH212137   4.240   2.919   4.989  0.0894 -0.7152 -0.7232
 4058TIP3    H112138   4.145   2.930   4.989 -0.1921 -2.7700 -0.8804
 4058TIP3    H212139   4.268   2.953   5.074 -1.2334 -2.9979  0.7414
 4059TIP3   OH212140   5.722   0.639   5.220  0.3773 -0.4233 -0.0752
 4059TIP3    H112141   5.671   0.657   5.299  0.0830  1.5263 -0.6587
 4059TIP3    H212142   5.809   0.672   5.240  0.4980 -0.6024 -0.3042
 4060TIP3   OH212143   5.824   3.242   4.458  0.0969  0.2737 -0.7047
 4060TIP3    H112144   5.762   3.302   4.415 -1.1243  0.3774  1.0882
 4060TIP3    H212145   5.904   3.249   4.406 -0.7442  1.7078 -1.8947
 4061TIP3   OH212146   4.669   5.048   2.013 -0.7451  0.5743  0.2021
 4061TIP3    H112147   4.639   5.100   2.088 -0.2821  0.5344  0.4158
 4061TIP3    H212148   4.593   4.994   1.990 -0.6845  0.1071  1.0622
 4062TIP3   OH212149   5.126   0.172   2.506  0.6585 -0.4341 -0.0052
 4062TIP3    H112150   5.201   0.222   2.539  0.4716 -0.1626  0.0151
 4062TIP3    H212151   5.101   0.218   2.425 -0.9408  0.9073  1.1841
 4063TIP3   OH212152   6.412   4.363   5.247  0.2604  0.3818  0.0876
 4063TIP3    H112153   6.368   4.447   5.230  0.0573  0.5203  1.2118
 4063TIP3    H212154   6.505   4.385   5.246  0.2457  0.4398 -0.5036
 4064TIP3   OH212155   5.659   2.853   5.408 -0.3761  0.4930  0.5890
 4064TIP3    H112156   5.726   2.837   5.341 -1.3984 -0.1960 -0.3037
 4064TIP3    H212157   5.707   2.891   5.481  1.4529 -2.2076  0.9310
 4065TIP3   OH212158   6.253   5.729   5.197 -0.2643  0.0529 -0.3751
 4065TIP3    H112159   6.160   5.744   5.176 -0.1156 -0.8816 -1.9156
 4065TIP3    H212160   6.293   5.816   5.191 -1.2667  0.7438  1.8709
 4066TIP3   OH212161   1.830   5.177   5.816  0.5022 -0.2702 -0.8361
 4066TIP3    H112162   1.852   5.263   5.780  0.8582  0.1089  0.2481
 4066TIP3    H212163   1.878   5.172   5.899 -1.1862 -0.6378  0.1690
 4067TIP3   OH212164   2.105   2.618   0.771  0.0765 -0.1830  0.8067
 4067TIP3    H112165   2.066   2.675   0.705 -2.4005 -0.5110  1.8721
 4067TIP3    H212166   2.173   2.569   0.724  0.9393  2.1814 -0.5678
 4068TIP3   OH212167   5.348   3.349   5.418  0.4605 -0.5603  0.2146
 4068TIP3    H112168   5.323   3.438   5.442 -0.4681 -1.3839  2.5595
 4068TIP3    H212169   5.268   3.309   5.384  1.1546 -0.2130 -2.0130
 4069TIP3   OH212170   3.786   4.056   5.731  0.4556  0.1701 -0.2639
 4069TIP3    H112171   3.793   3.962   5.746 -1.4733  0.0391 -0.0389
 4069TIP3    H212172   3.745   4.091   5.810  1.3326  1.2466 -0.2565
 4070TIP3   OH212173   2.378   6.418   4.818 -0.5349  0.2134 -0.2105
 4070TIP3    H112174   2.326   6.431   4.739  1.5080  2.1400 -1.3484
 4070TIP3    H212175   2.438   6.347   4.795 -2.9111 -2.5328  1.3552
 4071TIP3   OH212176   6.060   0.683   2.301 -0.1689  0.1271  0.1201
 4071TIP3    H112177   6.130   0.739   2.334  0.1486  0.2979 -0.8221
 4071TIP3    H212178   6.091   0.655   2.215 -0.1920 -1.7340  0.6847
 4072TIP3   OH212179   2.968   2.094   4.735 -0.4301 -0.7050  0.0304
 4072TIP3    H112180   3.023   2.091   4.656  0.0201  1.0483  0.2436
 4072TIP3    H212181   2.963   2.187   4.758 -0.7361 -1.1528  1.9536
 4073TIP3   OH212182   6.663   4.594   0.722  0.2869 -0.2802 -0.6694
 4073TIP3    H112183   6.621   4.670   0.763  1.3965 -0.5674  1.1337
 4073TIP3    H212184   6.717   4.631   0.653 -1.8347  0.2079 -2.1654
 4074TIP3   OH212185   6.376   4.476   0.775  0.0891  0.7595 -0.3027
 4074TIP3    H112186   6.398   4.404   0.834 -2.2552  2.6732  3.2536
 4074TIP3    H212187   6.447   4.540   0.789 -0.3518  1.1195  0.3700
 4075TIP3   OH212188   4.828   1.380   3.577 -0.1053 -1.2391  0.4032
 4075TIP3    H112189   4.909   1.349   3.619 -1.2941 -2.7741  1.7391
 4075TIP3    H212190   4.846   1.374   3.484  1.8532  0.0133  0.6339
 4076TIP3   OH212191   2.024   6.621   1.784  0.2757  0.2416  0.3319
 4076TIP3    H112192   2.081   6.681   1.734 -0.6968  1.0882  0.2044
 4076TIP3    H212193   2.085   6.561   1.828  1.1846 -0.5342 -1.8419
 4077TIP3   OH212194   6.249   4.042   3.280  0.5723 -0.5928 -0.0645
 4077TIP3    H112195   6.280   3.954   3.300  0.3811 -0.7154 -0.3124
 4077TIP3    H212196   6.155   4.032   3.267  0.4864 -0.2837  0.3115
 4078TIP3   OH212197   6.383   5.989   2.737 -0.4123 -0.2097 -0.2581
 4078TIP3    H112198   6.445   6.061   2.720 -0.7208  0.0224 -0.4077
 4078TIP3    H212199   6.351   6.005   2.826  0.4241 -0.8432  0.1698
 4079TIP3   OH212200   4.300   5.984   3.163 -0.3189  0.1539 -0.1908
 4079TIP3    H112201   4.352   5.952   3.237  0.5040 -0.6900 -1.1078
 4079TIP3    H212202   4.343   6.065   3.136 -0.2877  0.1665 -0.1051
 4080TIP3   OH212203   5.357   3.296   0.658 -0.4278 -0.3301  0.5191
 4080TIP3    H112204   5.327   3.384   0.683 -1.8328  0.4279 -3.1088
 4080TIP3    H212205   5.289   3.237   0.690 -0.6225  0.1831  1.0649
 4081TIP3   OH212206   6.945  -0.018   3.665  0.3125  0.3966  0.5674
 4081TIP3    H112207   6.942   0.017   3.576  0.1468 -1.0222 -0.0019
 4081TIP3    H212208   6.859   0.004   3.702  0.2251  0.6140  0.2422
 4082TIP3   OH212209   1.919   5.413   5.739  0.3851 -0.0112 -0.1856
 4082TIP3    H112210   2.014   5.409   5.727  0.3229 -2.0325 -0.2058
 4082TIP3    H212211   1.907   5.484   5.802  1.9658 -0.2215  0.4125
 4083TIP3   OH212212   3.197   6.679   0.163 -0.4495  0.4294  0.3061
 4083TIP3    H112213   3.176   6.621   0.090  0.2158  0.9406 -0.2971
 4083TIP3    H212214   3.200   6.766   0.125  0.8565  0.5944  0.7457
 4084TIP3   OH212215   0.916   6.536   0.748  0.1373 -0.1621 -0.1836
 4084TIP3    H112216   0.832   6.493   0.767 -0.7605  0.4604 -2.4189
 4084TIP3    H212217   0.897   6.629   0.760  0.1151  0.0773 -1.8998
 4085TIP3   OH212218   4.958   2.665   3.423  0.0078  0.1059  0.4886
 4085TIP3    H112219   4.992   2.606   3.490 -0.6952  0.8500  1.5419
 4085TIP3    H212220   4.984   2.752   3.452  0.9714  0.3439 -1.0091
 4086TIP3   OH212221   2.030   1.395   1.909  0.3773  0.0192 -0.6394
 4086TIP3    H112222   2.069   1.318   1.951 -1.4895  0.4486  2.2144
 4086TIP3    H212223   2.086   1.468   1.936 -0.2625  0.1641  0.3564
 4087TIP3   OH212224   4.646   0.587   5.113 -0.1040 -0.0331 -0.1725
 4087TIP3    H112225   4.559   0.557   5.087 -0.6106  0.0337  1.3332
 4087TIP3    H212226   4.689   0.509   5.148 -0.2900  0.3345  0.9000
 4088TIP3   OH212227   1.552   2.911   1.068  0.2561  0.6352  0.8477
 4088TIP3    H112228   1.505   2.828   1.072  1.9613 -0.4163 -0.0867
 4088TIP3    H212229   1.483   2.977   1.075 -1.3478 -0.8232 -0.2421
 4089TIP3   OH212230   1.279   6.435   5.347 -0.0523  0.0854 -0.2260
 4089TIP3    H112231   1.247   6.482   5.270 -1.9430  0.0252  0.4703
 4089TIP3    H212232   1.292   6.503   5.413 -1.8082 -0.1711  0.4568
 4090TIP3   OH212233   0.049   0.578   3.377  0.0961 -0.2967 -0.6627
 4090TIP3    H112234  -0.002   0.552   3.300  0.9352 -0.8828 -1.0379
 4090TIP3    H212235  -0.015   0.589   3.446 -0.6096 -0.3667 -1.2939
 4091TIP3   OH212236   6.783   1.980   3.028 -0.2755  0.1872 -0.0495
 4091TIP3    H112237   6.743   2.028   2.955 -1.0414 -1.7052 -0.9398
 4091TIP3    H212238   6.717   1.983   3.097 -0.3445  0.3678 -0.1218
 4092TIP3   OH212239   2.074   5.008   3.079 -0.3446  0.6064 -0.4091
 4092TIP3    H112240   2.007   4.989   3.014 -0.4554  2.6409 -0.9439
 4092TIP3    H212241   2.148   4.953   3.054 -1.5675 -1.2453 -0.1363
 4093TIP3   OH212242   4.834   4.061   1.724 -0.0378  0.0463  0.1049
 4093TIP3    H112243   4.811   4.011   1.803 -0.8194 -1.2076 -0.8788
 4093TIP3    H212244   4.848   4.150   1.756 -0.5969 -0.3695  1.6188
 4094TIP3   OH212245   0.091   0.135   4.129 -0.7039  0.1194  0.1183
 4094TIP3    H112246   0.003   0.107   4.151 -0.7499 -0.5013 -0.7728
 4094TIP3    H212247   0.119   0.073   4.061 -0.3682  1.5505 -1.1026
 4095TIP3   OH212248   6.103   0.143   2.241 -0.2632 -0.8750  0.2908
 4095TIP3    H112249   6.161   0.083   2.194 -0.5716  0.2810 -1.7042
 4095TIP3    H212250   6.056   0.088   2.302 -0.6738 -2.7336 -1.5859
 4096TIP3   OH212251   6.964   0.598   4.371  0.1332  0.2466  0.5459
 4096TIP3    H112252   6.929   0.511   4.355  2.4534 -1.0186  1.7916
 4096TIP3    H212253   6.911   0.633   4.443 -2.2482  0.8680 -1.3919
 4097TIP3   OH212254   5.539   4.723   4.646  0.2608  0.5638 -0.3571
 4097TIP3    H112255   5.483   4.647   4.662  0.5184  0.7062  1.4047
 4097TIP3    H212256   5.605   4.719   4.715  0.4173  2.2554 -0.3770
 4098TIP3   OH212257   3.586   5.022   2.158  0.3174 -0.5733 -0.7808
 4098TIP3    H112258   3.509   5.060   2.200  1.1375 -0.0180  0.2711
 4098TIP3    H212259   3.551   4.972   2.084 -0.8059  2.5906 -2.5825
 4099TIP3   OH212260   0.099   2.776   5.440  0.5487  0.4045  0.1337
 4099TIP3    H112261   0.066   2.827   5.513  2.7290 -0.7976  2.0950
 4099TIP3    H212262   0.113   2.840   5.370 -0.8451  1.7201  1.0061
 4100TIP3   OH212263   4.908   3.677   3.071  0.0928  0.1120  0.9565
 4100TIP3    H112264   4.871   3.600   3.028 -1.3397  1.9994 -1.4376
 4100TIP3    H212265   4.851   3.693   3.146 -1.5565  0.5803 -0.3379
 4101TIP3   OH212266   6.656   1.716   5.090 -0.3107 -0.1137 -0.0169
 4101TIP3    H112267   6.672   1.803   5.052 -0.3372 -0.4032 -0.7017
 4101TIP3    H212268   6.626   1.734   5.179 -1.9601  0.6462 -0.6899
 4102TIP3   OH212269   6.686   5.591   3.063 -0.1293 -0.2415  0.0774
 4102TIP3    H112270   6.738   5.595   3.143 -0.2617 -0.8483  0.1949
 4102TIP3    H212271   6.596   5.585   3.094 -0.1505 -0.8991 -0.1151
 4103TIP3   OH212272   4.547   3.815   2.587 -0.3784  0.4655  0.1141
 4103TIP3    H112273   4.569   3.724   2.608 -0.3087  0.3887 -0.2962
 4103TIP3    H212274   4.523   3.813   2.495 -1.0419  0.7440  0.2792
 4104TIP3   OH212275   2.372   3.167   3.740  0.0301 -0.1748 -0.0813
 4104TIP3    H112276   2.402   3.116   3.664  0.6203  3.2016 -2.3289
 4104TIP3    H212277   2.312   3.231   3.703 -0.0389  1.3033  2.3962
 4105TIP3   OH212278   0.065   5.738   1.726 -0.0838  0.0008 -0.0716
 4105TIP3    H112279   0.144   5.695   1.759 -0.6775 -1.3705 -0.3272
 4105TIP3    H212280   0.052   5.813   1.783  2.0150  0.9118 -0.7069
 4106TIP3   OH212281   6.831   2.485   0.302 -0.3033  0.3388  0.4628
 4106TIP3    H112282   6.857   2.548   0.235 -1.2493 -1.4662 -1.7682
 4106TIP3    H212283   6.914   2.444   0.329  0.1971  1.7651  1.1900
 4107TIP3   OH212284   1.107   4.182   3.358  0.2740  0.0596 -0.7583
 4107TIP3    H112285   1.124   4.253   3.420  1.5958 -1.4999  0.7717
 4107TIP3    H212286   1.032   4.212   3.307 -2.3675  0.6016  3.0368
 4108TIP3   OH212287   5.644   5.912   4.007 -0.0829  0.4275  0.2546
 4108TIP3    H112288   5.587   5.938   3.935 -0.9780 -0.1649  0.7328
 4108TIP3    H212289   5.645   5.816   4.004  0.3536  0.4158  0.6525
 4109TIP3   OH212290   1.119   4.426   1.942  0.2058 -0.2430  0.3913
 4109TIP3    H112291   1.165   4.482   1.879 -0.0791  0.4522  0.7787
 4109TIP3    H212292   1.173   4.348   1.949  0.3954 -0.2063 -0.4923
 4110TIP3   OH212293   1.923   1.718   0.929  0.0843 -0.1996 -0.3352
 4110TIP3    H112294   1.947   1.790   0.987 -0.3807 -1.5251  1.6060
 4110TIP3    H212295   1.827   1.721   0.925 -0.0147 -1.2143  0.5471
 4111TIP3   OH212296   1.622   2.587   0.111 -0.2773 -0.0057 -0.2702
 4111TIP3    H112297   1.666   2.597   0.026  2.0359  0.9439  0.9593
 4111TIP3    H212298   1.591   2.496   0.110 -0.2794 -0.0315 -2.1044
 4112TIP3   OH212299   1.382   2.037   1.141 -0.3023 -0.1499  0.0592
 4112TIP3    H112300   1.338   1.959   1.174  2.2658 -1.9621 -0.4582
 4112TIP3    H212301   1.451   2.055   1.205  0.0981  0.7647 -0.6041
 4113TIP3   OH212302   5.825   0.262   3.902 -0.1984 -0.0448 -0.2789
 4113TIP3    H112303   5.769   0.316   3.956  1.7908  0.7172  1.1341
 4113TIP3    H212304   5.865   0.322   3.840  2.6788  0.4295  1.8446
 4114TIP3   OH212305   5.470   5.303   3.845  0.0143 -0.2711 -0.2744
 4114TIP3    H112306   5.392   5.320   3.898 -0.1750 -1.6613 -0.0495
 4114TIP3    H212307   5.537   5.280   3.910 -0.1383 -1.6993 -0.5892
 4115TIP3   OH212308   6.119   0.155   3.327 -0.0322  0.1217 -0.3219
 4115TIP3    H112309   6.213   0.139   3.317  0.2271  1.2133  0.2744
 4115TIP3    H212310   6.104   0.153   3.421 -0.3068  1.5631 -0.3213
 4116TIP3   OH212311   0.017   5.241   2.928 -0.4513  0.2615 -0.2759
 4116TIP3    H112312   0.062   5.244   2.844  2.1354 -0.3553  0.9761
 4116TIP3    H212313   0.040   5.323   2.971  2.6401 -1.4213  1.7453
 4117TIP3   OH212314   0.184   5.198   1.315 -0.2033 -0.2391 -0.3869
 4117TIP3    H112315   0.123   5.263   1.351  0.7261  1.3069 -1.4786
 4117TIP3    H212316   0.259   5.200   1.375 -0.8033 -1.4473  0.4275
 4118TIP3   OH212317   1.763   3.499   1.341 -0.0351 -0.1183  0.3599
 4118TIP3    H112318   1.781   3.564   1.273 -1.3792  0.2046  0.2994
 4118TIP3    H212319   1.720   3.427   1.294  0.3908 -0.5505  0.6255
 4119TIP3   OH212320   5.530   0.191   3.854  0.2965 -0.5523  0.5012
 4119TIP3    H112321   5.521   0.108   3.900 -0.3575 -1.3400 -0.9915
 4119TIP3    H212322   5.471   0.251   3.900 -0.3498 -1.3227  0.6915
 4120TIP3   OH212323   1.564   4.297   5.310 -0.0271  0.1915 -0.2920
 4120TIP3    H112324   1.529   4.308   5.398 -0.3821 -2.3866 -0.0626
 4120TIP3    H212325   1.641   4.354   5.308  1.2502 -1.2461  2.4323
 4121TIP3   OH212326   0.947   4.932   1.140  0.9483  0.3759 -0.3359
 4121TIP3    H112327   1.025   4.971   1.177  1.3144  0.1783 -0.8889
 4121TIP3    H212328   0.928   4.857   1.197 -0.5460  2.0769  1.5596
 4122TIP3   OH212329   2.569   4.289   3.687 -0.1230  0.2117 -0.3425
 4122TIP3    H112330   2.516   4.363   3.714  1.1427  0.1851  2.4991
 4122TIP3    H212331   2.584   4.239   3.767  0.4621 -2.2357 -1.8620
 4123TIP3   OH212332   1.899   2.129   4.125  0.0638 -0.0169 -0.0666
 4123TIP3    H112333   1.910   2.093   4.037  0.3221  0.2563 -0.1503
 4123TIP3    H212334   1.903   2.224   4.112  2.2789  0.0220  0.4840
 4124TIP3   OH212335   3.969   4.881   2.828  0.0101  0.2599  0.2938
 4124TIP3    H112336   3.939   4.959   2.782  1.0781  0.0545 -0.8059
 4124TIP3    H212337   3.910   4.811   2.797  0.2468  0.2715 -0.1948
 4125TIP3   OH212338   2.278   2.202   4.682 -0.3869  0.6293  0.3378
 4125TIP3    H112339   2.217   2.145   4.729 -0.2494  1.7628  1.9510
 4125TIP3    H212340   2.260   2.290   4.715 -1.1232  1.7303 -2.6289
 4126TIP3   OH212341   3.416   5.482   5.185  0.1825 -0.2218  0.4385
 4126TIP3    H112342   3.475   5.417   5.148 -0.9037 -0.9939  0.0088
 4126TIP3    H212343   3.410   5.550   5.117  2.2737  1.0134  1.3735
 4127TIP3   OH212344   1.466   2.917   0.495  0.0558  0.1684  0.0696
 4127TIP3    H112345   1.441   2.900   0.586 -0.1796  0.2172  0.0131
 4127TIP3    H212346   1.528   2.989   0.500 -0.2135  0.3948  0.1615
 4128TIP3   OH212347   4.892   6.606   4.976  0.5383  0.5345 -0.5869
 4128TIP3    H112348   4.961   6.543   4.994 -0.1824  0.1122  0.8302
 4128TIP3    H212349   4.877   6.650   5.060 -1.8469 -0.3553 -0.4808
 4129TIP3   OH212350   4.934   2.190   3.891 -0.2872  0.0038  0.0083
 4129TIP3    H112351   4.965   2.103   3.864 -2.9489 -0.5679 -1.5182
 4129TIP3    H212352   4.885   2.223   3.815  1.5835  3.4123  0.0749
 4130TIP3   OH212353   4.218   3.184   2.906 -0.5997 -0.0118 -0.2099
 4130TIP3    H112354   4.133   3.168   2.865 -0.3893 -0.7599 -0.3517
 4130TIP3    H212355   4.208   3.151   2.995 -0.2747 -0.6365 -0.4011
 4131TIP3   OH212356   6.700   2.384   4.440  0.6461 -0.6983  0.2348
 4131TIP3    H112357   6.649   2.373   4.360  0.4267  0.3739  0.2132
 4131TIP3    H212358   6.761   2.311   4.440  0.0987 -1.1685 -0.4913
 4132TIP3   OH212359   3.549   3.696   0.441 -0.4555  0.2764  0.5672
 4132TIP3    H112360   3.481   3.628   0.444 -0.1437 -0.0363  0.5833
 4132TIP3    H212361   3.518   3.763   0.502  0.4595 -1.0096  2.5343
 4133TIP3   OH212362   0.595   6.504   5.459 -0.4341  0.3688 -0.1578
 4133TIP3    H112363   0.536   6.497   5.385 -0.9345 -4.2215  0.3848
 4133TIP3    H212364   0.538   6.501   5.536  0.2644  1.4213  0.4261
 4134TIP3   OH212365   3.066   3.708   2.642 -0.3634  0.4029 -0.3756
 4134TIP3    H112366   2.979   3.707   2.602 -0.2156 -1.5729 -0.7403
 4134TIP3    H212367   3.092   3.800   2.640 -1.7416  0.8092 -1.8036
 4135TIP3   OH212368   6.070   3.915   4.034  0.1163  0.2468 -0.2351
 4135TIP3    H112369   6.045   3.987   3.976  1.5100 -0.0279 -1.2139
 4135TIP3    H212370   6.154   3.942   4.071 -0.2563 -0.0499  0.8828
 4136TIP3   OH212371   6.204   5.322   0.990 -0.5759  1.0927  0.3087
 4136TIP3    H112372   6.151   5.259   1.038  0.1447  1.2081  1.2707
 4136TIP3    H212373   6.194   5.404   1.038 -0.7345  1.4819 -0.3778
 4137TIP3   OH212374   6.947   5.871   2.323  0.2709  0.7358 -0.1014
 4137TIP3    H112375   6.859   5.906   2.308  0.2890 -0.2898 -3.2453
 4137TIP3    H212376   7.005   5.930   2.276  1.0849  0.3185  0.3562
 4138TIP3   OH212377   5.211   6.072   3.629 -0.6538  0.3885  0.4859
 4138TIP3    H112378   5.179   6.038   3.712 -2.4282 -0.0172 -0.3220
 4138TIP3    H212379   5.195   6.166   3.633  0.1971  0.5277  0.9697
 4139TIP3   OH212380   3.631   0.679   0.156 -0.1009 -0.3623 -0.2791
 4139TIP3    H112381   3.633   0.699   0.249  1.1771  1.8430 -0.7110
 4139TIP3    H212382   3.705   0.619   0.142 -0.4584 -0.9074  0.1519
 4140TIP3   OH212383   2.735   6.072   4.223 -0.0004 -0.5967 -0.9055
 4140TIP3    H112384   2.683   6.003   4.183 -1.3314 -0.4334  0.4420
 4140TIP3    H212385   2.708   6.073   4.315  2.3523 -0.4342 -0.1387
 4141TIP3   OH212386   0.414   2.190   5.723  0.3367 -0.2819  0.5592
 4141TIP3    H112387   0.388   2.102   5.697  0.7184 -0.4832  0.8428
 4141TIP3    H212388   0.469   2.221   5.650 -2.2375  0.9275 -1.0154
 4142TIP3   OH212389   2.137   5.180   5.616 -0.2897  0.9596 -0.2613
 4142TIP3    H112390   2.185   5.258   5.644  1.2929  0.8300 -2.3417
 4142TIP3    H212391   2.105   5.203   5.528  2.3214 -1.4640 -2.0233
 4143TIP3   OH212392   2.737   6.355   1.814  0.0668 -0.0668  0.2261
 4143TIP3    H112393   2.699   6.438   1.786 -0.2274 -0.3946 -0.3753
 4143TIP3    H212394   2.662   6.303   1.843  0.2267 -0.1998  0.4046
 4144TIP3   OH212395   2.996   3.429   0.581  0.1590  0.0817  0.3502
 4144TIP3    H112396   3.052   3.417   0.505  0.6577  0.4201  0.6558
 4144TIP3    H212397   3.043   3.387   0.653 -0.3699 -0.3508  0.4485
 4145TIP3   OH212398   0.034   2.856   0.957 -0.0415 -0.4768  0.0407
 4145TIP3    H112399   0.096   2.784   0.957  0.7063  0.1424  1.4471
 4145TIP3    H212400   0.071   2.921   0.897 -0.3779 -0.9557 -0.6997
 4146TIP3   OH212401   5.992   5.665   1.974 -0.6319  0.0730 -0.3142
 4146TIP3    H112402   6.031   5.648   2.060 -1.0716 -2.1485 -0.5143
 4146TIP3    H212403   6.057   5.720   1.929 -0.9420  2.3901  1.8080
 4147TIP3   OH212404   3.455   6.615   1.901 -0.4165  0.1764 -0.3266
 4147TIP3    H112405   3.475   6.686   1.840 -0.3522  1.5448  1.2188
 4147TIP3    H212406   3.537   6.599   1.947 -0.0108 -1.9965 -1.6630
 4148TIP3   OH212407   0.766   6.128   0.859  0.2948  0.4651 -0.6052
 4148TIP3    H112408   0.699   6.059   0.865  0.3025  0.4500 -0.6962
 4148TIP3    H212409   0.843   6.089   0.900  0.3633  0.3404 -0.8529
 4149TIP3   OH212410   0.538   1.383   2.621  0.3697  0.1836  0.5372
 4149TIP3    H112411   0.522   1.457   2.681  1.1615  1.1131 -0.3544
 4149TIP3    H212412   0.606   1.332   2.665  0.2294  0.3017  0.8988
 4150TIP3   OH212413   6.721   3.058   1.694 -0.0947  0.1653  0.6177
 4150TIP3    H112414   6.645   3.023   1.741 -0.7547 -1.3660 -1.4129
 4150TIP3    H212415   6.796   3.039   1.750 -1.0121  0.0071  1.8211
 4151TIP3   OH212416   3.627   2.035   3.039 -0.3409 -0.4144  0.5830
 4151TIP3    H112417   3.682   2.104   3.074 -0.4302  0.6807 -1.2901
 4151TIP3    H212418   3.558   2.081   2.990 -1.0246 -1.7958  0.1835
 4152TIP3   OH212419   6.466   4.767   2.551 -0.8212 -0.3351 -0.1109
 4152TIP3    H112420   6.399   4.792   2.487 -0.2381  0.5115 -0.3996
 4152TIP3    H212421   6.531   4.719   2.500 -0.8201 -0.4777  0.0255
 4153TIP3   OH212422   0.528   5.730   2.513  0.4218  0.7506  0.0027
 4153TIP3    H112423   0.534   5.652   2.567 -0.5387  0.9108  0.3520
 4153TIP3    H212424   0.471   5.789   2.561 -2.5634 -0.0523 -2.2339
 4154TIP3   OH212425   2.139   6.803   2.615 -0.5523  0.3836  0.3300
 4154TIP3    H112426   2.227   6.768   2.632 -0.4976  0.4957  0.2808
 4154TIP3    H212427   2.123   6.783   2.523 -0.9878 -0.5279  0.5883
 4155TIP3   OH212428   3.816   6.643   1.860  0.2700  0.3358  0.3605
 4155TIP3    H112429   3.792   6.627   1.769  0.8867  0.7417  0.1277
 4155TIP3    H212430   3.848   6.733   1.862 -0.7559  0.7044  1.1867
 4156TIP3   OH212431   5.859   1.833   3.377  0.2518 -0.5155 -0.1300
 4156TIP3    H112432   5.954   1.822   3.387  0.2370 -0.6129 -0.1026
 4156TIP3    H212433   5.850   1.914   3.326  0.3916 -1.3233 -1.4818
 4157TIP3   OH212434   4.224   0.850   3.337 -0.1494 -0.2707  0.0042
 4157TIP3    H112435   4.189   0.763   3.358  0.3087 -0.4678 -0.0367
 4157TIP3    H212436   4.318   0.842   3.351 -0.3528  0.9301  2.4755
 4158TIP3   OH212437   2.829   5.376   1.464  0.1028 -0.0348 -0.2695
 4158TIP3    H112438   2.907   5.321   1.454 -0.2197 -0.5023 -0.2390
 4158TIP3    H212439   2.791   5.379   1.376  0.4803  0.6993 -0.4233
 4159TIP3   OH212440   6.205   5.809   1.235  0.0269  0.0588 -0.2029
 4159TIP3    H112441   6.130   5.840   1.285  0.1801 -0.3787  0.3052
 4159TIP3    H212442   6.279   5.860   1.267 -0.4562  2.5340 -2.6542
 4160TIP3   OH212443   6.060   0.098   3.886 -0.3853 -0.2334  0.3271
 4160TIP3    H112444   5.980   0.049   3.908 -0.4251  0.2961  1.4411
 4160TIP3    H212445   6.035   0.190   3.894  0.4203 -0.0648  1.0486
 4161TIP3   OH212446   1.806   3.625   1.815 -0.7206 -0.2219 -0.5582
 4161TIP3    H112447   1.803   3.587   1.728  1.3025 -1.4198 -0.1866
 4161TIP3    H212448   1.715   3.625   1.845 -1.4082 -0.0627 -2.5102
 4162TIP3   OH212449   5.837   2.916   2.902 -0.1268  0.1616  0.2161
 4162TIP3    H112450   5.829   2.877   2.815  0.6102 -0.0785  0.2530
 4162TIP3    H212451   5.753   2.960   2.916 -0.5001 -0.3613 -0.3368
 4163TIP3   OH212452   4.021   4.020   0.375  0.4938 -0.4517 -0.2679
 4163TIP3    H112453   4.093   3.959   0.358  0.7789 -0.1684 -0.0913
 4163TIP3    H212454   4.022   4.079   0.300 -0.4265 -1.2601 -0.9510
 4164TIP3   OH212455   0.679   3.551   2.840 -0.0910  0.2560 -0.0369
 4164TIP3    H112456   0.721   3.467   2.859 -0.9722 -0.5513 -1.4208
 4164TIP3    H212457   0.683   3.557   2.744 -0.2469  1.6920  0.0389
 4165TIP3   OH212458   4.267   0.382   1.961 -0.6049 -0.4165 -0.1439
 4165TIP3    H112459   4.233   0.417   1.879  1.4235  4.2141  0.6809
 4165TIP3    H212460   4.355   0.350   1.938  0.5960  2.3021  0.2983
 4166TIP3   OH212461   2.836   0.402   4.974 -0.1562 -0.0139  0.1080
 4166TIP3    H112462   2.851   0.350   5.053 -1.8939 -0.5554  0.1036
 4166TIP3    H212463   2.891   0.480   4.987  1.1730 -1.0303  0.8833
 4167TIP3   OH212464   6.320   6.257   1.999  0.0064  0.3942  0.1880
 4167TIP3    H112465   6.347   6.262   1.908 -1.1865  0.7638 -0.1605
 4167TIP3    H212466   6.383   6.196   2.039  3.0858  3.2480  0.1030
 4168TIP3   OH212467   3.528   1.517   5.375 -0.2418 -0.1715 -0.7827
 4168TIP3    H112468   3.560   1.573   5.304  2.4461  0.4745  0.7922
 4168TIP3    H212469   3.502   1.579   5.444  0.2992 -0.8114  0.0117
 4169TIP3   OH212470   2.103   4.053   2.780  0.1882 -0.5336 -0.0853
 4169TIP3    H112471   2.017   4.067   2.739  0.9460  0.4889 -1.4316
 4169TIP3    H212472   2.120   3.960   2.767 -0.3709 -0.5849 -0.5408
 4170TIP3   OH212473   0.914   1.083   4.773 -0.0722  0.3056  0.3046
 4170TIP3    H112474   0.936   1.093   4.865 -1.2513  2.5264  0.4028
 4170TIP3    H212475   0.998   1.086   4.728  0.4078  0.6664  1.2083
 4171TIP3   OH212476   2.633   6.115   1.254 -0.4477 -0.5830 -0.4645
 4171TIP3    H112477   2.572   6.134   1.183  1.1788 -0.5214 -1.9087
 4171TIP3    H212478   2.680   6.197   1.268 -0.5111 -0.6931  0.4625
 4172TIP3   OH212479   0.022   0.625   1.577  0.1914  0.0328  0.5384
 4172TIP3    H112480   0.115   0.613   1.558 -0.0788 -1.5526  0.0207
 4172TIP3    H212481   0.014   0.608   1.670  0.3156 -0.6151  0.4349
 4173TIP3   OH212482   3.665   2.187   0.935  0.2817 -0.3935  0.2862
 4173TIP3    H112483   3.755   2.212   0.957  0.3441 -0.8488  0.5585
 4173TIP3    H212484   3.663   2.188   0.839  1.4782 -3.3793  0.1230
 4174TIP3   OH212485   4.629   4.239   1.543 -0.0622  0.1371 -0.2016
 4174TIP3    H112486   4.636   4.180   1.618 -1.0157 -1.6322 -1.4309
 4174TIP3    H212487   4.720   4.265   1.525  0.2526 -0.0033  1.0842
 4175TIP3   OH212488   0.732   0.362   3.715  0.0663  0.0172 -0.0261
 4175TIP3    H112489   0.754   0.445   3.673  1.5913  0.5273  1.6714
 4175TIP3    H212490   0.816   0.323   3.737 -0.5076 -2.9514 -2.4203
 4176TIP3   OH212491   0.927   4.359   1.048  0.0347 -0.1537  0.0147
 4176TIP3    H112492   0.913   4.268   1.074 -2.0351  0.0808 -0.1282
 4176TIP3    H212493   0.946   4.355   0.955 -0.1417 -0.4192 -0.0107
 4177TIP3   OH212494   4.290   3.747   4.183  0.6252 -0.1932 -0.1363
 4177TIP3    H112495   4.281   3.806   4.108  2.0627 -0.1389 -0.2944
 4177TIP3    H212496   4.327   3.667   4.146  1.4538 -0.1272  0.5066
 4178TIP3   OH212497   0.830   6.283   0.273  0.0978  0.2939  0.3354
 4178TIP3    H112498   0.814   6.211   0.334 -0.0354 -0.3614 -0.4711
 4178TIP3    H212499   0.869   6.351   0.328  0.6488 -0.5521  1.0239
 4179TIP3   OH212500   6.045   5.552   0.725 -0.4202 -0.1519  0.3702
 4179TIP3    H112501   5.983   5.543   0.798 -0.5456  0.2105  0.3093
 4179TIP3    H212502   6.011   5.492   0.659 -0.5698 -0.1372  0.4314
 4180TIP3   OH212503   0.377   2.090   1.642 -0.2115 -0.0199  0.9182
 4180TIP3    H112504   0.345   2.116   1.728 -2.7844 -0.3141  0.1159
 4180TIP3    H212505   0.321   2.136   1.580 -0.7233 -2.4658 -0.5761
 4181TIP3   OH212506   3.516   1.381   2.461  0.4083 -0.0955  0.0368
 4181TIP3    H112507   3.466   1.311   2.419  2.0001 -3.2165  2.8947
 4181TIP3    H212508   3.457   1.415   2.528  0.0356  0.5561 -0.6080
 4182TIP3   OH212509   5.842   4.658   5.805 -0.3250 -0.8747 -0.0934
 4182TIP3    H112510   5.879   4.600   5.871  1.7821  0.8377  0.3369
 4182TIP3    H212511   5.879   4.626   5.722  0.7839 -0.2415  0.1351
 4183TIP3   OH212512   7.145   4.136   2.631 -0.3838  0.3623 -0.1119
 4183TIP3    H112513   7.240   4.146   2.625 -0.5661  3.1649  0.1909
 4183TIP3    H212514   7.132   4.079   2.707  1.0236 -2.0338 -1.5466
 4184TIP3   OH212515   4.147   0.272   4.126 -0.4922  0.2143 -0.2646
 4184TIP3    H112516   4.077   0.208   4.135  1.1620 -1.6073  0.3126
 4184TIP3    H212517   4.181   0.284   4.214  0.9870 -0.2310 -0.7444
 4185TIP3   OH212518   0.169   2.767   1.246  0.1164  0.0821 -0.7177
 4185TIP3    H112519   0.211   2.852   1.236 -1.2019  0.7520 -0.6577
 4185TIP3    H212520   0.111   2.759   1.171 -0.5484 -0.3087 -0.1752
 4186TIP3   OH212521   6.141   2.317   4.176  0.0505  0.0488 -0.0848
 4186TIP3    H112522   6.177   2.336   4.262  2.1211  0.2457 -0.9300
 4186TIP3    H212523   6.206   2.351   4.114 -0.9935 -0.7630 -1.7229
 4187TIP3   OH212524   1.166   3.716   0.610  0.0724  0.7296 -0.4125
 4187TIP3    H112525   1.129   3.800   0.636  1.6232  1.0030  1.1412
 4187TIP3    H212526   1.252   3.738   0.574 -0.4883 -0.0165 -2.2756
 4188TIP3   OH212527   1.146   2.301   5.622  0.1064 -0.1185 -0.0026
 4188TIP3    H112528   1.059   2.323   5.589  0.1967 -0.9512 -0.8483
 4188TIP3    H212529   1.145   2.206   5.631  0.5700 -0.0357  1.0527
 4189TIP3   OH212530   4.617   4.130   0.294  0.1871 -1.3389  0.7099
 4189TIP3    H112531   4.574   4.049   0.267 -1.6171 -0.6051  1.2527
 4189TIP3    H212532   4.681   4.102   0.360  0.5500 -2.4439 -0.0674
 4190TIP3   OH212533   1.889   4.657   0.476 -0.5899 -0.2730  0.2175
 4190TIP3    H112534   1.864   4.646   0.384  0.1636 -0.6167  0.0485
 4190TIP3    H212535   1.842   4.588   0.523 -2.6411  1.1718  0.4262
 4191TIP3   OH212536   2.379   5.105   2.302 -0.4945 -0.0398  0.2236
 4191TIP3    H112537   2.397   5.116   2.209 -0.7622 -4.5656 -0.6241
 4191TIP3    H212538   2.300   5.157   2.318 -1.9148 -1.0475 -2.7868
 4192TIP3   OH212539   4.993   3.174   0.712 -0.1455 -0.0680 -0.0891
 4192TIP3    H112540   4.938   3.191   0.636  0.1030  0.3326 -0.1808
 4192TIP3    H212541   4.967   3.240   0.777  0.2056  0.1063 -0.1239
 4193TIP3   OH212542   5.264   0.371   5.482 -0.2335 -0.8087 -0.3221
 4193TIP3    H112543   5.177   0.389   5.516 -0.7253 -0.6160 -1.6155
 4193TIP3    H212544   5.302   0.308   5.543 -1.6581 -1.6722 -0.2883
 4194TIP3   OH212545   3.250   3.133   4.638 -0.4443 -0.2624 -0.0628
 4194TIP3    H112546   3.274   3.053   4.684  1.5065  0.3056 -0.0194
 4194TIP3    H212547   3.237   3.198   4.707 -0.0488 -0.0546 -0.1784
 4195TIP3   OH212548   2.465   3.151   5.600 -0.0261  0.4774  0.3346
 4195TIP3    H112549   2.445   3.239   5.634 -1.4013  1.0224 -1.7109
 4195TIP3    H212550   2.380   3.112   5.581  0.5838 -1.1779  0.8344
 4196TIP3   OH212551   1.388   5.250   5.094 -0.1613 -0.2546 -0.6325
 4196TIP3    H112552   1.330   5.179   5.065 -1.1427  1.1945 -2.4162
 4196TIP3    H212553   1.330   5.325   5.105  1.1204  0.7467 -0.5599
 4197TIP3   OH212554   6.546   2.414   5.337 -0.4156 -0.0462  0.5442
 4197TIP3    H112555   6.590   2.342   5.291 -0.1973  0.0921  0.5387
 4197TIP3    H212556   6.526   2.478   5.268 -1.3251 -0.4489  0.4099
 4198TIP3   OH212557   5.025   5.457   2.522 -0.0518 -0.0407 -0.7956
 4198TIP3    H112558   5.052   5.522   2.587 -0.5414  1.4724 -2.0159
 4198TIP3    H212559   4.947   5.416   2.559 -0.4802  0.9916 -0.5276
 4199TIP3   OH212560   0.466   5.722   4.151 -0.1033 -0.1349  0.1022
 4199TIP3    H112561   0.468   5.771   4.068  0.6904 -1.9939 -1.0398
 4199TIP3    H212562   0.376   5.693   4.160 -0.0945 -0.3090 -0.3614
 4200TIP3   OH212563   5.692   4.836   0.440  0.1410  0.0558  0.1334
 4200TIP3    H112564   5.728   4.817   0.353  0.2798  1.0019 -0.0214
 4200TIP3    H212565   5.699   4.931   0.449  0.1758 -0.0387  1.2019
 4201TIP3   OH212566   0.580   3.449   3.564  0.1673  0.3356 -0.0716
 4201TIP3    H112567   0.495   3.436   3.522  0.8039 -0.9979 -1.0282
 4201TIP3    H212568   0.599   3.542   3.553 -0.4032  0.3160 -1.3520
 4202TIP3   OH212569   6.316   3.778   4.347 -0.0009  0.7639 -0.2487
 4202TIP3    H112570   6.304   3.763   4.253  0.2521  1.8869 -0.4747
 4202TIP3    H212571   6.411   3.790   4.357 -0.0894  1.2898  0.0360
 4203TIP3   OH212572   4.167   6.673   2.551  0.0265  0.8129 -0.1917
 4203TIP3    H112573   4.082   6.656   2.509  0.2963 -0.5556 -0.2149
 4203TIP3    H212574   4.159   6.762   2.585 -1.3929  0.7371 -0.2679
 4204TIP3   OH212575   6.580   5.435   4.340  0.7374 -0.1375 -0.1566
 4204TIP3    H112576   6.592   5.344   4.312  0.4876 -0.8546  1.8770
 4204TIP3    H212577   6.602   5.434   4.433 -0.8675  1.5322  0.2944
 4205TIP3   OH212578   1.400   0.869   3.456  0.3066 -0.7433  0.1210
 4205TIP3    H112579   1.434   0.956   3.439  1.7666 -1.3540 -0.1905
 4205TIP3    H212580   1.461   0.830   3.519 -0.0210 -1.7296 -0.1391
 4206TIP3   OH212581   1.846   5.100   0.564  0.7791 -0.2914  0.0017
 4206TIP3    H112582   1.908   5.155   0.515  0.4397 -0.0336 -0.1397
 4206TIP3    H212583   1.837   5.021   0.511 -0.4622  0.4577 -0.9440
 4207TIP3   OH212584   2.152   5.301   2.273 -0.0569 -0.2929 -0.2077
 4207TIP3    H112585   2.139   5.371   2.209  2.1469 -0.1844 -0.6060
 4207TIP3    H212586   2.153   5.346   2.357 -0.4683 -0.1060 -0.2976
 4208TIP3   OH212587   0.693   4.622   0.721 -0.2927  0.0088  0.2310
 4208TIP3    H112588   0.748   4.689   0.762 -1.8304  0.8379  1.0306
 4208TIP3    H212589   0.660   4.570   0.794 -0.8599 -0.2429 -0.2005
 4209TIP3   OH212590   6.703   4.893   3.251 -0.1169  0.0141 -0.3409
 4209TIP3    H112591   6.711   4.800   3.229 -0.3884  0.3707 -2.0109
 4209TIP3    H212592   6.617   4.900   3.294  0.8888 -0.8686  2.0387
 4210TIP3   OH212593   0.722   6.431   2.231 -0.2491  0.0843  0.5038
 4210TIP3    H112594   0.652   6.484   2.271  0.3412  1.0821  0.2646
 4210TIP3    H212595   0.791   6.429   2.298  0.2838  0.7999 -0.0103
 4211TIP3   OH212596   2.144   2.018   4.843 -0.1693 -0.0861 -0.5400
 4211TIP3    H112597   2.196   1.938   4.846  0.7637  0.4856 -0.9882
 4211TIP3    H212598   2.055   1.990   4.864  0.5545 -0.8744  1.7377
 4212TIP3   OH212599   4.042   4.982   0.655 -0.3541  0.5762 -0.5325
 4212TIP3    H112600   4.098   4.904   0.658  0.7913  1.3672 -0.4049
 4212TIP3    H212601   4.015   4.988   0.564 -0.8002 -0.2001 -0.4609
 4213TIP3   OH212602   5.156   2.882   5.150 -0.1528 -0.3394  0.1647
 4213TIP3    H112603   5.182   2.851   5.063 -1.5115  0.3365 -0.5245
 4213TIP3    H212604   5.158   2.978   5.142  0.0037 -0.2710  0.9831
 4214TIP3   OH212605   2.551   1.927   4.080 -0.2910  0.4712 -0.1371
 4214TIP3    H112606   2.577   2.014   4.108  0.8014 -0.4689  1.9801
 4214TIP3    H212607   2.576   1.869   4.152 -0.9672 -1.6118 -1.4605
 4215TIP3   OH212608   1.604   1.152   0.324 -0.4323 -0.1717 -0.0490
 4215TIP3    H112609   1.689   1.121   0.294 -0.3801 -1.0663  0.9706
 4215TIP3    H212610   1.555   1.073   0.344 -2.8007  0.0846 -3.8148
 4216TIP3   OH212611   0.751   5.465   0.855 -0.3132 -0.7090 -0.1620
 4216TIP3    H112612   0.826   5.408   0.841  0.2279  0.1119 -0.7229
 4216TIP3    H212613   0.743   5.470   0.951 -0.1349 -1.4069 -0.1064
 4217TIP3   OH212614   2.747   5.394   1.187 -0.0039 -1.0403  0.0608
 4217TIP3    H112615   2.793   5.340   1.124  1.2415  0.8835 -0.7617
 4217TIP3    H212616   2.727   5.475   1.140 -0.5495 -0.2108  1.6284
 4218TIP3   OH212617   2.598   4.154   2.339 -0.1193  0.5132  0.1347
 4218TIP3    H112618   2.532   4.161   2.408 -0.0093 -0.4614  0.3498
 4218TIP3    H212619   2.629   4.064   2.344  0.3093  0.5940 -0.8107
 4219TIP3   OH212620   6.224   0.967   4.107 -0.1835 -0.5518  0.6709
 4219TIP3    H112621   6.148   0.958   4.048  0.2056 -0.7864  0.1959
 4219TIP3    H212622   6.299   0.953   4.050  0.1967 -0.9034  1.2609
 4220TIP3   OH212623   6.905   4.034   1.830  0.5492 -0.1336  0.2265
 4220TIP3    H112624   6.878   3.952   1.790  0.9913  0.9081 -2.3849
 4220TIP3    H212625   6.825   4.086   1.838  0.7142  0.3823 -1.1951
 4221TIP3   OH212626   4.258   3.859   0.275 -0.3696  0.0436 -0.2889
 4221TIP3    H112627   4.282   3.769   0.251 -0.7036 -0.0712 -0.1908
 4221TIP3    H212628   4.229   3.898   0.193 -0.4406 -0.0080 -0.2887
 4222TIP3   OH212629   3.540   1.281   1.966  0.1239  0.1617  0.5017
 4222TIP3    H112630   3.581   1.213   1.913 -0.5414 -1.7990  2.3528
 4222TIP3    H212631   3.446   1.260   1.964 -0.2721  1.8345  0.0575
 4223TIP3   OH212632   5.845   5.593   0.922 -0.4346  0.1235 -0.0309
 4223TIP3    H112633   5.812   5.560   1.006  0.6249 -0.5163  0.1556
 4223TIP3    H212634   5.879   5.679   0.943 -1.6441  0.6565 -0.1595
 4224TIP3   OH212635   6.963   0.343   3.706  0.3871  0.5213  0.1826
 4224TIP3    H112636   7.051   0.307   3.696 -1.2877 -4.1675  0.1773
 4224TIP3    H212637   6.943   0.335   3.799  0.1789  2.4113  0.3502
 4225TIP3   OH212638   5.245   6.298   3.277 -0.2989  0.3876 -0.5500
 4225TIP3    H112639   5.311   6.292   3.346  0.1880 -0.8125 -1.0843
 4225TIP3    H212640   5.172   6.245   3.308 -1.8034  3.0589  0.8048
 4226TIP3   OH212641   2.512   0.401   0.699  0.7609  0.0330  0.1364
 4226TIP3    H112642   2.448   0.352   0.648  0.4769  1.7181 -1.1903
 4226TIP3    H212643   2.469   0.416   0.783  0.2359 -0.6136 -0.0101
 4227TIP3   OH212644   1.736   0.620   4.461  0.4648  0.3358  0.0927
 4227TIP3    H112645   1.644   0.612   4.436  0.0706  1.7841  0.9727
 4227TIP3    H212646   1.784   0.587   4.385 -0.7653 -1.5118  0.0487
 4228TIP3   OH212647   0.294   0.285   0.741 -0.5924  0.0039 -0.0944
 4228TIP3    H112648   0.315   0.289   0.834  0.1286 -0.3606 -0.2281
 4228TIP3    H212649   0.208   0.325   0.733 -1.3977 -1.4267  0.9626
 4229TIP3   OH212650   2.075   3.531   1.844  0.3239  0.2406 -0.2557
 4229TIP3    H112651   1.983   3.543   1.820  0.0070 -1.9123 -0.2903
 4229TIP3    H212652   2.083   3.438   1.864  2.8311  0.0479 -1.6712
 4230TIP3   OH212653   1.512   5.625   3.323 -0.2003  0.1389 -0.6789
 4230TIP3    H112654   1.479   5.556   3.381 -1.4048 -0.4609 -1.9926
 4230TIP3    H212655   1.605   5.632   3.343 -0.2405 -1.2666  0.0896
 4231TIP3   OH212656   0.491   4.112   3.939  0.3562  0.6558 -0.1221
 4231TIP3    H112657   0.474   4.182   4.002 -0.3679  1.5714 -1.2932
 4231TIP3    H212658   0.405   4.081   3.912  0.6686 -1.2457  0.9401
 4232TIP3   OH212659   2.929   2.345   3.734 -0.4677  0.3623 -0.9296
 4232TIP3    H112660   3.008   2.310   3.775 -2.3243 -0.2815  2.4506
 4232TIP3    H212661   2.885   2.269   3.696 -0.6094  0.3032 -0.6538
 4233TIP3   OH212662   1.925   6.162   4.128 -0.6146  0.2705 -0.0230
 4233TIP3    H112663   1.946   6.175   4.036 -0.0124  0.3483  0.1214
 4233TIP3    H212664   1.864   6.088   4.129  2.3042 -2.3316 -0.2145
 4234TIP3   OH212665   2.474   3.565   1.467 -0.1736  0.2580 -0.0035
 4234TIP3    H112666   2.396   3.544   1.518  0.2124 -0.3900  0.3404
 4234TIP3    H212667   2.457   3.528   1.380  1.0901 -3.0300  0.9705
 4235TIP3   OH212668   2.396   1.241   5.370  0.3897  0.4416 -0.2567
 4235TIP3    H112669   2.401   1.213   5.279  0.0300 -2.2647  0.4454
 4235TIP3    H212670   2.438   1.170   5.419 -2.0727  0.3115  1.8811
 4236TIP3   OH212671   2.634   5.498   2.212 -0.1251 -0.2164 -0.3744
 4236TIP3    H112672   2.628   5.583   2.168 -1.9357 -0.0680  0.0812
 4236TIP3    H212673   2.553   5.491   2.261 -0.1613 -2.3673 -0.6537
 4237TIP3   OH212674   4.851   4.122   5.171  0.3607  0.3752 -0.5479
 4237TIP3    H112675   4.919   4.172   5.125 -0.5544  1.1501 -1.0972
 4237TIP3    H212676   4.811   4.069   5.102  0.3189  0.0296 -0.2554
 4238TIP3   OH212677   6.749   5.839   0.145 -0.1866 -0.4718  0.2550
 4238TIP3    H112678   6.672   5.808   0.192  0.2329  0.5699  1.6895
 4238TIP3    H212679   6.764   5.927   0.180  0.2671  0.2742 -1.7057
 4239TIP3   OH212680   5.339   4.123   4.720 -0.0443 -0.2070  0.4768
 4239TIP3    H112681   5.398   4.184   4.675 -0.5519 -0.3533 -0.4223
 4239TIP3    H212682   5.274   4.179   4.762  0.4375 -0.0659  1.0367
 4240TIP3   OH212683   4.838   3.969   1.989 -0.1336 -0.1779  0.2012
 4240TIP3    H112684   4.884   3.890   2.019  1.3880  0.9135  0.8117
 4240TIP3    H212685   4.842   4.028   2.064 -2.8232 -0.1189  0.4018
 4241TIP3   OH212686   5.185   4.301   2.505  0.3698 -0.0474 -0.0611
 4241TIP3    H112687   5.140   4.264   2.580  1.4142  0.2716  0.7516
 4241TIP3    H212688   5.258   4.241   2.488  0.8936  0.5546  0.0031
 4242TIP3   OH212689   4.347   0.196   5.351  0.6868  0.2552  0.3846
 4242TIP3    H112690   4.258   0.160   5.359  0.3174  1.2719  1.0777
 4242TIP3    H212691   4.404   0.128   5.387  0.0485  0.1730  1.2774
 4243TIP3   OH212692   2.936   5.854   5.091  0.1879 -0.1654 -0.8641
 4243TIP3    H112693   2.916   5.931   5.039  0.0619  0.7576  0.5071
 4243TIP3    H212694   2.944   5.783   5.026 -3.4734  0.1462 -1.9042
 4244TIP3   OH212695   4.252   2.388   3.107 -0.3721  0.3839  0.7041
 4244TIP3    H112696   4.214   2.444   3.040 -0.2503 -0.9046 -0.4682
 4244TIP3    H212697   4.201   2.408   3.186 -1.1152  1.2553  0.0304
 4245TIP3   OH212698   6.589   1.371   5.183  0.5490  0.4985  0.0354
 4245TIP3    H112699   6.600   1.276   5.179 -0.0489  0.4453 -0.5769
 4245TIP3    H212700   6.537   1.386   5.263 -0.4780  0.1843 -0.5550
 4246TIP3   OH212701   2.716   4.571   3.842  0.8966 -0.1097  0.1407
 4246TIP3    H112702   2.767   4.653   3.844  0.1766  0.3455  0.1246
 4246TIP3    H212703   2.667   4.575   3.760 -0.1464  0.0702  0.7593
 4247TIP3   OH212704   2.866   3.079   5.847  0.5301 -0.5176  0.2299
 4247TIP3    H112705   2.805   3.017   5.808 -2.4725  1.2175  1.8446
 4247TIP3    H212706   2.857   3.159   5.794  1.3459 -0.1841  0.5657
 4248TIP3   OH212707   0.233   5.473   0.582 -0.0337  0.0469 -0.0946
 4248TIP3    H112708   0.279   5.427   0.652 -0.2565  1.2276  0.8686
 4248TIP3    H212709   0.275   5.443   0.501  0.2650 -1.3021  0.5363
 4249TIP3   OH212710   6.496   4.951   5.668  0.2345 -0.0282  0.1140
 4249TIP3    H112711   6.402   4.957   5.649  0.3277 -0.0607 -0.3626
 4249TIP3    H212712   6.535   5.023   5.619  0.3628  0.5251  0.9992
 4250TIP3   OH212713   3.487   5.273   4.473  0.0821 -0.1890 -0.1230
 4250TIP3    H112714   3.446   5.312   4.396 -0.8245 -2.5526 -0.9356
 4250TIP3    H212715   3.471   5.335   4.543 -0.0728  1.5034 -1.5903
 4251TIP3   OH212716   5.617   3.301   1.002  0.7794 -0.0228 -0.0479
 4251TIP3    H112717   5.683   3.341   1.058  3.0126 -1.2156 -1.6615
 4251TIP3    H212718   5.661   3.289   0.918 -2.6337  2.5329 -2.4900
 4252TIP3   OH212719   5.271   1.096   4.408 -0.1081  0.1658  0.5465
 4252TIP3    H112720   5.361   1.069   4.423 -0.7401 -2.3189  0.2464
 4252TIP3    H212721   5.278   1.171   4.348  1.7407  0.1941  0.7456
 4253TIP3   OH212722   6.440   5.587   2.949  0.6249  0.7741  0.5298
 4253TIP3    H112723   6.391   5.505   2.945  2.1330 -0.2566  1.9745
 4253TIP3    H212724   6.435   5.622   2.860  1.4149 -1.8107 -0.6385
 4254TIP3   OH212725   4.120   4.802   1.477  0.0591  0.4175 -0.1350
 4254TIP3    H112726   4.070   4.843   1.407 -0.6062  0.6166  0.4379
 4254TIP3    H212727   4.061   4.737   1.515  0.5686 -0.0041 -0.0481
 4255TIP3   OH212728   4.189   4.771   0.592 -0.5098  0.3517 -0.6859
 4255TIP3    H112729   4.241   4.742   0.666  0.1623  0.0294 -1.2714
 4255TIP3    H212730   4.236   4.738   0.515 -1.0854  0.8448 -1.2614
 4256TIP3   OH212731   3.962   0.780   3.557 -0.1037 -0.3242 -0.8147
 4256TIP3    H112732   4.011   0.711   3.512  0.8721  0.9157 -1.7378
 4256TIP3    H212733   3.893   0.804   3.495  0.3640  0.4081 -1.0624
 4257TIP3   OH212734   6.809   3.262   3.239 -0.2772  0.2420 -0.1041
 4257TIP3    H112735   6.765   3.345   3.256  1.9381  1.6386 -0.9048
 4257TIP3    H212736   6.815   3.256   3.144  2.4132  0.8065 -0.0465
 4258TIP3   OH212737   6.230   0.535   3.082 -0.7082 -0.1919 -0.0250
 4258TIP3    H112738   6.248   0.564   2.993 -1.5336 -1.2287 -0.5589
 4258TIP3    H212739   6.135   0.544   3.091 -0.3629  2.8722  1.8770
 4259TIP3   OH212740   3.018   3.841   2.379  0.3175  0.1489  0.3905
 4259TIP3    H112741   2.957   3.788   2.431 -0.1459 -0.3527 -0.6140
 4259TIP3    H212742   3.084   3.779   2.350 -0.0228  0.1780 -0.4888
 4260TIP3   OH212743   4.938   1.007   4.662  0.0201  0.0797 -0.1922
 4260TIP3    H112744   4.862   0.995   4.719 -0.4721 -0.0266 -0.8573
 4260TIP3    H212745   5.014   0.992   4.719 -0.4316  0.9014  0.6463
 4261TIP3   OH212746   5.382   1.999   3.430  0.4483  0.2657  0.3116
 4261TIP3    H112747   5.338   2.001   3.515 -1.7316 -0.2583 -0.7211
 4261TIP3    H212748   5.384   2.091   3.402  0.5278  0.3585  0.6217
 4262TIP3   OH212749   3.895   2.799   2.404 -0.0714  0.0668  0.2715
 4262TIP3    H112750   3.991   2.790   2.403  0.1211  1.8220 -0.3017
 4262TIP3    H212751   3.871   2.782   2.495  0.9474  0.8613  0.7174
 4263TIP3   OH212752   4.437   6.556   4.126  0.0552  0.6302  0.5092
 4263TIP3    H112753   4.479   6.525   4.045  0.9067  0.2778  1.0742
 4263TIP3    H212754   4.509   6.584   4.182 -0.6101  2.3223  0.5864
 4264TIP3   OH212755   6.287   5.228   0.575 -0.4288 -0.0399 -0.1485
 4264TIP3    H112756   6.215   5.252   0.633 -1.3146 -0.5506 -1.0115
 4264TIP3    H212757   6.261   5.261   0.489 -0.2757 -1.4296 -0.7538
 4265TIP3   OH212758   3.739   3.465   0.505  0.4362 -0.0179  0.5309
 4265TIP3    H112759   3.822   3.501   0.476  1.4481 -1.1175  1.9646
 4265TIP3    H212760   3.682   3.541   0.516  1.7597  0.9079  1.1655
 4266TIP3   OH212761   0.366   4.339   3.203  0.3163 -0.0209 -0.3750
 4266TIP3    H112762   0.391   4.281   3.275  0.5017  0.4087 -0.0848
 4266TIP3    H212763   0.403   4.424   3.227  0.4345  0.1123 -1.0125
 4267TIP3   OH212764   6.258   2.283   4.423 -0.2397 -0.3716  0.7197
 4267TIP3    H112765   6.261   2.331   4.506 -1.7725  0.2334  0.4625
 4267TIP3    H212766   6.228   2.196   4.447 -0.9188 -0.1248  0.7831
 4268TIP3   OH212767   6.231   5.405   5.436  0.0259 -0.8618 -0.2537
 4268TIP3    H112768   6.197   5.494   5.431  0.9147 -0.4513  0.6601
 4268TIP3    H212769   6.306   5.405   5.377  0.6426 -0.7005  0.5178
 4269TIP3   OH212770   3.759   0.307   2.087  0.4699 -0.1236  0.2896
 4269TIP3    H112771   3.727   0.363   2.016 -0.9719 -0.4784  0.6287
 4269TIP3    H212772   3.760   0.219   2.049 -0.3391 -0.3206  0.6950
 4270TIP3   OH212773   2.559   2.001   5.054 -0.2022 -0.2233  0.9196
 4270TIP3    H112774   2.518   1.949   4.986  0.7031 -0.8765  0.8674
 4270TIP3    H212775   2.486   2.044   5.099 -0.8136  0.1213 -0.3646
 4271TIP3   OH212776   0.848   5.477   3.840  0.1162 -0.5685 -0.3217
 4271TIP3    H112777   0.897   5.490   3.758 -1.2026 -0.6780 -1.1524
 4271TIP3    H212778   0.848   5.382   3.852  0.8506 -0.5167  0.1642
 4272TIP3   OH212779   5.662   0.264   1.888 -0.1600 -0.7016  0.5405
 4272TIP3    H112780   5.741   0.280   1.940  0.0849  1.0181 -0.3086
 4272TIP3    H212781   5.649   0.169   1.895  1.6087 -0.9488  1.2138
 4273TIP3   OH212782   1.765   0.554   1.982 -0.2998 -0.7192  0.2737
 4273TIP3    H112783   1.849   0.597   1.995  0.3662 -1.6441 -0.8160
 4273TIP3    H212784   1.700   0.622   2.002  0.7023  0.6753 -0.9968
 4274TIP3   OH212785   5.134   6.600   1.040 -0.4568 -0.2242  0.6079
 4274TIP3    H112786   5.191   6.677   1.037  0.1900 -0.6837  0.8707
 4274TIP3    H212787   5.194   6.526   1.036 -1.0604 -0.7159  0.5879
 4275TIP3   OH212788   0.566   6.114   0.433  0.1482  0.2451 -0.5572
 4275TIP3    H112789   0.655   6.079   0.434  0.1993  0.3590 -0.9926
 4275TIP3    H212790   0.577   6.208   0.422 -0.0027  0.3621  0.2363
 4276TIP3   OH212791   4.374   2.107   4.020  0.2912  0.1910  0.6881
 4276TIP3    H112792   4.406   2.024   3.983  0.4852 -0.4539  2.2349
 4276TIP3    H212793   4.372   2.092   4.114 -0.1759  1.7902  0.9597
 4277TIP3   OH212794   4.780   0.783   3.319  0.6637 -0.1199 -0.2048
 4277TIP3    H112795   4.856   0.830   3.353  0.0940  1.4189 -0.9620
 4277TIP3    H212796   4.774   0.809   3.227 -0.5712 -0.4708 -0.2535
 4278TIP3   OH212797   2.228   1.721   3.484  0.5380  0.3386 -0.5663
 4278TIP3    H112798   2.175   1.782   3.432  0.0258  0.0666 -0.3672
 4278TIP3    H212799   2.310   1.714   3.436 -0.1549 -0.3946 -1.6924
 4279TIP3   OH212800   4.539   6.364   3.905  0.1143  0.2778 -0.0429
 4279TIP3    H112801   4.502   6.290   3.856  0.6896  0.2670 -0.4742
 4279TIP3    H212802   4.612   6.326   3.954  0.4102  0.5518 -0.2637
 4280TIP3   OH212803   4.054   5.652   5.232  0.4313 -0.1409  0.1572
 4280TIP3    H112804   3.969   5.615   5.209 -0.8520  2.1902  0.8529
 4280TIP3    H212805   4.038   5.746   5.238  2.3565  0.1087  3.2763
 4281TIP3   OH212806   1.352   3.268   2.568 -0.4035  0.3678 -0.6812
 4281TIP3    H112807   1.428   3.322   2.589 -1.2809  1.4200 -0.1507
 4281TIP3    H212808   1.338   3.281   2.475 -1.2310  1.9225 -0.3760
 4282TIP3   OH212809   0.844   6.398   4.182  0.6341 -0.2158 -1.3070
 4282TIP3    H112810   0.879   6.482   4.212 -0.4918  0.0776 -0.7581
 4282TIP3    H212811   0.908   6.367   4.118  2.4296 -0.2028  0.3575
 4283TIP3   OH212812   1.527   0.492   3.577  0.2353 -0.1055 -0.0726
 4283TIP3    H112813   1.455   0.493   3.514  0.3524  2.7105 -0.3111
 4283TIP3    H212814   1.595   0.546   3.536  2.1146 -1.8646  0.5883
 4284TIP3   OH212815   6.543   0.176   3.724  0.9025 -0.3184  0.2591
 4284TIP3    H112816   6.607   0.229   3.676 -0.4070 -0.2660 -1.5080
 4284TIP3    H212817   6.496   0.239   3.779 -0.8075  0.5258 -2.0004
 4285TIP3   OH212818   1.390   0.760   0.786  0.2672 -0.7073 -0.0353
 4285TIP3    H112819   1.323   0.715   0.838 -0.3633 -2.4380 -2.1984
 4285TIP3    H212820   1.345   0.835   0.748  0.0603 -0.8397 -0.0493
 4286TIP3   OH212821   2.200   5.029   5.851  0.0108 -0.2686  0.0485
 4286TIP3    H112822   2.176   5.051   5.761  1.2687 -1.0238 -0.5052
 4286TIP3    H212823   2.138   5.077   5.905 -1.1544 -0.2689 -1.2331
 4287TIP3   OH212824   6.906   4.696   4.606 -0.4769  0.4126  0.1405
 4287TIP3    H112825   6.983   4.751   4.621  0.0242 -0.1886 -0.1515
 4287TIP3    H212826   6.832   4.757   4.604  0.0379  1.0424  0.0401
 4288TIP3   OH212827   0.261   3.368   1.941 -0.6337 -0.3746 -0.0637
 4288TIP3    H112828   0.328   3.300   1.953 -0.8449 -0.6971 -0.6762
 4288TIP3    H212829   0.207   3.336   1.869  1.1981  1.9246 -2.6657
 4289TIP3   OH212830   0.980   1.013   1.062 -0.6628 -0.1000 -0.2748
 4289TIP3    H112831   0.914   0.958   1.021  0.4522 -1.4486 -0.3155
 4289TIP3    H212832   0.933   1.094   1.084 -1.6254  0.2111 -3.0096
 4290TIP3   OH212833   6.457   6.538   4.204  0.2110 -0.4990  0.3734
 4290TIP3    H112834   6.536   6.581   4.172  0.9975 -1.4581  0.9709
 4290TIP3    H212835   6.385   6.580   4.155  1.1016  0.1641 -0.4017
 4291TIP3   OH212836   7.004   0.975   3.324 -0.2377  0.1475 -0.1900
 4291TIP3    H112837   6.998   0.894   3.274  0.9859 -0.0974  0.0277
 4291TIP3    H212838   7.098   0.992   3.330 -0.4109  0.7507  1.1027
 4292TIP3   OH212839   4.401   1.205   5.502 -0.8223  0.3903 -0.1664
 4292TIP3    H112840   4.336   1.237   5.563 -1.1024 -0.4629  0.0007
 4292TIP3    H212841   4.352   1.151   5.440 -0.2254 -0.6764  0.2626
 4293TIP3   OH212842   1.172   2.147   3.782 -0.1068 -0.0282  0.2519
 4293TIP3    H112843   1.094   2.165   3.731  0.6544  0.1814 -0.8688
 4293TIP3    H212844   1.139   2.126   3.870 -1.3597  0.7789 -0.0050
 4294TIP3   OH212845   5.109   5.454   3.205 -0.1114  0.2377 -0.1084
 4294TIP3    H112846   5.099   5.540   3.246 -0.9027  0.3233 -0.4660
 4294TIP3    H212847   5.057   5.395   3.259 -0.4350  0.1865 -0.4681
 4295TIP3   OH212848   3.801   5.799   2.304  0.2394  0.7262 -0.7904
 4295TIP3    H112849   3.726   5.813   2.247  0.3344 -1.2013 -1.4431
 4295TIP3    H212850   3.783   5.853   2.381 -0.6587  2.1213 -1.9298
 4296TIP3   OH212851   5.572   4.951   3.243  0.7741  0.1315  0.3315
 4296TIP3    H112852   5.638   5.013   3.212 -1.2685  1.3494 -1.8395
 4296TIP3    H212853   5.571   4.882   3.178 -0.2313  0.2350  0.2275
 4297TIP3   OH212854   7.070   1.554   4.942 -0.2948  0.2954  0.0493
 4297TIP3    H112855   6.978   1.539   4.922 -0.6212  0.7881  1.1061
 4297TIP3    H212856   7.072   1.572   5.036  0.9426 -0.1876  0.1358
 4298TIP3   OH212857   3.605   2.732   3.296  0.1844  0.0363  0.1031
 4298TIP3    H112858   3.649   2.686   3.224 -0.8001  1.4857 -1.5096
 4298TIP3    H212859   3.670   2.794   3.329 -0.9263  3.6763 -3.6388
 4299TIP3   OH212860   5.168   4.752   5.504  0.1202 -0.6976 -0.1227
 4299TIP3    H112861   5.214   4.802   5.572  0.4445 -1.7267  0.4346
 4299TIP3    H212862   5.215   4.668   5.500 -0.1188 -0.7853 -1.3733
 4300TIP3   OH212863   4.529   6.579   4.751  0.2891  0.0564  0.2487
 4300TIP3    H112864   4.437   6.556   4.737  0.3200  0.2998 -0.3473
 4300TIP3    H212865   4.556   6.523   4.824 -0.2983 -0.1014  0.3513
 4301TIP3   OH212866   4.531   4.412   0.570 -0.0498 -0.3994 -0.7841
 4301TIP3    H112867   4.558   4.324   0.599  0.7640  0.2792  0.6301
 4301TIP3    H212868   4.603   4.469   0.598 -1.6096  1.0562  0.4167
 4302TIP3   OH212869   1.981   5.264   2.703 -1.2074  0.2276 -0.1601
 4302TIP3    H112870   1.992   5.269   2.797 -0.4569 -0.9823 -0.1614
 4302TIP3    H212871   1.914   5.329   2.683 -0.0600  1.8132  0.9541
 4303TIP3   OH212872   7.149   4.542   4.682  0.4324 -0.0158 -0.2325
 4303TIP3    H112873   7.064   4.581   4.702  0.0611 -0.1813 -1.4317
 4303TIP3    H212874   7.201   4.614   4.647  0.5583 -0.0760 -0.1732
 4304TIP3   OH212875   6.164   4.946   0.897  0.8262  0.1198  0.2777
 4304TIP3    H112876   6.226   4.920   0.965  0.2354 -0.3590  0.6379
 4304TIP3    H212877   6.107   4.871   0.886  1.0946  0.0691 -0.9707
 4305TIP3   OH212878   4.868   0.950   5.415  0.0054  0.1680 -0.2524
 4305TIP3    H112879   4.900   0.883   5.475 -3.5417 -0.5585  1.0680
 4305TIP3    H212880   4.813   0.903   5.352  2.4098  1.1143 -3.3358
 4306TIP3   OH212881   5.181   4.372   0.671  0.4070 -0.2189 -0.6302
 4306TIP3    H112882   5.236   4.338   0.741  0.0504  0.8763  0.2087
 4306TIP3    H212883   5.100   4.321   0.677  0.0392  0.4660  0.3347
 4307TIP3   OH212884   0.571   2.451   5.167 -0.2111 -0.2577  0.7622
 4307TIP3    H112885   0.583   2.386   5.236  0.1936  1.1034  2.0215
 4307TIP3    H212886   0.647   2.439   5.109  0.2989 -0.3514  1.4421
 4308TIP3   OH212887   1.858   5.474   0.370  0.0899 -0.3042 -0.4025
 4308TIP3    H112888   1.866   5.521   0.287  1.2340  0.4789  0.1271
 4308TIP3    H212889   1.917   5.520   0.430 -0.7084 -0.8622  0.8530
 4309TIP3   OH212890   4.288   5.943   2.241  0.8424 -0.1829 -0.3016
 4309TIP3    H112891   4.224   5.876   2.217  1.9538 -1.0289 -1.0101
 4309TIP3    H212892   4.249   5.988   2.315  0.0663 -1.6409  0.2172
 4310TIP3   OH212893   7.122   1.262   4.366  0.5470 -0.1180  0.4403
 4310TIP3    H112894   7.176   1.298   4.296  0.1415  1.5373  0.9537
 4310TIP3    H212895   7.184   1.233   4.432  0.8571  0.5370  0.4427
 4311TIP3   OH212896   4.848   3.465   2.775  0.1125  0.1470  0.1994
 4311TIP3    H112897   4.878   3.418   2.854 -1.0758  0.5159  0.8916
 4311TIP3    H212898   4.928   3.505   2.740  0.7840 -0.6194  0.8011
 4312TIP3   OH212899   6.328   3.040   1.173  1.2490 -0.6677  0.0281
 4312TIP3    H112900   6.301   2.963   1.122  1.4906 -0.5707 -0.2506
 4312TIP3    H212901   6.395   3.007   1.232  3.3195 -0.1797 -1.9221
 4313TIP3   OH212902   6.627   3.032   0.715 -1.2360  0.2712 -0.2417
 4313TIP3    H112903   6.676   2.974   0.657 -0.7921  0.7023 -0.3017
 4313TIP3    H212904   6.653   3.120   0.688 -2.6390  0.5435 -0.8026
 4314TIP3   OH212905   4.619   0.312   4.813  0.2778 -0.3133  0.1628
 4314TIP3    H112906   4.598   0.237   4.756  0.1509  0.1111 -0.3510
 4314TIP3    H212907   4.534   0.344   4.842  0.3350 -2.3140  3.0003
 4315TIP3   OH212908   5.803   2.324   3.531 -0.0220 -0.1338 -0.2661
 4315TIP3    H112909   5.871   2.357   3.474  0.6386  1.0853  1.1646
 4315TIP3    H212910   5.795   2.231   3.508  3.0424 -0.6488  0.4140
 4316TIP3   OH212911   1.992   4.698   1.417 -0.1784 -0.0431 -0.2325
 4316TIP3    H112912   1.901   4.729   1.416  0.1365  1.0285  1.2934
 4316TIP3    H212913   1.997   4.641   1.494  0.2204 -0.9177 -0.8792
 4317TIP3   OH212914   5.033   2.860   4.404 -0.4003  0.0378  0.4124
 4317TIP3    H112915   5.042   2.938   4.349  1.8191 -0.2234  0.3176
 4317TIP3    H212916   5.051   2.786   4.345  0.1890 -0.3511  1.0502
 4318TIP3   OH212917   3.176   0.923   3.452  0.2829  0.3043 -0.3659
 4318TIP3    H112918   3.123   0.999   3.474 -0.3831  0.0924 -1.1869
 4318TIP3    H212919   3.247   0.959   3.398  0.4966  0.4662  0.0177
 4319TIP3   OH212920   4.527   4.555   5.253 -0.7410 -0.7876  0.3225
 4319TIP3    H112921   4.525   4.473   5.302 -0.2050 -0.9270  0.1152
 4319TIP3    H212922   4.546   4.529   5.163 -0.4975 -0.4293  0.2689
 4320TIP3   OH212923   6.408   4.499   2.601 -0.2885 -0.3104  0.0381
 4320TIP3    H112924   6.337   4.501   2.537 -0.6815 -0.7383  0.4539
 4320TIP3    H212925   6.429   4.591   2.617 -1.3184 -0.1441  0.5330
 4321TIP3   OH212926   1.222   1.083   0.015 -0.2044  0.1178  0.4916
 4321TIP3    H112927   1.154   1.138   0.052 -1.8618 -0.9004 -0.8998
 4321TIP3    H212928   1.291   1.144  -0.012 -1.5921  1.4376 -0.2124
 4322TIP3   OH212929   5.757   1.689   2.669  0.1639 -0.2933 -0.1552
 4322TIP3    H112930   5.787   1.732   2.589 -1.1619 -0.5755 -0.8398
 4322TIP3    H212931   5.789   1.599   2.661  1.3819  0.0817  0.4020
 4323TIP3   OH212932   2.717   0.790   2.798 -0.0682  0.1839  0.2030
 4323TIP3    H112933   2.707   0.874   2.841  1.3073  1.1389 -1.2286
 4323TIP3    H212934   2.764   0.810   2.717 -1.9688 -1.5954 -1.4606
 4324TIP3   OH212935   2.581   0.817   5.517 -0.4323 -0.0645  0.5540
 4324TIP3    H112936   2.563   0.825   5.423  1.7119  2.2943  0.2319
 4324TIP3    H212937   2.522   0.880   5.558  1.2168  1.7840  0.2892
 4325TIP3   OH212938   4.041   1.361   3.036  0.5776 -0.0513 -0.0519
 4325TIP3    H112939   4.092   1.281   3.026 -0.0539 -0.7701  1.9454
 4325TIP3    H212940   3.985   1.344   3.112 -2.4141  0.8354 -1.9039
 4326TIP3   OH212941   2.683   3.588   1.632  0.4144  0.0906 -0.7395
 4326TIP3    H112942   2.611   3.611   1.573  1.0519  1.5033 -1.0229
 4326TIP3    H212943   2.755   3.645   1.605  1.1643 -0.2138  0.5209
 4327TIP3   OH212944   1.635   0.456   0.571  0.3549  0.7490 -0.2028
 4327TIP3    H112945   1.548   0.417   0.562  0.9661 -1.4693  2.3213
 4327TIP3    H212946   1.619   0.540   0.614 -0.5411  0.3676  0.2364
 4328TIP3   OH212947   6.471   2.310   3.846  0.1257 -0.4575  0.1862
 4328TIP3    H112948   6.442   2.232   3.893  0.0264 -0.7924 -0.4124
 4328TIP3    H212949   6.566   2.313   3.860  0.3447 -1.4542 -0.8686
 4329TIP3   OH212950   2.376   0.248   4.833 -0.3185 -0.0005 -0.2147
 4329TIP3    H112951   2.445   0.309   4.807  0.6542 -0.9616  0.0309
 4329TIP3    H212952   2.297   0.283   4.793  0.1754  1.5011  0.0564
 4330TIP3   OH212953   1.304   5.577   4.303 -0.4004 -0.5293  0.3047
 4330TIP3    H112954   1.223   5.533   4.276  0.4229 -1.5061 -0.6716
 4330TIP3    H212955   1.329   5.533   4.384 -1.2450  0.3181  1.0516
 4331TIP3   OH212956   5.800   3.637   4.691  0.3231  0.2732 -0.1488
 4331TIP3    H112957   5.714   3.627   4.732 -0.3598 -0.9636 -1.7705
 4331TIP3    H212958   5.798   3.724   4.652 -0.1665  0.2698 -0.1324
 4332TIP3   OH212959   6.323   6.175   0.585  0.1432  0.1739  0.1686
 4332TIP3    H112960   6.396   6.144   0.639  1.0261 -1.1707 -1.6742
 4332TIP3    H212961   6.258   6.104   0.590 -0.9551  1.2312  1.5598
 4333TIP3   OH212962   6.211   3.313   1.106  0.1108 -0.9908  0.0718
 4333TIP3    H112963   6.254   3.398   1.122 -2.1429  0.1683  0.3796
 4333TIP3    H212964   6.274   3.248   1.138  1.3502  0.6270  1.0969
 4334TIP3   OH212965   3.531   6.081   2.572  0.0273 -0.9330  0.3179
 4334TIP3    H112966   3.587   6.009   2.541 -0.5113 -0.7178 -1.2388
 4334TIP3    H212967   3.560   6.096   2.662  2.1692 -1.1474 -0.2684
 4335TIP3   OH212968   6.979   5.612   3.477 -0.0269 -0.0384 -0.6385
 4335TIP3    H112969   7.014   5.614   3.388  0.0605  0.1873 -0.5985
 4335TIP3    H212970   7.038   5.667   3.528  0.1621 -0.4942 -0.3528
 4336TIP3   OH212971   5.550   5.949   3.698  0.2418  0.5472  0.2615
 4336TIP3    H112972   5.576   5.862   3.666 -2.9918 -0.5222  0.1558
 4336TIP3    H212973   5.522   5.996   3.620  0.7628  1.2571  0.4886
 4337TIP3   OH212974   2.070   3.237   1.913  0.4410 -0.1474 -0.1914
 4337TIP3    H112975   2.098   3.215   2.002 -1.0860 -2.7295 -0.2362
 4337TIP3    H212976   1.979   3.206   1.909  0.1074  0.9503 -2.3257
 4338TIP3   OH212977   1.313   6.004   3.753 -0.0708  0.3230  0.2174
 4338TIP3    H112978   1.389   6.040   3.799  0.6263 -0.4739 -0.2716
 4338TIP3    H212979   1.274   5.944   3.817  0.4579 -0.2147  0.0502
 4339TIP3   OH212980   3.728   1.286   2.195 -0.1131 -0.0310 -0.4723
 4339TIP3    H112981   3.677   1.297   2.115  1.6270  0.2481 -1.5884
 4339TIP3    H212982   3.673   1.323   2.264 -0.6950  1.9239 -1.8950
 4340TIP3   OH212983   1.349   5.998   2.969 -0.3040  0.1229 -0.3663
 4340TIP3    H112984   1.374   6.067   3.030 -0.4782  1.1388 -1.3876
 4340TIP3    H212985   1.430   5.950   2.952 -0.1770  0.0783  0.3449
 4341TIP3   OH212986   5.027   4.534   1.839  0.1333  0.4902  0.2796
 4341TIP3    H112987   4.964   4.604   1.819 -0.4970 -0.2473 -0.3880
 4341TIP3    H212988   5.085   4.532   1.763 -0.4197 -0.3246 -0.1275
 4342TIP3   OH212989   2.415   0.718   3.923 -0.1481 -0.0379  0.3901
 4342TIP3    H112990   2.498   0.742   3.964 -0.7875  1.5575  0.8546
 4342TIP3    H212991   2.372   0.659   3.985  0.2144 -0.0710  0.6076
 4343TIP3   OH212992   3.690   4.660   4.908  0.1271  0.3774 -0.3159
 4343TIP3    H112993   3.617   4.656   4.970  0.2939  0.4208 -0.1178
 4343TIP3    H212994   3.767   4.633   4.959  0.1194 -0.4327 -0.7267
 4344TIP3   OH212995   3.750   5.180   4.522  0.2305 -0.5197  0.4831
 4344TIP3    H112996   3.667   5.218   4.494  0.1222 -1.0185  0.1100
 4344TIP3    H212997   3.746   5.180   4.617  0.2925  0.5218  0.4961
 4345TIP3   OH212998   6.936   1.198   2.332  0.0802 -0.4196 -0.0875
 4345TIP3    H112999   6.912   1.126   2.390  0.4972  1.0924  2.0854
 4345TIP3    H213000   6.892   1.274   2.368  3.4169  1.3524  0.7008
 4346TIP3   OH213001   2.887   0.143   0.589 -0.1729  0.0221 -0.1705
 4346TIP3    H113002   2.935   0.078   0.538  0.1201 -0.6207  0.8692
 4346TIP3    H213003   2.905   0.227   0.546 -0.5463 -0.5769 -1.5244
 4347TIP3   OH213004   4.590   0.082   4.663 -0.5072 -0.1246  0.2798
 4347TIP3    H113005   4.511   0.029   4.676 -1.9760  1.0802 -2.7636
 4347TIP3    H213006   4.645   0.030   4.606 -0.8210  0.5369 -0.6507
 4348TIP3   OH213007   4.522   1.713   1.238 -0.7824  0.3739 -0.7502
 4348TIP3    H113008   4.576   1.638   1.213 -0.8652 -1.3139  3.2913
 4348TIP3    H213009   4.576   1.790   1.219  1.1673 -0.9862 -1.0096
 4349TIP3   OH213010   6.322   5.494   5.038 -0.3329 -0.6836  0.3608
 4349TIP3    H113011   6.411   5.510   5.004  0.3868 -2.4152  1.3207
 4349TIP3    H213012   6.303   5.571   5.092  0.2993  0.0246 -0.4053
 4350TIP3   OH213013   5.591   5.305   1.082  0.1450 -0.1119 -0.2724
 4350TIP3    H113014   5.513   5.255   1.106  1.4535 -2.2265 -0.1614
 4350TIP3    H213015   5.570   5.342   0.996 -1.1694 -0.1437  0.0055
 4351TIP3   OH213016   0.839   5.395   1.863 -0.1088 -0.9310 -0.1883
 4351TIP3    H113017   0.776   5.352   1.920 -1.6642  1.1301 -0.2270
 4351TIP3    H213018   0.796   5.476   1.836  2.6159  0.6859 -0.0899
 4352TIP3   OH213019   5.864   6.064   4.273 -0.1305 -0.1477  0.4726
 4352TIP3    H113020   5.916   6.095   4.200  0.0970  1.7253  1.3662
 4352TIP3    H213021   5.926   6.018   4.330  0.2666  0.7886  0.8108
 4353TIP3   OH213022   0.115   4.753   0.515  0.0632  0.4097  0.3740
 4353TIP3    H113023   0.092   4.660   0.520 -0.6714  0.5814  0.2496
 4353TIP3    H213024   0.047   4.797   0.565 -1.2031  1.1409 -1.8501
 4354TIP3   OH213025   2.238   5.766  -0.016  0.4590  0.0190 -0.5734
 4354TIP3    H113026   2.325   5.737   0.011  0.2967  1.0905  1.2777
 4354TIP3    H213027   2.235   5.858   0.009 -0.6204  0.4543 -2.1807
 4355TIP3   OH213028   1.825   5.032   1.388  0.7073 -0.1348 -0.2828
 4355TIP3    H113029   1.761   4.985   1.439 -0.1544 -0.8093 -1.9085
 4355TIP3    H213030   1.841   4.976   1.312  1.5398  1.0468 -1.0135
 4356TIP3   OH213031   2.695   1.173   4.043  0.3919  0.4789 -0.1666
 4356TIP3    H113032   2.715   1.261   4.072 -0.5353  0.6091  0.1310
 4356TIP3    H213033   2.721   1.117   4.116  1.7449  0.4052 -0.6743
 4357TIP3   OH213034   3.763   3.823   4.679  0.4639 -0.1037  0.5600
 4357TIP3    H113035   3.740   3.797   4.768 -1.7040 -0.3063  0.0015
 4357TIP3    H213036   3.689   3.877   4.651  1.5523  0.7411 -0.8068
 4358TIP3   OH213037   2.798   3.821   1.450  0.6183  0.2936  0.6182
 4358TIP3    H113038   2.869   3.859   1.399  0.8224 -0.2871  0.4682
 4358TIP3    H213039   2.750   3.766   1.388  0.9020 -0.4584  1.0549
 4359TIP3   OH213040   7.060   5.040   1.255  0.3875  0.1417 -0.3173
 4359TIP3    H113041   7.070   5.074   1.166 -0.6875 -0.5166 -0.7073
 4359TIP3    H213042   7.049   4.945   1.244 -0.2646  0.1129  0.4718
 4360TIP3   OH213043   6.201   6.590   2.550  0.6562  0.8369  0.3786
 4360TIP3    H113044   6.191   6.582   2.645 -1.6302 -0.3943  0.1143
 4360TIP3    H213045   6.126   6.642   2.522 -0.0234 -0.7565 -0.9580
 4361TIP3   OH213046   1.280   5.505   1.346  0.3280 -0.1130  0.3330
 4361TIP3    H113047   1.229   5.583   1.323  0.3855  0.6433  2.5614
 4361TIP3    H213048   1.240   5.473   1.427  1.4821 -1.3292  0.4589
 4362TIP3   OH213049   5.419   5.142   5.533  0.4746 -0.3369 -0.0276
 4362TIP3    H113050   5.468   5.191   5.467 -1.6072  0.3982 -1.1099
 4362TIP3    H213051   5.328   5.144   5.502 -0.3489 -1.1960  2.1475
 4363TIP3   OH213052   3.627   2.097   0.637  0.2173  0.6142 -0.3599
 4363TIP3    H113053   3.616   2.056   0.552 -1.5368  0.7662 -0.2402
 4363TIP3    H213054   3.614   2.027   0.701 -0.5105  0.8830 -0.1982
 4364TIP3   OH213055   0.053   2.507   3.204  0.0594  0.7740 -0.1933
 4364TIP3    H113056  -0.021   2.527   3.261 -0.8843  0.4153 -1.2534
 4364TIP3    H213057   0.097   2.591   3.192 -0.9770  1.2761 -0.6318
 4365TIP3   OH213058   1.828   1.689   5.172 -0.3054  0.5625  0.0454
 4365TIP3    H113059   1.747   1.661   5.129 -0.9385  1.1861  0.7692
 4365TIP3    H213060   1.898   1.651   5.120 -1.0441  0.7673 -1.1507
 4366TIP3   OH213061   1.413   2.302   4.410 -0.8426 -0.7402  0.1233
 4366TIP3    H113062   1.419   2.327   4.502 -0.4840 -0.0465 -0.0792
 4366TIP3    H213063   1.452   2.215   4.406  1.9742  0.3948  0.1759
 4367TIP3   OH213064   2.618   4.423   5.616  0.3258 -0.1475 -0.2096
 4367TIP3    H113065   2.633   4.488   5.684 -0.2698  0.2143 -0.4188
 4367TIP3    H213066   2.699   4.422   5.565 -0.0738  1.2648 -0.9015
 4368TIP3   OH213067   1.167   1.691   0.663 -0.5473  0.2753 -0.2342
 4368TIP3    H113068   1.221   1.626   0.706  0.2503  0.8148 -0.3999
 4368TIP3    H213069   1.174   1.671   0.569 -1.2247 -0.0943 -0.2128
 4369TIP3   OH213070   1.603   1.316   4.381  0.7386  0.1127 -0.1009
 4369TIP3    H113071   1.625   1.297   4.290  0.0210 -1.0635 -0.0549
 4369TIP3    H213072   1.508   1.317   4.383  0.7535  0.3581  0.5911
 4370TIP3   OH213073   4.441   5.296   5.647  0.2244  0.5031  0.0860
 4370TIP3    H113074   4.448   5.205   5.677 -0.0919  0.2919 -0.4653
 4370TIP3    H213075   4.508   5.304   5.579  2.3612  1.5613  2.1496
 4371TIP3   OH213076   4.858   6.465   1.573  0.7800 -0.1318 -0.4327
 4371TIP3    H113077   4.804   6.536   1.607 -3.1044 -2.1205 -1.8142
 4371TIP3    H213078   4.837   6.390   1.628  0.9958 -1.3193 -1.8943
 4372TIP3   OH213079   0.435   3.267   5.016 -0.4173  0.5114  0.0921
 4372TIP3    H113080   0.366   3.333   5.007 -1.0675 -0.2380 -0.6353
 4372TIP3    H213081   0.389   3.190   5.051 -0.1621 -0.3030 -1.2879
 4373TIP3   OH213082   2.393   5.304   2.801 -0.4693  0.1566  0.0894
 4373TIP3    H113083   2.376   5.356   2.880 -0.1811 -0.4165  0.5311
 4373TIP3    H213084   2.378   5.214   2.828 -0.1493 -0.0596 -0.4573
 4374TIP3   OH213085   5.264   1.855   1.829 -0.2302 -0.5356  0.3677
 4374TIP3    H113086   5.249   1.946   1.802  0.2492 -0.1731  1.2642
 4374TIP3    H213087   5.211   1.844   1.908  0.5607 -0.6918  0.8830
 4375TIP3   OH213088   6.938   4.906   5.695 -0.6041 -0.1032  0.4527
 4375TIP3    H113089   6.864   4.916   5.754 -0.3394  0.3024  0.7167
 4375TIP3    H213090   6.988   4.832   5.731  0.0113  0.6718  1.2259
 4376TIP3   OH213091   1.122   5.932   1.641 -0.3338  0.0080 -0.3547
 4376TIP3    H113092   1.085   5.991   1.576  0.8960  0.8032 -0.3793
 4376TIP3    H213093   1.155   5.990   1.709  0.9151 -0.6311 -0.3829
 4377TIP3   OH213094   0.019   1.884   2.255  0.7576  0.1098 -0.1027
 4377TIP3    H113095   0.098   1.860   2.205 -0.8628 -0.4661 -2.5638
 4377TIP3    H213096  -0.005   1.970   2.221  1.5591  1.3568  2.3166
 4378TIP3   OH213097   1.228   2.764   1.206 -0.2177  0.5619  0.4143
 4378TIP3    H113098   1.228   2.682   1.255  0.8143  1.3288  1.7624
 4378TIP3    H213099   1.156   2.754   1.143 -0.5646 -1.0783  1.0182
 4379TIP3   OH213100   1.967   2.336   2.516  0.0443 -0.0194  0.4365
 4379TIP3    H113101   1.935   2.380   2.438 -1.7787 -1.4725  0.3152
 4379TIP3    H213102   1.983   2.406   2.579 -0.4954  0.9913 -0.5382
 4380TIP3   OH213103   1.552   1.047   0.909  0.1260 -0.6425  0.0517
 4380TIP3    H113104   1.459   1.063   0.896  0.0715  0.7879  1.9259
 4380TIP3    H213105   1.577   0.992   0.834 -2.4226 -1.9799  0.0846
 4381TIP3   OH213106   4.418   4.276   3.248 -0.9085  0.4507  0.8018
 4381TIP3    H113107   4.350   4.234   3.196 -0.5062 -0.4300  0.9768
 4381TIP3    H213108   4.490   4.213   3.250  1.6512  2.8262 -2.8158
 4382TIP3   OH213109   3.617   1.070   2.893  0.0600  0.1988  0.3044
 4382TIP3    H113110   3.701   1.047   2.932 -0.0166  0.1593  0.4480
 4382TIP3    H213111   3.615   1.165   2.893 -0.3337  0.1976  1.2555
 4383TIP3   OH213112   6.329   6.696   4.706  0.3620 -0.0900 -0.5124
 4383TIP3    H113113   6.240   6.716   4.676  0.4187  0.2147 -0.4873
 4383TIP3    H213114   6.342   6.756   4.780 -0.1304 -1.4929  0.7623
 4384TIP3   OH213115   6.763   3.497   1.644  0.9047 -0.3479  0.6048
 4384TIP3    H113116   6.794   3.512   1.554  0.0622  0.9266  0.4881
 4384TIP3    H213117   6.707   3.419   1.636  1.4063 -0.6754  0.1728
 4385TIP3   OH213118   1.469   5.729   4.145 -0.2708  0.7335 -0.0916
 4385TIP3    H113119   1.423   5.687   4.218  0.6705 -1.6546 -0.7897
 4385TIP3    H213120   1.525   5.794   4.187 -0.8462  0.4591  1.1653
 4386TIP3   OH213121   4.829   5.514   1.602 -0.2847  0.0179  0.2971
 4386TIP3    H113122   4.736   5.501   1.583 -0.5068  0.9546  0.6884
 4386TIP3    H213123   4.831   5.582   1.670  0.6145 -1.2400  1.5726
 4387TIP3   OH213124   1.995   0.288   0.850  0.1020  0.3439  0.3593
 4387TIP3    H113125   2.085   0.257   0.843 -0.3629 -0.9966 -0.0491
 4387TIP3    H213126   1.975   0.285   0.943  0.3890  0.4015  0.4233
 4388TIP3   OH213127   6.081   6.590   1.837 -0.4030  0.3677 -0.5371
 4388TIP3    H113128   6.111   6.549   1.918 -0.4860  0.1509 -0.6163
 4388TIP3    H213129   6.078   6.519   1.773 -2.5986  0.0318 -0.1471
 4389TIP3   OH213130   6.942   5.660   5.715 -0.0717  0.5220 -0.4957
 4389TIP3    H113131   6.975   5.750   5.723  2.1921 -0.4230  3.5827
 4389TIP3    H213132   7.020   5.607   5.698 -1.1679 -0.8287 -1.5171
 4390TIP3   OH213133   4.249   5.098   5.173 -0.1213 -0.2255 -0.8275
 4390TIP3    H113134   4.167   5.096   5.221  0.8128 -2.8592  0.8524
 4390TIP3    H213135   4.271   5.006   5.159  3.3669  0.3040  0.3213
 4391TIP3   OH213136   4.584   4.613   4.226  0.0019  0.3438 -0.2226
 4391TIP3    H113137   4.632   4.582   4.150  1.0534 -0.7102  0.8304
 4391TIP3    H213138   4.494   4.625   4.195  0.3936 -0.1280 -1.5908
 4392TIP3   OH213139   3.314   1.600   4.743 -0.1072  0.0091 -0.1990
 4392TIP3    H113140   3.275   1.685   4.721  0.3591  0.1827 -0.3680
 4392TIP3    H213141   3.277   1.539   4.680 -2.1137 -0.3649  1.2293
 4393TIP3   OH213142   1.803   5.467   2.665 -0.2017  0.2293  0.0613
 4393TIP3    H113143   1.796   5.537   2.730  1.7860 -1.5239  2.3860
 4393TIP3    H213144   1.731   5.407   2.686 -0.4444  0.3747 -0.3433
 4394TIP3   OH213145   5.262   1.775   3.341  0.3033  0.6264  0.5840
 4394TIP3    H113146   5.299   1.856   3.377 -1.2383  0.7342  2.0621
 4394TIP3    H213147   5.168   1.785   3.354 -0.0348 -0.8035 -0.5581
 4395TIP3   OH213148   4.386   6.651   5.447 -0.2796  0.2623  0.0648
 4395TIP3    H113149   4.328   6.586   5.407  2.3750 -2.9662  0.9717
 4395TIP3    H213150   4.380   6.727   5.390 -2.2457 -1.4080 -2.1641
 4396TIP3   OH213151   4.810   4.928   3.484  0.0085  0.7237 -0.5452
 4396TIP3    H113152   4.880   4.864   3.473  0.3330  1.1082 -0.7062
 4396TIP3    H213153   4.801   4.970   3.398 -2.9550 -1.8812 -1.7174
 4397TIP3   OH213154   2.150   1.932   5.494  0.2470  0.4026  0.0876
 4397TIP3    H113155   2.192   1.982   5.424  1.0970 -0.2462  0.1130
 4397TIP3    H213156   2.210   1.860   5.511  0.0778  0.5621  1.5105
 4398TIP3   OH213157   4.306   1.419   4.048 -0.4035 -0.0973 -0.3012
 4398TIP3    H113158   4.278   1.450   3.962  0.3664  1.1879 -0.1135
 4398TIP3    H213159   4.364   1.344   4.029  0.9884  1.1071 -1.0150
 4399TIP3   OH213160   2.705   4.608   5.806 -0.0081  0.5095  0.0063
 4399TIP3    H113161   2.661   4.657   5.875  1.9924  1.7654  0.5086
 4399TIP3    H213162   2.793   4.647   5.802  0.6788 -1.0470 -1.7034
 4400TIP3   OH213163   0.441   4.413   0.832 -0.0772  0.5116 -0.1437
 4400TIP3    H113164   0.494   4.465   0.893  0.1069 -1.0861  1.1488
 4400TIP3    H213165   0.351   4.444   0.846  0.2609  1.9911 -1.0393
 4401TIP3   OH213166   7.046   1.232   1.919  0.2379  0.4171  0.1170
 4401TIP3    H113167   7.072   1.273   2.002 -0.4581  0.1934  0.4580
 4401TIP3    H213168   7.127   1.225   1.869  0.7424  0.1762  0.9496
 4402TIP3   OH213169   5.174   3.410   4.947  0.4862 -0.3152 -0.1455
 4402TIP3    H113170   5.137   3.457   5.021  0.9079 -0.2566  0.0357
 4402TIP3    H213171   5.263   3.387   4.976 -0.2671 -2.7400  0.4334
 4403TIP3   OH213172   2.666   2.633   0.673  0.1342  0.2653  0.1928
 4403TIP3    H113173   2.578   2.661   0.698 -0.6069  0.1962 -2.0717
 4403TIP3    H213174   2.693   2.696   0.607  0.9444 -0.8506 -0.5838
 4404TIP3   OH213175   1.684   0.984   3.976 -0.9195  0.4480  0.2931
 4404TIP3    H113176   1.773   1.011   3.956 -0.4243 -1.1093  0.2781
 4404TIP3    H213177   1.629   1.050   3.934  0.1837  0.1544 -1.7298
 4405TIP3   OH213178   2.124   2.668   3.334 -0.0511 -0.1948  0.2835
 4405TIP3    H113179   2.194   2.716   3.292 -0.4344 -0.4847 -0.7089
 4405TIP3    H213180   2.136   2.577   3.305  0.0140 -0.5053  1.2495
 4406TIP3   OH213181   2.346   4.999   5.174  0.1367  0.5563  0.3085
 4406TIP3    H113182   2.441   4.998   5.161  0.0623 -1.3351 -0.4658
 4406TIP3    H213183   2.328   4.923   5.230 -0.9691  0.5425 -0.0322
 4407TIP3   OH213184   1.606   6.672   0.400  0.0567  0.0102  0.5827
 4407TIP3    H113185   1.699   6.667   0.380 -0.0844  0.0119 -0.0999
 4407TIP3    H213186   1.571   6.735   0.337 -0.5029 -0.4147  0.4578
 4408TIP3   OH213187   6.054   3.953   1.544 -0.6275  0.2165 -0.1456
 4408TIP3    H113188   6.114   3.989   1.478  0.1774  0.5520  0.7439
 4408TIP3    H213189   6.064   4.011   1.619 -0.9286 -0.6231  0.5599
 4409TIP3   OH213190   1.966   0.600   0.724  0.1085 -0.0899  0.1682
 4409TIP3    H113191   1.885   0.610   0.774 -1.0095  0.4700 -1.6475
 4409TIP3    H213192   1.986   0.507   0.730 -1.6125 -0.5679 -0.6692
 4410TIP3   OH213193   1.567   4.259   0.192 -0.1188 -0.0954 -0.0321
 4410TIP3    H113194   1.473   4.253   0.208  0.1378 -0.1897  1.5319
 4410TIP3    H213195   1.583   4.353   0.179 -0.5836 -0.1893 -1.5184
 4411TIP3   OH213196   4.938   3.972   4.304 -0.5028  0.4367 -0.2658
 4411TIP3    H113197   4.991   3.988   4.383 -0.9499 -0.0816  0.1471
 4411TIP3    H213198   4.848   3.977   4.335 -0.6934  1.1067 -0.9267
 4412TIP3   OH213199   6.831   2.628   2.459 -0.2197  0.1543 -0.2802
 4412TIP3    H113200   6.875   2.713   2.459 -0.8578  0.5147 -1.9285
 4412TIP3    H213201   6.868   2.582   2.535 -0.2772  2.0999  1.0028
 4413TIP3   OH213202   1.511   6.209   3.368 -0.2584  0.1972  0.3931
 4413TIP3    H113203   1.452   6.177   3.301  0.5781 -0.1688 -0.1850
 4413TIP3    H213204   1.516   6.138   3.432 -1.4617  0.7478  1.1402
 4414TIP3   OH213205   3.357   2.546   1.960 -0.4217 -0.0654 -0.5794
 4414TIP3    H113206   3.450   2.531   1.941 -0.3751  1.2525 -1.5043
 4414TIP3    H213207   3.312   2.515   1.881 -0.7919 -0.7414 -0.1151
 4415TIP3   OH213208   4.027   4.144   0.633  0.2470 -0.9790 -0.3591
 4415TIP3    H113209   3.943   4.190   0.634  0.3079 -0.8651 -0.4810
 4415TIP3    H213210   4.023   4.089   0.554 -0.2944 -2.0587  0.3929
 4416TIP3   OH213211   0.929   0.491   0.602  0.0428  0.0113 -0.0539
 4416TIP3    H113212   0.941   0.399   0.576 -0.1076  0.1307 -0.5562
 4416TIP3    H213213   0.973   0.541   0.534  0.1630  0.3162  0.2440
 4417TIP3   OH213214   3.822   1.777   4.820  0.1922  0.0228  0.1782
 4417TIP3    H113215   3.792   1.858   4.862 -1.3688 -0.2950 -0.2573
 4417TIP3    H213216   3.872   1.806   4.744 -1.5145  0.6319 -0.7728
 4418TIP3   OH213217   0.574   3.128   5.284 -0.4791  0.3446  0.0685
 4418TIP3    H113218   0.579   3.044   5.329  0.6456  1.1862  1.6429
 4418TIP3    H213219   0.595   3.108   5.193 -1.4107 -1.2251  0.1643
 4419TIP3   OH213220   1.476   0.458   1.335 -0.2005 -0.0833 -0.0684
 4419TIP3    H113221   1.432   0.440   1.418  0.0999  0.4453  0.2146
 4419TIP3    H213222   1.475   0.375   1.288 -2.3180  0.1164 -0.4700
 4420TIP3   OH213223   2.070   3.689   5.480  0.2650 -0.2275  0.2433
 4420TIP3    H113224   2.137   3.700   5.412 -0.7576  0.4173 -0.7181
 4420TIP3    H213225   2.023   3.773   5.479 -1.1711 -1.0121  0.1804
 4421TIP3   OH213226   5.045   4.586   1.250  0.1781  0.4400  0.4225
 4421TIP3    H113227   5.029   4.658   1.189 -0.5889 -0.6248 -0.6723
 4421TIP3    H213228   4.957   4.558   1.277  0.4869  0.3023  1.3270
 4422TIP3   OH213229   5.030   4.299   4.120  0.0386  0.3972  0.5658
 4422TIP3    H113230   5.095   4.361   4.088  0.5804 -0.3755  0.1334
 4422TIP3    H213231   5.051   4.287   4.213 -0.6377  1.5344  0.8871
 4423TIP3   OH213232   2.293   0.746   3.671  0.3389  0.3817  0.3992
 4423TIP3    H113233   2.269   0.667   3.623  0.8807  0.5534 -0.1792
 4423TIP3    H213234   2.312   0.716   3.760 -0.8718  0.0881  0.5647
 4424TIP3   OH213235   4.284   4.362   1.178  0.2885  0.5097 -0.2418
 4424TIP3    H113236   4.349   4.359   1.247  0.7993  0.7427 -0.7020
 4424TIP3    H213237   4.333   4.340   1.098 -0.5714 -1.2500 -0.3354
 4425TIP3   OH213238   2.078   5.070   4.022  0.3034  0.2777 -0.4692
 4425TIP3    H113239   2.125   4.993   4.052 -1.1907  0.0905  1.6447
 4425TIP3    H213240   2.138   5.143   4.040  1.4096 -0.2885 -1.7472
 4426TIP3   OH213241   0.158   0.190   0.441  0.5606  0.0204 -0.3000
 4426TIP3    H113242   0.127   0.151   0.359  1.1445  0.0481 -0.5437
 4426TIP3    H213243   0.101   0.154   0.509  0.6965 -0.7851 -0.6024
 4427TIP3   OH213244   6.033   4.314   1.732  0.1747 -0.6742 -0.3870
 4427TIP3    H113245   6.053   4.390   1.786  1.1552 -1.0921 -0.1381
 4427TIP3    H213246   5.950   4.281   1.766 -0.8425  0.9072 -1.2038
 4428TIP3   OH213247   7.074   0.586   4.045  0.1373  0.3746  0.0400
 4428TIP3    H113248   7.106   0.564   4.132  0.3373  1.0623  0.1407
 4428TIP3    H213249   7.102   0.512   3.990  0.8888  0.4175  0.3578
 4429TIP3   OH213250   6.068   4.385   5.023 -0.2655 -0.1483  0.3729
 4429TIP3    H113251   6.042   4.332   5.098 -2.3472 -0.1638 -0.3169
 4429TIP3    H213252   6.138   4.335   4.981  1.0387 -0.0763  2.3329
 4430TIP3   OH213253   3.131   6.396   4.942  0.0969  0.5964 -0.9480
 4430TIP3    H113254   3.041   6.363   4.933  0.0308  1.0527 -2.1204
 4430TIP3    H213255   3.135   6.470   4.882  0.9117  1.3295 -0.0130
 4431TIP3   OH213256   1.603   1.695   4.217  0.8577  0.5685  0.2733
 4431TIP3    H113257   1.666   1.700   4.289 -1.3232 -1.5691  2.5536
 4431TIP3    H213258   1.518   1.689   4.260 -0.6653  0.0109 -2.5489
 4432TIP3   OH213259   0.135   2.767   3.153 -0.4622  0.1436 -0.2227
 4432TIP3    H113260   0.149   2.805   3.240 -0.0713  1.0012 -0.6518
 4432TIP3    H213261   0.104   2.840   3.099 -4.1007 -1.0295 -0.0175
 4433TIP3   OH213262   1.497   5.132   3.509 -0.2431 -0.3293  0.5845
 4433TIP3    H113263   1.442   5.092   3.441 -0.8942  1.7577 -0.2013
 4433TIP3    H213264   1.472   5.086   3.590 -3.9704  1.1287  0.4617
 4434TIP3   OH213265   6.952   5.993   5.411  0.6434  0.6894 -0.0940
 4434TIP3    H113266   6.991   5.947   5.336  0.5426  0.2122  0.1387
 4434TIP3    H213267   6.860   6.003   5.387  0.8164  1.4368 -0.4614
 4435TIP3   OH213268   4.228   3.955   3.960  0.8891 -0.1017  0.0861
 4435TIP3    H113269   4.217   4.018   3.889 -1.1519  0.7066  1.0493
 4435TIP3    H213270   4.139   3.936   3.989  1.6267 -1.1925  1.7543
 4436TIP3   OH213271   4.086   4.566   5.411  0.7290  0.6114 -0.4754
 4436TIP3    H113272   4.089   4.592   5.503 -1.5547 -0.4438 -0.0375
 4436TIP3    H213273   4.135   4.484   5.407  0.3758  0.3851 -0.1022
 4437TIP3   OH213274   5.068   2.329   0.558 -0.4265  0.2917  0.0612
 4437TIP3    H113275   5.112   2.247   0.536 -0.7056 -0.3178  1.6512
 4437TIP3    H213276   5.138   2.393   0.567  0.0269 -0.3297  1.1004
 4438TIP3   OH213277   5.681   6.423   4.487  0.1778 -0.5147  0.2552
 4438TIP3    H113278   5.755   6.371   4.455  0.6618  0.2846  0.0513
 4438TIP3    H213279   5.605   6.366   4.476  0.4542 -0.5863 -1.5489
 4439TIP3   OH213280   0.198   0.187   1.026 -0.4486 -0.3098 -0.0922
 4439TIP3    H113281   0.165   0.118   0.969 -0.7925 -1.2215  1.1738
 4439TIP3    H213282   0.286   0.157   1.051  0.3737  0.8874 -1.4370
 4440TIP3   OH213283   0.940   1.809   1.058 -0.9565 -0.4223  0.0554
 4440TIP3    H113284   0.974   1.792   1.146 -0.1738 -1.7667 -0.4673
 4440TIP3    H213285   0.930   1.722   1.020 -4.1476 -0.0556 -0.1805
 4441TIP3   OH213286   1.838   2.931   0.100 -0.1260  0.5460  0.3055
 4441TIP3    H113287   1.887   2.953   0.179 -1.8661  0.0157  1.5716
 4441TIP3    H213288   1.827   2.836   0.103 -0.4256  0.5484 -0.4523
 4442TIP3   OH213289   6.181   5.678   2.507 -0.2342  0.2722  0.0244
 4442TIP3    H113290   6.104   5.622   2.503  0.2711 -0.5893  1.4923
 4442TIP3    H213291   6.152   5.762   2.471 -1.1207 -0.7795 -1.8545
 4443TIP3   OH213292   4.110   5.256   2.611 -0.6758  0.5581 -0.1230
 4443TIP3    H113293   4.183   5.231   2.668  0.3053  0.0826 -1.5352
 4443TIP3    H213294   4.070   5.331   2.654  1.5482  1.7464 -0.0072
 4444TIP3   OH213295   7.148   4.512   2.120  0.0816 -0.3441 -0.2874
 4444TIP3    H113296   7.141   4.583   2.184  0.5429 -0.8525  0.3370
 4444TIP3    H213297   7.166   4.556   2.037 -3.3324  0.5857 -0.7146
 4445TIP3   OH213298   5.733   1.086   1.060  0.3021 -0.0296 -0.1467
 4445TIP3    H113299   5.761   1.006   1.016 -0.1648 -0.1877 -0.1636
 4445TIP3    H213300   5.696   1.140   0.990  0.8094  0.2945 -0.1722
 4446TIP3   OH213301   6.185   0.520   1.056 -0.5300  0.0900 -0.1148
 4446TIP3    H113302   6.108   0.536   1.111  0.8920  0.7112  1.8294
 4446TIP3    H213303   6.205   0.605   1.017 -0.0306  0.2715  0.5179
 4447TIP3   OH213304   0.136   6.148   1.560 -0.0208 -0.2421  0.3369
 4447TIP3    H113305   0.121   6.233   1.520 -2.8639 -0.0718  1.5950
 4447TIP3    H213306   0.124   6.085   1.489  1.9911  0.2932 -0.5713
 4448TIP3   OH213307   4.973   0.277   3.150  0.8004  0.3447  0.1513
 4448TIP3    H113308   4.947   0.349   3.208  0.7941 -0.8714  1.7096
 4448TIP3    H213309   5.006   0.210   3.209  0.7942 -0.9461 -1.2754
 4449TIP3   OH213310   2.145   5.856   5.076 -0.0955  0.1620 -0.0894
 4449TIP3    H113311   2.075   5.826   5.133 -0.9641 -0.0656 -1.2315
 4449TIP3    H213312   2.139   5.799   4.999  0.2135  1.2885 -0.9638
 4450TIP3   OH213313   6.624   6.694   1.068  0.2682  0.3216  0.3226
 4450TIP3    H113314   6.692   6.639   1.108 -0.6291 -0.5612  0.6753
 4450TIP3    H213315   6.609   6.764   1.132 -2.8199 -2.3213  2.8775
 4451TIP3   OH213316   3.193   6.218   4.169 -0.0097  0.0124  0.1050
 4451TIP3    H113317   3.222   6.131   4.142  2.8870  0.6062  0.9513
 4451TIP3    H213318   3.118   6.201   4.226 -0.9275 -1.7287 -1.4774
 4452TIP3   OH213319   2.056   1.190   3.700 -0.0308 -0.1941  0.0783
 4452TIP3    H113320   2.096   1.199   3.787  2.0429  1.5902 -0.9627
 4452TIP3    H213321   2.117   1.135   3.651  0.1224  0.8695 -0.9509
 4453TIP3   OH213322   1.497   4.703   4.688  0.2838 -0.0576  0.0492
 4453TIP3    H113323   1.444   4.722   4.765  0.3079 -2.7910  0.8330
 4453TIP3    H213324   1.577   4.754   4.701  0.2757 -0.4350  1.8250
 4454TIP3   OH213325   3.865   3.768   5.773  0.0243 -0.4080 -0.3869
 4454TIP3    H113326   3.824   3.697   5.822  0.5662 -0.0578  0.5967
 4454TIP3    H213327   3.832   3.757   5.683 -0.3255 -1.5623 -0.1364
 4455TIP3   OH213328   2.345   3.247   4.681 -0.0887  0.4794 -0.3283
 4455TIP3    H113329   2.290   3.175   4.711  0.3004  0.6115  0.7397
 4455TIP3    H213330   2.435   3.214   4.689  0.1073  1.1800  0.4612
 4456TIP3   OH213331   6.413   1.510   2.804 -0.1139  0.1809  0.1401
 4456TIP3    H113332   6.379   1.500   2.715 -1.3006 -1.2343  0.7334
 4456TIP3    H213333   6.373   1.591   2.836  0.6144  0.9127 -0.6976
 4457TIP3   OH213334   4.619   4.481   1.736 -0.2946  0.2624  0.0751
 4457TIP3    H113335   4.686   4.513   1.676 -0.1977 -0.9039 -0.4592
 4457TIP3    H213336   4.537   4.521   1.705 -0.1717  0.0312 -0.5603
 4458TIP3   OH213337   4.122   4.338   1.500 -0.0067 -0.2565 -0.0508
 4458TIP3    H113338   4.197   4.346   1.557 -1.2048 -0.6762  1.6627
 4458TIP3    H213339   4.158   4.344   1.411  2.1008 -1.0959  0.6951
 4459TIP3   OH213340   4.169   6.524   5.320 -0.1305 -0.0666  0.2437
 4459TIP3    H113341   4.102   6.584   5.287 -0.0247 -0.0297  0.0960
 4459TIP3    H213342   4.156   6.444   5.269 -1.1620 -0.6617  1.3633
 4460TIP3   OH213343   1.061   0.280   3.431  0.3324 -0.5228 -0.1930
 4460TIP3    H113344   1.151   0.288   3.460 -0.7353  2.1660  2.9662
 4460TIP3    H213345   1.029   0.199   3.471  0.3900  0.4382  1.9060
 4461TIP3   OH213346   3.487   6.473   3.076 -0.0499 -0.1483  0.1619
 4461TIP3    H113347   3.397   6.500   3.096  0.1218  0.7637 -0.2216
 4461TIP3    H213348   3.517   6.538   3.013  0.0541 -1.8067 -1.6001
 4462TIP3   OH213349   5.555   0.183   1.217 -0.6976  0.1464 -0.2088
 4462TIP3    H113350   5.582   0.102   1.174 -0.2515 -0.7596  1.6916
 4462TIP3    H213351   5.636   0.231   1.233 -0.8678  0.5204 -0.4436
 4463TIP3   OH213352   5.413   0.538   2.619 -0.4026 -0.2048 -0.0211
 4463TIP3    H113353   5.482   0.567   2.560  1.4882  1.6539  2.8500
 4463TIP3    H213354   5.363   0.617   2.639 -1.5738 -0.9695  0.1795
 4464TIP3   OH213355   3.342   5.014   4.438  0.0858  0.0577  0.6103
 4464TIP3    H113356   3.251   5.044   4.433 -0.5494 -1.9066 -1.7949
 4464TIP3    H213357   3.392   5.093   4.454 -1.9192  1.4404  0.4684
 4465TIP3   OH213358   1.514   1.956   0.909 -0.1723 -0.2034  0.1936
 4465TIP3    H113359   1.434   1.913   0.880  0.3321 -1.4225  0.5473
 4465TIP3    H213360   1.499   1.977   1.001  0.0620 -0.8327  0.3825
 4466TIP3   OH213361   6.135   2.443   0.718 -0.8917 -0.2040 -0.1249
 4466TIP3    H113362   6.056   2.427   0.769 -0.1619 -1.2874  0.7249
 4466TIP3    H213363   6.199   2.379   0.752  0.1405  0.1955 -1.2348
 4467TIP3   OH213364   6.264   4.054   0.147 -0.3246  0.5201 -0.3018
 4467TIP3    H113365   6.350   4.039   0.188 -0.2262  2.9392  0.5334
 4467TIP3    H213366   6.245   3.973   0.101  0.7975 -1.3790  2.3554
 4468TIP3   OH213367   2.895   6.075   2.430 -0.2577 -0.5083  0.2867
 4468TIP3    H113368   2.915   6.001   2.487 -2.6295 -0.8896  0.7244
 4468TIP3    H213369   2.861   6.142   2.489 -2.3665 -0.7588 -0.5650
 4469TIP3   OH213370   5.399   6.389   4.708 -0.2685  0.6982 -0.7027
 4469TIP3    H113371   5.393   6.473   4.754 -0.5845  1.6149 -2.3704
 4469TIP3    H213372   5.493   6.373   4.700 -0.1685 -0.1455  1.3534
 4470TIP3   OH213373   5.028   2.068   5.183 -0.1001  0.3740 -0.1326
 4470TIP3    H113374   5.065   2.145   5.226 -0.4728  0.6931 -0.3685
 4470TIP3    H213375   5.052   1.995   5.239 -1.9365  0.9317  1.5093
 4471TIP3   OH213376   0.449   5.855   4.777  0.1692 -0.2209 -0.1186
 4471TIP3    H113377   0.508   5.931   4.778  0.1039 -0.1509  1.7998
 4471TIP3    H213378   0.363   5.892   4.796 -0.3388 -0.4663 -1.8262
 4472TIP3   OH213379   0.494   2.819   4.309  0.0598 -0.1356  0.3457
 4472TIP3    H113380   0.482   2.913   4.326 -0.3365 -0.0867 -0.1750
 4472TIP3    H213381   0.574   2.796   4.356  0.8004  0.7230 -0.4447
 4473TIP3   OH213382   7.090   0.848   4.343  0.3383 -0.0966  1.2832
 4473TIP3    H113383   7.169   0.840   4.290 -0.0472  1.6553  0.3629
 4473TIP3    H213384   7.048   0.762   4.337  1.1952 -0.4584  0.1958
 4474TIP3   OH213385   1.876   2.449   3.206  0.4211 -0.0073  0.2295
 4474TIP3    H113386   1.971   2.449   3.191  0.3553  1.5412 -0.4204
 4474TIP3    H213387   1.843   2.518   3.148 -0.9927  0.1348  1.1595
 4475TIP3   OH213388   5.868   1.858   5.692 -0.2099  0.5904 -0.1835
 4475TIP3    H113389   5.853   1.927   5.756  1.6350 -1.1317  2.2924
 4475TIP3    H213390   5.934   1.894   5.632 -1.1383  1.8280 -0.5006
 4476TIP3   OH213391   4.594   4.447   2.439 -0.1043 -0.1843  0.4124
 4476TIP3    H113392   4.574   4.449   2.532  0.3211  0.2332  0.5007
 4476TIP3    H213393   4.673   4.394   2.432 -0.3862 -0.5849  0.2370
 4477TIP3   OH213394   6.875   4.259   2.063 -0.1268 -0.2628 -0.1205
 4477TIP3    H113395   6.857   4.293   1.975  0.3731  1.1879  0.3082
 4477TIP3    H213396   6.971   4.254   2.066 -0.0390  1.3946  0.9194
 4478TIP3   OH213397   3.275   1.410   2.587  0.0110 -0.2700  0.7092
 4478TIP3    H113398   3.203   1.436   2.529 -0.3465  1.6920  1.9322
 4478TIP3    H213399   3.231   1.386   2.669  0.6511 -1.0485  0.8372
 4479TIP3   OH213400   6.500   0.733   5.798  0.4277 -0.8375  0.4443
 4479TIP3    H113401   6.546   0.715   5.880  0.8930 -0.1555  0.3417
 4479TIP3    H213402   6.475   0.826   5.805  1.4930 -0.4372 -0.6639
 4480TIP3   OH213403   2.602   2.665   2.365  0.9642  0.1625  0.0223
 4480TIP3    H113404   2.547   2.643   2.440 -0.9916  0.5311 -1.2299
 4480TIP3    H213405   2.634   2.753   2.382  0.8488  0.0951  0.5845
 4481TIP3   OH213406   0.385   0.929   0.015  0.0786 -0.1800  0.4518
 4481TIP3    H113407   0.407   0.991   0.085 -0.3619  0.5089  0.0029
 4481TIP3    H213408   0.311   0.971  -0.030  0.2363 -0.7024 -0.3024
 4482TIP3   OH213409   3.879   5.370   2.534  0.2574 -0.2156 -0.5182
 4482TIP3    H113410   3.921   5.452   2.558 -0.2975  0.0576 -0.4624
 4482TIP3    H213411   3.951   5.312   2.508  0.5918  0.5957 -1.4803
 4483TIP3   OH213412   4.342   6.243   2.877  0.9778  0.3408 -0.3554
 4483TIP3    H113413   4.279   6.177   2.850  0.8013 -1.0113  2.9190
 4483TIP3    H213414   4.371   6.283   2.795 -2.2086 -0.6966 -2.1635
 4484TIP3   OH213415   4.052   6.587   0.219  0.2258 -0.3343  0.1880
 4484TIP3    H113416   3.959   6.567   0.224 -0.0194  0.7940  0.3231
 4484TIP3    H213417   4.081   6.544   0.138 -0.6439  0.1770 -0.4148
 4485TIP3   OH213418   5.339   2.824   0.584  0.5238  0.0448  0.0086
 4485TIP3    H113419   5.261   2.878   0.595 -0.3087 -0.9239 -0.9255
 4485TIP3    H213420   5.321   2.745   0.635 -0.1010 -1.1312 -1.9018
 4486TIP3   OH213421   2.662   3.834   1.201  0.0718  0.3593  0.1658
 4486TIP3    H113422   2.619   3.912   1.164 -1.1932 -1.1537 -1.7468
 4486TIP3    H213423   2.730   3.812   1.138 -0.8523 -1.1564 -0.3506
 4487TIP3   OH213424   6.604   5.203   1.921 -0.1674 -0.1869  0.0571
 4487TIP3    H113425   6.592   5.234   2.011  1.1808 -1.9121  0.8842
 4487TIP3    H213426   6.570   5.114   1.921 -0.7865  0.0175 -1.3545
 4488TIP3   OH213427   3.014   6.126   0.724 -0.3329 -0.1136 -0.0907
 4488TIP3    H113428   3.070   6.060   0.766 -1.3759 -1.3634 -0.6018
 4488TIP3    H213429   3.075   6.194   0.696  0.6922 -0.4858  1.1269
 4489TIP3   OH213430   4.057   2.433   1.185  0.7217  0.4858  0.2112
 4489TIP3    H113431   4.070   2.453   1.278 -1.5221  1.8880  0.3095
 4489TIP3    H213432   4.035   2.518   1.145  0.5755 -0.2677 -1.3814
 4490TIP3   OH213433   5.096   6.047   3.320 -0.6813  0.3730 -0.3795
 4490TIP3    H113434   5.093   6.027   3.227 -0.0364 -2.2613  0.0897
 4490TIP3    H213435   5.155   5.981   3.357 -0.9850  1.2866  1.9149
 4491TIP3   OH213436   1.750   3.259   0.149 -0.2482 -0.1748  0.3334
 4491TIP3    H113437   1.705   3.317   0.088  1.5940  0.9932  0.0242
 4491TIP3    H213438   1.772   3.181   0.098  1.6936  0.9830 -0.7106
 4492TIP3   OH213439   5.732   0.407   2.302 -0.4226  0.1784 -0.0110
 4492TIP3    H113440   5.669   0.475   2.278 -0.1332  0.8053  0.9644
 4492TIP3    H213441   5.765   0.375   2.218 -0.0388  1.7379 -0.4947
 4493TIP3   OH213442   2.207   5.907   5.733  0.0124 -0.3951 -0.8130
 4493TIP3    H113443   2.207   5.845   5.660 -0.2169 -2.5351  0.9034
 4493TIP3    H213444   2.122   5.950   5.727  0.4572  0.3281 -2.4568
 4494TIP3   OH213445   6.658   4.638   2.380  0.2586  0.2035  0.7215
 4494TIP3    H113446   6.641   4.620   2.287  2.3101  1.3265  0.0775
 4494TIP3    H213447   6.711   4.564   2.409 -0.9151 -0.4746  1.2178
 4495TIP3   OH213448   2.463   5.513   0.216 -0.3577 -0.2046  0.0535
 4495TIP3    H113449   2.517   5.582   0.179  0.4231 -0.6675  0.2939
 4495TIP3    H213450   2.519   5.435   0.214 -1.2445 -0.8595 -0.2999
 4496TIP3   OH213451   3.791   1.467   5.121 -0.0854 -0.4099 -0.2086
 4496TIP3    H113452   3.701   1.494   5.105 -0.9672 -1.7603  2.0985
 4496TIP3    H213453   3.800   1.382   5.078  0.9660  0.8448 -2.6579
 4497TIP3   OH213454   2.914   0.234   5.182  0.0732 -0.0631 -0.9450
 4497TIP3    H113455   2.828   0.263   5.211  0.5045  2.0787 -1.6069
 4497TIP3    H213456   2.952   0.191   5.258 -1.3486 -0.5478 -0.4750
 4498TIP3   OH213457   6.955   3.090   0.472  0.2906 -0.8235 -0.2731
 4498TIP3    H113458   7.002   3.036   0.409  2.3324 -0.1108  0.5636
 4498TIP3    H213459   7.008   3.088   0.552 -0.3261  1.1730  0.2691
 4499TIP3   OH213460   2.689   3.430   2.304  0.6478 -0.3540  0.4406
 4499TIP3    H113461   2.626   3.384   2.248  0.4029  0.8891 -0.3544
 4499TIP3    H213462   2.662   3.408   2.393 -2.1650  1.6323  0.2021
 4500TIP3   OH213463   3.833   0.124   2.623  0.2638 -0.1611  0.4031
 4500TIP3    H113464   3.918   0.117   2.667  0.6847 -1.2879 -0.5460
 4500TIP3    H213465   3.773   0.074   2.679  0.1358  0.8699  1.2238
 4501TIP3   OH213466   6.637   1.131   1.927  0.0699  0.3479  0.3815
 4501TIP3    H113467   6.672   1.061   1.873  0.6146  0.4519  0.5942
 4501TIP3    H213468   6.544   1.110   1.937  0.2150 -0.2975  0.3809
 4502TIP3   OH213469   2.627   3.949   2.749 -0.0341 -0.2245  0.3033
 4502TIP3    H113470   2.705   3.970   2.801 -0.9876 -0.9507  2.1173
 4502TIP3    H213471   2.642   3.860   2.719  0.2642 -0.0030 -0.2291
 4503TIP3   OH213472   2.103   3.302   1.553 -0.0691  0.3621  0.4446
 4503TIP3    H113473   2.163   3.267   1.619 -0.3642 -0.2325  0.4050
 4503TIP3    H213474   2.144   3.281   1.469 -0.6725 -0.7258  0.3935
 4504TIP3   OH213475   0.162   5.416   5.252 -0.1815  0.5578  0.1427
 4504TIP3    H113476   0.226   5.469   5.206 -2.0123  1.1527 -1.8946
 4504TIP3    H213477   0.140   5.467   5.330  0.9463  0.8920  0.2496
 4505TIP3   OH213478   2.519   6.419   0.976 -0.8007  0.3278  0.0124
 4505TIP3    H113479   2.495   6.391   0.888 -0.1448  2.4965 -0.9278
 4505TIP3    H213480   2.615   6.417   0.976 -0.7594  1.4900  0.2402
 4506TIP3   OH213481   4.200   5.644   4.107  0.1281  0.0455  0.4631
 4506TIP3    H113482   4.120   5.591   4.111 -0.4209  0.8084 -0.1047
 4506TIP3    H213483   4.268   5.588   4.144  0.1759 -2.1744 -2.6210
 4507TIP3   OH213484   2.598   1.625   3.866  0.3262 -0.3513  0.7733
 4507TIP3    H113485   2.511   1.593   3.843  0.5647  0.0737 -0.7998
 4507TIP3    H213486   2.613   1.699   3.808  1.5796 -0.1474  1.3166
 4508TIP3   OH213487   5.634   5.829   0.891  0.5290  0.0789  0.8613
 4508TIP3    H113488   5.706   5.854   0.949  0.1739 -0.3225  1.4932
 4508TIP3    H213489   5.611   5.740   0.918  0.4363 -0.1625  0.0135
 4509TIP3   OH213490   4.495   0.696   3.550 -0.3573 -0.3461 -0.8066
 4509TIP3    H113491   4.507   0.639   3.626 -2.0002  1.3633  0.8485
 4509TIP3    H213492   4.571   0.755   3.553 -1.1625  0.7006  0.5177
 4510TIP3   OH213493   6.573   2.479   4.679 -0.3263 -0.2299  0.2122
 4510TIP3    H113494   6.600   2.396   4.719 -1.0293 -0.2113  0.7280
 4510TIP3    H213495   6.550   2.456   4.589  0.4557 -0.4129  0.0465
 4511TIP3   OH213496   0.926   4.657   5.247  0.1865  0.0251  0.3366
 4511TIP3    H113497   0.886   4.667   5.161 -2.7041 -0.2575  1.5577
 4511TIP3    H213498   0.924   4.745   5.285 -0.6629 -0.2434  0.9466
 4512TIP3   OH213499   6.358   5.818   3.051  0.5027  0.1361  0.0603
 4512TIP3    H113500   6.325   5.794   3.137  1.0926  0.6159  0.4232
 4512TIP3    H213501   6.401   5.739   3.019  1.6952  0.4300  0.8929
 4513TIP3   OH213502   3.241   4.406   3.987  0.1876 -0.7072  0.1447
 4513TIP3    H113503   3.177   4.394   3.916 -0.8544 -0.7976  1.0777
 4513TIP3    H213504   3.268   4.497   3.979  0.8209 -0.9641 -0.9565
 4514TIP3   OH213505   3.272   4.491   2.134 -0.8201 -0.2896 -0.1400
 4514TIP3    H113506   3.207   4.529   2.075  1.2185 -0.1684 -2.4133
 4514TIP3    H213507   3.233   4.408   2.162 -2.0666 -0.0986 -1.2239
 4515TIP3   OH213508   4.750   1.519   0.657  0.1503  1.3079  0.2855
 4515TIP3    H113509   4.773   1.596   0.605 -1.5442  1.4073 -0.3924
 4515TIP3    H213510   4.679   1.478   0.607  2.4404 -1.9893 -0.5537
 4516TIP3   OH213511   2.796   4.908   1.415 -0.1996  0.2820  0.4940
 4516TIP3    H113512   2.741   4.985   1.430  0.8587  0.8158  1.8092
 4516TIP3    H213513   2.883   4.935   1.444  0.4435 -1.0389 -0.1334
 4517TIP3   OH213514   5.676   4.020   2.634 -0.2716  0.1307 -0.1578
 4517TIP3    H113515   5.746   4.082   2.614 -0.0953 -0.6165 -2.0116
 4517TIP3    H213516   5.596   4.062   2.602 -0.0795 -0.7726 -1.9451
 4518TIP3   OH213517   1.402   1.658   5.359 -0.2369  0.1362 -0.4688
 4518TIP3    H113518   1.482   1.690   5.401 -0.6431 -0.4288  0.8183
 4518TIP3    H213519   1.432   1.589   5.300  0.3751  1.0459 -1.2436
 4519TIP3   OH213520   1.004   3.304   2.367  0.1129  0.3048 -0.1653
 4519TIP3    H113521   0.957   3.387   2.369  0.4444  0.4773  0.8981
 4519TIP3    H213522   1.048   3.299   2.452  0.0626 -0.9774 -0.1947
 4520TIP3   OH213523   0.846   0.573   3.591 -0.2928  0.3588  0.5092
 4520TIP3    H113524   0.787   0.649   3.586  0.6123  1.0123 -0.8710
 4520TIP3    H213525   0.894   0.574   3.508  0.8018 -0.8763  1.0830
 4521TIP3   OH213526   0.545   4.358   4.990 -0.4736  0.1129  0.3509
 4521TIP3    H113527   0.489   4.324   4.920  1.2552  1.0189 -1.5656
 4521TIP3    H213528   0.495   4.341   5.070 -1.4604 -3.2788 -0.7955
 4522TIP3   OH213529   6.245   1.899   0.921  0.3512 -0.0106 -0.0813
 4522TIP3    H113530   6.159   1.908   0.878 -0.2100 -0.5885  0.8706
 4522TIP3    H213531   6.285   1.823   0.877 -0.9556 -1.7175  1.5147
 4523TIP3   OH213532   1.557   1.141   5.643 -0.1410  0.0767 -0.8033
 4523TIP3    H113533   1.624   1.166   5.707 -2.1545  0.6056  1.2099
 4523TIP3    H213534   1.565   1.207   5.574  1.2226  0.2696 -0.5056
 4524TIP3   OH213535   2.717   6.618   0.686  0.0576 -0.1040  0.5022
 4524TIP3    H113536   2.721   6.544   0.746  2.2845 -0.7759 -0.3817
 4524TIP3    H213537   2.705   6.579   0.599  0.9820  0.5665  0.0570
 4525TIP3   OH213538   0.069   0.788   3.671 -0.2052 -0.1624  0.7633
 4525TIP3    H113539   0.045   0.871   3.713 -1.3013  0.4811 -1.0250
 4525TIP3    H213540  -0.003   0.770   3.611  1.2214 -1.0909 -0.7578
 4526TIP3   OH213541   3.483   1.383   3.964  0.0528  0.2465  0.2084
 4526TIP3    H113542   3.562   1.399   4.016 -0.1846  0.0156  0.6435
 4526TIP3    H213543   3.453   1.471   3.940  0.3179  0.3450  0.2275
 4527TIP3   OH213544   6.443   4.839   0.378 -0.6355 -0.1898 -0.6465
 4527TIP3    H113545   6.385   4.809   0.448  0.0079 -0.4558 -0.2154
 4527TIP3    H213546   6.505   4.767   0.366 -0.1035  0.2846 -0.7679
 4528TIP3   OH213547   3.326   3.601   0.187  0.0349 -0.2695 -0.1313
 4528TIP3    H113548   3.317   3.539   0.115  0.8108  1.0502 -1.4252
 4528TIP3    H213549   3.379   3.555   0.252  0.5779 -0.9744 -1.0476
 4529TIP3   OH213550   0.467   0.824   3.082 -0.2108  0.2870  0.5417
 4529TIP3    H113551   0.393   0.770   3.110  0.4265 -0.5896  0.5679
 4529TIP3    H213552   0.456   0.907   3.130 -0.3871 -0.3624  1.6630
 4530TIP3   OH213553   6.282   4.178   5.445 -0.3063  0.2970  0.1318
 4530TIP3    H113554   6.330   4.096   5.437 -0.4522  0.0236  1.6969
 4530TIP3    H213555   6.304   4.227   5.367  2.6687  0.2735  0.8644
 4531TIP3   OH213556   1.208   3.905   0.140  0.1157 -0.0169 -0.4278
 4531TIP3    H113557   1.245   3.819   0.120  0.4454  0.5777 -2.5975
 4531TIP3    H213558   1.165   3.933   0.059 -2.8448  0.5071  1.1947
 4532TIP3   OH213559   2.186   5.251   3.622 -0.2164  0.5125  0.4146
 4532TIP3    H113560   2.273   5.288   3.633  0.4409 -0.9183  0.2035
 4532TIP3    H213561   2.180   5.182   3.689 -1.7584  1.5524  1.4337
 4533TIP3   OH213562   3.789   3.286   4.312  0.1183  0.4988 -0.3418
 4533TIP3    H113563   3.851   3.260   4.243  1.1363 -0.6242  0.9365
 4533TIP3    H213564   3.845   3.309   4.386 -0.9870  0.1310  0.6250
 4534TIP3   OH213565   3.936   5.751   1.569  0.1102 -0.3432  0.3037
 4534TIP3    H113566   3.963   5.668   1.608 -0.8988 -0.1794  1.4248
 4534TIP3    H213567   3.843   5.740   1.551  0.6450 -0.6407 -2.7953
 4535TIP3   OH213568   5.216   4.983   4.060  0.4559  0.1846  0.1251
 4535TIP3    H113569   5.292   5.041   4.063  0.0424  0.7187  0.4043
 4535TIP3    H213570   5.236   4.914   4.123  0.4318  0.6708  0.6763
 4536TIP3   OH213571   2.701   6.657   5.739  0.3804  0.3652 -0.0904
 4536TIP3    H113572   2.733   6.651   5.649  0.8017  0.9639  0.0113
 4536TIP3    H213573   2.658   6.743   5.744  0.5810  0.4466  0.3433
 4537TIP3   OH213574   1.351   6.160   1.336  0.0114  0.0539 -0.1432
 4537TIP3    H113575   1.259   6.140   1.319 -1.2609  2.9164  2.5740
 4537TIP3    H213576   1.368   6.241   1.288  0.6896  0.2923  0.4744
 4538TIP3   OH213577   5.679   6.319   0.057  0.0377  0.1012 -0.7400
 4538TIP3    H113578   5.671   6.230   0.023  1.0950  0.3524 -1.7226
 4538TIP3    H213579   5.774   6.332   0.066 -0.0642  1.3977 -1.3630
 4539TIP3   OH213580   3.825   2.934   2.154  0.1888 -0.0291  0.2500
 4539TIP3    H113581   3.769   2.997   2.200 -1.4282  0.2189 -1.9023
 4539TIP3    H213582   3.856   2.875   2.222  0.1211  1.8925  2.0316
 4540TIP3   OH213583   4.385   6.610   1.216 -0.0368 -0.3420 -0.2849
 4540TIP3    H113584   4.409   6.599   1.125  0.4274  1.0518 -0.3653
 4540TIP3    H213585   4.403   6.526   1.257  0.0106 -0.8969 -1.4161
 4541TIP3   OH213586   4.920   6.675   4.355  0.4518 -0.5465 -0.1816
 4541TIP3    H113587   4.924   6.755   4.408  0.7462 -1.0448  0.5635
 4541TIP3    H213588   5.009   6.641   4.357 -0.1673 -2.2590  1.6756
 4542TIP3   OH213589   6.137   1.202   5.714 -0.8788 -0.3882 -0.2943
 4542TIP3    H113590   6.181   1.285   5.697  0.9055 -1.6305 -2.3558
 4542TIP3    H213591   6.108   1.208   5.805  0.4976  1.8824  0.0772
 4543TIP3   OH213592   3.212   1.733   0.584  0.3459 -1.0364  0.0499
 4543TIP3    H113593   3.209   1.705   0.676 -0.6511 -1.0984  0.0161
 4543TIP3    H213594   3.151   1.806   0.580  3.0800  1.4124  0.1921
 4544TIP3   OH213595   5.877   1.453   2.237  0.0350 -0.0984 -0.0795
 4544TIP3    H113596   5.811   1.401   2.192 -2.1613  1.7340  0.8513
 4544TIP3    H213597   5.888   1.530   2.182  0.9499 -0.0830  0.1068
 4545TIP3   OH213598   6.124   2.448   4.781  0.1281  0.0061  0.3081
 4545TIP3    H113599   6.087   2.420   4.697 -0.2455  0.8438  0.1853
 4545TIP3    H213600   6.161   2.535   4.763 -0.9256  0.6776  1.2636
 4546TIP3   OH213601   2.417   6.720   0.765  0.5662 -0.3074  0.5539
 4546TIP3    H113602   2.420   6.736   0.859  2.3628  1.1081  0.2994
 4546TIP3    H213603   2.507   6.703   0.740 -0.1406 -2.7726 -0.6382
 4547TIP3   OH213604   5.394   5.031   2.967 -0.0576 -0.2494 -0.8100
 4547TIP3    H113605   5.457   5.086   3.013  0.4544 -0.1101 -1.6431
 4547TIP3    H213606   5.309   5.068   2.988  0.1755 -0.0602 -0.1679
 4548TIP3   OH213607   2.250   3.299   0.529  0.8139  0.2001  0.1362
 4548TIP3    H113608   2.308   3.372   0.549  0.0109  0.6169  1.0667
 4548TIP3    H213609   2.236   3.256   0.614 -1.5187  1.1138  0.2875
 4549TIP3   OH213610   2.372   2.363   2.128 -0.6183 -0.3916  0.1075
 4549TIP3    H113611   2.393   2.456   2.120  0.2683 -0.5777  0.1629
 4549TIP3    H213612   2.423   2.321   2.058 -1.1345 -0.8186 -0.0193
 4550TIP3   OH213613   0.944   4.758   0.072  0.0135  0.3660  0.0901
 4550TIP3    H113614   0.872   4.721   0.122  0.6974 -0.1177  0.7504
 4550TIP3    H213615   0.974   4.686   0.016  0.9373  0.0890  0.9140
 4551TIP3   OH213616   4.022   5.406   3.055  0.3284  0.4345  0.3103
 4551TIP3    H113617   3.993   5.455   3.133 -1.1300  0.9707 -0.5225
 4551TIP3    H213618   3.982   5.320   3.064  1.1334  0.0952  0.7204
 4552TIP3   OH213619   3.464   2.947   1.818  0.0993  0.2108 -0.0368
 4552TIP3    H113620   3.414   3.025   1.843  0.8795  0.7199 -0.0162
 4552TIP3    H213621   3.492   2.909   1.902 -1.4839 -0.9301  0.0185
 4553TIP3   OH213622   1.715   4.738   1.360 -0.4672  0.1485  0.0183
 4553TIP3    H113623   1.637   4.763   1.311  0.8435 -0.5938 -2.6523
 4553TIP3    H213624   1.691   4.656   1.405 -1.7270  0.8906  0.7550
 4554TIP3   OH213625   3.792   5.523   0.165 -0.3708  0.5008 -0.2114
 4554TIP3    H113626   3.830   5.609   0.184 -1.2654  1.4922 -2.4743
 4554TIP3    H213627   3.861   5.477   0.116 -0.0014  0.0262  0.7392
 4555TIP3   OH213628   5.100   0.411   0.081  0.4614  0.2561 -0.6657
 4555TIP3    H113629   5.045   0.449   0.150  2.1922  1.2626  0.2165
 4555TIP3    H213630   5.160   0.353   0.127  0.0026 -1.0360 -1.6472
 4556TIP3   OH213631   1.602   3.624   3.074  0.0117 -0.2596 -0.2528
 4556TIP3    H113632   1.599   3.719   3.066  2.8348 -0.0939 -0.3987
 4556TIP3    H213633   1.611   3.593   2.984  1.9783 -0.4046 -0.0565
 4557TIP3   OH213634   2.681   2.523   2.110 -0.1726  0.0037 -0.1251
 4557TIP3    H113635   2.718   2.599   2.066 -0.4777 -0.6406 -1.5689
 4557TIP3    H213636   2.644   2.557   2.191 -0.1280  1.3492 -0.6545
 4558TIP3   OH213637   3.113   6.583   3.788  0.0379 -0.1700 -0.0548
 4558TIP3    H113638   3.045   6.538   3.838 -0.6106 -0.7183 -1.3700
 4558TIP3    H213639   3.135   6.660   3.840 -2.1792  0.4511  0.0535
 4559TIP3   OH213640   6.343   4.973   5.191  0.0609 -0.1991 -0.1732
 4559TIP3    H113641   6.298   4.941   5.114  1.5972 -0.4565 -1.0005
 4559TIP3    H213642   6.365   5.064   5.170  1.3724 -0.5645 -0.4948
 4560TIP3   OH213643   3.800   1.940   3.601  0.0667 -0.5320  0.1161
 4560TIP3    H113644   3.816   1.979   3.687  0.2336 -0.1585 -0.0863
 4560TIP3    H213645   3.784   1.847   3.620  0.6940 -0.5658  0.4902
 4561TIP3   OH213646   5.198   2.922   0.252  0.0774  0.0357  0.2411
 4561TIP3    H113647   5.259   2.992   0.227 -0.3309  0.1098 -0.6061
 4561TIP3    H213648   5.252   2.843   0.256  0.0907 -0.0825 -1.4717
 4562TIP3   OH213649   5.324   3.348   1.002 -0.2242  0.0286 -0.1697
 4562TIP3    H113650   5.274   3.274   0.968 -0.1667 -0.6291  1.1355
 4562TIP3    H213651   5.409   3.341   0.959 -0.1202 -0.8352  0.1660
 4563TIP3   OH213652   4.169   0.647   4.521 -0.0198  0.6149  0.3987
 4563TIP3    H113653   4.086   0.687   4.495 -0.6853 -0.3969  0.8845
 4563TIP3    H213654   4.173   0.565   4.472  0.4960  0.4633  0.6816
 4564TIP3   OH213655   6.629   1.504   5.834 -0.8756  0.0506  0.2270
 4564TIP3    H113656   6.590   1.439   5.775 -0.9294 -0.7366  1.1178
 4564TIP3    H213657   6.664   1.571   5.775 -1.3706 -0.4675 -0.6831
 4565TIP3   OH213658   2.964   0.080   1.656 -0.6172 -0.7446 -0.3930
 4565TIP3    H113659   2.969   0.153   1.595 -0.5441 -0.0227  0.4637
 4565TIP3    H213660   2.985   0.003   1.603  0.8953  0.0279 -0.9735
 4566TIP3   OH213661   5.227   1.189   3.954 -0.0192  0.2261  0.4488
 4566TIP3    H113662   5.288   1.217   3.886 -0.1347 -1.6317 -0.4826
 4566TIP3    H213663   5.271   1.210   4.037  0.0347  2.7356 -0.1304
 4567TIP3   OH213664   6.005   5.364   3.115  0.1534 -0.4894  0.3021
 4567TIP3    H113665   5.945   5.324   3.178 -1.4912 -0.0602 -0.8959
 4567TIP3    H213666   6.025   5.293   3.054  1.9723 -0.9818  1.4137
 4568TIP3   OH213667   4.857   2.299   2.516 -0.1604  0.2149 -0.3944
 4568TIP3    H113668   4.917   2.267   2.584  0.4427  0.5540 -0.7636
 4568TIP3    H213669   4.909   2.358   2.463 -1.3165  2.0637  0.4222
 4569TIP3   OH213670   6.659   2.264   2.192  0.2581 -0.4084 -0.0232
 4569TIP3    H113671   6.694   2.195   2.136 -0.2030 -0.2842 -0.4705
 4569TIP3    H213672   6.734   2.293   2.244 -0.0058 -2.8643  1.9100
 4570TIP3   OH213673   0.788   1.900   5.610 -0.4949  0.0868 -0.8682
 4570TIP3    H113674   0.788   1.806   5.628 -1.3715  0.0440 -1.0813
 4570TIP3    H213675   0.828   1.940   5.688  2.6146 -0.6501 -1.9111
 4571TIP3   OH213676   4.152   5.786   2.641  0.1112 -0.0682 -0.3262
 4571TIP3    H113677   4.225   5.802   2.581  0.5332 -3.4017 -0.9305
 4571TIP3    H213678   4.183   5.816   2.726  1.2841  0.6233 -0.9748
 4572TIP3   OH213679   7.204   5.467   3.753  0.0158  0.0564  0.4816
 4572TIP3    H113680   7.254   5.444   3.832  0.6708  0.5041  0.2118
 4572TIP3    H213681   7.127   5.411   3.756  0.7122 -0.9179  0.7258
 4573TIP3   OH213682   5.408   2.248   0.761 -0.2177  0.2178  0.1628
 4573TIP3    H113683   5.464   2.321   0.787 -0.7049  0.2628  1.1444
 4573TIP3    H213684   5.399   2.257   0.666 -2.2150  2.9125  0.4617
 4574TIP3   OH213685   3.351   0.932   3.242  0.3132  0.4370 -0.7090
 4574TIP3    H113686   3.395   0.852   3.213 -1.6881 -0.7756 -0.5771
 4574TIP3    H213687   3.359   0.993   3.168  3.9983  1.1227  0.0682
 4575TIP3   OH213688   6.686   3.688   5.100 -0.1848  0.1327  0.4804
 4575TIP3    H113689   6.605   3.643   5.076  0.5348 -1.7855  1.4539
 4575TIP3    H213690   6.689   3.764   5.042 -1.5594 -0.9588 -1.1231
 4576TIP3   OH213691   3.088   0.974   1.957  0.2612  0.1224  0.0246
 4576TIP3    H113692   3.085   0.882   1.981 -0.8511  0.1797  0.1513
 4576TIP3    H213693   3.020   0.984   1.890  0.0044  0.9460  0.3901
 4577TIP3   OH213694   4.605   0.925   4.583  0.3090  0.0970  0.2401
 4577TIP3    H113695   4.632   0.960   4.668  2.1647  0.7924 -0.5703
 4577TIP3    H213696   4.683   0.934   4.528  0.2838 -3.4733 -0.6294
 4578TIP3   OH213697   1.574   1.338   0.977  0.7118  0.1601  0.1029
 4578TIP3    H113698   1.480   1.349   0.994  0.9539 -0.1995  1.8507
 4578TIP3    H213699   1.581   1.249   0.942  0.6353 -0.8427  2.4572
 4579TIP3   OH213700   0.084   3.565   3.989 -0.0276  0.3783 -0.2736
 4579TIP3    H113701   0.075   3.658   3.971 -1.0606  0.2870 -0.3059
 4579TIP3    H213702   0.110   3.527   3.905 -1.3686  0.4229 -0.7434
 4580TIP3   OH213703   1.208   4.507   3.383 -0.0322 -0.2136  0.6312
 4580TIP3    H113704   1.297   4.478   3.403 -0.7001 -2.2801  0.8571
 4580TIP3    H213705   1.217   4.558   3.302  1.3603 -0.3826  0.6534
 4581TIP3   OH213706   0.505   4.189   0.446  0.5195 -0.0991  0.6811
 4581TIP3    H113707   0.571   4.207   0.379 -0.1998  1.4283  0.3295
 4581TIP3    H213708   0.428   4.160   0.397 -0.3594  2.0325  0.6688
 4582TIP3   OH213709   0.594   6.391   1.202 -0.2641  0.1893  0.2173
 4582TIP3    H113710   0.675   6.340   1.208 -0.5369 -0.5638 -1.7259
 4582TIP3    H213711   0.620   6.473   1.162 -0.5353 -0.3035 -0.9982
 4583TIP3   OH213712   5.786   2.971   3.273 -0.0930  0.2431 -0.5413
 4583TIP3    H113713   5.762   3.063   3.271  1.2061  0.6283  0.3198
 4583TIP3    H213714   5.876   2.968   3.241  0.3496 -0.5352  0.6791
 4584TIP3   OH213715   4.384   1.729   0.498  0.0742  0.0689  0.0655
 4584TIP3    H113716   4.342   1.815   0.491 -0.9967 -0.2526  1.8277
 4584TIP3    H213717   4.462   1.745   0.551  0.2243  0.0456 -0.1458
 4585TIP3   OH213718   0.376   5.927   0.482 -0.0809 -0.4640 -0.1180
 4585TIP3    H113719   0.450   5.884   0.524  1.0707  0.2813 -1.3188
 4585TIP3    H213720   0.414   6.003   0.438 -1.5549 -0.0873 -0.8053
 4586TIP3   OH213721   2.125   5.016   3.359 -0.1716  0.2388 -0.2940
 4586TIP3    H113722   2.074   5.068   3.421  0.9642  2.3709 -1.0431
 4586TIP3    H213723   2.108   5.056   3.274  0.5310 -0.8071 -0.9559
 4587TIP3   OH213724   7.066   2.863   3.333 -1.1517 -0.1441  0.0049
 4587TIP3    H113725   7.147   2.904   3.362 -1.0407 -1.1129  1.1592
 4587TIP3    H213726   7.087   2.826   3.247 -0.2814 -0.6060  0.4011
 4588TIP3   OH213727   1.724   0.779   2.483 -0.2240 -0.0683  0.1104
 4588TIP3    H113728   1.765   0.794   2.399  0.8048 -3.0390 -0.0469
 4588TIP3    H213729   1.669   0.702   2.469 -0.9537  0.0780  1.8785
 4589TIP3   OH213730   6.541   5.163   5.474  0.7172  0.0774 -0.4108
 4589TIP3    H113731   6.549   5.235   5.411  0.8608  0.5910  0.1821
 4589TIP3    H213732   6.482   5.100   5.432 -0.8939  1.3719 -0.1865
 4590TIP3   OH213733   1.875   3.772   0.752  0.0485 -0.0911  0.1449
 4590TIP3    H113734   1.945   3.814   0.801  0.2214  0.7544 -0.7856
 4590TIP3    H213735   1.809   3.750   0.817  0.8956 -0.3107  0.9414
 4591TIP3   OH213736   4.878   4.316   1.754  0.4436  0.4174 -0.0591
 4591TIP3    H113737   4.865   4.335   1.661 -0.9573  0.3425  0.0911
 4591TIP3    H213738   4.909   4.399   1.791 -2.9190  1.7852  0.0902
 4592TIP3   OH213739   2.764   4.199   2.624  0.4286  0.5784 -0.1092
 4592TIP3    H113740   2.708   4.132   2.584  0.9394  0.3912 -0.5255
 4592TIP3    H213741   2.730   4.282   2.589 -1.4152  0.7339  1.8569
 4593TIP3   OH213742   5.101   2.379   2.908 -0.0720 -0.4938 -0.5885
 4593TIP3    H113743   5.084   2.389   3.001  0.4207 -1.0717 -0.4307
 4593TIP3    H213744   5.196   2.377   2.900 -0.0902  0.4527 -1.2112
 4594TIP3   OH213745   5.915   1.345   4.643  0.2262  0.2570  0.1900
 4594TIP3    H113746   5.883   1.391   4.721  0.4909  0.8462 -0.0427
 4594TIP3    H213747   5.966   1.272   4.677 -3.2296 -2.1887  0.6537
 4595TIP3   OH213748   6.250   3.373   4.067 -0.4383  0.4910 -0.1785
 4595TIP3    H113749   6.162   3.335   4.059 -0.9491  1.8084 -1.2981
 4595TIP3    H213750   6.234   3.467   4.079  0.8206  0.9219 -1.5987
 4596TIP3   OH213751   1.374   5.511   3.682 -0.0664 -0.2640  0.0549
 4596TIP3    H113752   1.430   5.456   3.628  0.5016 -1.4512  1.7673
 4596TIP3    H213753   1.416   5.597   3.681  1.7316 -1.0807  1.1365
 4597TIP3   OH213754   0.214   5.951   5.310 -0.0814  0.2240  0.0358
 4597TIP3    H113755   0.296   5.984   5.274  0.8382 -0.7154  1.1934
 4597TIP3    H213756   0.236   5.921   5.398 -0.7325 -3.6339 -0.9148
 4598TIP3   OH213757   4.583   4.021   4.833 -0.0337  0.3814  0.2458
 4598TIP3    H113758   4.501   4.065   4.857  0.2027  1.3442 -0.6083
 4598TIP3    H213759   4.587   4.031   4.737  1.9714  2.0110  0.4334
 4599TIP3   OH213760   6.259   0.582   4.006  0.2869 -0.0705 -0.3608
 4599TIP3    H113761   6.274   0.490   4.024  0.2848 -0.0648 -0.3284
 4599TIP3    H213762   6.338   0.626   4.038 -1.2052  0.3671  3.2557
 4600TIP3   OH213763   6.404   5.308   0.809 -0.5767  0.0259  0.7817
 4600TIP3    H113764   6.326   5.287   0.860 -1.1314 -0.7668 -0.3504
 4600TIP3    H213765   6.397   5.254   0.731 -0.0274  1.5817 -0.4092
 4601TIP3   OH213766   0.824   6.064   2.183 -0.5975 -0.6609 -0.1474
 4601TIP3    H113767   0.799   6.004   2.255  0.0659  1.7388  2.2511
 4601TIP3    H213768   0.749   6.123   2.175  0.0713  0.1872 -0.1715
 4602TIP3   OH213769   4.834   4.659   0.268  0.3289 -0.4025  0.1778
 4602TIP3    H113770   4.917   4.665   0.316  0.9634  0.3130 -0.9833
 4602TIP3    H213771   4.807   4.568   0.279 -0.0241 -0.0866  2.6324
 4603TIP3   OH213772   1.413   6.216   5.608 -0.2044  0.0482 -0.0732
 4603TIP3    H113773   1.355   6.267   5.553 -0.9012  0.0875  0.6857
 4603TIP3    H213774   1.465   6.281   5.656 -0.6216  0.0355  0.3965
 4604TIP3   OH213775   4.148   3.278   0.525  0.0972  0.3254  0.1413
 4604TIP3    H113776   4.147   3.373   0.534 -2.9950  0.4095  0.1591
 4604TIP3    H213777   4.138   3.246   0.614  3.2355 -0.1708  0.3941
 4605TIP3   OH213778   3.281   0.924   2.370 -0.2848  0.0064 -0.1164
 4605TIP3    H113779   3.261   0.849   2.315 -1.4392 -0.0955  0.4134
 4605TIP3    H213780   3.293   0.888   2.458  3.1582 -0.0548 -0.4665
 4606TIP3   OH213781   5.369   4.887   5.654 -0.2737 -0.0491  0.7104
 4606TIP3    H113782   5.454   4.858   5.687  0.2575  0.7885  0.1148
 4606TIP3    H213783   5.386   4.973   5.616 -0.6911 -1.2256 -2.4439
 4607TIP3   OH213784   1.868   0.575   4.950  0.1825  0.3984  0.3233
 4607TIP3    H113785   1.910   0.489   4.958 -0.0515  0.0404 -1.7586
 4607TIP3    H213786   1.886   0.618   5.034 -0.5505 -2.0253  1.8459
 4608TIP3   OH213787   6.148   3.301   5.679 -0.3678  0.7130  0.3134
 4608TIP3    H113788   6.206   3.261   5.744 -1.4900  0.1961  1.0211
 4608TIP3    H213789   6.068   3.322   5.727 -1.1680  0.4695 -0.8613
 4609TIP3   OH213790   6.549   6.698   3.603  0.0113 -0.2070  0.5494
 4609TIP3    H113791   6.565   6.775   3.656 -2.5501 -0.3580  1.6806
 4609TIP3    H213792   6.482   6.725   3.540 -1.2944 -1.5561  1.2768
 4610TIP3   OH213793   3.525   1.098   4.609  0.0569 -0.3280  0.3250
 4610TIP3    H113794   3.597   1.152   4.577  0.4088 -0.9499  0.0545
 4610TIP3    H213795   3.544   1.086   4.702  0.4883 -0.7802  0.1782
 4611TIP3   OH213796   0.805   4.355   1.601 -0.7002  0.1375 -0.9816
 4611TIP3    H113797   0.760   4.274   1.626  0.6630  0.1432  1.8268
 4611TIP3    H213798   0.848   4.333   1.518 -2.3822 -1.1610 -1.5760
 4612TIP3   OH213799   5.608   6.440   2.052 -0.4013  0.6770 -0.2966
 4612TIP3    H113800   5.590   6.366   1.994 -1.9955  1.1498 -0.4759
 4612TIP3    H213801   5.635   6.510   1.992  1.6219  0.1367 -0.0802
 4613TIP3   OH213802   1.472   4.938   0.361 -0.5971 -0.0837  0.0206
 4613TIP3    H113803   1.538   4.908   0.298 -0.8553  0.6701 -0.6155
 4613TIP3    H213804   1.445   5.024   0.328 -1.6265 -0.2257  0.4840
 4614TIP3   OH213805   3.939   2.413   3.395  0.3801  0.5344 -0.3282
 4614TIP3    H113806   3.943   2.368   3.479  0.2331  1.3704  0.1423
 4614TIP3    H213807   3.934   2.343   3.330  0.4230 -0.1210  0.3625
 4615TIP3   OH213808   0.251   0.108   3.888  0.4465  0.1100  0.4325
 4615TIP3    H113809   0.224   0.032   3.836  4.2543  0.8683 -3.2117
 4615TIP3    H213810   0.190   0.178   3.863  0.0583 -0.4489 -0.2076
 4616TIP3   OH213811   7.066   5.076   0.977 -0.0074 -0.3389 -0.0786
 4616TIP3    H113812   7.119   5.130   0.918 -0.3154 -0.5453 -0.5513
 4616TIP3    H213813   7.118   4.996   0.987  0.5106  0.0869  0.7270
 4617TIP3   OH213814   4.560   6.491   3.653 -0.0714 -0.4174 -0.2146
 4617TIP3    H113815   4.572   6.460   3.742 -1.2783  0.0042  0.1102
 4617TIP3    H213816   4.568   6.586   3.659 -3.9516  0.0567  0.2170
 4618TIP3   OH213817   3.998   3.028   1.710 -0.2693 -0.0413  0.0510
 4618TIP3    H113818   3.933   3.037   1.779 -0.0476  0.6289  0.1826
 4618TIP3    H213819   4.011   2.933   1.701 -1.2530 -0.1784  0.0175
 4619TIP3   OH213820   6.632   3.672   1.989 -0.6474  0.0604  0.3406
 4619TIP3    H113821   6.636   3.578   1.969  1.2670  0.4931 -1.8022
 4619TIP3    H213822   6.703   3.710   1.936 -1.9368  2.8312  0.4469
 4620TIP3   OH213823   2.223   3.325   4.926  0.6898  0.2647 -0.2270
 4620TIP3    H113824   2.243   3.329   4.833  1.4127 -0.5217 -0.1264
 4620TIP3    H213825   2.180   3.408   4.946 -0.6344 -0.0689 -1.5161
 4621TIP3   OH213826   6.049   6.122   1.955 -0.0045 -0.2863  0.2454
 4621TIP3    H113827   6.128   6.166   1.985  0.0195 -0.2238  0.0913
 4621TIP3    H213828   5.996   6.112   2.034 -1.0207  2.0678 -0.0494
 4622TIP3   OH213829   4.918   4.054   2.726 -0.5578 -0.0371 -0.3433
 4622TIP3    H113830   4.877   4.046   2.812 -0.4030 -0.9826 -0.3444
 4622TIP3    H213831   4.979   3.980   2.722  0.6107  0.9157 -0.6274
 4623TIP3   OH213832   3.425   6.287   2.836  0.8106  0.0870  0.3283
 4623TIP3    H113833   3.469   6.289   2.922 -0.8194  1.0348  1.1840
 4623TIP3    H213834   3.350   6.345   2.846 -0.0097 -0.5992 -1.4358
 4624TIP3   OH213835   0.744   5.358   4.239 -0.2255 -0.2365 -0.3458
 4624TIP3    H113836   0.789   5.280   4.206 -1.5064 -1.7911  1.3945
 4624TIP3    H213837   0.695   5.390   4.163  0.6119 -0.8811 -1.1888
 4625TIP3   OH213838   3.210   4.235   4.206  0.4271  0.3443  0.2623
 4625TIP3    H113839   3.229   4.295   4.134 -3.1872  2.3214  0.7187
 4625TIP3    H213840   3.136   4.182   4.176  1.2069 -1.3959  1.2327
 4626TIP3   OH213841   0.663   4.014   4.800  0.3894 -0.4570 -0.1287
 4626TIP3    H113842   0.631   4.060   4.723  0.3853 -0.0938  0.0831
 4626TIP3    H213843   0.594   4.026   4.866  0.5903 -0.3724  0.0705
 4627TIP3   OH213844   5.002   0.409   0.765  0.6063 -0.2820  0.6351
 4627TIP3    H113845   5.052   0.403   0.683 -0.2623  1.9026 -0.1195
 4627TIP3    H213846   5.056   0.464   0.822  1.2065 -1.7888  1.6073
 4628TIP3   OH213847   2.553   3.864   4.504 -0.0870  0.4238  0.0643
 4628TIP3    H113848   2.512   3.821   4.429 -0.5968 -1.5729  1.4325
 4628TIP3    H213849   2.488   3.858   4.574  1.4800 -0.4580  1.5363
 4629TIP3   OH213850   3.952   3.640   0.072 -0.4093  0.5421  0.1294
 4629TIP3    H113851   3.975   3.638  -0.021 -0.2606 -1.4354  0.1513
 4629TIP3    H213852   3.937   3.732   0.092  2.6418  1.4302 -1.0888
 4630TIP3   OH213853   3.923   1.121   1.770 -0.0726 -0.3644 -0.0304
 4630TIP3    H113854   3.872   1.051   1.731  1.7239 -0.6843 -1.9613
 4630TIP3    H213855   3.894   1.201   1.726 -0.0732 -0.2963  0.0901
 4631TIP3   OH213856   5.727   3.883   5.081 -0.1817  0.0058  0.4290
 4631TIP3    H113857   5.671   3.874   5.158  0.7384 -2.2466  0.9162
 4631TIP3    H213858   5.680   3.835   5.013 -0.0714  0.3566  0.1014
 4632TIP3   OH213859   3.097   6.185   2.753 -0.3381 -0.3752 -0.0836
 4632TIP3    H113860   3.153   6.111   2.731 -0.4401 -0.8889  1.3076
 4632TIP3    H213861   3.142   6.261   2.716  1.8229 -0.6460  1.8203
 4633TIP3   OH213862   0.830   0.576   2.736 -0.4413 -0.8045 -0.2146
 4633TIP3    H113863   0.772   0.618   2.673 -0.0957  0.1702  0.1073
 4633TIP3    H213864   0.871   0.648   2.784  0.1958 -1.5021  0.3220
 4634TIP3   OH213865   1.395   2.853   5.240  0.3573  0.4443  0.0932
 4634TIP3    H113866   1.361   2.771   5.275  0.4522  0.7511  0.9299
 4634TIP3    H213867   1.490   2.848   5.253  0.3498  0.7435  0.2974
 4635TIP3   OH213868   2.623   2.194   4.094 -0.0079 -0.4536 -0.0102
 4635TIP3    H113869   2.684   2.260   4.061 -1.2345 -0.1386 -1.8470
 4635TIP3    H213870   2.563   2.179   4.020 -0.8150 -2.3422  0.9676
 4636TIP3   OH213871   3.053   3.349   4.181  0.4342  0.1140  0.1948
 4636TIP3    H113872   2.998   3.278   4.148 -0.2533 -0.1644  1.8480
 4636TIP3    H213873   3.108   3.308   4.248 -0.4388  1.2245  1.6424
 4637TIP3   OH213874   5.698   2.929   1.564 -0.1516 -0.2124  0.5077
 4637TIP3    H113875   5.740   2.991   1.625  0.5090 -1.0714  0.9486
 4637TIP3    H213876   5.762   2.920   1.493 -0.8440  0.6508 -0.2414
 4638TIP3   OH213877   7.118   4.459   1.004 -0.2629 -0.4770 -0.6511
 4638TIP3    H113878   7.040   4.436   1.054  0.5449 -0.0180  0.8809
 4638TIP3    H213879   7.159   4.528   1.055  0.1920  0.5924 -2.3804
 4639TIP3   OH213880   6.691   0.710   2.483  0.4250 -0.1996  0.1711
 4639TIP3    H113881   6.665   0.788   2.532  1.7362 -0.9354  2.1736
 4639TIP3    H213882   6.786   0.717   2.474  0.4563 -1.1504 -0.3464
 4640TIP3   OH213883   1.808   1.208   2.211 -0.2226 -0.6226  0.9953
 4640TIP3    H113884   1.713   1.193   2.218 -0.0691 -1.5083  1.3304
 4640TIP3    H213885   1.838   1.141   2.149  0.3297 -1.0289  1.6855
 4641TIP3   OH213886   2.153   1.864   5.182 -0.4211 -0.8776  0.0536
 4641TIP3    H113887   2.148   1.769   5.184 -0.2763 -0.9046 -0.5013
 4641TIP3    H213888   2.066   1.893   5.156  0.1220 -0.9912 -2.1668
 4642TIP3   OH213889   5.287   2.218   4.923  0.1020  0.5516  0.8236
 4642TIP3    H113890   5.318   2.227   5.013  0.5070 -0.9605  0.8703
 4642TIP3    H213891   5.366   2.226   4.869 -0.4514  4.0078  0.3535
 4643TIP3   OH213892   6.043   1.103   3.789 -0.1557 -0.1460 -0.2422
 4643TIP3    H113893   6.109   1.165   3.755  1.0352 -1.2397 -0.0199
 4643TIP3    H213894   5.962   1.129   3.746  0.0751  2.1724  0.5622
 4644TIP3   OH213895   0.360   2.682   2.668 -0.1847 -0.0372  0.5618
 4644TIP3    H113896   0.315   2.633   2.737  3.2926 -2.3098  1.4975
 4644TIP3    H213897   0.446   2.701   2.705  0.7373  1.3888 -2.0959
 4645TIP3   OH213898   6.659   5.983   3.639 -0.0540  0.0006  0.1297
 4645TIP3    H113899   6.620   5.896   3.649  0.6628 -0.4083 -0.4841
 4645TIP3    H213900   6.684   6.008   3.728  0.2870 -0.6969  0.2397
 4646TIP3   OH213901   4.241   5.659   1.765  0.6613 -0.0873 -0.2852
 4646TIP3    H113902   4.264   5.710   1.842  1.2574  1.7850 -1.6203
 4646TIP3    H213903   4.163   5.609   1.791 -1.3039  3.1114  0.5479
 4647TIP3   OH213904   3.420   1.421   0.272  0.2055 -0.2745 -0.6179
 4647TIP3    H113905   3.398   1.468   0.192 -0.4869  0.8243  0.2006
 4647TIP3    H213906   3.356   1.350   0.277  0.4755 -0.5694 -1.1997
 4648TIP3   OH213907   5.795   2.107   2.760  0.0513  0.4641  0.2051
 4648TIP3    H113908   5.713   2.138   2.722  0.0667  1.3601  0.8626
 4648TIP3    H213909   5.859   2.113   2.688 -0.7128 -1.5465 -0.7086
 4649TIP3   OH213910   0.153   0.377   3.743  0.0714  0.2353  0.0679
 4649TIP3    H113911   0.114   0.356   3.658 -0.9635 -1.5971  0.9547
 4649TIP3    H213912   0.244   0.347   3.735  0.0716  0.3632 -0.4784
 4650TIP3   OH213913   5.536   4.559   1.661  0.4298  0.9331 -0.3521
 4650TIP3    H113914   5.611   4.608   1.628  1.4755  0.3981  1.1673
 4650TIP3    H213915   5.509   4.606   1.740  0.4666 -0.0557  0.2561
 4651TIP3   OH213916   5.567   4.001   3.300  0.0393  0.2064  0.2840
 4651TIP3    H113917   5.496   3.938   3.311  0.3600 -0.4545 -1.1105
 4651TIP3    H213918   5.525   4.087   3.308 -0.7970 -0.1820  0.1581
 4652TIP3   OH213919   5.037   0.112   3.354 -0.7933  0.2743 -0.0261
 4652TIP3    H113920   4.992   0.028   3.355  1.7779 -1.2960 -2.6979
 4652TIP3    H213921   5.122   0.095   3.394 -0.5911  1.8814  0.3164
 4653TIP3   OH213922   4.443   0.814   5.158 -0.2950 -0.2359  0.7119
 4653TIP3    H113923   4.451   0.908   5.143 -2.1068 -0.1049  0.3340
 4653TIP3    H213924   4.530   0.787   5.187  0.2743  1.5390  0.7823
 4654TIP3   OH213925   6.659   0.762   3.690  0.8556  0.4278  0.4501
 4654TIP3    H113926   6.729   0.722   3.638 -0.3598 -0.3530 -0.6603
 4654TIP3    H213927   6.698   0.776   3.776  1.4939 -2.9084  0.8344
 4655TIP3   OH213928   2.675   5.051   4.099  0.1012 -0.3450 -0.2039
 4655TIP3    H113929   2.625   5.129   4.072  2.2259  1.5098  0.8719
 4655TIP3    H213930   2.725   5.080   4.175  1.1834 -2.7244  0.0653
 4656TIP3   OH213931   5.958   0.290   1.729  0.0369 -0.1730 -0.0001
 4656TIP3    H113932   5.970   0.321   1.640  0.2581 -0.4690 -0.0730
 4656TIP3    H213933   5.948   0.370   1.781  1.1803  0.0493 -0.0996
 4657TIP3   OH213934   4.532   3.789   4.340  0.3554 -0.2377  0.0931
 4657TIP3    H113935   4.529   3.879   4.307  1.2482 -0.7938 -1.6112
 4657TIP3    H213936   4.444   3.754   4.322 -1.5112  1.4290  4.5312
 4658TIP3   OH213937   3.125   1.211   1.617  0.0199  0.2092 -0.2545
 4658TIP3    H113938   3.186   1.281   1.639  0.2340 -0.2075  0.5068
 4658TIP3    H213939   3.060   1.253   1.559  1.4639  0.4670 -1.7646
 4659TIP3   OH213940   1.933   4.456   0.860 -0.4427 -0.8780 -0.3433
 4659TIP3    H113941   1.900   4.454   0.771 -1.0022  0.6798 -0.1994
 4659TIP3    H213942   1.987   4.535   0.864 -2.6212  0.6517  1.3907
 4660TIP3   OH213943   0.766   6.700   4.207  0.5499  0.2416  0.0321
 4660TIP3    H113944   0.861   6.705   4.218  0.4969 -0.8801  1.1931
 4660TIP3    H213945   0.730   6.719   4.294 -0.1589 -1.9798  0.2892
 4661TIP3   OH213946   3.228   0.842   0.750 -0.6043  0.0651 -0.2555
 4661TIP3    H113947   3.218   0.773   0.816  0.6676  0.8582  0.8300
 4661TIP3    H213948   3.312   0.822   0.708 -0.5167  0.6190 -0.3461
 4662TIP3   OH213949   1.772   3.631   3.656  0.6093 -0.4329  0.2827
 4662TIP3    H113950   1.785   3.725   3.643  0.6618 -0.3034  1.2007
 4662TIP3    H213951   1.844   3.589   3.609  0.5325 -0.0287 -0.2099
 4663TIP3   OH213952   3.808   1.347   1.640  0.1011  0.6018 -0.3806
 4663TIP3    H113953   3.713   1.360   1.638 -0.0306 -0.2991 -0.2548
 4663TIP3    H213954   3.837   1.369   1.552  0.1255  3.2596  0.1837
 4664TIP3   OH213955   2.420   0.165   5.228  0.0180 -0.1652 -0.3737
 4664TIP3    H113956   2.421   0.070   5.224 -0.3998 -0.2186  0.5017
 4664TIP3    H213957   2.334   0.187   5.264 -0.1195  0.5712 -1.1202
 4665TIP3   OH213958   2.628   2.741   2.734  0.1864  0.1003 -1.0156
 4665TIP3    H113959   2.581   2.659   2.721 -0.1699  0.4425 -1.9498
 4665TIP3    H213960   2.582   2.804   2.678  0.3888  0.9609 -0.2307
 4666TIP3   OH213961   3.727   2.498   4.735 -0.2934  0.1913 -0.3505
 4666TIP3    H113962   3.725   2.405   4.755  0.9571  0.3271  0.5452
 4666TIP3    H213963   3.750   2.540   4.818  2.7416  0.9950 -1.4473
 4667TIP3   OH213964   1.667   4.537   3.010  0.2003 -0.5165  0.3058
 4667TIP3    H113965   1.744   4.574   2.967  0.2487 -1.7665 -0.7577
 4667TIP3    H213966   1.702   4.488   3.084  0.2925  0.0723  0.6561
 4668TIP3   OH213967   2.453   4.641   4.793  0.2849  0.1012 -0.1195
 4668TIP3    H113968   2.414   4.642   4.881 -1.5906  0.7663 -0.9117
 4668TIP3    H213969   2.511   4.565   4.794  0.4316  0.1860  1.7369
 4669TIP3   OH213970   3.031   3.387   0.869 -0.0766  0.4012 -0.9530
 4669TIP3    H113971   3.080   3.322   0.919  0.7702  1.4816 -0.3350
 4669TIP3    H213972   2.979   3.434   0.934 -2.4619 -1.0791 -1.6476
 4670TIP3   OH213973   2.159   1.666   5.583 -0.0458  0.4243  0.4304
 4670TIP3    H113974   2.247   1.666   5.546 -0.5904 -0.3935 -0.9711
 4670TIP3    H213975   2.102   1.688   5.510 -1.0476  0.4472  1.1889
 4671TIP3   OH213976   3.977   5.647   0.718  0.3667  0.1143 -0.1430
 4671TIP3    H113977   3.910   5.680   0.777  0.3576 -2.1239  1.2470
 4671TIP3    H213978   4.057   5.693   0.745  0.1067  0.0441  0.8116
 4672TIP3   OH213979   5.522   2.108   2.043 -0.6214 -0.3594  0.0404
 4672TIP3    H113980   5.427   2.095   2.040 -0.8424  0.4904  1.7565
 4672TIP3    H213981   5.533   2.195   2.080  0.8432 -0.3113 -0.4365
 4673TIP3   OH213982   3.472   5.812   1.645  0.0123 -0.3275  0.3031
 4673TIP3    H113983   3.529   5.736   1.655  0.1646 -0.0939  1.3244
 4673TIP3    H213984   3.390   5.786   1.686 -0.3574 -0.3852 -0.4680
 4674TIP3   OH213985   4.897   1.678   0.944 -0.3719  0.5996 -0.3731
 4674TIP3    H113986   4.820   1.636   0.906 -0.7291  0.5534  0.3979
 4674TIP3    H213987   4.966   1.662   0.880 -0.4457 -1.3238 -0.0445
 4675TIP3   OH213988   1.882   5.199   5.238  0.5706 -0.1856  0.0350
 4675TIP3    H113989   1.859   5.184   5.330  0.5493 -0.2892  0.0126
 4675TIP3    H213990   1.863   5.292   5.224 -0.9515 -0.5196 -0.3123
 4676TIP3   OH213991   5.795   0.970   1.369  0.4427 -0.7569  0.3595
 4676TIP3    H113992   5.717   0.932   1.409  0.5335 -1.5770 -0.2188
 4676TIP3    H213993   5.763   1.017   1.293  0.4673 -0.7685  0.3418
 4677TIP3   OH213994   7.201   5.789   4.740  0.0144  0.5271  0.2635
 4677TIP3    H113995   7.120   5.829   4.772  0.7565  0.6243  2.1505
 4677TIP3    H213996   7.179   5.757   4.653 -1.8334  1.2193  0.4282
 4678TIP3   OH213997   4.951   3.798   2.441  0.5565 -0.7492  0.3360
 4678TIP3    H113998   4.894   3.722   2.453 -0.1698 -0.4946 -1.2482
 4678TIP3    H213999   4.893   3.874   2.451  0.5043 -0.4914 -1.5405
 4679TIP3   OH214000   5.657   1.838   1.444  0.4332 -0.4882  0.4100
 4679TIP3    H114001   5.733   1.881   1.482  1.2316 -1.6977  0.2187
 4679TIP3    H214002   5.586   1.856   1.506  1.4155 -1.3306  1.8453
 4680TIP3   OH214003   4.984   6.466   0.114 -0.3906  0.5162  0.1399
 4680TIP3    H114004   5.078   6.455   0.128 -0.6243 -1.3537  0.5288
 4680TIP3    H214005   4.957   6.531   0.178  0.8413  2.1499 -0.9058
 4681TIP3   OH214006   6.828   2.333   3.735  0.6368 -0.0811 -0.5425
 4681TIP3    H114007   6.761   2.399   3.720  0.0111 -0.6823 -0.4597
 4681TIP3    H214008   6.875   2.363   3.812 -0.7077 -0.5590  0.5025
 4682TIP3   OH214009   2.886   3.868   2.098  0.9711  0.2239  0.5877
 4682TIP3    H114010   2.806   3.818   2.114 -0.0370  1.8754  1.0535
 4682TIP3    H214011   2.904   3.911   2.181  0.5935  2.1965 -0.2705
 4683TIP3   OH214012   4.752   2.516   5.391 -0.5708  0.0607  0.8154
 4683TIP3    H114013   4.821   2.495   5.328 -1.2020 -0.5275  0.3019
 4683TIP3    H214014   4.674   2.531   5.337 -0.8884  0.5449  1.3972
 4684TIP3   OH214015   4.966   6.467   3.995 -0.2565 -0.4982 -0.1599
 4684TIP3    H114016   4.949   6.386   3.945  0.0178 -1.7107  1.6104
 4684TIP3    H214017   5.000   6.436   4.079  4.1012  1.5611 -0.8795
 4685TIP3   OH214018   4.645   3.368   1.093 -0.6013  0.0416  0.0083
 4685TIP3    H114019   4.609   3.368   1.182  0.2489 -1.1895  0.3783
 4685TIP3    H214020   4.583   3.421   1.043 -1.0378  0.8646  1.3420
 4686TIP3   OH214021   4.025   0.056   0.900  0.7892  0.7096 -0.1949
 4686TIP3    H114022   4.068   0.111   0.966  1.8040 -1.3852  1.0008
 4686TIP3    H214023   3.932   0.060   0.922  1.1891 -0.7417  2.0907
 4687TIP3   OH214024   5.727   0.951   3.005 -0.2742  0.3009  0.1501
 4687TIP3    H114025   5.666   0.945   2.931  0.7709 -0.1635 -0.7012
 4687TIP3    H214026   5.729   1.044   3.027 -0.5812  0.4488 -0.4281
 4688TIP3   OH214027   6.675   5.884   2.992 -0.5443  0.1310 -0.1909
 4688TIP3    H114028   6.682   5.898   3.086  2.8135  1.0094 -0.4456
 4688TIP3    H214029   6.652   5.791   2.984 -0.2002 -0.1330  1.4822
 4689TIP3   OH214030   6.249   3.246   1.707  0.0413  0.4771  0.5390
 4689TIP3    H114031   6.243   3.321   1.647 -0.6184 -0.3207 -0.4357
 4689TIP3    H214032   6.260   3.170   1.650  0.7791 -0.1777  1.5133
 4690TIP3   OH214033   0.383   0.963   0.444  0.1956  0.1655  0.1088
 4690TIP3    H114034   0.420   1.051   0.432  0.6952 -0.2235 -1.5707
 4690TIP3    H214035   0.359   0.959   0.536 -1.3349  2.6427 -0.0816
 4691TIP3   OH214036   1.940   5.771   2.027 -0.2400  0.0253  0.3662
 4691TIP3    H114037   1.940   5.678   2.049  0.3624 -0.1056 -0.1456
 4691TIP3    H214038   1.932   5.774   1.932 -1.1215  0.5305  0.4431
 4692TIP3   OH214039   0.796   0.629   0.296 -0.0927 -0.5900  0.3151
 4692TIP3    H114040   0.701   0.628   0.298 -0.0887 -0.7381  0.4418
 4692TIP3    H214041   0.819   0.555   0.239 -0.0491 -0.6561  0.4190
 4693TIP3   OH214042   0.042   3.006   1.661  0.3076  0.1988  0.5761
 4693TIP3    H114043  -0.041   2.997   1.709 -1.2767  1.4290 -1.7166
 4693TIP3    H214044   0.058   2.919   1.624 -0.1811  0.0326  0.7519
 4694TIP3   OH214045   2.264   2.839   5.660  0.0372 -0.1784 -0.4039
 4694TIP3    H114046   2.323   2.814   5.731  1.9732  0.8707 -1.5553
 4694TIP3    H214047   2.278   2.772   5.593  0.8868  0.7194 -1.1629
 4695TIP3   OH214048   6.821   3.408   3.661 -0.0399 -0.1197 -0.2432
 4695TIP3    H114049   6.741   3.460   3.669 -0.3767 -0.7279  0.4769
 4695TIP3    H214050   6.794   3.319   3.681  0.7266 -0.4154 -0.4882
 4696TIP3   OH214051   6.273   2.742   5.356 -0.4889 -0.6935 -0.5667
 4696TIP3    H114052   6.194   2.692   5.376 -1.1625  0.8977  1.0994
 4696TIP3    H214053   6.240   2.826   5.322  0.2030  1.3279  3.2217
 4697TIP3   OH214054   4.574   3.526   4.573  0.4710 -0.0453 -0.2729
 4697TIP3    H114055   4.530   3.484   4.499  0.3846 -1.5891  0.6201
 4697TIP3    H214056   4.640   3.582   4.533  1.4486 -1.9842 -1.5415
 4698TIP3   OH214057   5.347   3.883   2.095  0.3547  0.3354  0.0458
 4698TIP3    H114058   5.386   3.896   2.008 -3.2008 -0.4138 -1.8291
 4698TIP3    H214059   5.276   3.947   2.099 -1.5972 -1.7725  1.0101
 4699TIP3   OH214060   0.364   3.581   5.754  0.7926 -0.1417 -0.7311
 4699TIP3    H114061   0.401   3.654   5.704 -0.1896  0.0481 -1.1964
 4699TIP3    H214062   0.426   3.567   5.826  1.4078  0.6096 -1.1067
 4700TIP3   OH214063   6.174   0.705   4.750  0.6879  0.7665  0.5085
 4700TIP3    H114064   6.122   0.716   4.829  0.7284 -0.3554  0.7080
 4700TIP3    H214065   6.265   0.713   4.780  0.8166 -1.7079  1.0049
 4701TIP3   OH214066   5.771   3.108   0.482 -0.1725  0.0698  0.2241
 4701TIP3    H114067   5.847   3.099   0.538  2.0936 -0.2516 -2.6580
 4701TIP3    H214068   5.701   3.062   0.528  2.3298 -2.9294  1.3808
 4702TIP3   OH214069   2.585   1.043   3.268 -0.2887 -0.4390 -0.0427
 4702TIP3    H114070   2.542   1.123   3.239  0.7042 -0.3038 -1.2509
 4702TIP3    H214071   2.528   1.009   3.337 -1.7091  0.3237 -0.7741
 4703TIP3   OH214072   3.582   5.303   2.964  0.2058  0.1186  0.3373
 4703TIP3    H114073   3.651   5.331   2.904 -0.5130 -0.9674 -1.0433
 4703TIP3    H214074   3.509   5.361   2.944 -0.2486 -0.6640 -0.3194
 4704TIP3   OH214075   1.984   2.517   1.534  0.1653 -0.4735  0.1695
 4704TIP3    H114076   1.979   2.424   1.513  0.6084 -0.8841  1.7352
 4704TIP3    H214077   1.923   2.528   1.607 -2.2911  1.1361 -1.9617
 4705TIP3   OH214078   2.953   3.451   2.320 -0.1549 -0.3650 -0.3797
 4705TIP3    H114079   2.984   3.539   2.298 -0.5322  0.0234  0.5844
 4705TIP3    H214080   2.861   3.450   2.295 -0.3535 -0.2158  0.3189
 4706TIP3   OH214081   3.118   0.575   2.820  0.2251 -1.0038  0.7024
 4706TIP3    H114082   3.158   0.547   2.738  0.6123 -0.7682  0.8103
 4706TIP3    H214083   3.024   0.563   2.806  0.3238 -1.4239  0.3992
 4707TIP3   OH214084   6.848   2.607   1.998  0.1046 -0.4300  0.2460
 4707TIP3    H114085   6.808   2.633   2.081 -1.7209  1.2032 -1.0571
 4707TIP3    H214086   6.778   2.564   1.950  1.2489 -1.7236 -0.3631
 4708TIP3   OH214087   1.389   2.945   3.758  0.3803  0.2868  0.1124
 4708TIP3    H114088   1.398   2.913   3.848 -2.0978  1.2574  0.7740
 4708TIP3    H214089   1.316   3.007   3.762 -0.0652  0.0370 -2.6462
 4709TIP3   OH214090   2.629   4.313   3.428  0.2996  0.1888  0.3178
 4709TIP3    H114091   2.706   4.266   3.395 -0.2936 -0.9312  0.5012
 4709TIP3    H214092   2.620   4.284   3.519 -1.5184 -1.2994 -0.2800
 4710TIP3   OH214093   6.353   4.664   5.033  0.1195 -0.4626 -0.3179
 4710TIP3    H114094   6.290   4.724   4.994 -0.0054  0.4590  1.2446
 4710TIP3    H214095   6.351   4.684   5.126  0.8420 -2.1943  0.1085
 4711TIP3   OH214096   3.488   1.083   1.243  0.0117  0.4302  0.1466
 4711TIP3    H114097   3.399   1.105   1.218  0.7426  2.2103 -1.1056
 4711TIP3    H214098   3.495   1.110   1.334 -0.4945  1.1089 -0.0080
 4712TIP3   OH214099   2.097   1.692   1.883 -0.2543  0.1062 -0.2293
 4712TIP3    H114100   2.007   1.668   1.905 -0.7898  0.3667 -2.0027
 4712TIP3    H214101   2.113   1.772   1.934 -1.2031  0.3339 -0.2596
 4713TIP3   OH214102   4.836   2.823   2.981 -1.1644  0.0731 -0.7911
 4713TIP3    H114103   4.750   2.844   3.019 -0.3874  1.6157  0.2353
 4713TIP3    H214104   4.843   2.728   2.987 -2.7565 -0.0721 -0.8287
 4714TIP3   OH214105   4.003   5.141   4.986  0.4466 -0.8545  0.3140
 4714TIP3    H114106   3.934   5.079   5.013  0.9440 -1.0206  1.2305
 4714TIP3    H214107   4.010   5.128   4.892 -2.3833  0.7852 -0.2512
 4715TIP3   OH214108   3.848   0.408   5.834  0.3030 -0.2027 -0.3434
 4715TIP3    H114109   3.849   0.315   5.812  0.6359 -0.6162  1.2722
 4715TIP3    H214110   3.940   0.434   5.832  0.1849  0.1618 -1.0619
 4716TIP3   OH214111   1.496   2.289   3.847 -0.0449  0.0806 -0.0089
 4716TIP3    H114112   1.494   2.353   3.918  2.3787  0.5769 -0.2738
 4716TIP3    H214113   1.406   2.258   3.839 -0.4704  0.2555  3.0155
 4717TIP3   OH214114   0.953   3.454   1.640 -0.6158  0.3305  0.5554
 4717TIP3    H114115   0.986   3.369   1.609  1.2404  0.3880  2.1914
 4717TIP3    H214116   0.867   3.462   1.599 -1.2011 -2.6935  0.9548
 4718TIP3   OH214117   4.411   2.267   5.599  0.1993 -0.2686 -0.1067
 4718TIP3    H114118   4.323   2.278   5.563 -0.0348  0.7901  0.7350
 4718TIP3    H214119   4.405   2.187   5.652 -0.1478 -0.4154 -0.3623
 4719TIP3   OH214120   1.574   5.405   3.500  0.3462 -0.0767  0.1948
 4719TIP3    H114121   1.590   5.311   3.508  2.3402  0.1276 -0.9432
 4719TIP3    H214122   1.646   5.446   3.548 -0.3129  0.8952  0.3832
 4720TIP3   OH214123   0.546   3.998   5.532 -0.0805  0.6344 -0.0054
 4720TIP3    H114124   0.500   3.967   5.609 -0.1540  0.7680  0.0053
 4720TIP3    H214125   0.604   3.926   5.507 -0.1771  0.5298  0.0767
 4721TIP3   OH214126   6.211   2.008   4.438  0.6358 -0.1419 -0.7096
 4721TIP3    H114127   6.180   1.917   4.436  0.5234 -0.1006 -2.0884
 4721TIP3    H214128   6.304   2.002   4.414  1.0759 -0.0302  0.8849
 4722TIP3   OH214129   4.349   0.360   2.394  0.3694 -0.6094 -0.2118
 4722TIP3    H114130   4.336   0.317   2.309 -2.1576 -0.1884 -0.1147
 4722TIP3    H214131   4.261   0.378   2.425  1.2475 -0.2242  2.2719
 4723TIP3   OH214132   0.256   5.030   5.103 -0.4996 -0.6092 -0.4312
 4723TIP3    H114133   0.233   4.939   5.085 -1.5299  0.0324 -2.9012
 4723TIP3    H214134   0.183   5.081   5.065  0.8705  1.2786 -0.6804
 4724TIP3   OH214135   6.301   1.814   3.554  0.4255  0.3457  0.6486
 4724TIP3    H114136   6.378   1.780   3.508  0.3493 -1.3132  1.6493
 4724TIP3    H214137   6.335   1.884   3.609  1.2518 -0.3813  1.0940
 4725TIP3   OH214138   4.737   2.206   4.681 -0.0431  0.3736  0.1106
 4725TIP3    H114139   4.766   2.201   4.590 -0.2005 -0.2718  0.0924
 4725TIP3    H214140   4.816   2.227   4.731  0.1645  0.1225 -0.1107
 4726TIP3   OH214141   6.443   5.641   0.163 -0.3072 -0.2698 -0.4232
 4726TIP3    H114142   6.364   5.656   0.215 -0.5740 -2.8221  0.0424
 4726TIP3    H214143   6.501   5.593   0.222  0.4805 -0.8384 -1.6279
 4727TIP3   OH214144   2.777   4.540   0.769 -0.5001  0.1209  0.0353
 4727TIP3    H114145   2.709   4.518   0.832 -0.7392  1.2369  0.1932
 4727TIP3    H214146   2.730   4.583   0.697 -0.1106 -0.2231 -0.4299
 4728TIP3   OH214147   1.044   2.424   5.343 -0.2480  0.2773  0.6191
 4728TIP3    H114148   0.962   2.408   5.390 -1.1146  2.9013  0.1380
 4728TIP3    H214149   1.100   2.468   5.406  0.0570  0.2865  0.3438
 4729TIP3   OH214150   5.361   2.201   1.477 -0.4376  0.1770  0.0365
 4729TIP3    H114151   5.352   2.152   1.395  0.3954  1.2723 -0.7377
 4729TIP3    H214152   5.410   2.143   1.534 -1.6019 -0.8738  0.0132
 4730TIP3   OH214153   1.292   6.665   3.910 -0.2359  0.5740  0.2550
 4730TIP3    H114154   1.306   6.659   4.004 -0.0731  0.3215  0.2153
 4730TIP3    H214155   1.237   6.743   3.899 -2.6168 -0.8923  0.8073
 4731TIP3   OH214156   2.685   3.907   0.778 -0.1017 -0.4338 -0.2837
 4731TIP3    H114157   2.591   3.900   0.762 -0.3844  0.8442  0.6835
 4731TIP3    H214158   2.725   3.895   0.692 -1.0361 -2.4411 -0.5052
 4732TIP3   OH214159   5.196   4.933   2.355  0.4171  0.2459  0.3728
 4732TIP3    H114160   5.173   4.948   2.263  0.5599 -0.0737  0.2846
 4732TIP3    H214161   5.162   4.845   2.373 -1.5676  1.1278  1.2426
 4733TIP3   OH214162   0.796   2.160   4.674 -0.5253 -0.1871 -0.3075
 4733TIP3    H114163   0.786   2.254   4.692 -0.7434  0.1403 -1.9702
 4733TIP3    H214164   0.714   2.121   4.706  0.3272 -0.1628  2.1585
 4734TIP3   OH214165   4.473   4.576   0.112 -0.5134  0.6867 -0.0927
 4734TIP3    H114166   4.519   4.655   0.140  1.8507 -0.7971  0.5362
 4734TIP3    H214167   4.500   4.509   0.175 -2.0238 -0.7809 -0.8996
 4735TIP3   OH214168   5.345   1.463   0.932  0.1821 -0.1299  0.3686
 4735TIP3    H114169   5.347   1.461   1.028 -0.6549  0.6370  0.4228
 4735TIP3    H214170   5.275   1.402   0.908 -0.6183  0.7728  0.3341
 4736TIP3   OH214171   6.815   5.491   0.228  0.1906 -0.1127 -0.2812
 4736TIP3    H114172   6.722   5.482   0.251  0.0769 -0.3193 -0.8073
 4736TIP3    H214173   6.838   5.580   0.257  0.0267 -0.3190  0.5116
 4737TIP3   OH214174   4.627   0.272   4.427 -0.5645  0.1748 -0.4761
 4737TIP3    H114175   4.698   0.322   4.386  0.1359 -1.6406 -1.5991
 4737TIP3    H214176   4.651   0.269   4.520 -0.1287  1.0937 -0.5460
 4738TIP3   OH214177   6.128   4.059   1.825 -0.1162  0.2480 -0.2860
 4738TIP3    H114178   6.059   3.993   1.838 -0.3478  0.3623 -0.9023
 4738TIP3    H214179   6.121   4.116   1.901  0.3951 -0.7033  0.4993
 4739TIP3   OH214180   3.889   4.711   3.200  0.1639 -0.5125 -0.3059
 4739TIP3    H114181   3.961   4.765   3.168 -0.3642  0.5220  0.2256
 4739TIP3    H214182   3.810   4.758   3.174 -0.4492 -2.6391 -2.7375
 4740TIP3   OH214183   6.421   0.997   4.608  0.1729  0.1619  0.0537
 4740TIP3    H114184   6.327   1.015   4.600  0.0519 -0.5895 -0.2886
 4740TIP3    H214185   6.463   1.068   4.560 -0.1547  1.1938  1.2237
 4741TIP3   OH214186   3.276   5.206   2.822  0.0773  0.0178 -0.5271
 4741TIP3    H114187   3.223   5.210   2.901  1.1601  1.3834  0.1695
 4741TIP3    H214188   3.292   5.113   2.808 -1.2919 -0.3268  0.0347
 4742TIP3   OH214189   0.417   4.808   5.469  0.5008  0.2174 -0.0361
 4742TIP3    H114190   0.492   4.754   5.443  1.1328  1.0259  0.0655
 4742TIP3    H214191   0.344   4.774   5.418  0.8905 -0.7077 -0.0027
 4743TIP3   OH214192   5.773   5.964   5.709 -0.0850  0.9238  0.1592
 4743TIP3    H114193   5.862   5.943   5.681 -0.3402 -0.1942  0.1345
 4743TIP3    H214194   5.732   6.003   5.631 -0.6806 -1.8232 -1.0279
 4744TIP3   OH214195   1.356   2.248   3.074 -0.0445 -0.2379  0.1878
 4744TIP3    H114196   1.430   2.292   3.032  0.3036 -1.5547 -0.6396
 4744TIP3    H214197   1.280   2.277   3.024 -0.0119  0.5135  0.5514
 4745TIP3   OH214198   4.172   5.044   5.668 -0.2182 -0.4383  0.1706
 4745TIP3    H114199   4.193   5.119   5.612 -1.8393 -1.4385 -1.9397
 4745TIP3    H214200   4.240   4.980   5.647 -1.0014 -0.9298 -0.9781
 4746TIP3   OH214201   1.406   4.224   4.225 -0.3351 -0.3785  0.0035
 4746TIP3    H114202   1.456   4.143   4.216 -0.7974 -0.6539 -0.1625
 4746TIP3    H214203   1.472   4.293   4.235  0.0550 -0.8651  0.9340
 4747TIP3   OH214204   3.876   2.280   3.636 -0.7197 -0.1708  0.0715
 4747TIP3    H114205   3.796   2.258   3.590 -1.2780  1.5363  0.1732
 4747TIP3    H214206   3.875   2.223   3.713 -1.0961 -1.1665 -0.6467
 4748TIP3   OH214207   2.985   1.210   2.802 -0.2150  0.2739  0.6569
 4748TIP3    H114208   2.902   1.173   2.833 -0.4944 -0.0999 -0.5147
 4748TIP3    H214209   2.962   1.259   2.723  0.9615 -1.4596 -0.8232
 4749TIP3   OH214210   0.519   1.651   1.227 -0.0316 -0.0372 -0.4762
 4749TIP3    H114211   0.433   1.627   1.194 -1.1506  0.0319  2.1226
 4749TIP3    H214212   0.550   1.573   1.274  0.2799  0.6597  0.5118
 4750TIP3   OH214213   2.085   6.683   2.375  0.2442 -0.1387 -0.0616
 4750TIP3    H114214   1.990   6.672   2.367  0.1941 -0.4417  0.8330
 4750TIP3    H214215   2.117   6.597   2.403  0.5290  0.4730  1.5998
 4751TIP3   OH214216   4.375   1.594   4.651 -0.1237  0.2646 -0.0896
 4751TIP3    H114217   4.296   1.604   4.598 -1.3814 -1.7790  1.2684
 4751TIP3    H214218   4.366   1.659   4.721 -0.1553  0.6200 -0.4199
 4752TIP3   OH214219   4.842   0.907   1.092  0.2639  0.8009 -0.2880
 4752TIP3    H114220   4.771   0.953   1.046 -0.6298 -0.3553 -0.1047
 4752TIP3    H214221   4.809   0.897   1.181  1.6223  2.2386  0.4195
 4753TIP3   OH214222   6.170   0.554   4.503 -0.2411 -0.5068 -0.1349
 4753TIP3    H114223   6.177   0.614   4.577  0.2735  0.5231 -0.9948
 4753TIP3    H214224   6.261   0.540   4.475 -0.4757 -0.3561 -0.9852
 4754TIP3   OH214225   6.470   0.249   3.995 -0.0892 -0.0839  0.3436
 4754TIP3    H114226   6.416   0.183   4.039 -0.3993 -0.2325 -0.2570
 4754TIP3    H214227   6.517   0.292   4.066 -1.4320  0.4498  0.9410
 4755TIP3   OH214228   4.613   5.416   5.463  0.5670  0.0597  0.3670
 4755TIP3    H114229   4.561   5.475   5.409  1.4920 -0.9508 -1.7368
 4755TIP3    H214230   4.700   5.416   5.422  1.1856 -1.1005  1.5862
 4756TIP3   OH214231   1.959   0.975   0.645 -0.0940 -0.2532  0.1229
 4756TIP3    H114232   1.870   0.941   0.649 -1.3686  2.8405  0.4366
 4756TIP3    H214233   1.999   0.948   0.727 -0.9258 -1.1783  0.2386
 4757TIP3   OH214234   6.083   0.605   1.397  0.1672  0.1135  0.2746
 4757TIP3    H114235   6.117   0.686   1.359  4.1020 -0.6998  1.5769
 4757TIP3    H214236   6.046   0.631   1.481  1.8100  0.5816  0.8839
 4758TIP3   OH214237   6.087   0.676   3.776  0.4615  0.5485 -0.0600
 4758TIP3    H114238   6.072   0.582   3.792 -1.9929  1.0941  1.3571
 4758TIP3    H214239   6.182   0.685   3.776  0.7685 -1.8824  0.1509
 4759TIP3   OH214240   3.433   4.364   4.536 -0.9418 -0.0824  0.1320
 4759TIP3    H114241   3.392   4.315   4.608  1.3317 -0.4610  1.2863
 4759TIP3    H214242   3.505   4.410   4.578  1.8271 -1.9548 -2.1547
 4760TIP3   OH214243   1.530   0.471   0.147  0.1784  0.2867 -0.6418
 4760TIP3    H114244   1.517   0.456   0.054 -0.2656  2.1874 -0.9197
 4760TIP3    H214245   1.443   0.491   0.181  0.2689 -0.7779  0.2862
 4761TIP3   OH214246   1.671   1.999   3.397  0.0308  0.2173  0.1971
 4761TIP3    H114247   1.619   1.982   3.318 -0.3521 -1.6886  0.8152
 4761TIP3    H214248   1.672   2.094   3.404 -0.6056  0.4123 -1.6513
 4762TIP3   OH214249   6.008   5.071   5.049 -0.1070  0.2870 -0.3757
 4762TIP3    H114250   6.031   5.159   5.020  0.0451  0.2270 -0.4388
 4762TIP3    H214251   6.042   5.065   5.138 -0.9218  0.6080 -0.0364
 4763TIP3   OH214252   2.401   1.872   3.660 -0.5888  0.4009  0.1000
 4763TIP3    H114253   2.370   1.893   3.748 -1.0231 -0.8678  0.2681
 4763TIP3    H214254   2.321   1.857   3.609 -0.3347  0.9205 -0.4697
 4764TIP3   OH214255   1.364   1.969   4.973  0.4486 -0.1496 -0.0244
 4764TIP3    H114256   1.276   1.972   5.011  0.3973 -2.9594  0.2815
 4764TIP3    H214257   1.353   2.001   4.884 -0.8510 -0.1782  0.1020
 4765TIP3   OH214258   0.860   1.185   4.007  0.2438  0.3056  0.0445
 4765TIP3    H114259   0.770   1.153   3.999  0.4779 -0.0135 -1.8036
 4765TIP3    H214260   0.901   1.125   4.069 -0.8652  0.6396  1.1507
 4766TIP3   OH214261   5.477   0.678   2.966  0.1647 -0.0994 -0.0521
 4766TIP3    H114262   5.521   0.758   2.937 -0.0277  0.5029  1.2345
 4766TIP3    H214263   5.499   0.613   2.899 -0.0192  1.1233 -1.3492
 4767TIP3   OH214264   6.670   3.552   2.688 -0.1896 -0.1001 -0.6549
 4767TIP3    H114265   6.594   3.565   2.745 -0.2731  1.4363 -1.0861
 4767TIP3    H214266   6.688   3.638   2.651  1.5724 -0.4985 -0.8223
 4768TIP3   OH214267   3.744   2.795   5.761  0.1793 -0.4207  0.5444
 4768TIP3    H114268   3.820   2.853   5.773  0.2498 -0.7380  1.7689
 4768TIP3    H214269   3.781   2.707   5.769 -0.3750 -0.5681  1.4938
 4769TIP3   OH214270   4.084   5.643   3.342 -0.3070  0.0195 -0.1730
 4769TIP3    H114271   4.063   5.706   3.411 -0.2469 -1.4404  1.2367
 4769TIP3    H214272   4.001   5.630   3.296 -0.2358  1.3737 -0.7418
 4770TIP3   OH214273   0.117   4.374   4.233  0.6014 -0.1156 -0.7366
 4770TIP3    H114274   0.080   4.302   4.183 -0.1295 -1.3640  1.4584
 4770TIP3    H214275   0.043   4.431   4.252  0.7942  0.1311 -0.7148
 4771TIP3   OH214276   6.964   6.202   1.883  0.1769 -0.0438 -0.1122
 4771TIP3    H114277   6.941   6.294   1.892 -0.0733 -0.0322 -0.8178
 4771TIP3    H214278   6.916   6.158   1.953 -1.2750  0.1014 -0.9894
 4772TIP3   OH214279   7.039   6.048   2.545 -0.4321 -0.2904 -0.2170
 4772TIP3    H114280   6.990   5.997   2.481  0.4595 -2.1762  0.5147
 4772TIP3    H214281   7.035   5.996   2.626  2.3201 -0.3216  0.0024
 4773TIP3   OH214282   5.680   4.912   4.079 -0.3043  0.1860  0.8351
 4773TIP3    H114283   5.633   4.867   4.150  0.0406 -0.8579  0.4206
 4773TIP3    H214284   5.682   4.847   4.008 -0.5759  1.1875 -0.1056
 4774TIP3   OH214285   5.942   0.721   4.947  0.3398 -0.2385  0.4576
 4774TIP3    H114286   5.917   0.788   5.011 -0.9532 -0.7473  0.5089
 4774TIP3    H214287   5.884   0.735   4.873  0.7561 -0.6633  0.0387
 4775TIP3   OH214288   2.050   0.146   3.327 -0.1550 -0.3052  0.0501
 4775TIP3    H114289   2.086   0.072   3.279  0.4511  0.5157 -0.7948
 4775TIP3    H214290   1.955   0.141   3.312 -0.2048 -1.3006  0.5960
 4776TIP3   OH214291   4.790   5.996   5.430  0.1051  0.3317 -0.6703
 4776TIP3    H114292   4.876   6.019   5.396  0.7819  0.5806  1.1258
 4776TIP3    H214293   4.807   5.925   5.492 -1.2655 -1.1274 -1.8671
 4777TIP3   OH214294   2.774   0.363   2.518 -0.1471 -0.2865 -0.3625
 4777TIP3    H114295   2.768   0.385   2.425  1.0406  0.8168 -0.2062
 4777TIP3    H214296   2.830   0.431   2.555 -0.3703 -0.8707  1.1159
 4778TIP3   OH214297   6.297   4.456   4.629  0.0426  0.1068  0.7446
 4778TIP3    H114298   6.356   4.403   4.577 -0.4544  0.7401 -0.5020
 4778TIP3    H214299   6.353   4.498   4.695  0.5430 -1.3767  1.3129
 4779TIP3   OH214300   3.384   0.109   0.421 -0.0266  0.0610 -0.1103
 4779TIP3    H114301   3.464   0.081   0.375  0.2012  0.6534 -0.0761
 4779TIP3    H214302   3.320   0.040   0.400  0.3220 -0.1214 -0.6113
 4780TIP3   OH214303   3.138   0.370   2.144 -0.1262 -0.4166  0.4695
 4780TIP3    H114304   3.231   0.389   2.138 -0.1156  0.0455  1.7135
 4780TIP3    H214305   3.131   0.277   2.125  0.7157 -0.6746  1.3573
 4781TIP3   OH214306   1.016   6.203   2.993 -0.2102  0.2339  0.1005
 4781TIP3    H114307   1.076   6.129   2.982 -2.0325 -0.9825 -2.7403
 4781TIP3    H214308   0.992   6.200   3.086  1.5181 -1.2987  0.5645
 4782TIP3   OH214309   1.186   5.360   5.330 -0.4972  0.1738 -0.7641
 4782TIP3    H114310   1.143   5.395   5.251 -0.4802 -1.2136 -1.4082
 4782TIP3    H214311   1.170   5.266   5.326 -1.1400  0.1639  1.3019
 4783TIP3   OH214312   0.969   4.185   2.578  0.2751  0.2443  0.4261
 4783TIP3    H114313   0.982   4.215   2.668 -1.3542  0.7484  0.5363
 4783TIP3    H214314   0.899   4.241   2.545  1.3349  0.5477 -1.4190
 4784TIP3   OH214315   6.516   1.719   1.122  0.3301 -0.2566  0.5435
 4784TIP3    H114316   6.425   1.748   1.127  0.4138  0.0132  0.5446
 4784TIP3    H214317   6.511   1.626   1.103  0.0604 -0.0963 -0.2008
 4785TIP3   OH214318   1.958   3.369   3.223  0.1686 -0.0967  0.3326
 4785TIP3    H114319   1.930   3.460   3.217  0.3511 -0.0532  0.1490
 4785TIP3    H214320   2.046   3.368   3.187 -0.2928 -0.5721 -0.8347
 4786TIP3   OH214321   2.467   6.423   4.383  0.5661 -0.3308 -0.1542
 4786TIP3    H114322   2.497   6.339   4.419  0.1784 -0.5503 -0.3465
 4786TIP3    H214323   2.463   6.481   4.459  4.1661  0.5398 -0.4289
 4787TIP3   OH214324   2.334   0.543   1.770  0.2313 -0.4379 -0.0597
 4787TIP3    H114325   2.370   0.529   1.858  0.6206 -0.4215 -0.2170
 4787TIP3    H214326   2.408   0.569   1.717  0.2799 -1.8230 -0.7237
 4788TIP3   OH214327   1.054   6.460   2.715  0.3433 -0.3319 -0.6751
 4788TIP3    H114328   1.137   6.498   2.686  0.5915  0.1092  0.5663
 4788TIP3    H214329   1.051   6.478   2.809 -1.4438  0.2363 -0.8037
 4789TIP3   OH214330   6.662   4.468   2.157 -0.1201  0.1852  0.3466
 4789TIP3    H114331   6.656   4.503   2.068  1.5710 -0.6173 -0.1367
 4789TIP3    H214332   6.750   4.430   2.162 -0.2226  0.0826  2.3251
 4790TIP3   OH214333   4.685   6.565   4.264  0.3422 -0.1679  0.2822
 4790TIP3    H114334   4.767   6.612   4.278 -0.4231  0.7358  2.1651
 4790TIP3    H214335   4.652   6.548   4.353 -1.5693 -0.3362 -0.4111
 4791TIP3   OH214336   4.390   5.016   3.134  1.0539 -0.4782 -0.9805
 4791TIP3    H114337   4.418   5.004   3.225 -2.1816 -1.5423  0.0107
 4791TIP3    H214338   4.406   4.931   3.093 -0.7943 -1.1990 -0.3206
 4792TIP3   OH214339   5.086   2.593   5.581 -0.1698 -0.4622 -0.0104
 4792TIP3    H114340   5.074   2.634   5.495 -1.1817  0.4255  0.5292
 4792TIP3    H214341   5.002   2.606   5.626 -0.4227 -2.8296  0.3387
 4793TIP3   OH214342   4.536   5.223   0.251 -0.0693  0.3607 -0.0108
 4793TIP3    H114343   4.468   5.276   0.211 -0.0906  0.4040  0.0849
 4793TIP3    H214344   4.508   5.210   0.341 -0.3990 -0.3713 -0.2132
 4794TIP3   OH214345   1.463   1.091   1.272 -0.2314 -0.1559  0.1829
 4794TIP3    H114346   1.399   1.100   1.200 -0.6605  0.1737  0.5924
 4794TIP3    H214347   1.424   1.025   1.330 -0.5487  0.5427  0.7831
 4795TIP3   OH214348   4.970   6.623   3.277 -0.0853 -0.5929 -0.1653
 4795TIP3    H114349   4.945   6.705   3.234  1.4065 -0.3396 -0.6249
 4795TIP3    H214350   4.978   6.646   3.370  1.8198  0.2285 -0.4732
 4796TIP3   OH214351   5.279   3.719   4.563  0.6474  0.2895 -0.0337
 4796TIP3    H114352   5.306   3.690   4.476  1.9784  0.4590  0.3092
 4796TIP3    H214353   5.233   3.801   4.547 -0.5691 -0.4755 -0.7154
 4797TIP3   OH214354   6.769   5.436   5.527  0.5553 -0.0363  0.6020
 4797TIP3    H114355   6.774   5.357   5.582  0.2379  0.1250  0.8613
 4797TIP3    H214356   6.857   5.444   5.490 -0.2187 -2.3234 -1.9955
 4798TIP3   OH214357   3.945   2.169   4.905  0.3446  0.4136 -0.1287
 4798TIP3    H114358   4.005   2.169   4.831  1.1237 -0.3325  0.4794
 4798TIP3    H214359   3.978   2.236   4.964  0.3421  0.2815  0.0235
 4799TIP3   OH214360   5.493   1.969   1.627 -0.7245  0.3344  0.1581
 4799TIP3    H114361   5.556   2.040   1.637  0.0038 -0.1321 -0.9202
 4799TIP3    H214362   5.496   1.922   1.710  0.5481  0.1754  0.0470
 4800TIP3   OH214363   6.671   0.620   1.982  0.1199 -0.8793 -0.6467
 4800TIP3    H114364   6.705   0.626   2.071  0.0137 -0.0110 -0.6552
 4800TIP3    H214365   6.597   0.559   1.989  1.5288 -2.6742 -0.6063
 4801TIP3   OH214366   0.012   2.976   2.454 -0.3927  0.4694  0.4472
 4801TIP3    H114367   0.091   2.929   2.481 -0.8056 -0.5397 -0.0517
 4801TIP3    H214368  -0.032   2.997   2.536 -1.9732 -3.1669  0.7038
 4802TIP3   OH214369   6.061   4.200   0.210  0.2531  0.2105  1.0804
 4802TIP3    H114370   6.136   4.147   0.183 -0.8287 -0.5194 -0.7318
 4802TIP3    H214371   5.986   4.142   0.198 -0.7730  1.4764  1.1423
 4803TIP3   OH214372   5.967   4.552   5.582 -0.3773  0.1674 -0.1310
 4803TIP3    H114373   6.005   4.470   5.614  3.2715  1.4755 -0.6333
 4803TIP3    H214374   5.948   4.535   5.490 -1.4409 -0.6419  0.2247
 4804TIP3   OH214375   5.164   3.809   4.204  0.9868 -0.2432 -0.2189
 4804TIP3    H114376   5.093   3.870   4.183  1.6597  1.0437  1.0108
 4804TIP3    H214377   5.122   3.737   4.250  0.3395 -0.0659 -0.5256
 4805TIP3   OH214378   2.827  -0.035   5.832  0.2215 -0.2096  0.0972
 4805TIP3    H114379   2.869   0.005   5.908  1.5983 -1.7350  0.1958
 4805TIP3    H214380   2.780   0.037   5.790  0.0372  0.8305  1.9525
 4806TIP3   OH214381   1.761   4.754   0.170 -0.2615 -0.2038 -0.0688
 4806TIP3    H114382   1.768   4.803   0.089  2.4610 -0.9530 -0.4168
 4806TIP3    H214383   1.729   4.668   0.144 -0.4379 -0.1004 -0.1880
 4807TIP3   OH214384   4.885   3.443   4.807  0.2758 -0.3183 -0.7424
 4807TIP3    H114385   4.881   3.440   4.712  0.3452  1.1475 -0.8174
 4807TIP3    H214386   4.958   3.502   4.826  0.3581 -0.7088  0.2276
 4808TIP3   OH214387   4.421   3.095   4.872 -0.3553 -0.4037 -0.1372
 4808TIP3    H114388   4.366   3.028   4.913  1.1783 -0.9953  1.0924
 4808TIP3    H214389   4.457   3.145   4.946  0.8027 -0.0925 -0.8727
 4809TIP3   OH214390   4.503   1.810   2.173 -0.1971 -0.1585  0.2023
 4809TIP3    H114391   4.476   1.763   2.094 -0.3820  0.1158  0.1019
 4809TIP3    H214392   4.588   1.848   2.150  0.0302 -0.5813  0.3402
 4810TIP3   OH214393   2.793   6.361   2.096  0.1020  0.0923  0.1312
 4810TIP3    H114394   2.880   6.400   2.091  0.7467 -1.3437 -0.3192
 4810TIP3    H214395   2.778   6.326   2.008 -1.1273  0.6776  0.0805
 4811TIP3   OH214396   3.532   6.313   5.845 -0.0848  0.0735 -0.2303
 4811TIP3    H114397   3.575   6.283   5.765  1.2364  0.2887  0.3748
 4811TIP3    H214398   3.442   6.282   5.836  0.3635 -1.0410 -1.1977
 4812TIP3   OH214399   1.787   3.201   5.348  0.2275  0.2133 -0.0626
 4812TIP3    H114400   1.878   3.226   5.362  0.2978  0.4885 -0.9588
 4812TIP3    H214401   1.759   3.164   5.432  0.6723  1.6237  0.7487
 4813TIP3   OH214402   1.137   1.213   3.672  0.1054 -0.2584  0.0194
 4813TIP3    H114403   1.088   1.262   3.606 -1.0343 -0.4791  0.6889
 4813TIP3    H214404   1.083   1.217   3.750  1.1024 -0.6276  0.7454
 4814TIP3   OH214405   5.427   1.703   5.275  0.0557 -0.0536 -0.1771
 4814TIP3    H114406   5.382   1.631   5.230  2.8829 -0.9222 -1.8776
 4814TIP3    H214407   5.399   1.696   5.366 -1.0431 -2.2399 -0.6116
 4815TIP3   OH214408   5.711   4.901   2.945 -0.0737  0.2460 -0.7447
 4815TIP3    H114409   5.665   4.889   2.862 -0.8813  0.0909 -0.2832
 4815TIP3    H214410   5.718   4.995   2.957 -0.5543  0.2718 -0.6666
 4816TIP3   OH214411   1.963   6.560   5.216  0.1048  0.2360  0.3893
 4816TIP3    H114412   1.927   6.477   5.185 -0.2557 -0.0725  1.5973
 4816TIP3    H214413   1.948   6.621   5.143  2.8980 -1.3469 -1.6936
 4817TIP3   OH214414   1.547   3.353   5.315  0.2128 -0.0543 -0.0642
 4817TIP3    H114415   1.541   3.413   5.390  0.7948  1.3094 -1.0718
 4817TIP3    H214416   1.635   3.315   5.322 -0.0139 -0.5185  0.3556
 4818TIP3   OH214417   1.502   2.984   2.520  0.3871 -0.3264  0.0821
 4818TIP3    H114418   1.561   3.039   2.468 -0.2267  0.1973 -0.0749
 4818TIP3    H214419   1.432   3.043   2.547  0.3600 -0.7457  0.9674
 4819TIP3   OH214420   0.725   3.188   3.866  0.0142 -0.3269  0.4535
 4819TIP3    H114421   0.788   3.152   3.929  1.1109 -0.4240 -0.6738
 4819TIP3    H214422   0.751   3.151   3.782 -1.0559  0.2835 -0.1695
 4820TIP3   OH214423   0.979   6.613   5.658  0.3060  0.6148  0.3888
 4820TIP3    H114424   0.946   6.691   5.614  0.2164  0.8849  0.9195
 4820TIP3    H214425   0.983   6.638   5.750  0.4253  0.0421  0.5436
 4821TIP3   OH214426   3.750   6.323   1.036  0.0246  0.1580  0.6140
 4821TIP3    H114427   3.726   6.237   1.003 -0.6413  0.4803  0.2377
 4821TIP3    H214428   3.831   6.346   0.989  1.0578 -0.8762  1.7954
 4822TIP3   OH214429   0.260   5.903   3.946  0.2436 -0.0969  0.0415
 4822TIP3    H114430   0.355   5.913   3.942  0.1021  1.6492  0.3323
 4822TIP3    H214431   0.230   5.924   3.857 -0.1270  3.5796  0.8572
 4823TIP3   OH214432   0.570   4.539   5.586  0.1723  0.2698  0.2957
 4823TIP3    H114433   0.556   4.545   5.491 -0.5339 -0.7890  0.3222
 4823TIP3    H214434   0.665   4.531   5.596  0.2057 -0.2158 -0.3569
 4824TIP3   OH214435   3.419   2.192   2.964  0.5084  0.2671  0.8564
 4824TIP3    H114436   3.396   2.217   2.874 -0.7193 -1.5809  0.5930
 4824TIP3    H214437   3.380   2.260   3.018 -0.9938  0.0707  0.0881
 4825TIP3   OH214438   0.772   2.063   5.387  0.2568  0.0858  0.1920
 4825TIP3    H114439   0.776   2.009   5.466  0.6009  0.7463  0.6363
 4825TIP3    H214440   0.861   2.060   5.352 -0.0481 -0.7548 -0.5615
 4826TIP3   OH214441   6.601   0.352   0.452 -0.6769 -0.2382 -0.2756
 4826TIP3    H114442   6.653   0.433   0.456  0.4314 -0.8771 -1.1964
 4826TIP3    H214443   6.619   0.308   0.535 -3.8918  1.9108  1.8136
 4827TIP3   OH214444   2.224   5.442   0.103  0.9939  1.0890  0.1989
 4827TIP3    H114445   2.192   5.399   0.182 -0.8256  1.5095 -0.2673
 4827TIP3    H214446   2.317   5.417   0.098  0.6054 -0.7474  1.2568
 4828TIP3   OH214447   3.425   1.292   4.239  0.5094  0.3079  0.3042
 4828TIP3    H114448   3.513   1.303   4.204  0.6025  1.3692  0.8395
 4828TIP3    H214449   3.374   1.363   4.201 -0.0080 -0.0303  0.3478
 4829TIP3   OH214450   2.692   6.250   0.553  0.4239  0.6229  0.4091
 4829TIP3    H114451   2.696   6.269   0.459 -1.3225 -0.0064  0.1754
 4829TIP3    H214452   2.664   6.159   0.558  0.4171  0.6705  1.5446
 4830TIP3   OH214453   4.841   1.790   1.381 -0.3452 -0.5898  0.2322
 4830TIP3    H114454   4.791   1.815   1.303 -0.1458  1.7555  0.7733
 4830TIP3    H214455   4.779   1.797   1.453  0.9073  4.1704  1.1906
 4831TIP3   OH214456   5.382   1.868   4.373  0.2219 -0.2592  0.1540
 4831TIP3    H114457   5.313   1.801   4.381 -1.0348  0.7703 -1.4176
 4831TIP3    H214458   5.443   1.832   4.309 -1.3076  0.6835 -1.9503
 4832TIP3   OH214459   3.263   0.918   0.143  0.4722  0.1219  0.1626
 4832TIP3    H114460   3.313   0.848   0.101 -1.5725 -1.0205 -0.5079
 4832TIP3    H214461   3.220   0.963   0.070 -1.9553 -0.9526  0.8535
 4833TIP3   OH214462   2.966   3.478   1.266  0.2988 -0.3040 -0.2475
 4833TIP3    H114463   3.043   3.509   1.218  0.2770 -2.2375 -1.6460
 4833TIP3    H214464   2.897   3.471   1.201 -0.0821 -1.8263  0.2586
 4834TIP3   OH214465   3.621   6.578   0.463 -0.3042  0.7035 -0.6689
 4834TIP3    H114466   3.635   6.596   0.556 -1.7945  0.6876 -0.4179
 4834TIP3    H214467   3.537   6.532   0.460 -1.2915  2.4803 -2.1875
 4835TIP3   OH214468   0.821   0.068   5.819 -0.2613 -0.0945 -0.1673
 4835TIP3    H114469   0.751   0.009   5.848  0.5590 -0.4119  1.2506
 4835TIP3    H214470   0.882   0.012   5.771 -0.2841 -0.0922 -0.1988
 4836TIP3   OH214471   5.467   5.607   5.397  0.0354  0.1801 -0.7169
 4836TIP3    H114472   5.379   5.590   5.430 -0.4233 -0.5957 -2.2711
 4836TIP3    H214473   5.519   5.532   5.426 -0.0417  0.1678 -0.6116
 4837TIP3   OH214474   3.869   2.597   3.803 -0.1430 -0.1713 -0.3435
 4837TIP3    H114475   3.809   2.668   3.824 -1.3687 -0.7919 -1.5712
 4837TIP3    H214476   3.842   2.567   3.716  0.2421 -2.2079  0.1751
 4838TIP3   OH214477   6.098   5.214   0.766 -0.0407 -0.1495 -0.1025
 4838TIP3    H114478   6.149   5.249   0.840  0.4356  0.9024 -0.9065
 4838TIP3    H214479   6.082   5.123   0.790  1.4610 -0.2696  0.5800
 4839TIP3   OH214480   4.931   4.126   0.917  0.0935  0.2067  0.1653
 4839TIP3    H114481   4.853   4.098   0.964  0.7110 -2.1632 -0.0786
 4839TIP3    H214482   4.899   4.187   0.850 -1.3437  0.2511  0.8564
 4840TIP3   OH214483   0.031   2.431   3.910  0.5543  0.4391 -0.2070
 4840TIP3    H114484   0.073   2.452   3.827  0.9969  0.3952  0.0027
 4840TIP3    H214485  -0.058   2.405   3.886  0.1571  2.0245 -0.5098
 4841TIP3   OH214486   1.021   2.509   1.643  0.3300  0.0160  0.0144
 4841TIP3    H114487   1.037   2.573   1.712  0.5372 -1.8132  1.7484
 4841TIP3    H214488   0.927   2.515   1.626  0.2382  0.3119  0.6079
 4842TIP3   OH214489   7.110   6.636   0.551 -0.5365  0.3302  0.1642
 4842TIP3    H114490   7.146   6.565   0.604 -0.7060  0.1031 -0.0181
 4842TIP3    H214491   7.022   6.651   0.587 -0.2453  0.9148  0.6388
 4843TIP3   OH214492   2.744   5.484   0.591 -0.2869 -0.1363 -0.1629
 4843TIP3    H114493   2.809   5.551   0.572 -1.7589  1.5721  0.5407
 4843TIP3    H214494   2.689   5.523   0.659 -0.7739 -2.3547  0.7920
 4844TIP3   OH214495   5.423   1.405   4.465  0.1291  0.0107  0.0729
 4844TIP3    H114496   5.354   1.403   4.532 -0.2995  0.3245 -0.3462
 4844TIP3    H214497   5.474   1.326   4.481 -0.4194 -0.3063  0.3057
 4845TIP3   OH214498   6.796   0.751   1.611 -0.2395  0.2196  0.3249
 4845TIP3    H114499   6.865   0.762   1.545  0.1048 -0.3027  0.5922
 4845TIP3    H214500   6.804   0.829   1.667 -1.0765  1.0962 -0.7209
 4846TIP3   OH214501   1.796   1.200   3.595 -0.1238 -0.1648  0.3197
 4846TIP3    H114502   1.791   1.282   3.545 -2.4203 -0.1405  0.4754
 4846TIP3    H214503   1.882   1.202   3.635  0.2288  1.7553 -0.4022
 4847TIP3   OH214504   5.915   2.830   0.393 -0.0617  0.3617 -0.3389
 4847TIP3    H114505   5.993   2.834   0.448 -0.6825 -0.0289  0.5963
 4847TIP3    H214506   5.864   2.906   0.418 -0.4141  0.1049 -0.2678
 4848TIP3   OH214507   0.656   2.035   3.461  0.4332 -0.7325  0.2509
 4848TIP3    H114508   0.582   1.983   3.494 -0.2123  0.5399  0.8978
 4848TIP3    H214509   0.635   2.049   3.368 -0.4194  0.0082  0.5293
 4849TIP3   OH214510   4.792   1.482   5.179 -0.0099  0.3419 -0.3742
 4849TIP3    H114511   4.820   1.444   5.263 -1.4711 -1.6886 -0.7314
 4849TIP3    H214512   4.833   1.426   5.113 -2.6415 -1.0959 -0.9097
 4850TIP3   OH214513   3.415   6.258   2.376 -0.0527  0.4171  0.4859
 4850TIP3    H114514   3.326   6.225   2.363  0.3654 -0.4302 -0.4054
 4850TIP3    H214515   3.442   6.222   2.461 -0.5333  0.6286  0.7292
 4851TIP3   OH214516   4.741   2.335   5.727  0.4713 -0.0548  0.2562
 4851TIP3    H114517   4.719   2.398   5.796  0.0610  0.6653 -0.5160
 4851TIP3    H214518   4.770   2.257   5.775 -1.7572 -0.3281  1.3085
 4852TIP3   OH214519   2.403   2.001   2.484 -0.4737  0.0812 -0.6054
 4852TIP3    H114520   2.382   1.926   2.429  0.1051 -1.4805  1.1696
 4852TIP3    H214521   2.460   2.056   2.431  1.0820 -1.9722 -1.1958
 4853TIP3   OH214522   2.743   5.702   4.242 -0.2523 -0.3112 -0.1939
 4853TIP3    H114523   2.716   5.641   4.174 -1.2045  0.3589 -0.4443
 4853TIP3    H214524   2.674   5.768   4.243  0.6616  0.6700  0.1779
 4854TIP3   OH214525   1.339   1.438   5.003 -0.1175 -0.3759  0.0571
 4854TIP3    H114526   1.312   1.528   5.020  0.3056 -0.1530 -0.4244
 4854TIP3    H214527   1.275   1.385   5.050  1.3938  0.1642  2.9910
 4855TIP3   OH214528   5.561   2.422   0.557 -0.1935 -0.2313 -0.0272
 4855TIP3    H114529   5.579   2.515   0.570  1.1197 -0.5778  0.8537
 4855TIP3    H214530   5.576   2.407   0.463 -0.3222  0.4133 -0.1528
 4856TIP3   OH214531   2.177   5.430   4.084  0.2769  0.1884 -0.2503
 4856TIP3    H114532   2.141   5.419   3.996 -0.0987  0.0697 -0.0837
 4856TIP3    H214533   2.272   5.429   4.071  0.2314 -0.4856 -0.5791
 4857TIP3   OH214534   1.252   4.501   2.819  0.2344 -0.3357 -0.0289
 4857TIP3    H114535   1.346   4.487   2.831  0.3413 -0.2391 -0.7190
 4857TIP3    H214536   1.235   4.475   2.728  0.1038  2.1030 -0.7725
 4858TIP3   OH214537   6.524   3.250   2.977  0.2404  0.1970 -0.1645
 4858TIP3    H114538   6.613   3.217   2.963  0.5348  1.4072 -1.2472
 4858TIP3    H214539   6.535   3.343   2.994 -0.7377  0.1308  0.9495
 4859TIP3   OH214540   5.652   0.380   4.328 -0.3259  0.3950 -0.1848
 4859TIP3    H114541   5.559   0.375   4.305 -0.3639  1.3998 -0.2776
 4859TIP3    H214542   5.693   0.424   4.254 -0.2193  2.3554  0.9656
 4860TIP3   OH214543   0.761   1.343   1.695 -0.0935 -0.8804 -0.9424
 4860TIP3    H114544   0.795   1.412   1.639  0.1025 -1.0346 -1.0164
 4860TIP3    H214545   0.711   1.286   1.636 -0.2413 -0.8095 -0.8848
 4861TIP3   OH214546   2.887   6.738   2.648  0.0509 -0.2695  0.1106
 4861TIP3    H114547   2.908   6.746   2.555  4.0419 -0.7179  0.8249
 4861TIP3    H214548   2.834   6.816   2.667 -0.1977  0.2417 -2.3192
 4862TIP3   OH214549   1.771   0.420   3.264  0.2961 -0.1786 -0.2456
 4862TIP3    H114550   1.707   0.366   3.219 -1.8065  1.9671 -0.0238
 4862TIP3    H214551   1.855   0.396   3.225 -0.6535 -2.7290 -0.8994
 4863TIP3   OH214552   0.353   0.843   4.381  0.2870 -0.5790  0.0232
 4863TIP3    H114553   0.337   0.799   4.464  0.4865 -0.2034  0.2652
 4863TIP3    H214554   0.448   0.859   4.380  0.0958  0.6485  0.3536
 4864TIP3   OH214555   4.591   0.600   0.755  0.0620 -0.2668  0.3503
 4864TIP3    H114556   4.595   0.616   0.661  3.3865 -0.8696  0.2605
 4864TIP3    H214557   4.563   0.684   0.792 -0.4596  0.2343 -1.0941
 4865TIP3   OH214558   2.613   2.469   3.557  0.3020  0.2710  0.1547
 4865TIP3    H114559   2.690   2.413   3.554  1.7577  2.0752  1.6394
 4865TIP3    H214560   2.622   2.527   3.481  0.6122  0.7387  0.5486
 4866TIP3   OH214561   3.868   0.664   0.699  0.2159 -0.7648  0.4057
 4866TIP3    H114562   3.837   0.741   0.747  1.2764 -0.1837  0.2169
 4866TIP3    H214563   3.963   0.666   0.712  0.1764 -2.7238  1.3713
 4867TIP3   OH214564   2.139   2.892   2.380  0.8346 -0.8116  0.1936
 4867TIP3    H114565   2.187   2.884   2.462  2.4256  1.8272 -0.3735
 4867TIP3    H214566   2.120   2.985   2.372 -2.4846 -1.4235 -0.7606
 4868TIP3   OH214567   6.017   2.887   3.884 -0.1291 -0.2102 -0.4645
 4868TIP3    H114568   5.979   2.960   3.836  1.0678  0.3172 -0.6481
 4868TIP3    H214569   6.011   2.913   3.976  2.3888  1.2328 -0.6264
 4869TIP3   OH214570   6.672   3.620   2.287  0.5242 -0.3392 -0.4166
 4869TIP3    H114571   6.748   3.666   2.325 -0.3615  0.5055  0.3961
 4869TIP3    H214572   6.656   3.664   2.204  0.3688  0.0861 -0.1629
 4870TIP3   OH214573   1.702   6.021   4.584  0.1691  0.0911 -0.2496
 4870TIP3    H114574   1.672   5.936   4.552 -1.7018  0.1721  1.1360
 4870TIP3    H214575   1.790   6.031   4.547 -0.6051 -1.2200 -2.6360
 4871TIP3   OH214576   3.227   5.691   1.459 -0.1362 -0.2243 -0.2199
 4871TIP3    H114577   3.257   5.616   1.511 -1.7176 -0.4482  0.4007
 4871TIP3    H214578   3.199   5.756   1.524 -2.0526 -0.4657 -0.7468
 4872TIP3   OH214579   0.282   3.892   0.492  0.4004  0.0800 -0.4018
 4872TIP3    H114580   0.268   3.962   0.428  1.3519 -0.2469 -0.9905
 4872TIP3    H214581   0.280   3.812   0.441  0.1709 -0.2667  0.1399
 4873TIP3   OH214582   0.468   6.195   1.347 -0.1145  0.1188 -0.1676
 4873TIP3    H114583   0.518   6.114   1.343 -2.5113 -1.4404 -1.7574
 4873TIP3    H214584   0.514   6.255   1.288  1.4681 -0.1672  0.7237
 4874TIP3   OH214585   0.352   1.159   2.006 -0.0522  0.1996  0.1684
 4874TIP3    H114586   0.446   1.181   2.013 -0.4775  1.8520  1.4609
 4874TIP3    H214587   0.327   1.191   1.920  0.8184 -1.3616 -0.6910
 4875TIP3   OH214588   6.292   4.966   5.497 -0.0657  0.2573 -0.4321
 4875TIP3    H114589   6.230   5.014   5.442 -0.7619  0.9387  0.8890
 4875TIP3    H214590   6.250   4.883   5.515 -0.7805  0.8376  0.7115
 4876TIP3   OH214591   0.328   3.100   2.301 -0.3287  0.3876 -0.0479
 4876TIP3    H114592   0.327   3.184   2.346 -2.0275  0.6302 -0.4536
 4876TIP3    H214593   0.415   3.093   2.263 -0.5329  2.5398 -1.0264
 4877TIP3   OH214594   1.191   6.147   1.788  0.2522  0.1117  0.5155
 4877TIP3    H114595   1.113   6.145   1.843 -0.0555 -0.8262  0.0727
 4877TIP3    H214596   1.264   6.148   1.849 -0.1040  0.7107  0.9353
 4878TIP3   OH214597   5.040   1.663   5.686 -0.5689 -0.0639  0.4546
 4878TIP3    H114598   5.058   1.582   5.733  0.3812 -0.6375 -0.8168
 4878TIP3    H214599   4.947   1.660   5.666 -0.6034 -0.6970  0.7063
 4879TIP3   OH214600   1.181   2.577   3.906  0.0210 -0.3703 -0.0896
 4879TIP3    H114601   1.234   2.628   3.845  0.5902 -3.3638 -2.3471
 4879TIP3    H214602   1.103   2.553   3.855 -1.1159 -0.2835  1.5124
 4880TIP3   OH214603   6.695   1.946   1.101 -0.1706 -0.1714  0.6724
 4880TIP3    H114604   6.643   1.877   1.143 -2.0520  0.7422 -0.0445
 4880TIP3    H214605   6.633   2.018   1.089  1.6798  1.5759  1.1749
 4881TIP3   OH214606   2.856   2.385   3.471 -0.5789  0.1907  0.2229
 4881TIP3    H114607   2.914   2.406   3.544 -0.2360  0.6031 -0.1678
 4881TIP3    H214608   2.899   2.312   3.427 -0.5391  0.2612  0.1452
 4882TIP3   OH214609   3.692   2.325   4.027  0.0449 -0.3405  0.1159
 4882TIP3    H114610   3.702   2.254   4.091  0.8573  1.6841  2.3855
 4882TIP3    H214611   3.778   2.366   4.024  0.1008 -0.4756 -2.5398
 4883TIP3   OH214612   1.084   2.800   5.499 -0.0366 -0.3807 -0.0802
 4883TIP3    H114613   1.139   2.746   5.442 -0.9077 -0.5541 -0.7776
 4883TIP3    H214614   1.076   2.883   5.452 -2.2709 -1.1321 -1.1808
 4884TIP3   OH214615   1.232   5.890   0.110 -0.0996 -0.1951 -0.8513
 4884TIP3    H114616   1.316   5.905   0.068  0.1067 -0.3801 -0.5040
 4884TIP3    H214617   1.169   5.938   0.055  0.2997  0.3823 -0.8071
 4885TIP3   OH214618   3.092   4.388   5.019  1.0550 -0.6459 -0.8486
 4885TIP3    H114619   3.116   4.435   5.099  1.6451  0.2036 -1.5073
 4885TIP3    H214620   3.125   4.299   5.033  0.8267 -0.6028  0.0019
 4886TIP3   OH214621   3.258   6.757   0.805 -0.2147  0.9454  0.1417
 4886TIP3    H114622   3.207   6.688   0.846  1.3962 -0.2067  0.3098
 4886TIP3    H214623   3.204   6.835   0.813 -1.9877 -0.2328  0.1602
 4887TIP3   OH214624   7.044   1.378   5.709 -0.3899  0.5700 -0.0122
 4887TIP3    H114625   7.036   1.284   5.725 -2.1600  0.8209  0.8283
 4887TIP3    H214626   7.039   1.418   5.796  1.7684  1.4053 -0.2093
 4888TIP3   OH214627   4.414   2.627   1.308  0.2264 -0.0325 -0.6649
 4888TIP3    H114628   4.504   2.620   1.337 -0.1616 -1.7932  0.2594
 4888TIP3    H214629   4.420   2.656   1.217  1.6470  1.0014 -0.2676
 4889TIP3   OH214630   0.845   3.959   3.725  0.1076 -0.3150  0.0047
 4889TIP3    H114631   0.898   4.029   3.764  0.6641  0.3467 -1.8593
 4889TIP3    H214632   0.758   3.999   3.713  0.2176 -0.1879 -0.3685
 4890TIP3   OH214633   0.654   4.094   1.683  0.3383  0.1248 -0.1717
 4890TIP3    H114634   0.590   4.076   1.614 -0.1480 -0.3744  0.3951
 4890TIP3    H214635   0.609   4.069   1.764  1.2843 -0.3272  0.2291
 4891TIP3   OH214636   2.325   0.100   0.059 -0.2579 -1.0560 -0.1270
 4891TIP3    H114637   2.346   0.193   0.067 -0.6040 -1.0762  1.4332
 4891TIP3    H214638   2.304   0.073   0.149  0.3893 -2.7720 -0.4614
 4892TIP3   OH214639   5.981   1.501   4.356 -0.2628 -0.3904 -0.2957
 4892TIP3    H114640   5.973   1.457   4.440  0.8352  1.1828  0.6738
 4892TIP3    H214641   5.910   1.565   4.355 -0.0504 -0.1551 -0.4070
 4893TIP3   OH214642   3.977   1.642   3.398 -0.0703  0.1787 -0.1771
 4893TIP3    H114643   4.023   1.725   3.392 -0.4865  0.3730 -0.8018
 4893TIP3    H214644   3.991   1.612   3.488 -1.3114  1.7259  0.5625
 4894TIP3   OH214645   1.771   0.245   5.582  0.4462 -0.2779  0.0839
 4894TIP3    H114646   1.811   0.177   5.636 -1.6571 -2.3143 -0.7367
 4894TIP3    H214647   1.715   0.197   5.521  1.0685  2.0713 -2.5056
 4895TIP3   OH214648   2.608   0.657   3.699  0.3592  0.0302  0.4678
 4895TIP3    H114649   2.640   0.745   3.679  1.8198 -0.1834  1.6857
 4895TIP3    H214650   2.523   0.672   3.742 -0.8440  0.6509 -1.9214
 4896TIP3   OH214651   0.580   2.555   3.630 -0.5222  0.4295  0.2360
 4896TIP3    H114652   0.546   2.536   3.542 -2.2482 -0.5139  1.0527
 4896TIP3    H214653   0.544   2.642   3.650 -2.3135 -0.4213  0.9613
 4897TIP3   OH214654   6.912   4.986   3.091  0.2443  0.1938  0.2262
 4897TIP3    H114655   6.928   4.918   3.025  2.0669  2.0437 -1.3876
 4897TIP3    H214656   6.838   4.953   3.141  0.1159 -2.2979 -1.3859
 4898TIP3   OH214657   4.060   6.045   0.864 -0.1863 -0.2809  0.5320
 4898TIP3    H114658   4.155   6.044   0.856 -0.3044  0.6954 -1.4116
 4898TIP3    H214659   4.032   6.122   0.816 -1.9286 -0.0093  1.8668
 4899TIP3   OH214660   2.984   5.336   2.004  0.3134 -0.0521 -0.2557
 4899TIP3    H114661   3.001   5.426   2.032  0.1978 -0.1236  0.0476
 4899TIP3    H214662   3.043   5.283   2.058  1.2385 -0.0766 -1.2451
 4900TIP3   OH214663   6.882   3.749   1.787  0.1072  0.2772  0.0763
 4900TIP3    H114664   6.888   3.659   1.817 -1.4626  0.1052 -0.0380
 4900TIP3    H214665   6.966   3.788   1.811  0.1893 -0.7647  1.6037
 4901TIP3   OH214666   1.721   5.572   0.884 -0.0137  0.2422  0.1226
 4901TIP3    H114667   1.695   5.542   0.971  0.3495 -0.8538 -0.1451
 4901TIP3    H214668   1.641   5.563   0.832  0.3817 -1.4199 -0.2488
 4902TIP3   OH214669   2.168   4.123   3.401 -0.0116 -0.4366  0.2962
 4902TIP3    H114670   2.092   4.173   3.431 -0.2690 -1.7676  2.0049
 4902TIP3    H214671   2.239   4.148   3.459 -0.1150 -1.8981  1.1065
 4903TIP3   OH214672   3.430   0.301   4.732 -0.1638  0.1715  0.1875
 4903TIP3    H114673   3.375   0.245   4.678 -0.8982  0.2064  0.8790
 4903TIP3    H214674   3.426   0.262   4.820  1.2049 -0.0309  0.1898
 4904TIP3   OH214675   6.734   1.959   4.985 -0.3113  0.5514 -0.3146
 4904TIP3    H114676   6.816   1.968   4.936  0.5559 -2.2547  0.4422
 4904TIP3    H214677   6.731   2.036   5.041  1.3195  1.2103 -1.0637
 4905TIP3   OH214678   2.269   1.764   5.852  0.3653 -0.1773 -0.1224
 4905TIP3    H114679   2.211   1.787   5.924 -0.7394 -0.2586 -0.9475
 4905TIP3    H214680   2.214   1.710   5.794  1.3143 -0.3755 -0.8646
 4906TIP3   OH214681   4.344   2.346   1.954  0.3302  0.3604 -0.0159
 4906TIP3    H114682   4.382   2.376   1.871 -1.2090  1.9412 -0.2157
 4906TIP3    H214683   4.405   2.376   2.021  0.9720  0.1485 -0.5001
 4907TIP3   OH214684   4.244   3.354   0.107 -0.5237 -0.2216 -0.2999
 4907TIP3    H114685   4.214   3.265   0.088 -0.1297 -0.3682 -0.2422
 4907TIP3    H214686   4.175   3.391   0.164 -1.6287  0.1667 -1.8273
 4908TIP3   OH214687   2.935   4.316   1.470 -0.2772 -0.1341 -0.2467
 4908TIP3    H114688   2.964   4.407   1.461  0.0688 -0.0143  1.6857
 4908TIP3    H214689   2.846   4.316   1.434 -0.3728  1.0354 -0.0447
 4909TIP3   OH214690   1.778   2.361   1.761  0.6135 -0.4026 -0.0805
 4909TIP3    H114691   1.734   2.277   1.761 -2.7188  1.1072  2.5274
 4909TIP3    H214692   1.831   2.360   1.841  0.1818  0.1214  0.2170
 4910TIP3   OH214693   6.320   1.489   4.274 -0.3234 -0.3336 -0.1097
 4910TIP3    H114694   6.228   1.514   4.286 -0.0052  1.6069 -1.2493
 4910TIP3    H214695   6.317   1.405   4.230 -1.5968  0.4421 -1.5877
 4911TIP3   OH214696   4.534   5.927   1.320  0.4702  0.1239 -0.4988
 4911TIP3    H114697   4.618   5.973   1.318  1.6069 -1.8369 -0.7021
 4911TIP3    H214698   4.544   5.862   1.390 -1.3552  0.6371  0.3060
 4912TIP3   OH214699   1.859   1.542   1.339  0.4206  0.1226  0.6609
 4912TIP3    H114700   1.806   1.492   1.277  1.0944  0.1707  0.0309
 4912TIP3    H214701   1.947   1.539   1.303  0.7069  0.6883  1.2932
 4913TIP3   OH214702   6.419   3.432   4.734  0.1991 -0.0230 -0.0239
 4913TIP3    H114703   6.392   3.513   4.691  0.2834 -0.7884 -1.5724
 4913TIP3    H214704   6.441   3.459   4.824  1.2911  1.8618 -0.7951
 4914TIP3   OH214705   4.567   6.013   0.739  0.3782 -0.1492  0.1823
 4914TIP3    H114706   4.636   6.077   0.725  0.3614 -0.2547 -0.4064
 4914TIP3    H214707   4.605   5.948   0.798  0.2017  0.7044  1.2738
 4915TIP3   OH214708   1.395   3.868   4.849  0.6429 -0.2076  0.1018
 4915TIP3    H114709   1.473   3.864   4.904  0.7101  1.1887  0.1642
 4915TIP3    H214710   1.382   3.779   4.818  0.6434 -1.0163  2.3040
 4916TIP3   OH214711   6.037   1.730   5.275  0.3756 -0.0572  0.5346
 4916TIP3    H114712   6.009   1.725   5.183 -1.4468  0.6140  1.0146
 4916TIP3    H214713   6.111   1.670   5.280  0.8902  0.3220 -1.5014
 4917TIP3   OH214714   4.896   4.826   2.991  0.5615 -0.6859 -0.3425
 4917TIP3    H114715   4.944   4.773   3.055  0.3339  0.1470  0.5374
 4917TIP3    H214716   4.847   4.762   2.939  0.3597 -1.3456  0.6479
 4918TIP3   OH214717   4.633   5.786   2.956  0.0416 -0.3104 -0.4593
 4918TIP3    H114718   4.634   5.779   3.052  0.6238  1.4678 -0.2997
 4918TIP3    H214719   4.575   5.715   2.928 -1.2107 -0.0636  1.2886
 4919TIP3   OH214720   3.907   0.993   1.392 -0.6688 -0.4557 -0.2550
 4919TIP3    H114721   3.850   0.927   1.353  1.2252 -2.3953  0.0302
 4919TIP3    H214722   3.995   0.955   1.385  0.3728  1.5651  0.9563
 4920TIP3   OH214723   1.633   5.854   1.786  0.5153 -0.3405 -0.1350
 4920TIP3    H114724   1.633   5.934   1.840  0.3482  0.3937 -1.1876
 4920TIP3    H214725   1.696   5.873   1.716  1.5630 -1.7065  0.3924
 4921TIP3   OH214726   4.466   5.699   3.627  0.1937 -0.7489 -0.1787
 4921TIP3    H114727   4.524   5.623   3.624 -1.2948 -1.9277  0.1311
 4921TIP3    H214728   4.501   5.759   3.561  1.7073 -1.4489 -0.0478
 4922TIP3   OH214729   5.693   3.697   3.804 -0.2160 -0.2533  0.1782
 4922TIP3    H114730   5.709   3.677   3.712 -2.0319 -2.5859  0.2869
 4922TIP3    H214731   5.779   3.691   3.845  0.4928  0.0160 -1.2252
 4923TIP3   OH214732   6.938   3.845   0.782  0.3974 -0.5444 -0.2067
 4923TIP3    H114733   6.846   3.872   0.787  0.4680  0.0720 -1.6198
 4923TIP3    H214734   6.952   3.792   0.860 -0.6474  0.8761  0.9965
 4924TIP3   OH214735   3.961   6.118   2.677 -0.4552 -0.2368  0.0064
 4924TIP3    H114736   3.884   6.167   2.705  0.2954  1.3110 -0.5352
 4924TIP3    H214737   3.989   6.161   2.596  0.7632 -0.9944 -0.0073
 4925TIP3   OH214738   2.020   1.764   2.986  0.3626 -0.2589 -0.2042
 4925TIP3    H114739   2.116   1.762   2.993  0.4382 -0.8646 -1.2421
 4925TIP3    H214740   1.998   1.692   2.928 -0.7902 -0.5181  0.5139
 4926TIP3   OH214741   0.133   1.619   0.367  0.0288 -0.0910 -0.6177
 4926TIP3    H114742   0.092   1.552   0.421  0.4524 -0.9442 -1.3194
 4926TIP3    H214743   0.059   1.672   0.335 -0.3679 -0.5706 -0.5120
 4927TIP3   OH214744   4.015   1.576   0.486  0.2137 -0.0270  0.3532
 4927TIP3    H114745   3.963   1.499   0.465  0.9280  0.0117 -1.9084
 4927TIP3    H214746   4.102   1.541   0.507  0.6549  0.1267 -1.0941
 4928TIP3   OH214747   3.399   5.721   2.060  0.1340 -0.4756  0.2420
 4928TIP3    H114748   3.354   5.772   2.127  0.4701 -1.3852  1.1908
 4928TIP3    H214749   3.348   5.736   1.980 -1.1138 -0.4843  1.0028
 4929TIP3   OH214750   0.188   6.421   3.435 -0.0506  0.0775  0.2754
 4929TIP3    H114751   0.249   6.347   3.435 -0.5038 -0.3110  0.6927
 4929TIP3    H214752   0.210   6.470   3.514  0.3649  0.4888 -0.0951
 4930TIP3   OH214753   1.544   0.759   1.363  0.3065 -0.2134  0.0414
 4930TIP3    H114754   1.452   0.779   1.347 -0.0592 -0.0791  2.0860
 4930TIP3    H214755   1.558   0.674   1.322 -0.4907  0.1244 -0.9698
 4931TIP3   OH214756   0.341   3.680   0.287 -0.2036  0.5852 -0.0903
 4931TIP3    H114757   0.340   3.601   0.234 -1.8761  0.0583  0.6511
 4931TIP3    H214758   0.336   3.752   0.223 -0.3227  0.0377 -0.7073
 4932TIP3   OH214759   3.180   0.407   3.435 -0.3614 -0.1238  0.1962
 4932TIP3    H114760   3.235   0.469   3.388 -0.4506 -0.6474 -0.6214
 4932TIP3    H214761   3.095   0.412   3.390 -0.3426 -0.8938  0.0686
 4933TIP3   OH214762   0.406   0.244   1.311  0.3510 -0.2059 -0.2269
 4933TIP3    H114763   0.395   0.188   1.387  2.0850  0.6464  0.7079
 4933TIP3    H214764   0.343   0.316   1.325 -0.9590 -1.1891 -0.7975
 4934TIP3   OH214765   4.840   3.759   3.314  0.4304 -0.2448 -0.4335
 4934TIP3    H114766   4.885   3.719   3.389 -0.8929 -0.2391  0.3995
 4934TIP3    H214767   4.848   3.853   3.328 -1.2668 -0.2270  0.6534
 4935TIP3   OH214768   7.058   0.262   0.138 -0.0323  0.9428 -0.1967
 4935TIP3    H114769   7.014   0.208   0.072  0.4699 -0.1820  0.3602
 4935TIP3    H214770   7.015   0.239   0.220  1.9526 -0.6854  0.4669
 4936TIP3   OH214771   5.804   2.094   4.847 -0.1560  0.2827 -0.0105
 4936TIP3    H114772   5.729   2.122   4.795 -0.0814 -0.3375 -0.4626
 4936TIP3    H214773   5.872   2.159   4.828 -0.3125  0.3755 -0.2538
 4937TIP3   OH214774   4.932   2.481   1.506 -0.1775 -0.5811  0.2489
 4937TIP3    H114775   5.010   2.521   1.543  0.7873 -1.2129 -1.0362
 4937TIP3    H214776   4.963   2.434   1.428 -1.8372 -0.8045 -0.3218
 4938TIP3   OH214777   0.637   0.223   1.135 -0.5377  0.2818  0.0144
 4938TIP3    H114778   0.585   0.242   1.213 -1.3058 -0.9362 -0.1721
 4938TIP3    H214779   0.636   0.304   1.085  0.1246  1.1443  1.3399
 4939TIP3   OH214780   2.905   0.136   4.567 -0.0570  0.3402  0.1219
 4939TIP3    H114781   2.879   0.209   4.622 -0.6967 -1.0694  1.7800
 4939TIP3    H214782   2.840   0.068   4.585  0.7506 -0.7847 -1.0400
 4940TIP3   OH214783   3.272   3.883   4.305 -0.9283  0.0460  0.4261
 4940TIP3    H114784   3.264   3.978   4.312 -3.1026 -0.1071  0.7148
 4940TIP3    H214785   3.241   3.863   4.217  0.9819 -0.3051 -0.2101
 4941TIP3   OH214786   3.247   1.855   3.005  0.4259  0.7326  0.2350
 4941TIP3    H114787   3.271   1.826   3.093  2.6423 -0.8407 -0.8067
 4941TIP3    H214788   3.302   1.803   2.946  0.3879  3.0459 -2.0255
 4942TIP3   OH214789   3.689   6.177   4.662 -0.3026  0.2162 -0.1092
 4942TIP3    H114790   3.742   6.100   4.682  0.1928  0.2305 -1.2749
 4942TIP3    H214791   3.731   6.216   4.586 -0.2745  1.9092  0.7148
 4943TIP3   OH214792   1.396   4.494   4.335  1.0188 -0.0449  0.2479
 4943TIP3    H114793   1.476   4.462   4.379  0.7616  0.9067  1.4757
 4943TIP3    H214794   1.338   4.517   4.407  0.1937  0.6617 -0.6301
 4944TIP3   OH214795   5.935   5.175   4.213 -0.1196  0.1003 -0.1472
 4944TIP3    H114796   5.942   5.270   4.205 -1.3865  0.1187 -1.4425
 4944TIP3    H214797   5.911   5.145   4.126  1.8148 -1.6091 -0.1746
 4945TIP3   OH214798   3.259   2.014   4.988  0.0702 -0.4968  0.2779
 4945TIP3    H114799   3.325   1.955   4.950  1.1274  0.7328  0.1336
 4945TIP3    H214800   3.310   2.075   5.042 -0.7043  1.6808 -1.3151
 4946TIP3   OH214801   5.001   4.519   5.652 -0.0411 -0.3473  0.0836
 4946TIP3    H114802   4.957   4.473   5.723  0.5439  0.6441  1.1253
 4946TIP3    H214803   5.052   4.587   5.696  3.7648 -2.3040 -0.8749
 4947TIP3   OH214804   2.805   4.341   5.318 -0.1541 -0.0044  0.5978
 4947TIP3    H114805   2.838   4.387   5.396 -0.0326 -1.0525  1.1840
 4947TIP3    H214806   2.838   4.252   5.327 -3.0939 -1.1366  1.2134
 4948TIP3   OH214807   3.824   6.429   2.605 -0.5018 -0.3434 -0.0460
 4948TIP3    H114808   3.797   6.355   2.550 -1.4012 -1.8163  2.1792
 4948TIP3    H214809   3.759   6.430   2.676  1.5686  0.2532  1.9654
 4949TIP3   OH214810   2.250   5.338   0.396  0.3797 -0.1566 -0.2678
 4949TIP3    H114811   2.275   5.382   0.477  0.4644 -4.7390  2.5110
 4949TIP3    H214812   2.157   5.321   0.405  0.5876 -1.6200 -0.6073
 4950TIP3   OH214813   3.160   1.539   3.053  0.8333  0.7680  0.2510
 4950TIP3    H114814   3.196   1.556   3.140  0.9360  0.5114  0.2579
 4950TIP3    H214815   3.222   1.479   3.012  0.8895  1.0480 -0.0746
 4951TIP3   OH214816   1.014   1.630   3.851 -0.2549  0.4243  0.0863
 4951TIP3    H114817   1.096   1.654   3.894  0.0164  1.4879 -0.9771
 4951TIP3    H214818   1.014   1.680   3.769 -1.8801  0.3232 -0.0139
 4952TIP3   OH214819   4.327   4.525   3.068  0.6168 -0.0266  0.2481
 4952TIP3    H114820   4.312   4.433   3.093  0.3187 -1.3410 -3.8945
 4952TIP3    H214821   4.241   4.556   3.039  0.4762  2.0714  2.5541
 4953TIP3   OH214822   3.505   6.576   2.190  0.0772  0.5550 -0.2665
 4953TIP3    H114823   3.427   6.564   2.135  0.3719  0.9045 -0.7676
 4953TIP3    H214824   3.480   6.539   2.275 -0.2329 -0.4163 -0.7642
 4954TIP3   OH214825   5.842   5.613   3.326 -0.6102 -0.0173  0.1974
 4954TIP3    H114826   5.874   5.642   3.240 -0.3104  0.1916  0.3765
 4954TIP3    H214827   5.840   5.693   3.379  0.2696 -0.3191  0.7105
 4955TIP3   OH214828   4.910   0.098   2.689  0.2263 -0.5192  0.7437
 4955TIP3    H114829   4.980   0.148   2.647 -0.5467  0.8474  1.0374
 4955TIP3    H214830   4.939   0.088   2.780  0.2907 -0.4529  0.7308
 4956TIP3   OH214831   5.935   2.925   3.536  0.6551 -0.1969 -0.0594
 4956TIP3    H114832   5.872   2.931   3.464 -1.4165  0.1091  1.6926
 4956TIP3    H214833   5.915   3.000   3.593  2.5681 -0.1387  0.6237
 4957TIP3   OH214834   5.149   1.087   2.145  0.1135 -0.5014  0.1757
 4957TIP3    H114835   5.193   1.094   2.230  2.2806  0.4117 -0.9598
 4957TIP3    H214836   5.203   1.139   2.086 -1.3850 -1.0715 -1.7693
 4958TIP3   OH214837   3.103   4.415   2.568 -0.3508 -0.8542  0.9293
 4958TIP3    H114838   3.056   4.333   2.555 -0.0305 -0.9127  0.0786
 4958TIP3    H214839   3.047   4.466   2.627 -1.7345 -0.7364 -0.4395
 4959TIP3   OH214840   2.509   2.246   3.795 -0.4301  0.1135 -0.6001
 4959TIP3    H114841   2.448   2.308   3.757 -0.3844  0.8199  0.4441
 4959TIP3    H214842   2.457   2.166   3.809 -0.4964 -0.0849 -1.8958
 4960TIP3   OH214843   7.093   5.102   4.067 -0.0839  0.0353  0.4286
 4960TIP3    H114844   7.136   5.045   4.002 -1.9082 -1.4499  0.4629
 4960TIP3    H214845   7.132   5.076   4.150 -2.3014 -2.7796  0.7483
 4961TIP3   OH214846   5.011   1.162   3.637  0.2307 -0.2154  0.4144
 4961TIP3    H114847   4.995   1.092   3.700  0.9109  1.0573  2.0792
 4961TIP3    H214848   5.073   1.124   3.574 -0.8830 -1.6819  0.1534
 4962TIP3   OH214849   0.926   4.668   1.945  0.5439 -0.5000  0.4549
 4962TIP3    H114850   0.919   4.681   1.850 -0.9597  1.6801  0.7864
 4962TIP3    H214851   0.843   4.700   1.980  1.4432 -0.3355  2.6064
 4963TIP3   OH214852   2.699   0.036   3.991 -0.0987 -0.4045  0.6872
 4963TIP3    H114853   2.731   0.096   3.924 -0.7914 -0.4006  0.3549
 4963TIP3    H214854   2.776  -0.017   4.013  0.7045  1.0364  1.4918
 4964TIP3   OH214855   0.612   0.444   4.394 -0.0931  0.0969 -0.0792
 4964TIP3    H114856   0.528   0.442   4.438 -0.6609  1.4758 -1.0206
 4964TIP3    H214857   0.666   0.502   4.448  0.6591 -1.6660  1.1373
 4965TIP3   OH214858   0.740   5.468   4.987 -0.3441 -0.0155 -0.2255
 4965TIP3    H114859   0.720   5.560   5.002 -0.2542 -0.2881  1.8845
 4965TIP3    H214860   0.655   5.424   4.989 -0.3597 -0.0198 -0.9158
 4966TIP3   OH214861   2.584   6.301   5.509 -0.1183  0.1586  0.2514
 4966TIP3    H114862   2.554   6.391   5.495  1.2376  0.2519 -2.6973
 4966TIP3    H214863   2.516   6.246   5.471  0.9407  0.1808 -1.8166
 4967TIP3   OH214864   3.144   3.421   2.605 -0.3737  0.0477  0.0916
 4967TIP3    H114865   3.135   3.406   2.700  1.5403  1.4204  0.5597
 4967TIP3    H214866   3.056   3.442   2.576 -1.2930 -1.8836  1.2506
 4968TIP3   OH214867   2.014   2.577   4.083  0.6114  0.4546 -0.1425
 4968TIP3    H114868   1.960   2.583   4.162  1.4585 -0.0605  0.4977
 4968TIP3    H214869   2.038   2.484   4.079  0.8578  0.5501 -0.8147
 4969TIP3   OH214870   4.900   3.771   3.936  0.1640 -0.6015  0.5515
 4969TIP3    H114871   4.828   3.741   3.991  2.2093 -1.5506  2.9564
 4969TIP3    H214872   4.927   3.854   3.976  1.5594 -1.2020  0.9321
 4970TIP3   OH214873   3.990   6.201   4.933 -0.2439 -0.3481  0.4512
 4970TIP3    H114874   3.904   6.167   4.908 -1.0656  1.4148  0.7361
 4970TIP3    H214875   4.042   6.195   4.853 -1.4749  1.0407 -0.5094
 4971TIP3   OH214876   5.087   2.434   1.953 -0.1770  0.3936  0.3394
 4971TIP3    H114877   5.114   2.434   1.861 -1.3782  1.2833 -0.0316
 4971TIP3    H214878   5.169   2.440   2.002  0.5478 -1.0300 -0.6222
 4972TIP3   OH214879   4.056   1.085   5.219 -0.2865  0.1767 -0.2378
 4972TIP3    H114880   4.116   1.033   5.272 -0.1866  0.4221 -0.1043
 4972TIP3    H214881   4.015   1.023   5.159 -0.2134 -0.0603 -0.0399
 4973TIP3   OH214882   2.921   2.727   5.134  0.0670 -0.0039  0.6317
 4973TIP3    H114883   2.859   2.753   5.065  0.2473 -1.9136 -0.3231
 4973TIP3    H214884   2.865   2.694   5.204 -0.0653 -0.3548  0.3694
 4974TIP3   OH214885   3.013   4.645   2.300 -0.2303  0.3197 -0.0553
 4974TIP3    H114886   3.083   4.587   2.331 -0.2924 -0.4461 -1.2443
 4974TIP3    H214887   2.944   4.585   2.271 -0.1318  0.9444 -1.6909
 4975TIP3   OH214888   1.079   2.574   0.330 -0.4348 -0.4878 -0.3782
 4975TIP3    H114889   1.043   2.560   0.243 -0.7001 -0.8246 -0.2169
 4975TIP3    H214890   1.043   2.659   0.357  0.7973  0.3121 -1.1676
 4976TIP3   OH214891   3.306   3.251   0.621  0.1518 -0.2904 -0.1246
 4976TIP3    H114892   3.317   3.331   0.570 -0.5444 -0.3648 -0.3963
 4976TIP3    H214893   3.339   3.273   0.708  0.5130  0.1084 -0.3607
 4977TIP3   OH214894   4.271   5.350   3.953 -0.1076  0.0770  0.2524
 4977TIP3    H114895   4.309   5.412   4.016 -0.6350  0.3734  0.2904
 4977TIP3    H214896   4.320   5.363   3.873 -0.2680  0.6101  0.2383
 4978TIP3   OH214897   5.390   3.995   0.811 -0.0602  0.4483  0.1795
 4978TIP3    H114898   5.406   3.921   0.752  0.0747 -1.1192  2.0770
 4978TIP3    H214899   5.299   4.019   0.795  0.2897  0.8365 -1.4395
 4979TIP3   OH214900   7.104   4.665   5.028 -0.4777 -0.1844 -0.0640
 4979TIP3    H114901   7.052   4.619   4.962  0.4292 -0.2106 -0.7868
 4979TIP3    H214902   7.059   4.748   5.040 -0.5978 -0.1260 -0.8304
 4980TIP3   OH214903   6.062   2.845   4.951 -0.5800 -0.2516  0.2988
 4980TIP3    H114904   6.007   2.810   4.881 -0.1058 -0.1113 -0.1467
 4980TIP3    H214905   6.152   2.828   4.922 -0.3849 -0.5294  1.0438
 4981TIP3   OH214906   4.695   0.853   1.348 -0.4499 -0.3790 -0.8058
 4981TIP3    H114907   4.680   0.816   1.435  0.3495 -2.6711 -1.5672
 4981TIP3    H214908   4.678   0.780   1.288 -1.4006  1.2619 -2.6354
 4982TIP3   OH214909   2.061   1.836   3.988 -0.1509  0.4345  0.0482
 4982TIP3    H114910   2.046   1.907   4.050  0.1595  1.7072 -1.2868
 4982TIP3    H214911   2.153   1.843   3.965 -0.5233  0.7969 -1.4708
 4983TIP3   OH214912   6.941   2.896   5.751  0.0192 -0.2851 -0.3861
 4983TIP3    H114913   6.919   2.930   5.664  1.6193 -1.8240 -1.4738
 4983TIP3    H214914   7.017   2.839   5.736 -1.1710 -2.5830  1.6114
 4984TIP3   OH214915   5.312   5.853   1.135 -0.1920  0.3862  0.1474
 4984TIP3    H114916   5.386   5.795   1.120 -0.3254  0.5304 -1.2242
 4984TIP3    H214917   5.304   5.858   1.230  0.8908 -0.4644  0.3033
 4985TIP3   OH214918   3.561   3.587   2.331 -0.3020 -0.3379 -0.4925
 4985TIP3    H114919   3.609   3.660   2.370  0.4303 -0.4105 -1.2433
 4985TIP3    H214920   3.514   3.547   2.404 -0.7412  0.8996 -0.0720
 4986TIP3   OH214921   6.369   4.203   3.048  0.3756  0.1989  0.6973
 4986TIP3    H114922   6.289   4.252   3.028 -0.6278 -0.8684  1.9006
 4986TIP3    H214923   6.363   4.183   3.141  1.5713 -0.7476  0.6046
 4987TIP3   OH214924   0.612   2.809   2.850 -0.1135  0.7104 -0.1100
 4987TIP3    H114925   0.618   2.905   2.856  1.3996  0.5512  2.3459
 4987TIP3    H214926   0.617   2.779   2.941 -0.3229 -1.7280 -0.8378
 4988TIP3   OH214927   3.707   4.845   0.520  0.0106  0.3975  0.1215
 4988TIP3    H114928   3.648   4.817   0.449 -0.0016 -1.5622  0.8552
 4988TIP3    H214929   3.789   4.799   0.503  0.2794  0.5745  0.9084
 4989TIP3   OH214930   1.782   2.621   2.677 -0.3507 -0.2011 -0.0385
 4989TIP3    H114931   1.808   2.560   2.746 -0.0357 -0.2193 -0.1706
 4989TIP3    H214932   1.822   2.704   2.703  0.1738 -0.3181 -0.4414
 4990TIP3   OH214933   5.202   5.032   3.595  0.0349 -0.3173 -0.9619
 4990TIP3    H114934   5.179   5.122   3.618 -0.8481  0.0143 -2.9526
 4990TIP3    H214935   5.157   4.979   3.661 -0.3934  0.6342 -0.4564
 4991TIP3   OH214936   6.508   1.934   3.825  0.3472 -1.4376  0.2464
 4991TIP3    H114937   6.555   1.853   3.843  2.1177 -0.0567  2.4852
 4991TIP3    H214938   6.561   1.979   3.759  1.0364 -0.8667  1.1526
 4992TIP3   OH214939   2.121   3.769   1.958  0.0460 -0.0737 -0.4667
 4992TIP3    H114940   2.107   3.682   1.919  0.4639  0.0365 -0.8789
 4992TIP3    H214941   2.052   3.777   2.024 -0.8543 -0.1667 -1.3664
 4993TIP3   OH214942   2.385   1.716   5.439 -0.2750  0.2311 -0.3835
 4993TIP3    H114943   2.418   1.800   5.406  0.1046 -0.0938 -0.8416
 4993TIP3    H214944   2.424   1.651   5.381 -0.0878 -0.3092  0.3360
 4994TIP3   OH214945   6.052   6.323   3.847 -0.7301 -0.1710 -0.2624
 4994TIP3    H114946   6.147   6.327   3.850 -0.3385 -3.4011 -3.0825
 4994TIP3    H214947   6.027   6.279   3.929  0.4816 -1.5284 -0.5894
 4995TIP3   OH214948   1.092   3.429   2.618 -0.4690  0.2717 -0.0676
 4995TIP3    H114949   1.085   3.485   2.695 -1.1674  0.1162 -0.0120
 4995TIP3    H214950   1.172   3.379   2.632 -0.6855  0.1144  0.6450
 4996TIP3   OH214951   0.566   2.348   4.126 -0.1519 -0.1141  0.2838
 4996TIP3    H114952   0.524   2.374   4.208  0.0312 -0.5190  0.5084
 4996TIP3    H214953   0.633   2.285   4.152  1.1563  1.1102  0.0392
 4997TIP3   OH214954   4.316   6.622   2.804  0.6777 -0.1191 -0.3085
 4997TIP3    H114955   4.275   6.586   2.726 -0.1576 -1.2187  0.5852
 4997TIP3    H214956   4.250   6.612   2.873  2.6989 -3.1125  1.4893
 4998TIP3   OH214957   2.877   0.669   5.289 -0.0234  0.2841  0.1987
 4998TIP3    H114958   2.892   0.751   5.242 -0.1688  0.0725 -0.2237
 4998TIP3    H214959   2.782   0.660   5.292 -0.0700  0.9525  1.6977
 4999TIP3   OH214960   2.012   6.680   4.967  0.5156 -0.3725  0.1295
 4999TIP3    H114961   2.039   6.588   4.958  2.0657  0.0783 -0.0616
 4999TIP3    H214962   2.005   6.712   4.877 -0.4574 -0.3980  0.1805
 5000TIP3   OH214963   4.945   1.691   3.116  1.0504  0.7268 -0.2554
 5000TIP3    H114964   4.931   1.779   3.081 -2.3036  0.7228  0.7101
 5000TIP3    H214965   4.882   1.683   3.187  2.9371 -1.6536  1.3076
 5001TIP3   OH214966   2.953   1.707   2.587  0.7437  0.5124  0.3020
 5001TIP3    H114967   3.012   1.697   2.662  0.1536  0.0683  0.7191
 5001TIP3    H214968   2.913   1.793   2.600 -0.5862 -0.2338  1.4167
 5002TIP3   OH214969   2.008   0.067   5.060 -0.5458 -0.2171  0.3341
 5002TIP3    H114970   1.945   0.029   4.999 -1.3880 -0.8628  1.5643
 5002TIP3    H214971   1.976   0.043   5.146  2.2449 -1.9782  1.0143
 5003TIP3   OH214972   6.739   3.241   1.279 -0.6835  0.3170 -0.0538
 5003TIP3    H114973   6.754   3.156   1.239  0.3369  0.5760 -0.2511
 5003TIP3    H214974   6.781   3.235   1.365  0.8823  1.1576 -0.7312
 5004TIP3   OH214975   6.587   5.856   0.386  0.0423  0.3845  0.0831
 5004TIP3    H114976   6.548   5.941   0.365 -1.6278 -0.3511  0.0403
 5004TIP3    H214977   6.541   5.828   0.465 -1.4470 -1.7102 -1.4457
 5005TIP3   OH214978   1.656   6.761   4.175 -0.3553 -0.7629 -0.0010
 5005TIP3    H114979   1.584   6.807   4.134 -1.0029 -1.0793  0.7671
 5005TIP3    H214980   1.626   6.741   4.264  1.3916  0.8142  1.0222
 5006TIP3   OH214981   5.538   5.854   0.239 -0.5519 -0.6404 -0.0196
 5006TIP3    H114982   5.617   5.863   0.291 -0.3827  0.6067 -0.4574
 5006TIP3    H214983   5.468   5.890   0.294 -0.0424  2.8705 -1.3585
 5007TIP3   OH214984   6.959   6.412   0.086 -0.4204 -0.5268 -0.0709
 5007TIP3    H114985   6.963   6.484   0.149  1.6030 -1.6051  1.1340
 5007TIP3    H214986   6.868   6.384   0.088 -1.0403  1.3404  0.1462
 5008TIP3   OH214987   4.311   6.363   3.647 -0.6005 -0.2479 -0.6285
 5008TIP3    H114988   4.377   6.423   3.682 -1.2760 -0.4625  1.0860
 5008TIP3    H214989   4.264   6.415   3.582 -1.7950  1.4575  1.4798
 5009TIP3   OH214990   0.760   5.488   2.233 -0.0543  0.1180  0.2988
 5009TIP3    H114991   0.846   5.503   2.194 -0.6871  1.6918 -0.6098
 5009TIP3    H214992   0.758   5.545   2.310 -0.6418  0.9273 -0.2917
 5010TIP3   OH214993   0.525   0.768   5.451  0.4364 -0.3606 -0.2432
 5010TIP3    H114994   0.464   0.841   5.454  1.6172  0.6510 -0.1337
 5010TIP3    H214995   0.537   0.751   5.357  0.1677 -0.4124 -0.2685
 5011TIP3   OH214996   3.475   1.523   4.931  0.1577  0.4470 -0.1079
 5011TIP3    H114997   3.414   1.541   4.859 -0.6153  0.5735  0.5635
 5011TIP3    H214998   3.467   1.429   4.947  1.0342  0.2440 -0.8009
 5012TIP3   OH214999   6.636   4.046   1.825 -0.3821  0.1766  0.2289
 5012TIP3    H115000   6.592   3.969   1.788 -1.4170  0.7906  0.1723
 5012TIP3    H215001   6.568   4.092   1.874  0.2952  0.9184  0.4911
 5013TIP3   OH215002   2.426   2.859   1.843  0.1152 -0.1819 -0.0792
 5013TIP3    H115003   2.462   2.919   1.778 -1.5885 -0.4968 -1.3796
 5013TIP3    H215004   2.427   2.773   1.800  0.3356 -0.6819  0.8839
 5014TIP3   OH215005   2.930   2.518   0.747  0.1677  0.2085  0.4283
 5014TIP3    H115006   2.848   2.561   0.722 -0.2483  0.6271  2.3485
 5014TIP3    H215007   2.904   2.452   0.810  1.1223 -1.0683 -0.4705
 5015TIP3   OH215008   5.260   2.393   5.633 -0.1428  0.2118 -0.3195
 5015TIP3    H115009   5.311   2.386   5.713  0.4575  0.1718 -0.6959
 5015TIP3    H215010   5.232   2.485   5.631  1.5471  0.7648 -1.0529
 5016TIP3   OH215011   1.743   1.202   2.652 -0.4517  0.7518  0.2884
 5016TIP3    H115012   1.821   1.190   2.598 -0.6299 -0.0696  0.2030
 5016TIP3    H215013   1.703   1.115   2.656 -0.3292  0.7332  1.9337
 5017TIP3   OH215014   2.512   3.204   1.427  0.3462  0.5586 -0.1009
 5017TIP3    H115015   2.535   3.200   1.335 -0.3188 -0.1957 -0.2500
 5017TIP3    H215016   2.560   3.279   1.462  0.8198  0.6709 -0.9944
 5018TIP3   OH215017   5.258   1.844   4.830  0.0019  0.2132 -0.1403
 5018TIP3    H115018   5.220   1.786   4.764 -0.3479 -0.7636  0.8724
 5018TIP3    H215019   5.201   1.921   4.831 -0.7062 -0.3033 -0.1423
 5019TIP3   OH215020   4.320   4.388   4.108 -0.0065  0.2474  0.1837
 5019TIP3    H115021   4.256   4.330   4.150  0.7763 -0.1390  0.8915
 5019TIP3    H215022   4.306   4.473   4.151 -1.0555  0.5650 -0.7496
 5020TIP3   OH215023   0.975   2.979   1.883  0.4313 -0.3772 -0.4475
 5020TIP3    H115024   0.898   2.930   1.913  0.3080  0.2670  0.3257
 5020TIP3    H215025   0.940   3.061   1.849  0.7478 -0.2350 -0.4343
 5021TIP3   OH215026   4.418   3.237   0.410  0.4327 -0.0217  0.2401
 5021TIP3    H115027   4.407   3.142   0.415 -2.1023  0.0352 -2.1233
 5021TIP3    H215028   4.358   3.272   0.476  0.5542 -0.0414  0.3614
 5022TIP3   OH215029   0.224   3.804   3.908  0.1601 -0.2952  0.3872
 5022TIP3    H115030   0.275   3.776   3.831 -1.4288 -0.5740 -0.6066
 5022TIP3    H215031   0.211   3.898   3.895  1.8659  0.1340  1.5424
 5023TIP3   OH215032   5.503   6.606   0.412  0.2390  0.0166  0.2769
 5023TIP3    H115033   5.515   6.583   0.319 -1.5073 -0.0062  0.0181
 5023TIP3    H215034   5.487   6.522   0.455  0.0990  0.1219  0.4299
 5024TIP3   OH215035   1.311   0.364   2.122 -0.3744  0.6768 -0.0926
 5024TIP3    H115036   1.249   0.428   2.087 -1.9886 -1.8482 -2.1925
 5024TIP3    H215037   1.266   0.280   2.116  1.4731 -0.7209  2.9343
 5025TIP3   OH215038   4.835   1.428   1.341 -0.1689  0.2924 -0.0209
 5025TIP3    H115039   4.779   1.488   1.291 -0.4652  0.0873  0.0611
 5025TIP3    H215040   4.924   1.455   1.320 -0.2631  2.1675  1.6269
 5026TIP3   OH215041   0.586   1.339   1.899  0.0197  0.4251  0.1053
 5026TIP3    H115042   0.630   1.368   1.979 -1.2416  4.3828 -0.3774
 5026TIP3    H215043   0.653   1.345   1.831 -0.1399  2.2617  0.0660
 5027TIP3   OH215044   2.484   6.016   1.446  0.1887 -0.6345 -0.0080
 5027TIP3    H115045   2.454   5.931   1.414 -0.3841 -0.1757 -0.7204
 5027TIP3    H215046   2.546   6.046   1.380  1.7974 -1.2868  1.1404
 5028TIP3   OH215047   2.234   4.356   2.901 -0.2829  0.0662 -0.1575
 5028TIP3    H115048   2.301   4.424   2.896  2.0668 -2.0879 -0.7048
 5028TIP3    H215049   2.203   4.347   2.810 -2.9725  2.4430  0.4024
 5029TIP3   OH215050   6.149   3.480   3.420 -0.7301  0.4744 -0.4909
 5029TIP3    H115051   6.201   3.539   3.366 -2.1012  1.7896 -0.4277
 5029TIP3    H215052   6.214   3.435   3.475  0.4123  1.3397 -1.0819
 5030TIP3   OH215053   6.207   6.175   4.749  0.9244 -0.0713  0.1420
 5030TIP3    H115054   6.198   6.147   4.839 -1.1611  0.1277  0.0393
 5030TIP3    H215055   6.199   6.270   4.752  0.7458 -0.0692 -0.2549
 5031TIP3   OH215056   4.637   6.509   5.553 -0.2041  0.0377  0.4909
 5031TIP3    H115057   4.621   6.423   5.515  1.9660  0.3210 -1.2760
 5031TIP3    H215058   4.560   6.561   5.529  0.1813 -0.3791 -1.8669
 5032TIP3   OH215059   3.559   4.545   2.415 -0.4733 -0.3526 -0.1617
 5032TIP3    H115060   3.517   4.494   2.484 -1.3678 -1.8718 -1.7762
 5032TIP3    H215061   3.524   4.510   2.333  3.2773 -1.1822 -1.6412
 5033TIP3   OH215062   5.126   5.022   3.059  0.0110  0.6032  0.3093
 5033TIP3    H115063   5.042   4.976   3.065  0.4193 -0.2050 -0.0515
 5033TIP3    H215064   5.174   4.996   3.138  0.1925  0.5028  0.1675
 5034TIP3   OH215065   3.374   5.839   1.269  0.8736  0.3146 -0.1594
 5034TIP3    H115066   3.342   5.789   1.343  0.3186 -0.2422 -0.7641
 5034TIP3    H215067   3.409   5.773   1.208 -0.5362  0.5740 -1.2924
 5035TIP3   OH215068   3.780   1.852   5.173 -0.8293  0.3486  0.7160
 5035TIP3    H115069   3.809   1.870   5.083  1.3824  0.0890  1.3230
 5035TIP3    H215070   3.727   1.773   5.165 -0.6250  0.3062 -0.3763
 5036TIP3   OH215071   0.933   3.007   2.657  0.0519 -0.7708 -0.4821
 5036TIP3    H115072   0.954   3.028   2.748  1.1706  1.1718 -1.1182
 5036TIP3    H215073   0.892   3.086   2.623 -1.2151 -1.7935 -1.4518
 5037TIP3   OH215074   6.208   0.397   2.574 -0.0588  0.3609  0.4157
 5037TIP3    H115075   6.259   0.475   2.593  0.2958  0.0921  0.5904
 5037TIP3    H215076   6.171   0.371   2.659 -1.7768  1.4300  0.0493
 5038TIP3   OH215077   2.406   6.114   4.076 -0.4122 -0.6231 -0.3122
 5038TIP3    H115078   2.421   6.189   4.018  0.1179 -0.5757 -0.1199
 5038TIP3    H215079   2.319   6.129   4.113 -0.2213  0.0087 -0.1131
 5039TIP3   OH215080   1.102   3.576   0.833  0.6189  0.6147 -0.8316
 5039TIP3    H115081   1.129   3.631   0.759 -1.3486  1.0104 -1.3189
 5039TIP3    H215082   1.059   3.638   0.893 -1.2495 -0.2614 -1.1890
 5040TIP3   OH215083   2.329   2.452   3.459 -0.0763  0.5146  0.1420
 5040TIP3    H115084   2.392   2.405   3.513 -0.9269 -2.1672 -1.0511
 5040TIP3    H215085   2.341   2.544   3.483  2.2601 -0.1779  2.0020
 5041TIP3   OH215086   5.285   3.923   0.082  0.3953 -0.5933 -0.4782
 5041TIP3    H115087   5.306   3.948   0.172  0.2876  0.3390 -0.6985
 5041TIP3    H215088   5.189   3.928   0.078  0.4489  0.3015 -0.8923
 5042TIP3   OH215089  -0.006   3.289   2.040  0.3060 -0.0777 -0.0743
 5042TIP3    H115090   0.057   3.351   2.003  0.0338 -0.0684 -0.5417
 5042TIP3    H215091   0.040   3.249   2.113  1.3960 -1.1091 -1.2660
 5043TIP3   OH215092   1.153   5.730   0.757 -0.7710 -0.3972 -0.3409
 5043TIP3    H115093   1.059   5.719   0.743 -1.2576 -0.1698  2.1516
 5043TIP3    H215094   1.187   5.640   0.759 -1.2260 -0.5685  0.2308
 5044TIP3   OH215095   4.984   3.544   0.580  0.1358  0.4436  0.1945
 5044TIP3    H115096   4.905   3.588   0.613 -0.6665 -0.0722 -0.9672
 5044TIP3    H215097   4.951   3.465   0.537  1.2849  0.2788 -0.4289
 5045TIP3   OH215098   3.281   5.758   5.335 -0.2174  0.5686 -0.6224
 5045TIP3    H115099   3.315   5.674   5.304 -3.7696 -0.8121 -1.2989
 5045TIP3    H215100   3.294   5.755   5.430 -0.2357 -0.7469 -0.6360
 5046TIP3   OH215101   1.934   0.977   2.759 -0.0011 -0.6490 -0.0889
 5046TIP3    H115102   1.910   1.046   2.697  0.2709 -2.0181 -1.7899
 5046TIP3    H215103   2.003   0.928   2.715 -0.1432 -1.9766  1.0921
 5047TIP3   OH215104   3.339   5.100   5.326  0.3925  0.0625  0.5366
 5047TIP3    H115105   3.270   5.140   5.380  0.6719  1.0152  0.2071
 5047TIP3    H215106   3.296   5.084   5.241  0.8964  1.8960 -0.1137
 5048TIP3   OH215107   4.365   3.455   1.835  0.1899  0.0475  0.2854
 5048TIP3    H115108   4.356   3.399   1.758  1.2250 -0.0427  0.2150
 5048TIP3    H215109   4.289   3.435   1.889 -1.7667  1.6924 -1.6882
 5049TIP3   OH215110   3.613   4.701   1.102  0.1889  0.0113 -0.1152
 5049TIP3    H115111   3.703   4.728   1.120 -0.3639  2.5073 -0.6936
 5049TIP3    H215112   3.590   4.745   1.020 -1.4082 -0.9577 -0.2448
 5050TIP3   OH215113   4.659   5.447   4.196 -0.0671  0.5914  0.0323
 5050TIP3    H115114   4.717   5.523   4.195 -1.0775  1.4103  1.1071
 5050TIP3    H215115   4.718   5.372   4.190  1.2099  1.3653  1.9806
 5051TIP3   OH215116   0.154   3.140   3.235  0.1149 -0.1059  0.5978
 5051TIP3    H115117   0.179   3.155   3.144  1.9530 -1.4934  0.8219
 5051TIP3    H215118   0.163   3.225   3.277  0.8074  0.2145 -0.1689
 5052TIP3   OH215119   5.771   2.675   4.188  0.1476 -0.1948  0.1142
 5052TIP3    H115120   5.847   2.628   4.153  1.0749  0.7219  0.8285
 5052TIP3    H215121   5.712   2.606   4.217  1.0863 -0.9397  0.3339
 5053TIP3   OH215122   4.641   3.417   1.379 -0.2936  0.1026  0.0659
 5053TIP3    H115123   4.599   3.484   1.433  0.7466 -0.3854  1.5383
 5053TIP3    H215124   4.726   3.402   1.420 -0.0914 -1.4215 -0.8095
 5054TIP3   OH215125   0.237   0.645   1.248  0.2398 -0.0329 -0.2642
 5054TIP3    H115126   0.202   0.690   1.171  0.8990 -0.8196 -1.0352
 5054TIP3    H215127   0.248   0.715   1.313  0.2487  0.7426 -1.0807
 5055TIP3   OH215128   1.252   6.364   1.621  0.3326  0.2238  0.5963
 5055TIP3    H115129   1.257   6.292   1.683  2.5593 -2.1830 -2.0865
 5055TIP3    H215130   1.262   6.323   1.535 -2.2472  3.3549 -1.4437
 5056TIP3   OH215131   4.177   2.812   5.513 -0.0230  0.1921  0.2243
 5056TIP3    H115132   4.252   2.766   5.477 -0.5226  1.1568 -2.2341
 5056TIP3    H215133   4.198   2.905   5.502 -0.9148  0.5015  0.9760
 5057TIP3   OH215134   5.778   3.058   0.939 -0.2582 -0.6697 -0.0411
 5057TIP3    H115135   5.801   3.109   0.861 -1.3559 -1.7032 -1.0839
 5057TIP3    H215136   5.857   3.061   0.993  1.0030 -0.9448 -1.7582
 5058TIP3   OH215137   3.176   0.609   3.088  0.3590 -0.0801  0.0144
 5058TIP3    H115138   3.168   0.582   2.996 -0.8427 -0.4071  0.1932
 5058TIP3    H215139   3.120   0.686   3.094 -1.1934 -1.2244  0.9008
 5059TIP3   OH215140   0.174   3.614   5.495  0.3230 -0.8141  0.6734
 5059TIP3    H115141   0.237   3.576   5.555 -0.4449  1.0425  2.8014
 5059TIP3    H215142   0.101   3.642   5.551 -0.4782  0.9442 -1.0991
 5060TIP3   OH215143   1.943   2.401   0.900 -0.0253 -0.8055 -0.0402
 5060TIP3    H115144   1.956   2.494   0.887  0.2868 -0.8921 -0.3507
 5060TIP3    H215145   2.030   2.362   0.894  0.2092 -0.8485  2.5306
 5061TIP3   OH215146   4.831   0.770   0.413 -0.0228  0.2563 -0.4784
 5061TIP3    H115147   4.852   0.832   0.342 -1.0344  0.4141 -0.6478
 5061TIP3    H215148   4.796   0.824   0.483  2.3153  0.2933  0.7628
 5062TIP3   OH215149   2.192   4.065   0.671 -0.7837  0.2322  0.2813
 5062TIP3    H115150   2.194   4.159   0.653  0.1253  0.3520  0.9128
 5062TIP3    H215151   2.125   4.031   0.612 -1.6348  1.3775  0.5462
 5063TIP3   OH215152   7.122   2.800   3.611  1.0588  0.1356 -0.5328
 5063TIP3    H115153   7.082   2.844   3.535  1.0332  1.2944  0.1285
 5063TIP3    H215154   7.049   2.783   3.669  1.1652 -0.1812 -0.4933
 5064TIP3   OH215155   6.840   4.800   0.277  0.3469 -1.1278 -0.1657
 5064TIP3    H115156   6.891   4.784   0.356  0.3369 -0.9513 -0.1234
 5064TIP3    H215157   6.815   4.892   0.282  0.0069 -1.2169 -0.1734
 5065TIP3   OH215158   0.326   4.299   1.822  0.0406 -0.1277  0.2308
 5065TIP3    H115159   0.326   4.207   1.794  1.2733 -0.1336  0.1870
 5065TIP3    H215160   0.320   4.348   1.740 -0.0306 -0.1686  0.2110
 5066TIP3   OH215161   1.258   2.499   2.069  0.5761  0.0589 -0.6327
 5066TIP3    H115162   1.213   2.424   2.028 -0.3233  0.4418 -0.3592
 5066TIP3    H215163   1.197   2.572   2.059 -0.7389 -0.2897  3.3753
 5067TIP3   OH215164   0.672   5.768   4.579 -0.3096 -0.2184 -0.4863
 5067TIP3    H115165   0.686   5.825   4.655  0.0434 -0.2222 -0.5465
 5067TIP3    H215166   0.645   5.828   4.509  0.8387 -0.0039 -0.7716
 5068TIP3   OH215167   5.829   5.044   1.419  0.1954 -0.0509  0.0480
 5068TIP3    H115168   5.862   5.134   1.412 -2.8961  1.1694 -0.9302
 5068TIP3    H215169   5.807   5.034   1.511  2.1957 -0.5416  0.5207
 5069TIP3   OH215170   5.707   2.681   3.108  0.5935  0.4365  0.0503
 5069TIP3    H115171   5.699   2.769   3.073  1.5857  0.7883  0.6641
 5069TIP3    H215172   5.690   2.690   3.202  1.5638  0.1373  0.2643
 5070TIP3   OH215173   5.609   1.604   0.766  0.3693 -0.2740  0.4322
 5070TIP3    H115174   5.647   1.541   0.706 -0.0784  0.1859 -0.3507
 5070TIP3    H215175   5.677   1.670   0.779  1.7057 -1.9884  3.0177
 5071TIP3   OH215176   0.156   1.546   5.771 -0.2263 -0.4897 -0.1187
 5071TIP3    H115177   0.121   1.578   5.854 -0.2684  0.3734 -0.4609
 5071TIP3    H215178   0.182   1.625   5.724  1.8809 -1.0691 -0.0216
 5072TIP3   OH215179   3.483   6.512   3.861 -0.2048  0.1619  0.1496
 5072TIP3    H115180   3.567   6.529   3.818 -0.0112  1.1473  0.8682
 5072TIP3    H215181   3.452   6.599   3.887 -0.0871 -0.4196  2.4076
 5073TIP3   OH215182   3.241   3.958   5.412  0.4503  0.3431 -0.2320
 5073TIP3    H115183   3.241   4.054   5.403  2.5001  0.2281 -2.1223
 5073TIP3    H215184   3.313   3.928   5.358  0.4391 -2.2641  1.0220
 5074TIP3   OH215185   0.131   0.133   5.720 -0.2120  0.3408 -0.3610
 5074TIP3    H115186   0.148   0.227   5.707  1.1252  0.6632  2.7266
 5074TIP3    H215187   0.202   0.090   5.673  1.9409  1.1899  1.8721
 5075TIP3   OH215188   2.584   5.353   4.456  0.5100  0.1248  0.6307
 5075TIP3    H115189   2.571   5.271   4.503  1.4741 -0.7352 -0.5340
 5075TIP3    H215190   2.630   5.409   4.517  0.3248 -0.3959  1.2600
 5076TIP3   OH215191   6.487   0.498   4.276  0.2151 -0.3422 -0.6327
 5076TIP3    H115192   6.482   0.489   4.372  1.1105 -0.9301 -0.6319
 5076TIP3    H215193   6.558   0.439   4.250  0.3227  0.2016 -1.6096
 5077TIP3   OH215194   4.016   1.416   2.416 -0.4596  0.2450 -0.1279
 5077TIP3    H115195   3.936   1.376   2.450 -1.0336  2.5734  1.4348
 5077TIP3    H215196   4.011   1.403   2.321 -2.3783 -0.1805 -0.0042
 5078TIP3   OH215197   7.097   0.136   5.585 -0.3095 -0.0517 -0.1630
 5078TIP3    H115198   7.130   0.116   5.673 -1.1768 -0.4788  0.0727
 5078TIP3    H215199   7.021   0.191   5.599 -0.9027 -0.7428 -0.6100
 5079TIP3   OH215200   2.886   5.379   0.349  0.4817  0.3976 -0.1014
 5079TIP3    H115201   2.872   5.412   0.438  1.2371  1.2049 -0.2670
 5079TIP3    H215202   2.952   5.311   0.358  0.0622  0.0094  0.0424
 5080TIP3   OH215203   1.939   3.252   4.532 -0.0101  0.8297 -0.0108
 5080TIP3    H115204   1.845   3.239   4.542  0.0362  0.7375  0.3242
 5080TIP3    H215205   1.953   3.258   4.437 -0.1197 -0.8983 -0.1685
 5081TIP3   OH215206   3.902   4.191   4.437 -0.1151  0.0784 -0.7015
 5081TIP3    H115207   3.891   4.115   4.380 -1.0214 -1.1537  1.0051
 5081TIP3    H215208   3.904   4.154   4.525 -0.7610  2.0679  0.2080
 5082TIP3   OH215209   5.705   2.235   0.903 -0.0490 -0.0658  0.3041
 5082TIP3    H115210   5.674   2.147   0.925 -0.8898  0.0647 -0.3313
 5082TIP3    H215211   5.642   2.293   0.945  0.8725  0.2746  1.2854
 5083TIP3   OH215212   3.754   3.703   4.922 -0.0583 -0.2532 -0.1898
 5083TIP3    H115213   3.844   3.701   4.957 -0.9960 -0.4224  2.4327
 5083TIP3    H215214   3.740   3.615   4.887 -0.0131 -1.0815  1.7594
 5084TIP3   OH215215   2.894   5.033   2.770  0.7440  0.1453 -0.1130
 5084TIP3    H115216   2.810   5.076   2.784  1.0139  0.6204  0.0574
 5084TIP3    H215217   2.879   4.973   2.697  0.6032  1.1991 -0.9767
 5085TIP3   OH215218   2.545   5.603   3.747 -0.0001 -0.0954 -0.8405
 5085TIP3    H115219   2.539   5.637   3.837 -1.4863  0.1044 -0.9943
 5085TIP3    H215220   2.594   5.670   3.700 -0.0616  0.2663 -0.3999
 5086TIP3   OH215221   1.073   3.067   0.739  0.0293 -0.1073 -0.0393
 5086TIP3    H115222   1.154   3.117   0.754  0.7378 -1.3653  0.4987
 5086TIP3    H215223   1.009   3.107   0.797 -0.1355  1.7377 -1.4011
 5087TIP3   OH215224   0.847   3.526   2.362  0.1392 -0.7775  0.7414
 5087TIP3    H115225   0.888   3.612   2.372  0.1107 -0.0638 -3.4726
 5087TIP3    H215226   0.754   3.542   2.371  0.2269 -0.6842  1.5148
 5088TIP3   OH215227   2.513   3.844   2.976  0.1739 -0.1650 -0.0946
 5088TIP3    H115228   2.475   3.756   2.976 -1.3566  0.4554 -0.8870
 5088TIP3    H215229   2.487   3.881   2.892  0.5561  1.1464  0.3445
 5089TIP3   OH215230   6.549   2.918   3.098 -0.5717  0.4897 -0.2327
 5089TIP3    H115231   6.506   2.884   3.176  0.4314 -0.0698  0.0998
 5089TIP3    H215232   6.628   2.961   3.130  0.0038  0.0048 -0.9429
 5090TIP3   OH215233   6.295   0.257   1.062  0.9906  0.6291 -0.1478
 5090TIP3    H115234   6.263   0.268   1.152 -1.3572 -0.1098 -0.8353
 5090TIP3    H215235   6.274   0.339   1.019  1.6771  0.8003 -0.1691
 5091TIP3   OH215236   5.171   1.237   3.105  0.4909 -0.6917 -0.0929
 5091TIP3    H115237   5.263   1.217   3.126  0.9154  0.1590 -1.0279
 5091TIP3    H215238   5.171   1.332   3.090 -0.6867 -0.5782  0.5332
 5092TIP3   OH215239   1.383   2.014   0.247  0.5588  0.5509 -0.2650
 5092TIP3    H115240   1.349   2.088   0.299  1.0773  1.0281 -0.5976
 5092TIP3    H215241   1.464   2.047   0.208  0.4078  0.0477 -1.0203
 5093TIP3   OH215242   2.893   1.320   1.453 -0.0933  0.8759  0.1478
 5093TIP3    H115243   2.905   1.325   1.358 -0.7495 -1.2196 -0.1021
 5093TIP3    H215244   2.826   1.386   1.472  0.6040  1.8578 -0.7056
 5094TIP3   OH215245   5.709   3.857   3.511 -0.3334  0.1161 -0.1714
 5094TIP3    H115246   5.622   3.889   3.534 -1.3246 -1.4599 -1.4717
 5094TIP3    H215247   5.712   3.860   3.416  0.7417 -0.5882 -0.1826
 5095TIP3   OH215248   1.951   5.869   4.263  0.2880  0.3254  0.0483
 5095TIP3    H115249   1.977   5.780   4.287  1.9456  0.6735 -0.3694
 5095TIP3    H215250   2.004   5.925   4.319  0.5002  1.0744 -0.8968
 5096TIP3   OH215251   5.579   4.952   1.350  0.8064  0.9973  0.0413
 5096TIP3    H115252   5.659   4.977   1.396  0.2369  0.4072  1.3874
 5096TIP3    H215253   5.608   4.886   1.287  1.5514  1.6070 -0.2734
 5097TIP3   OH215254   2.261   5.356   1.594 -0.5905 -0.0009 -0.0306
 5097TIP3    H115255   2.234   5.425   1.534 -0.1580  0.0415 -0.1787
 5097TIP3    H215256   2.182   5.304   1.608 -0.6801 -0.0673 -0.7154
 5098TIP3   OH215257   6.268   5.439   0.381 -0.1931  0.1644 -0.1643
 5098TIP3    H115258   6.290   5.463   0.471  1.3843  0.0924 -0.5064
 5098TIP3    H215259   6.223   5.517   0.346 -1.3670 -0.0266  0.8313
 5099TIP3   OH215260   0.928   3.623   4.954  0.6080 -0.5235  0.0693
 5099TIP3    H115261   1.021   3.640   4.963  0.3909  0.1124  1.4086
 5099TIP3    H215262   0.893   3.700   4.910  0.5309 -0.1353  0.7855
 5100TIP3   OH215263   4.485   2.315   1.236  0.6230 -0.0800 -0.3760
 5100TIP3    H115264   4.511   2.394   1.283  0.6681  1.1220 -2.3376
 5100TIP3    H215265   4.434   2.347   1.162 -1.6862 -2.0532  0.2252
 5101TIP3   OH215266   4.426   1.166   3.911 -0.3875  0.6096 -0.6931
 5101TIP3    H115267   4.418   1.071   3.924  0.8891  0.5330 -0.3548
 5101TIP3    H215268   4.512   1.188   3.945  0.9816  1.2787 -4.1196
 5102TIP3   OH215269   1.937   5.169   3.523 -0.1863  1.0833  0.0676
 5102TIP3    H115270   1.885   5.149   3.601 -1.3754  2.6523 -0.2769
 5102TIP3    H215271   2.019   5.205   3.557  0.6343 -1.1577  0.6105
 5103TIP3   OH215272   1.152   1.579   4.779  0.4073 -0.0894  0.3020
 5103TIP3    H115273   1.207   1.631   4.838 -2.4531  0.0953  3.0991
 5103TIP3    H215274   1.121   1.507   4.834 -3.0278  0.4860 -0.6693
 5104TIP3   OH215275   6.777   3.253   2.210  0.2806  0.0308  0.4196
 5104TIP3    H115276   6.711   3.321   2.193  0.2438 -0.4910 -1.7871
 5104TIP3    H215277   6.832   3.253   2.132  2.1529 -0.4248  1.6823
 5105TIP3   OH215278   6.950   4.312   2.726 -0.5098  0.5925 -0.1775
 5105TIP3    H115279   6.936   4.265   2.809  0.2099  0.7104  0.0138
 5105TIP3    H215280   7.012   4.258   2.678 -1.5163  0.1146 -0.9952
 5106TIP3   OH215281   3.141   2.290   3.916 -0.9981 -0.2663  0.6072
 5106TIP3    H115282   3.236   2.297   3.909 -1.0689  0.4444  0.3302
 5106TIP3    H215283   3.118   2.347   3.988 -1.1862 -0.7016  0.8960
 5107TIP3   OH215284   0.315   1.708   4.167 -0.0577 -0.8684 -0.0694
 5107TIP3    H115285   0.297   1.707   4.261 -0.6901  0.5916 -0.1355
 5107TIP3    H215286   0.228   1.703   4.126  0.0604  0.2810 -0.5141
 5108TIP3   OH215287   3.518   1.668   4.224  0.0141 -0.0621 -0.6883
 5108TIP3    H115288   3.427   1.646   4.242 -0.5957  1.4134 -1.7148
 5108TIP3    H215289   3.564   1.652   4.307 -1.6385  1.3868  0.5948
 5109TIP3   OH215290   2.010   1.321   5.648 -0.2173 -0.1782 -0.5075
 5109TIP3    H115291   1.970   1.404   5.622 -1.8310 -0.5454  0.6865
 5109TIP3    H215292   2.103   1.333   5.629 -0.8141  0.7089 -3.4060
 5110TIP3   OH215293   5.593   5.010   0.887  0.0760 -0.5175 -0.2308
 5110TIP3    H115294   5.576   5.014   0.793 -3.2913  2.8131  0.2939
 5110TIP3    H215295   5.666   5.071   0.901  1.0443 -1.5345 -0.6643
 5111TIP3   OH215296   1.795   6.603   0.821  0.4824  0.1607 -0.1542
 5111TIP3    H115297   1.855   6.619   0.748  0.3092 -0.7231 -0.4980
 5111TIP3    H215298   1.752   6.687   0.835 -1.3544 -0.2449 -2.7382
 5112TIP3   OH215299   1.449   0.626   4.336 -0.3418 -0.1608 -0.2524
 5112TIP3    H115300   1.490   0.703   4.297  0.9492 -0.9824 -0.5694
 5112TIP3    H215301   1.368   0.659   4.375  0.5524  1.5016  0.2993
 5113TIP3   OH215302   4.161   4.244   1.825 -0.0072 -0.0326 -0.1165
 5113TIP3    H115303   4.113   4.163   1.804 -2.4590  1.4419 -0.6558
 5113TIP3    H215304   4.230   4.249   1.759  1.0549 -2.3116  0.7337
 5114TIP3   OH215305   2.729   0.793   1.158 -0.5013  0.3157  0.0591
 5114TIP3    H115306   2.703   0.849   1.230  0.1867 -0.9667  1.3729
 5114TIP3    H215307   2.652   0.739   1.140 -0.3020 -0.1924  0.6844
 5115TIP3   OH215308   3.889   4.260   1.221 -0.2824  0.2976  0.1866
 5115TIP3    H115309   3.924   4.174   1.242  2.3478  1.2512  0.0747
 5115TIP3    H215310   3.838   4.285   1.298  0.5085 -0.5920  1.0257
 5116TIP3   OH215311   5.426   3.379   4.743  0.2296  0.6839 -0.2622
 5116TIP3    H115312   5.442   3.473   4.745 -0.3914  0.8348 -1.3778
 5116TIP3    H215313   5.381   3.364   4.660 -2.5923 -0.1194  1.2832
 5117TIP3   OH215314   0.407   0.545   1.042 -0.0328  0.5437 -0.3280
 5117TIP3    H115315   0.375   0.540   1.132 -0.3970 -0.3343 -0.5016
 5117TIP3    H215316   0.328   0.543   0.988  0.2467 -0.5414 -0.7185
 5118TIP3   OH215317   0.663   5.076   5.126  0.0673  0.1839  0.4177
 5118TIP3    H115318   0.747   5.118   5.148  1.0207 -0.9336 -0.9134
 5118TIP3    H215319   0.598   5.144   5.143  1.4539  1.9153 -0.7134
 5119TIP3   OH215320   6.245   5.025   0.283  0.0349 -0.5955 -0.1593
 5119TIP3    H115321   6.288   4.946   0.315 -2.8783 -1.7458  1.2922
 5119TIP3    H215322   6.192   4.996   0.209  1.9195  0.8591 -2.1991
 5120TIP3   OH215323   2.610   6.561   4.581 -0.1708 -0.3699 -0.5419
 5120TIP3    H115324   2.659   6.551   4.663 -1.4871 -3.2349  0.0199
 5120TIP3    H215325   2.669   6.528   4.513 -0.7206 -2.5187 -0.0469
 5121TIP3   OH215326   2.547   4.179   5.405 -0.8828  0.7684  0.2712
 5121TIP3    H115327   2.488   4.223   5.467 -1.4162  0.5062 -0.0489
 5121TIP3    H215328   2.614   4.245   5.386 -1.8661  1.5748 -0.4757
 5122TIP3   OH215329   7.104   3.299   3.678 -0.0834 -0.0074 -0.3345
 5122TIP3    H115330   7.093   3.204   3.674  0.9732 -0.0933 -1.5227
 5122TIP3    H215331   7.021   3.334   3.648 -0.1999 -0.5588 -0.6612
 5123TIP3   OH215332   6.481   1.849   2.069  0.7317 -0.2063 -0.4268
 5123TIP3    H115333   6.471   1.938   2.034  3.0079 -0.1364 -1.0349
 5123TIP3    H215334   6.467   1.792   1.994  0.3955 -0.3276 -0.2764
 5124TIP3   OH215335   5.057   2.932   3.498 -0.0532 -0.0704  0.3543
 5124TIP3    H115336   4.985   2.995   3.506 -0.2038  0.1118 -1.8886
 5124TIP3    H215337   5.125   2.965   3.556 -0.3732  1.8263 -0.3030
 5125TIP3   OH215338   1.297   6.254   3.148  0.0545  0.2129  0.2651
 5125TIP3    H115339   1.342   6.269   3.065 -1.0647 -0.6583 -0.5321
 5125TIP3    H215340   1.259   6.339   3.170 -0.9039  0.1247 -0.9187
 5126TIP3   OH215341   2.539   4.312   1.497  0.0643 -0.0691 -0.5416
 5126TIP3    H115342   2.474   4.334   1.563 -1.1746 -0.9189 -1.4331
 5126TIP3    H215343   2.567   4.224   1.519  0.4614  0.0634 -0.5148
 5127TIP3   OH215344   0.553   5.941   1.372 -0.2629  0.0738 -0.2146
 5127TIP3    H115345   0.512   5.886   1.439  1.6266 -0.1808  0.8125
 5127TIP3    H215346   0.561   5.885   1.295 -0.0994 -0.4840  0.2013
 5128TIP3   OH215347   5.111   0.495   3.769 -0.0770 -0.5847 -0.5651
 5128TIP3    H115348   5.118   0.583   3.805  0.1892 -0.6589 -0.4275
 5128TIP3    H215349   5.025   0.492   3.727 -0.9800 -0.9170  1.2146
 5129TIP3   OH215350   3.487   4.674   3.798 -0.0116 -0.1036  0.6683
 5129TIP3    H115351   3.447   4.598   3.755 -0.2724  1.6109 -2.3293
 5129TIP3    H215352   3.418   4.709   3.854 -0.8009 -0.4823 -0.0553
 5130TIP3   OH215353   3.919   0.589   0.102  0.3410 -0.4641 -0.3264
 5130TIP3    H115354   4.005   0.630   0.097  0.2375 -0.2882 -0.6960
 5130TIP3    H215355   3.905   0.554   0.014 -0.2216  0.0216 -0.4301
 5131TIP3   OH215356   2.825   5.276   4.792  0.0041 -0.0553  0.0287
 5131TIP3    H115357   2.819   5.334   4.868  0.8954  0.3893 -0.2179
 5131TIP3    H215358   2.801   5.332   4.718  1.0357  0.0681 -0.2291
 5132TIP3   OH215359   0.085   2.929   5.221 -0.3815 -0.6381  0.0599
 5132TIP3    H115360   0.066   2.879   5.141 -1.5740 -1.4069  0.7866
 5132TIP3    H215361   0.017   2.996   5.225  0.0256 -0.2203  0.1371
 5133TIP3   OH215362   4.303   1.588   2.715  0.3731 -0.2215  0.4691
 5133TIP3    H115363   4.294   1.504   2.670 -2.4630 -0.8394  1.9247
 5133TIP3    H215364   4.220   1.599   2.762  2.0181  1.6901  3.2499
 5134TIP3   OH215365   7.068   5.875   0.957  0.1576  0.1528  0.7717
 5134TIP3    H115366   6.992   5.882   0.900 -0.6073  2.6588  1.9498
 5134TIP3    H215367   7.060   5.788   0.997 -1.3142 -0.1774 -0.1631
 5135TIP3   OH215368   3.066   2.343   1.825 -0.0894 -0.2953 -0.3237
 5135TIP3    H115369   3.009   2.412   1.790  0.4706 -1.2609 -3.4961
 5135TIP3    H215370   3.037   2.264   1.780  1.2634 -1.5488  0.9282
 5136TIP3   OH215371   3.400   0.000   3.285  0.9397 -0.0030 -0.1468
 5136TIP3    H115372   3.460   0.036   3.350 -0.6992 -2.2114  2.8356
 5136TIP3    H215373   3.334   0.068   3.273 -0.4233 -0.5771  3.0389
 5137TIP3   OH215374   5.847   1.395   4.921  0.1565  0.0471  0.3110
 5137TIP3    H115375   5.916   1.407   4.986  0.9147  0.8151 -0.6044
 5137TIP3    H215376   5.771   1.441   4.957  0.5208  0.3435  0.7072
 5138TIP3   OH215377   5.804   2.982   4.618  0.2934 -0.0092 -0.1598
 5138TIP3    H115378   5.709   2.973   4.610  0.4596 -1.0479 -1.1579
 5138TIP3    H215379   5.835   2.986   4.528  1.1779  0.7645  0.1606
 5139TIP3   OH215380   2.934   1.070   5.255  0.3300 -0.0860  0.5791
 5139TIP3    H115381   2.981   1.050   5.336 -2.3599  0.1855  2.3164
 5139TIP3    H215382   2.896   1.157   5.270  0.8994  0.5845 -1.5650
 5140TIP3   OH215383   1.016   3.596   2.836 -0.0148 -0.5428  0.0699
 5140TIP3    H115384   0.925   3.614   2.862 -0.3809 -1.1659 -0.7117
 5140TIP3    H215385   1.056   3.682   2.828 -0.4964 -0.2647  0.5660
 5141TIP3   OH215386   1.158   3.804   4.094 -0.2110 -0.0644  0.1667
 5141TIP3    H115387   1.246   3.819   4.128  0.1191 -1.9146  0.1952
 5141TIP3    H215388   1.134   3.718   4.126 -1.8739  0.2200 -0.2214
 5142TIP3   OH215389   5.042   5.566   3.731  0.3318 -0.2839  0.2706
 5142TIP3    H115390   5.039   5.634   3.663 -0.6336 -0.1242  0.4639
 5142TIP3    H215391   5.129   5.527   3.721  0.8285  0.8395  0.0177
 5143TIP3   OH215392   6.283   0.285   5.655  0.5433 -0.3511 -0.3417
 5143TIP3    H115393   6.334   0.221   5.704  0.5025 -0.2739 -0.1984
 5143TIP3    H215394   6.342   0.360   5.645  1.1530 -1.0006 -1.8701
 5144TIP3   OH215395   1.073   3.947   1.826  0.1499  0.2928 -0.0210
 5144TIP3    H115396   0.989   3.975   1.789 -0.2568 -0.3505  0.3863
 5144TIP3    H215397   1.138   3.973   1.762 -0.1499  2.4851  0.4877
 5145TIP3   OH215398   2.363   6.390   1.700 -0.1291 -0.0279 -0.0617
 5145TIP3    H115399   2.397   6.462   1.753  0.4679 -0.5476  0.2835
 5145TIP3    H215400   2.288   6.426   1.654  0.4267  0.9388 -0.2263
 5146TIP3   OH215401   3.367   5.773   2.868 -0.5282 -0.3297 -0.4794
 5146TIP3    H115402   3.278   5.737   2.870 -0.4002 -0.6764  1.3454
 5146TIP3    H215403   3.368   5.837   2.939  0.3984  0.3923 -1.1353
 5147TIP3   OH215404   1.141   5.849   4.586 -0.7300  0.3484 -0.4378
 5147TIP3    H115405   1.151   5.931   4.536  1.0031 -1.0353 -2.5429
 5147TIP3    H215406   1.081   5.797   4.532 -0.0811 -0.5824 -0.2660
 5148TIP3   OH215407   5.967   2.403   1.534  0.5549 -0.1527  0.6197
 5148TIP3    H115408   5.973   2.307   1.537 -2.8814 -0.4866  0.6072
 5148TIP3    H215409   5.969   2.424   1.441 -1.7943 -0.5945  0.4165
 5149TIP3   OH215410   0.452   5.049   2.272 -0.6481 -0.3120  0.2737
 5149TIP3    H115411   0.517   4.993   2.315  0.5137 -0.6763 -1.8407
 5149TIP3    H215412   0.492   5.136   2.272 -0.6223 -0.3215 -0.0883
 5150TIP3   OH215413   0.513   2.763   5.802  0.0912 -0.3153  0.4011
 5150TIP3    H115414   0.531   2.819   5.878  1.4819  0.4775 -0.4494
 5150TIP3    H215415   0.543   2.815   5.727 -0.3597 -1.4524 -0.6019
 5151TIP3   OH215416   1.512   4.345   2.863 -0.1761  0.1229  0.1424
 5151TIP3    H115417   1.567   4.398   2.921 -0.3278  0.2678  0.1552
 5151TIP3    H215418   1.575   4.300   2.806 -0.0180 -0.1843  0.5546
 5152TIP3   OH215419   5.934   5.654   1.407  0.4052  0.5441  0.2602
 5152TIP3    H115420   5.970   5.693   1.487 -0.9353 -0.5544  1.4679
 5152TIP3    H215421   5.967   5.565   1.406 -0.7355  0.0933  0.4130
 5153TIP3   OH215422   2.617   3.666   5.551 -0.3161 -0.0777  0.0750
 5153TIP3    H115423   2.562   3.676   5.473 -1.5901 -1.4135  0.7344
 5153TIP3    H215424   2.693   3.721   5.535 -1.9566  2.0759 -0.7893
 5154TIP3   OH215425   4.768   1.250   4.569 -0.0368  0.3721 -0.5609
 5154TIP3    H115426   4.825   1.181   4.604  0.8881  1.6272  0.4829
 5154TIP3    H215427   4.705   1.267   4.638  0.8985  1.8494 -0.0314
 5155TIP3   OH215428   6.493   3.700   5.443  0.1956  0.1183 -0.3828
 5155TIP3    H115429   6.448   3.667   5.521  0.7100 -0.3698 -0.2855
 5155TIP3    H215430   6.559   3.634   5.424  0.6011  0.6242 -0.7629
 5156TIP3   OH215431   1.159   1.449   4.242  0.3062 -0.2761  0.2644
 5156TIP3    H115432   1.095   1.504   4.288  1.0922  0.6126  0.3264
 5156TIP3    H215433   1.123   1.438   4.154  0.9378  1.8036 -0.3015
 5157TIP3   OH215434   1.415   5.006   2.085 -0.6099 -0.0626  0.2297
 5157TIP3    H115435   1.411   4.918   2.046  0.9782 -0.8334  1.6536
 5157TIP3    H215436   1.467   5.057   2.022 -0.7899 -0.3817 -0.1875
 5158TIP3   OH215437   4.578   5.034   1.284  0.4591 -0.2549  0.3156
 5158TIP3    H115438   4.642   5.091   1.327  0.5206 -0.3134  0.3002
 5158TIP3    H215439   4.496   5.051   1.332 -0.2551  2.0570 -1.5399
 5159TIP3   OH215440   2.921   1.270   0.951  0.1978  0.8135  0.7830
 5159TIP3    H115441   3.006   1.273   0.908  0.9207  0.9447  2.1412
 5159TIP3    H215442   2.891   1.180   0.940  0.4481  0.8011  0.1817
 5160TIP3   OH215443   2.940   1.927   5.409 -0.0106 -0.3321 -0.2532
 5160TIP3    H115444   3.001   1.947   5.480  0.3447 -0.9722 -0.3713
 5160TIP3    H215445   2.989   1.949   5.329 -0.7738  1.3969 -0.3001
 5161TIP3   OH215446   0.925   1.722   5.198  0.0116  0.3434 -0.2628
 5161TIP3    H115447   0.842   1.731   5.152  0.1174  0.4951 -0.4246
 5161TIP3    H215448   0.970   1.805   5.182  0.1388  0.3124 -0.0666
 5162TIP3   OH215449   2.936   1.390   1.197  0.0315  0.3048 -0.1862
 5162TIP3    H115450   2.887   1.471   1.213  0.1473  0.4053 -0.3459
 5162TIP3    H215451   2.950   1.388   1.102  0.8318  0.5595 -0.0791
 5163TIP3   OH215452   5.206   3.846   3.496 -0.1919 -0.5459  0.1443
 5163TIP3    H115453   5.238   3.856   3.586  0.4629 -0.0836 -0.1282
 5163TIP3    H215454   5.126   3.795   3.505  0.0491 -0.8091  0.9581
 5164TIP3   OH215455   2.712   1.204   2.793  0.0515  0.4850  0.3690
 5164TIP3    H115456   2.696   1.121   2.840  3.0342 -1.4809 -1.7709
 5164TIP3    H215457   2.638   1.211   2.733 -0.9367  0.1140  1.4918
 5165TIP3   OH215458   1.357   5.680   0.295 -0.2179  0.3640 -0.3477
 5165TIP3    H115459   1.326   5.756   0.246 -2.1043  1.1193  1.8808
 5165TIP3    H215460   1.278   5.636   0.325  0.8562 -1.6167 -0.2402
 5166TIP3   OH215461   0.046   5.700   4.472 -0.2698  0.6602  0.0933
 5166TIP3    H115462   0.023   5.793   4.463 -0.5470  0.6568  0.7460
 5166TIP3    H215463   0.132   5.693   4.430 -0.5204  1.0873 -0.5041
 5167TIP3   OH215464   5.920   0.247   5.842  0.4771 -0.5813 -0.1317
 5167TIP3    H115465   5.835   0.262   5.884  0.8754  3.2791 -0.3473
 5167TIP3    H215466   5.903   0.262   5.749  0.9749 -2.2920 -0.5342
 5168TIP3   OH215467   7.183   3.745   2.955  0.2991  0.4249  0.4409
 5168TIP3    H115468   7.121   3.779   3.019 -0.4239 -0.2469  0.1156
 5168TIP3    H215469   7.128   3.698   2.891  1.2889 -1.9235  1.2185
 5169TIP3   OH215470   4.480   4.200   1.820  0.5623 -0.1176 -0.0088
 5169TIP3    H115471   4.446   4.178   1.907  0.0433  0.9938  0.0884
 5169TIP3    H215472   4.477   4.118   1.771 -0.9639 -0.3558  0.4366
 5170TIP3   OH215473   0.461   6.188   4.660  0.0503  0.8251  0.0858
 5170TIP3    H115474   0.393   6.227   4.714  1.1632 -0.2895  2.4614
 5170TIP3    H215475   0.507   6.129   4.720  1.3209 -0.5695 -2.1566
 5171TIP3   OH215476   4.356   4.673   0.407 -0.0703  0.3175 -0.1613
 5171TIP3    H115477   4.303   4.662   0.329  0.9995 -1.4245 -0.7068
 5171TIP3    H215478   4.376   4.584   0.436  0.5209  0.9172  1.4370
 5172TIP3   OH215479   3.801   3.728   5.500 -0.3594  0.2958  0.2530
 5172TIP3    H115480   3.817   3.756   5.410 -1.3036 -2.7699 -0.9755
 5172TIP3    H215481   3.722   3.675   5.496  0.1959 -0.8826  2.6794
 5173TIP3   OH215482   0.707   1.628   3.235  0.0529  0.1464  0.0153
 5173TIP3    H115483   0.624   1.628   3.284 -1.5897 -0.3552 -2.5572
 5173TIP3    H215484   0.758   1.557   3.275 -2.0341 -1.5941 -0.1860
 5174TIP3   OH215485   5.041   5.385   5.307  0.4738  0.3489 -0.1898
 5174TIP3    H115486   5.063   5.394   5.214  0.7769 -0.8169 -0.2442
 5174TIP3    H215487   5.112   5.332   5.343 -0.8340 -1.1811  0.2161
 5175TIP3   OH215488   1.485   2.939   4.685  0.1877  0.9003  0.5433
 5175TIP3    H115489   1.488   2.961   4.778  0.9571 -1.6195  1.1936
 5175TIP3    H215490   1.447   2.851   4.682  3.6439 -0.7653 -1.0866
 5176TIP3   OH215491   0.070   0.273   5.417  0.0907  0.3857  0.0755
 5176TIP3    H115492   0.036   0.219   5.488  2.0478  1.3160  1.8669
 5176TIP3    H215493  -0.004   0.288   5.359 -1.6634 -0.2780  2.0356
 5177TIP3   OH215494   3.916   4.824   3.798  0.4819  0.1450 -0.4406
 5177TIP3    H115495   3.925   4.916   3.824 -0.2557  0.1219 -0.1064
 5177TIP3    H215496   4.001   4.803   3.758  0.7502  0.8920 -0.2854
 5178TIP3   OH215497   4.303   2.273   3.371 -0.1655  0.2743 -0.5534
 5178TIP3    H115498   4.326   2.306   3.458 -0.5721 -0.7933 -0.0249
 5178TIP3    H215499   4.387   2.264   3.325  0.2666 -1.0735  0.4437
 5179TIP3   OH215500   7.147   4.570   2.491 -0.0889  0.0061  0.2501
 5179TIP3    H115501   7.139   4.482   2.455 -0.0208  0.2277 -0.3058
 5179TIP3    H215502   7.102   4.627   2.429  0.1429  0.4050  0.4408
 5180TIP3   OH215503   3.315   4.376   3.204  0.1172  0.0023 -0.0985
 5180TIP3    H115504   3.242   4.357   3.146  0.8215 -0.0810 -0.9776
 5180TIP3    H215505   3.342   4.291   3.238 -0.3195  0.0552  0.3889
 5181TIP3   OH215506   5.995   1.993   1.270  0.6283 -0.1130  0.3828
 5181TIP3    H115507   6.061   1.955   1.328 -0.2820  0.3692  1.7743
 5181TIP3    H215508   5.954   1.917   1.227 -0.4811 -0.7152  2.3711
 5182TIP3   OH215509   1.441   1.445   4.717  0.0678  0.2623 -0.0390
 5182TIP3    H115510   1.418   1.445   4.809 -0.0333  1.4665 -0.0400
 5182TIP3    H215511   1.452   1.353   4.694 -2.2095 -0.2323  0.5940
 5183TIP3   OH215512   2.131   5.723   4.577  0.1070  0.5552  0.1226
 5183TIP3    H115513   2.110   5.815   4.559  0.6360  0.4384 -1.2168
 5183TIP3    H215514   2.126   5.680   4.492  1.0688 -0.4110  0.5298
 5184TIP3   OH215515   6.057   3.189   5.253 -0.7758 -0.0215 -0.2589
 5184TIP3    H115516   6.003   3.141   5.316  0.9969 -0.2334  1.1574
 5184TIP3    H215517   6.140   3.143   5.251 -0.0183  1.3128 -1.0858
 5185TIP3   OH215518   1.446   0.933   0.532 -0.0281  0.1616 -0.3418
 5185TIP3    H115519   1.363   0.948   0.579 -0.1532 -2.3616  0.3946
 5185TIP3    H215520   1.420   0.887   0.452  0.6118 -0.2696 -0.3094
 5186TIP3   OH215521   2.007   5.386   4.763  0.7856  0.2375 -0.1875
 5186TIP3    H115522   1.921   5.414   4.731  1.4452  2.2690 -0.3180
 5186TIP3    H215523   1.998   5.384   4.859  0.6452  0.7059 -0.1872
 5187TIP3   OH215524   1.619   2.187   4.795 -0.0230 -0.4221 -0.0578
 5187TIP3    H115525   1.675   2.205   4.871  1.7970 -1.3792 -1.1041
 5187TIP3    H215526   1.654   2.106   4.759 -1.8849 -0.8509 -1.0063
 5188TIP3   OH215527   1.054   5.205   4.874 -0.1704  0.3819  0.1818
 5188TIP3    H115528   1.087   5.277   4.820 -1.0885  0.4677 -0.2692
 5188TIP3    H215529   1.131   5.150   4.889  0.1378  0.4672 -1.0431
 5189TIP3   OH215530   5.832   5.447   4.682 -0.1131  0.1070 -0.2893
 5189TIP3    H115531   5.920   5.438   4.644  0.1226  0.5040  0.1504
 5189TIP3    H215532   5.848   5.452   4.777 -0.7251 -1.3926 -0.0848
 5190TIP3   OH215533   4.148   6.564   3.488 -0.1003  0.2901  0.8773
 5190TIP3    H115534   4.074   6.505   3.494 -0.0460  0.3001  1.8023
 5190TIP3    H215535   4.111   6.651   3.505  0.0926  0.3110  1.2062
 5191TIP3   OH215536   3.909   1.990   0.827  0.6686 -0.6937 -0.3219
 5191TIP3    H115537   3.926   1.976   0.920 -2.5177 -1.5152  0.2380
 5191TIP3    H215538   3.977   1.939   0.783  0.5633 -2.6678  1.6201
 5192TIP3   OH215539   2.643   1.466   1.920  0.0232  0.0494 -0.4377
 5192TIP3    H115540   2.601   1.392   1.963  0.3631  0.1229  0.0251
 5192TIP3    H215541   2.725   1.478   1.967  0.7900 -0.3855 -1.6107
 5193TIP3   OH215542   1.502   3.148   5.547  0.3009 -0.4198 -0.0009
 5193TIP3    H115543   1.413   3.125   5.571  0.8218 -0.5817  1.9423
 5193TIP3    H215544   1.504   3.243   5.549  0.2424 -0.4230  0.2615
 5194TIP3   OH215545   1.272   3.354   4.268 -0.1044 -0.0024  0.5402
 5194TIP3    H115546   1.273   3.292   4.195 -0.1623 -0.2902  0.7821
 5194TIP3    H215547   1.344   3.415   4.248 -0.6008  0.3777 -0.1406
 5195TIP3   OH215548   3.666   2.051   1.654 -0.7506  0.0583 -0.1544
 5195TIP3    H115549   3.614   2.110   1.708  2.2314  2.7249  0.0875
 5195TIP3    H215550   3.709   2.108   1.590  1.0764 -2.0694 -0.9712
 5196TIP3   OH215551   1.496   5.943   1.150  0.9864  0.2443  0.3783
 5196TIP3    H115552   1.567   5.934   1.086  1.4792 -0.6218  1.0261
 5196TIP3    H215553   1.441   6.013   1.116  0.7030 -0.8349 -1.4940
 5197TIP3   OH215554   3.715   6.798   0.325 -0.2940  0.3973 -0.0609
 5197TIP3    H115555   3.674   6.711   0.332  1.1998 -0.2536  1.1031
 5197TIP3    H215556   3.762   6.795   0.242  0.0102 -0.0536  0.1174
 5198TIP3   OH215557   0.872   4.802   3.921  0.4155 -0.1577  0.1306
 5198TIP3    H115558   0.883   4.718   3.876  0.0547 -0.7490  1.1240
 5198TIP3    H215559   0.958   4.820   3.958  1.1660  1.1061 -2.0323
 5199TIP3   OH215560   6.379   0.108   2.952 -0.8922 -0.1954 -0.8396
 5199TIP3    H115561   6.391   0.084   2.860 -1.7179 -2.2489 -0.4597
 5199TIP3    H215562   6.399   0.028   3.001 -1.1867  0.6476  0.7344
 5200TIP3   OH215563   0.719   2.132   0.066  0.1585 -0.0472  0.4116
 5200TIP3    H115564   0.721   2.184  -0.015  2.7962  0.5600  0.7504
 5200TIP3    H215565   0.739   2.195   0.135 -0.6805 -0.8101  1.3684
 5201TIP3   OH215566   2.191   1.068   1.663 -0.3335 -0.0007  0.3695
 5201TIP3    H115567   2.261   1.129   1.686 -0.5794  0.4392 -0.0220
 5201TIP3    H215568   2.142   1.113   1.594 -0.2847 -0.8152 -0.2048
 5202TIP3   OH215569   1.952   4.369   2.356  0.3827  0.3776 -0.4659
 5202TIP3    H115570   2.002   4.335   2.430 -0.0140 -1.7431 -1.0742
 5202TIP3    H215571   1.935   4.461   2.377  1.0184  0.0625  1.6463
 5203TIP3   OH215572   5.894   4.559   2.634  0.6098  0.0577 -0.3532
 5203TIP3    H115573   5.810   4.600   2.612 -0.4006 -1.5827  0.2542
 5203TIP3    H215574   5.871   4.490   2.697  2.1456 -1.7067 -1.6256
 5204TIP3   OH215575   0.536   2.899   2.341  0.4068  0.0125  0.6407
 5204TIP3    H115576   0.606   2.946   2.296 -0.3926  1.5576  0.9528
 5204TIP3    H215577   0.558   2.907   2.434 -0.6884  1.3964  0.8045
 5205TIP3   OH215578   2.658   0.458   5.465  0.2964  0.0981  0.2873
 5205TIP3    H115579   2.595   0.469   5.536  0.2909  0.5362  0.2212
 5205TIP3    H215580   2.619   0.505   5.391  0.7490  0.4678  0.2806
 5206TIP3   OH215581   1.491   4.633   1.166 -0.2178 -0.0591 -0.0111
 5206TIP3    H115582   1.574   4.598   1.132  0.3597 -0.1642  1.4454
 5206TIP3    H215583   1.453   4.561   1.216  0.3310  0.9255  1.8958
 5207TIP3   OH215584   1.442   5.022   2.362  0.2210  0.1805  0.7061
 5207TIP3    H115585   1.452   5.022   2.267  0.0966 -2.8148  0.6048
 5207TIP3    H215586   1.460   5.113   2.388  2.5463  0.5901 -1.9045
 5208TIP3   OH215587   0.484   3.178   3.661 -0.3392 -0.3089 -0.5902
 5208TIP3    H115588   0.543   3.108   3.690 -1.2678 -0.3926  1.2091
 5208TIP3    H215589   0.535   3.258   3.673 -0.4463 -0.4085  0.6599
 5209TIP3   OH215590   0.469   1.252   5.553 -0.5296 -1.0144  0.3967
 5209TIP3    H115591   0.536   1.203   5.505 -0.5969 -0.9421  0.2309
 5209TIP3    H215592   0.386   1.218   5.521 -0.5830 -0.4471 -0.0774
 5210TIP3   OH215593   4.132   5.338   1.900 -0.2866 -0.3128 -0.3096
 5210TIP3    H115594   4.082   5.258   1.919 -0.5208 -0.4648 -1.4775
 5210TIP3    H215595   4.221   5.307   1.885 -0.4247 -0.3934 -0.9927
 5211TIP3   OH215596   0.497   5.184   3.987  0.0042 -0.0955 -0.8252
 5211TIP3    H115597   0.548   5.106   4.005 -0.8905 -0.4811  0.1144
 5211TIP3    H215598   0.501   5.235   4.068  0.0823  0.5577 -1.2286
 5212TIP3   OH215599   1.965   0.205   2.030 -0.1208 -0.0390 -0.1866
 5212TIP3    H115600   1.924   0.161   2.104 -1.6939 -0.4680 -1.2648
 5212TIP3    H215601   1.973   0.296   2.058 -0.6503 -0.2109  0.5357
 5213TIP3   OH215602   4.966   1.071   3.035  0.0152 -0.0080 -0.9149
 5213TIP3    H115603   4.881   1.114   3.029  0.7346  1.9331  1.4588
 5213TIP3    H215604   5.028   1.141   3.058  1.2363 -2.1331  3.3741
 5214TIP3   OH215605   0.931   5.524   5.616  0.3110  0.5420 -0.1548
 5214TIP3    H115606   0.932   5.467   5.540  1.0527  1.0100 -0.5049
 5214TIP3    H215607   0.957   5.468   5.689  1.2365  0.4710 -0.5305
 5215TIP3   OH215608   4.438   5.611   2.861 -0.0965  0.3725  0.0467
 5215TIP3    H115609   4.387   5.691   2.868  0.5585  0.9993 -1.8252
 5215TIP3    H215610   4.385   5.545   2.906 -1.2384  1.5798  0.5366
 5216TIP3   OH215611   0.489   5.135   0.007 -0.2437 -0.4182  0.3778
 5216TIP3    H115612   0.507   5.081   0.084 -0.4145 -2.7571 -1.1183
 5216TIP3    H215613   0.394   5.126  -0.006  0.0214 -1.6256 -1.1064
 5217TIP3   OH215614   2.689   3.187   1.813  0.1034 -0.2166 -0.5080
 5217TIP3    H115615   2.704   3.132   1.890  1.7826  0.0079 -0.6494
 5217TIP3    H215616   2.630   3.135   1.758  0.7592 -1.4041 -0.1315
 5218TIP3   OH215617   2.464   2.743   0.296  0.2259 -0.3124  0.4460
 5218TIP3    H115618   2.443   2.734   0.203  1.3264 -1.8233  0.2987
 5218TIP3    H215619   2.498   2.657   0.321  2.1584  0.7345  1.6711
 5219TIP3   OH215620   5.903   2.356   0.280 -0.3264  0.5642 -0.8487
 5219TIP3    H115621   5.904   2.389   0.370  1.0752  0.9768 -0.9925
 5219TIP3    H215622   5.911   2.433   0.225  1.7371  0.1696 -1.2164
 5220TIP3   OH215623   5.617   1.318   0.899  0.1864  0.0607 -0.6401
 5220TIP3    H115624   5.537   1.364   0.872  0.5331  0.6970 -0.6080
 5220TIP3    H215625   5.688   1.375   0.868  0.6143  0.8186  1.5718
 5221TIP3   OH215626   2.726   2.370   0.109 -0.4618 -0.3660 -0.2776
 5221TIP3    H115627   2.695   2.459   0.121 -0.6046 -0.2657 -1.3337
 5221TIP3    H215628   2.821   2.376   0.116 -0.2493  0.3371 -2.9501
 5222TIP3   OH215629   2.646   1.593   0.940 -0.3006 -0.0553  0.0947
 5222TIP3    H115630   2.612   1.636   1.019  0.5251  1.4604 -0.3303
 5222TIP3    H215631   2.740   1.585   0.956 -0.2461 -0.4401 -0.4142
 5223TIP3   OH215632   4.233   4.132   0.811 -0.1755  0.0612  0.5274
 5223TIP3    H115633   4.158   4.160   0.760  0.2944 -0.8424 -0.6947
 5223TIP3    H215634   4.236   4.037   0.800  1.3858  0.1269  0.2027
 5224TIP3   OH215635   6.007   0.050   5.261 -0.8368 -0.0450  0.6217
 5224TIP3    H115636   6.093   0.025   5.226 -1.3323 -0.9043 -0.0195
 5224TIP3    H215637   6.024   0.072   5.352  0.1359  0.2069  0.3958
 5225TIP3   OH215638   3.976   4.980   3.404  0.0935 -0.5700 -0.0541
 5225TIP3    H115639   4.047   5.013   3.350  0.2815 -1.1860 -0.1937
 5225TIP3    H215640   3.920   5.056   3.420 -0.3039 -0.5023 -1.6271
 5226TIP3   OH215641   0.205   5.975   4.777 -0.1817 -0.8486  0.5888
 5226TIP3    H115642   0.149   5.898   4.788  0.0604 -0.9866  0.8629
 5226TIP3    H215643   0.170   6.040   4.838 -1.1282 -0.3089 -0.4819
 5227TIP3   OH215644   7.075   5.959   0.652 -0.1825 -0.0032  0.5037
 5227TIP3    H115645   7.013   5.992   0.587 -0.3453 -0.9353  0.1813
 5227TIP3    H215646   7.051   5.867   0.664  2.3058 -0.9444 -1.0594
 5228TIP3   OH215647   3.216   1.534   1.236 -0.1645  0.4088  0.3257
 5228TIP3    H115648   3.209   1.610   1.178 -1.7785 -0.3343 -0.5151
 5228TIP3    H215649   3.126   1.501   1.243  0.5332 -1.5791  0.4725
 5229TIP3   OH215650   3.826   5.446   1.342  0.1329  0.1087  0.7726
 5229TIP3    H115651   3.752   5.386   1.354  0.6900 -0.3979  1.8431
 5229TIP3    H215652   3.898   5.403   1.387  0.2091  2.2279  2.8381
 5230TIP3   OH215653   6.334   1.044   3.262 -0.5888 -0.7677  0.0877
 5230TIP3    H115654   6.315   0.967   3.210  0.0061 -0.2906 -0.8688
 5230TIP3    H215655   6.403   1.090   3.213 -2.6496  1.7051 -0.7343
 5231TIP3   OH215656   2.918   4.899   0.724  0.0883  0.0765  0.3141
 5231TIP3    H115657   2.840   4.931   0.769  0.8109  1.0660  0.9057
 5231TIP3    H215658   2.888   4.878   0.635 -0.4329  2.5698 -0.1830
 5232TIP3   OH215659   5.892   5.100   0.597 -0.3301 -0.7212  0.1744
 5232TIP3    H115660   5.949   5.173   0.621 -0.7802 -0.4095  0.3192
 5232TIP3    H215661   5.813   5.142   0.562 -0.1689 -1.1491 -0.7420
 5233TIP3   OH215662   2.396   5.579   4.638  0.0422 -0.1473 -0.0998
 5233TIP3    H115663   2.345   5.508   4.600  2.0043 -1.4356 -0.4808
 5233TIP3    H215664   2.342   5.657   4.625 -2.0589 -1.4961  0.0963
 5234TIP3   OH215665   3.840   0.131   5.832  0.1905  0.1571  0.1074
 5234TIP3    H115666   3.799   0.052   5.868 -0.5096  0.0726 -0.8328
 5234TIP3    H215667   3.913   0.149   5.891 -0.3170 -0.5423  0.9779
 5235TIP3   OH215668   1.276   2.312   1.109  0.0704 -0.1474 -0.7541
 5235TIP3    H115669   1.310   2.224   1.126 -0.3688  0.0779  1.6527
 5235TIP3    H215670   1.182   2.300   1.098 -0.0787  0.0631  0.2056
 5236TIP3   OH215671   1.139   5.706   2.563  0.1142 -0.2184  0.2420
 5236TIP3    H115672   1.177   5.619   2.552 -0.1521 -0.3045 -0.0083
 5236TIP3    H215673   1.125   5.714   2.658  0.6101 -0.2452  0.3181
 5237TIP3   OH215674   1.802   6.378   4.961  0.4346  0.3304 -0.8408
 5237TIP3    H115675   1.859   6.452   4.942 -0.8534  1.9970  1.2089
 5237TIP3    H215676   1.759   6.359   4.878 -0.3772  3.0245 -1.1497
 5238TIP3   OH215677   3.002   1.710   2.865 -0.3237  0.1759  0.2989
 5238TIP3    H115678   3.006   1.796   2.906 -1.2319  1.2133 -1.6388
 5238TIP3    H215679   3.054   1.654   2.921  0.2936  1.9844  1.6248
 5239TIP3   OH215680   5.036   0.241   3.866  0.2654  0.6660 -0.0020
 5239TIP3    H115681   5.063   0.331   3.845  0.5821  0.3184 -1.1377
 5239TIP3    H215682   4.987   0.212   3.789 -1.0105  0.3132  0.9086
 5240TIP3   OH215683   6.886   5.188   5.663 -0.0808  0.0670 -0.2116
 5240TIP3    H115684   6.861   5.106   5.620  1.2921 -0.8459  0.6584
 5240TIP3    H215685   6.982   5.183   5.670 -0.0851  1.1863  0.9699
 5241TIP3   OH215686   5.648   3.961   5.393 -0.1298  0.2011  0.0004
 5241TIP3    H115687   5.638   4.043   5.441  0.4579 -0.0802  0.6234
 5241TIP3    H215688   5.731   3.970   5.346 -0.1188  0.0176 -0.0187
 5242TIP3   OH215689   3.128   4.806   4.130  0.3836  0.3346 -0.0562
 5242TIP3    H115690   3.043   4.818   4.172  0.8116  0.6466  0.7454
 5242TIP3    H215691   3.191   4.808   4.203  0.8677 -2.7867 -0.2363
 5243TIP3   OH215692   3.309   2.114   2.153  0.6800  0.1357 -0.1242
 5243TIP3    H115693   3.307   2.162   2.070 -0.4221 -0.7804 -0.6571
 5243TIP3    H215694   3.252   2.165   2.211  0.0990 -0.1232 -0.4597
 5244TIP3   OH215695   6.980   4.314   1.731  0.2970 -0.3355 -0.2557
 5244TIP3    H115696   6.963   4.230   1.688  1.1031 -0.3052 -0.6491
 5244TIP3    H215697   7.065   4.302   1.774  2.0779  1.2842 -3.0144
 5245TIP3   OH215698   3.885   0.356   5.433 -0.2148  0.2600 -0.5742
 5245TIP3    H115699   3.908   0.425   5.496 -4.1689  0.9381  0.4072
 5245TIP3    H215700   3.858   0.404   5.355  1.7496 -0.4746 -1.7590
 5246TIP3   OH215701   6.014   3.625   2.881 -0.1528  0.4257 -0.1096
 5246TIP3    H115702   5.983   3.697   2.825  1.1528  2.1543  1.2688
 5246TIP3    H215703   6.104   3.649   2.902 -0.1289 -0.9553  1.4704
 5247TIP3   OH215704   4.241   6.364   0.724 -0.0300 -0.0603  0.6341
 5247TIP3    H115705   4.310   6.317   0.677  0.3842 -0.7979  1.9256
 5247TIP3    H215706   4.160   6.322   0.696  0.2526 -0.8398  0.9680
 5248TIP3   OH215707   0.778   4.306   5.849 -0.3559  0.4514  0.4199
 5248TIP3    H115708   0.692   4.327   5.887 -1.5859 -1.1515 -1.2822
 5248TIP3    H215709   0.760   4.294   5.756  1.8880  0.7602 -0.1022
 5249TIP3   OH215710   1.026   2.767   5.207  0.4291  0.0364 -0.1077
 5249TIP3    H115711   1.011   2.809   5.122 -2.1139 -0.3222  0.0919
 5249TIP3    H215712   1.082   2.692   5.187 -0.4447 -0.2703 -1.5603
 5250TIP3   OH215713   1.381   5.493   2.033 -0.3855  0.2353 -0.3162
 5250TIP3    H115714   1.329   5.416   2.055 -0.9684  1.1814  2.0292
 5250TIP3    H215715   1.460   5.458   1.992 -2.0783 -1.3417 -2.4656
 5251TIP3   OH215716   5.509   4.494   2.490  0.1748 -0.0564 -0.0324
 5251TIP3    H115717   5.558   4.553   2.546 -0.6027 -0.4869  1.1585
 5251TIP3    H215718   5.418   4.502   2.520 -0.0118 -1.5275 -0.0865
 5252TIP3   OH215719   6.629   3.436   4.040  0.1157  0.2645  0.1508
 5252TIP3    H115720   6.697   3.453   3.975 -0.4798  0.3327 -0.4704
 5252TIP3    H215721   6.630   3.341   4.050  0.1394  0.2440 -0.0383
 5253TIP3   OH215722   3.297   1.238   0.533 -0.0072  0.0721 -0.2791
 5253TIP3    H115723   3.289   1.228   0.438  1.2244  2.4467 -0.7143
 5253TIP3    H215724   3.234   1.175   0.569  1.0540 -2.4905 -2.5523
 5254TIP3   OH215725   5.922   3.148   3.751 -0.1224  0.1306  0.7179
 5254TIP3    H115726   5.977   3.223   3.774 -0.0823 -0.0514  1.2295
 5254TIP3    H215727   5.837   3.186   3.730 -0.5174  0.2171  2.3502
 5255TIP3   OH215728   3.529   1.173   1.513  0.5501 -0.2459 -0.0207
 5255TIP3    H115729   3.465   1.243   1.498  0.5464 -0.4123 -0.7796
 5255TIP3    H215730   3.502   1.135   1.597  1.2316  1.3988  1.0126
 5256TIP3   OH215731   5.476   2.304   2.278 -0.3758 -0.5614 -0.2438
 5256TIP3    H115732   5.523   2.387   2.268 -0.4486 -0.4460  0.3715
 5256TIP3    H215733   5.384   2.328   2.276 -0.3959 -0.5114  0.8645
 5257TIP3   OH215734   5.049   1.560   2.302  0.3911 -0.4190  0.8425
 5257TIP3    H115735   5.112   1.506   2.349  1.2188 -0.4013 -0.2328
 5257TIP3    H215736   5.059   1.647   2.340  1.0327 -0.4134  0.6617
 5258TIP3   OH215737   6.684   1.928   2.571 -0.0087 -0.0415 -0.1994
 5258TIP3    H115738   6.754   1.969   2.622 -0.6262  0.3152  0.3724
 5258TIP3    H215739   6.612   1.991   2.575 -0.2352 -0.2311 -1.1057
 5259TIP3   OH215740   4.701   0.819   2.733 -0.0284 -1.0427 -0.2934
 5259TIP3    H115741   4.642   0.888   2.703  0.4040 -0.7861 -0.5658
 5259TIP3    H215742   4.649   0.767   2.794 -0.4305 -0.6172 -0.2731
 5260TIP3   OH215743   6.983   0.577   2.059 -0.4335 -0.1453 -0.5757
 5260TIP3    H115744   6.982   0.481   2.057 -1.9268 -0.2197  1.3615
 5260TIP3    H215745   6.916   0.600   2.122 -1.9208  2.2818 -2.8629
 5261TIP3   OH215746   4.920   4.333   0.219  0.5309 -0.1080 -0.0938
 5261TIP3    H115747   5.000   4.286   0.241  0.2978 -0.1049  0.7877
 5261TIP3    H215748   4.884   4.285   0.144  2.0084  0.6451 -1.3576
 5262TIP3   OH215749   1.104   6.061   2.539 -0.0263  0.1043 -0.3872
 5262TIP3    H115750   1.081   5.973   2.508 -0.3669 -0.0140  0.1940
 5262TIP3    H215751   1.029   6.088   2.591 -0.2855  1.0834 -1.2485
 5263TIP3   OH215752   2.359   0.316   5.531 -0.0792  0.9340 -0.1824
 5263TIP3    H115753   2.449   0.305   5.501 -0.2227  1.5954 -0.9063
 5263TIP3    H215754   2.342   0.240   5.585  0.6534  0.3931 -0.6919
 5264TIP3   OH215755   1.288   5.201   0.106 -0.0664 -0.8072  0.2909
 5264TIP3    H115756   1.362   5.208   0.165 -0.1993 -0.3536  0.4136
 5264TIP3    H215757   1.225   5.144   0.152  0.4708 -1.7380 -0.1047
 5265TIP3   OH215758   5.459   3.799   3.666  0.5513  0.3557  0.6979
 5265TIP3    H115759   5.369   3.810   3.697  0.0827 -0.4381 -0.2985
 5265TIP3    H215760   5.510   3.786   3.746 -0.5395 -1.1505  1.2095
 5266TIP3   OH215761   4.689   2.935   4.474 -0.2376  0.2053  0.1536
 5266TIP3    H115762   4.621   2.868   4.468 -0.9270  0.8834  0.2190
 5266TIP3    H215763   4.675   2.976   4.560  1.1723 -0.5912  0.8137
 5267TIP3   OH215764   2.635   0.987   2.986 -0.1633  0.4022  0.5380
 5267TIP3    H115765   2.688   0.934   3.046 -1.7614  0.2452  1.8734
 5267TIP3    H215766   2.545   0.964   3.007 -0.8585 -1.3167 -3.4268
 5268TIP3   OH215767   6.198   6.326   0.835  0.3243 -0.3487  0.2272
 5268TIP3    H115768   6.197   6.274   0.755 -1.3241 -0.5973  0.3735
 5268TIP3    H215769   6.178   6.264   0.905  0.3777  0.1149  0.6673
 5269TIP3   OH215770   5.971   4.773   0.917  0.6341  0.4750 -0.0396
 5269TIP3    H115771   5.936   4.836   0.980  0.7957 -1.4744  2.1132
 5269TIP3    H215772   5.930   4.797   0.834 -1.2691  1.8480  1.2168
 5270TIP3   OH215773   2.761   3.701   0.268 -0.2438  0.2782 -0.0606
 5270TIP3    H115774   2.798   3.613   0.262 -1.0133 -0.1994  1.5391
 5270TIP3    H215775   2.756   3.732   0.178  0.7833 -0.9960 -0.5789
 5271TIP3   OH215776   5.806   2.146   4.359 -0.0414 -0.1177  0.5216
 5271TIP3    H115777   5.886   2.140   4.306  0.2049 -0.5515  0.9368
 5271TIP3    H215778   5.738   2.172   4.296  0.2790 -0.4677  0.0177
 5272TIP3   OH215779   3.267   5.139   3.621 -0.6226  0.8359 -0.1484
 5272TIP3    H115780   3.352   5.135   3.664 -1.0624  0.9136  0.7392
 5272TIP3    H215781   3.260   5.055   3.575 -1.2258 -0.3857  2.0243
 5273TIP3   OH215782   4.170   5.526   5.450 -0.1954 -0.0377 -0.1096
 5273TIP3    H115783   4.104   5.567   5.393 -0.6654 -0.5359  0.0723
 5273TIP3    H215784   4.254   5.550   5.410 -0.2577  3.5138  1.5233
 5274TIP3   OH215785   1.800   6.212   1.004 -0.3483 -1.0210 -0.0054
 5274TIP3    H115786   1.760   6.299   1.004 -1.2961 -1.4440  0.0630
 5274TIP3    H215787   1.894   6.229   1.000 -0.4818  0.0255  0.9036
 5275TIP3   OH215788   7.203   1.982   1.182  0.2799  0.2989  0.1955
 5275TIP3    H115789   7.144   1.944   1.117  1.6933 -0.0528 -0.9190
 5275TIP3    H215790   7.145   2.015   1.250 -1.2347  0.4429 -1.1114
 5276TIP3   OH215791   1.271   4.638   2.438  0.1054 -0.0376  0.2233
 5276TIP3    H115792   1.224   4.604   2.362  1.0352  2.6419 -1.7036
 5276TIP3    H215793   1.353   4.589   2.438  0.4653  0.4992 -1.1058
 5277TIP3   OH215794   5.466   5.537   4.473  0.9594  0.3891  0.4228
 5277TIP3    H115795   5.378   5.569   4.494  0.5180  0.8803 -1.9303
 5277TIP3    H215796   5.461   5.442   4.489  0.2039  0.4901  0.8599
 5278TIP3   OH215797   2.308   4.437   0.862 -0.1764 -0.2198 -0.1680
 5278TIP3    H115798   2.250   4.510   0.882 -1.4664 -1.7093  1.9382
 5278TIP3    H215799   2.277   4.405   0.777 -1.4182  0.0140  0.1721
 5279TIP3   OH215800   1.671   4.720   2.161 -0.2285 -0.0215 -0.3326
 5279TIP3    H115801   1.751   4.763   2.131 -0.1608  0.7967  0.9574
 5279TIP3    H215802   1.602   4.761   2.108 -0.1636  1.7314  0.8436
 5280TIP3   OH215803   1.002   5.804   4.224 -0.1540 -0.4251  0.4197
 5280TIP3    H115804   1.027   5.718   4.192  0.4528 -0.3550  0.6980
 5280TIP3    H215805   0.906   5.801   4.228 -0.1223 -1.1928  0.7213
 5281TIP3   OH215806   6.526   4.394   5.783  0.3939  0.5774 -0.0373
 5281TIP3    H115807   6.585   4.464   5.812  2.1882 -0.1897 -1.6234
 5281TIP3    H215808   6.559   4.315   5.826  0.6973  0.0978 -1.1263
 5282TIP3   OH215809   1.145   3.570   1.858 -0.2167 -0.2751  0.3933
 5282TIP3    H115810   1.055   3.573   1.825  0.6144  2.4345 -2.0197
 5282TIP3    H215811   1.196   3.536   1.784  0.7488 -2.5752  2.0004
 5283TIP3   OH215812   2.679   1.827   3.677  0.0583 -0.2269 -0.1933
 5283TIP3    H115813   2.720   1.865   3.754  0.8617  0.1405 -0.7841
 5283TIP3    H215814   2.595   1.871   3.670  0.6092  0.8157 -0.3647
 5284TIP3   OH215815   4.169   6.795   1.223 -0.1224  0.0959 -0.1451
 5284TIP3    H115816   4.235   6.726   1.220 -0.3340 -0.0671 -1.4487
 5284TIP3    H215817   4.100   6.760   1.278 -0.0202 -0.5455 -0.4176
 5285TIP3   OH215818   1.571   1.339   5.447 -0.0531  0.3127  0.1392
 5285TIP3    H115819   1.514   1.414   5.430 -0.1005  0.2531  0.0374
 5285TIP3    H215820   1.545   1.273   5.383  0.5287  0.5041 -0.2965
 5286TIP3   OH215821   0.519   1.909   1.311  0.3279  0.2303  0.0865
 5286TIP3    H115822   0.432   1.911   1.349 -0.9907  1.3387 -2.7101
 5286TIP3    H215823   0.527   1.821   1.274  0.6306 -0.0394  0.7759
 5287TIP3   OH215824   2.785   1.986   1.897  0.6551  0.1244 -0.2274
 5287TIP3    H115825   2.715   1.926   1.870  0.5487 -0.1505  0.6332
 5287TIP3    H215826   2.756   2.019   1.982  0.5135  1.7221 -0.8685
 5288TIP3   OH215827   5.337   4.309   3.351  0.2913 -0.2142  0.4221
 5288TIP3    H115828   5.257   4.257   3.346 -0.9167  1.5457  0.3974
 5288TIP3    H215829   5.328   4.359   3.432  0.5493  1.2199 -0.3985
 5289TIP3   OH215830   6.933   0.311   4.320 -0.0818 -0.2754  0.4330
 5289TIP3    H115831   6.990   0.255   4.267  0.9221 -0.5694  1.7420
 5289TIP3    H215832   6.972   0.306   4.408 -0.8538  1.3029  0.8853
 5290TIP3   OH215833   2.053   0.591   0.338  0.5715  0.1576 -0.5888
 5290TIP3    H115834   2.020   0.681   0.343  0.9838  0.3311 -0.9766
 5290TIP3    H215835   2.132   0.591   0.393 -0.1426 -0.2971  0.4692
 5291TIP3   OH215836   1.985   5.263   2.984  0.3049  0.5093  0.0369
 5291TIP3    H115837   1.897   5.260   3.022 -0.1409 -1.9983 -0.9715
 5291TIP3    H215838   2.033   5.194   3.028  0.7031 -0.4153 -1.7508
 5292TIP3   OH215839   6.747   0.196   1.251  0.2451 -0.2991  0.0174
 5292TIP3    H115840   6.675   0.136   1.265 -0.3216  0.7378  1.8423
 5292TIP3    H215841   6.761   0.238   1.336  2.3570  0.2428 -0.5262
 5293TIP3   OH215842   0.008   0.915   0.742 -0.2956 -0.0710  0.1170
 5293TIP3    H115843   0.078   0.894   0.680 -1.1922 -1.2954 -0.5135
 5293TIP3    H215844   0.047   0.900   0.828  0.7814  1.0847 -0.1451
 5294TIP3   OH215845   3.068   0.607   2.431 -0.0505  0.2149 -0.2072
 5294TIP3    H115846   3.053   0.641   2.343  0.6273 -1.1466 -0.8666
 5294TIP3    H215847   3.022   0.668   2.488 -1.1316  0.6963 -1.5551
 5295TIP3   OH215848   4.601   0.306   5.481 -0.5063  0.0586  0.2690
 5295TIP3    H115849   4.512   0.271   5.472 -0.3186 -0.5153  0.5479
 5295TIP3    H215850   4.656   0.238   5.441 -0.2461  0.7044 -0.4791
 5296TIP3   OH215851   1.321   6.664   5.530  0.2242  0.7446  0.0110
 5296TIP3    H115852   1.257   6.650   5.599 -0.9972  3.0160 -0.5497
 5296TIP3    H215853   1.301   6.751   5.496 -0.2742 -0.7799 -4.2671
 5297TIP3   OH215854   6.844   0.532   1.748  0.5412  0.0669 -0.0109
 5297TIP3    H115855   6.848   0.623   1.722  1.9068  0.2706  0.7732
 5297TIP3    H215856   6.832   0.535   1.843  3.7188 -0.4155  0.5439
 5298TIP3   OH215857   7.058   2.544   1.727  0.3692  0.4914 -0.3306
 5298TIP3    H115858   7.029   2.454   1.745  1.8259  0.0632  0.0533
 5298TIP3    H215859   7.088   2.542   1.636  1.5533  0.2281  0.0378
 5299TIP3   OH215860   4.384   5.572   1.225 -0.3167  0.1716 -0.2403
 5299TIP3    H115861   4.309   5.616   1.185 -0.8961 -0.4760  0.1099
 5299TIP3    H215862   4.427   5.640   1.277 -0.8654  0.4699 -0.1722
 5300TIP3   OH215863   4.799   4.244   0.706 -1.1610  0.0103 -0.5463
 5300TIP3    H115864   4.829   4.283   0.624 -0.2847  0.3567 -0.0713
 5300TIP3    H215865   4.723   4.192   0.681 -1.8142  1.2868 -1.3570
 5301TIP3   OH215866   4.219   5.756   1.512  0.1412  0.0507  0.1602
 5301TIP3    H115867   4.228   5.712   1.596  0.6145 -2.9490 -1.3520
 5301TIP3    H215868   4.127   5.782   1.508  0.2903  0.9980  1.8953
 5302TIP3   OH215869   5.318   0.146   4.862 -0.0726 -0.0468  0.0989
 5302TIP3    H115870   5.350   0.057   4.879  0.7566  0.2821  0.2644
 5302TIP3    H215871   5.386   0.186   4.808  1.0839  1.5066  2.5306
 5303TIP3   OH215872   1.591   4.179   2.077  0.0503 -0.5450  0.3794
 5303TIP3    H115873   1.655   4.228   2.027  2.7091 -1.3399  2.7357
 5303TIP3    H215874   1.552   4.243   2.137 -1.3980 -0.0928 -0.9586
 5304TIP3   OH215875   2.086   2.383   2.205 -0.5707 -0.1820  0.0077
 5304TIP3    H115876   2.089   2.456   2.267  0.6392  0.2609 -0.5466
 5304TIP3    H215877   2.176   2.351   2.200 -0.4678  0.3163 -2.1292
 5305TIP3   OH215878   6.283   0.691   5.625 -0.1299  0.2525  0.3388
 5305TIP3    H115879   6.367   0.700   5.669  0.0794  0.4489 -0.0971
 5305TIP3    H215880   6.219   0.718   5.691 -0.0972 -2.3576  1.5921
 5306TIP3   OH215881   2.865   0.781   0.272 -0.2509 -0.2574 -0.1397
 5306TIP3    H115882   2.789   0.786   0.330  1.1043  2.0637  1.6229
 5306TIP3    H215883   2.880   0.872   0.245  0.9851 -0.8936 -1.6919
 5307TIP3   OH215884   3.318   5.186   1.340 -0.0899  0.3230 -0.3562
 5307TIP3    H115885   3.404   5.226   1.346 -0.0247 -0.0449  1.9132
 5307TIP3    H215886   3.331   5.109   1.284  1.1882 -0.0298  0.4082
 5308TIP3   OH215887   5.046   5.097   1.420 -0.0875  0.1220  0.9625
 5308TIP3    H115888   5.033   5.027   1.485  0.1592  0.5578  1.4919
 5308TIP3    H215889   5.047   5.177   1.472  1.4141  0.3748  0.5737
 5309TIP3   OH215890   1.490   6.050   4.249  0.0168 -0.1303  0.0841
 5309TIP3    H115891   1.546   6.068   4.325  0.0029 -0.5137  0.1884
 5309TIP3    H215892   1.550   6.017   4.183  0.0183  0.1381 -0.0494
 5310TIP3   OH215893   1.680   2.917   1.421 -0.0540 -0.3838 -0.9056
 5310TIP3    H115894   1.602   2.929   1.368  1.4583 -1.1199 -3.4961
 5310TIP3    H215895   1.693   3.001   1.464 -3.2098 -0.7795  1.1437
 5311TIP3   OH215896   3.091   2.210   5.479 -0.2181  0.2130 -0.0500
 5311TIP3    H115897   3.169   2.165   5.511  0.3411  0.9005 -0.4279
 5311TIP3    H215898   3.120   2.253   5.398 -0.9109  0.7227 -0.0324
 5312TIP3   OH215899   6.079   0.853   0.197 -0.2757  0.0493 -0.0117
 5312TIP3    H115900   6.131   0.782   0.236 -1.0704 -0.9400 -0.6937
 5312TIP3    H215901   6.086   0.839   0.102  1.8131  2.5409 -0.3404
 5313TIP3   OH215902   1.722   4.776   3.613  0.2966 -0.2209  0.1252
 5313TIP3    H115903   1.700   4.683   3.617 -1.8795  0.2249 -0.3622
 5313TIP3    H215904   1.740   4.792   3.520  0.2764 -0.0743  0.1465
 5314TIP3   OH215905   2.610   2.700   3.381 -0.3348  0.3615  0.2015
 5314TIP3    H115906   2.557   2.689   3.302 -1.1138 -1.0212  0.8824
 5314TIP3    H215907   2.698   2.670   3.355 -0.6020 -0.1457 -0.1308
 5315TIP3   OH215908   5.997   2.356   2.915  0.0286 -0.0032 -0.0121
 5315TIP3    H115909   6.022   2.440   2.954 -0.3748  0.1012  0.0219
 5315TIP3    H215910   5.907   2.342   2.943  0.3959 -0.9146  0.7820
 5316TIP3   OH215911   0.929   5.633   4.507 -0.1089  0.7011 -0.2777
 5316TIP3    H115912   0.854   5.686   4.536 -0.1207  0.6470 -0.2093
 5316TIP3    H215913   0.908   5.544   4.536 -0.6595  0.4280 -1.4644
 5317TIP3   OH215914   5.281   1.094   1.482 -0.5269  0.0109 -0.2963
 5317TIP3    H115915   5.282   1.174   1.535  2.5900  1.8358 -2.7403
 5317TIP3    H215916   5.320   1.028   1.539  0.7863  1.3629  0.4451
 5318TIP3   OH215917   0.826   1.467   5.146  0.6659  0.2205  0.4190
 5318TIP3    H115918   0.854   1.398   5.206 -0.4624  0.7774  1.6507
 5318TIP3    H215919   0.871   1.546   5.177  1.2929  0.2190 -0.4550
 5319TIP3   OH215920   4.414   2.073   2.146  0.9001 -0.0286  0.0465
 5319TIP3    H115921   4.353   2.095   2.075  0.6440 -0.3382  0.1656
 5319TIP3    H215922   4.428   1.978   2.137  0.6176 -0.1262  0.6029
 5320TIP3   OH215923   5.414   5.701   1.450  0.0270 -0.2186  0.0999
 5320TIP3    H115924   5.344   5.764   1.433  0.6218  0.2668 -0.6417
 5320TIP3    H215925   5.486   5.755   1.483 -0.1082 -0.7769  1.3323
 5321TIP3   OH215926   4.660   1.789   4.955 -0.4927  0.4578 -0.1835
 5321TIP3    H115927   4.628   1.831   4.875 -0.2342  1.0758  0.0364
 5321TIP3    H215928   4.736   1.739   4.926  1.7425  3.3790  0.1873
 5322TIP3   OH215929   3.870   1.450   3.889 -0.2572  0.2607  0.4193
 5322TIP3    H115930   3.897   1.375   3.941 -2.0360 -0.2950  0.6003
 5322TIP3    H215931   3.796   1.488   3.937  1.6000  3.2174  1.2692
 5323TIP3   OH215932   7.119   1.810   0.279 -0.6261 -0.5528  0.2924
 5323TIP3    H115933   7.145   1.855   0.199 -3.4822  1.5688  0.3903
 5323TIP3    H215934   7.034   1.772   0.259 -1.4131  0.0288  2.2432
 5324TIP3   OH215935   5.425   0.384   2.857  0.0236 -0.4820 -0.6509
 5324TIP3    H115936   5.337   0.352   2.837 -0.7191  1.8685 -1.4736
 5324TIP3    H215937   5.454   0.426   2.776  1.2862  0.1029  0.0802
 5325TIP3   OH215938   3.862   5.094   3.967 -0.0975 -0.5618  0.3962
 5325TIP3    H115939   3.830   5.086   4.057 -0.0004 -0.4442  0.4409
 5325TIP3    H215940   3.952   5.127   3.976 -0.2008 -0.2324  0.2450
 5326TIP3   OH215941   3.063   5.195   2.988  0.6737 -0.0263 -0.1348
 5326TIP3    H115942   3.037   5.287   2.981  3.1579  0.7118 -0.6645
 5326TIP3    H215943   3.008   5.149   2.924 -2.1533  0.6160  1.6354
 5327TIP3   OH215944   3.417   3.096   3.970 -0.3793  0.1372 -0.2784
 5327TIP3    H115945   3.392   3.012   3.931 -1.9530 -0.1302  1.1663
 5327TIP3    H215946   3.344   3.154   3.951 -0.2910  0.5460  0.5667
 5328TIP3   OH215947   4.329   6.630   0.634 -0.0174 -0.3863 -0.1228
 5328TIP3    H115948   4.302   6.545   0.669 -0.7332 -0.8476 -1.6807
 5328TIP3    H215949   4.311   6.692   0.705 -1.8143 -1.2033  0.1892
 5329TIP3   OH215950   4.149   2.605   1.404 -0.0089  0.4166 -0.8244
 5329TIP3    H115951   4.240   2.578   1.390  0.2231  0.4113  0.5180
 5329TIP3    H215952   4.145   2.696   1.376  0.5047  0.5152 -0.5847
 5330TIP3   OH215953   4.567   3.141   3.282 -0.3105 -0.2007 -1.0009
 5330TIP3    H115954   4.529   3.228   3.285 -1.7532 -0.8124  1.0127
 5330TIP3    H215955   4.501   3.085   3.322  0.1047 -2.4439 -3.1986
 5331TIP3   OH215956   3.116   1.161   4.947  0.6758 -0.1437  0.9858
 5331TIP3    H115957   3.129   1.186   5.039  0.0418 -0.2284  1.1044
 5331TIP3    H215958   3.045   1.218   4.917 -0.9867 -1.9425  1.3338
 5332TIP3   OH215959   4.248   2.660   4.001 -0.6752 -0.0102 -0.1521
 5332TIP3    H115960   4.251   2.580   4.054 -1.2840 -0.7838 -1.2570
 5332TIP3    H215961   4.204   2.724   4.057  0.2800 -0.2755  0.9435
 5333TIP3   OH215962   4.122   1.815   0.730  0.1620  0.0537  0.0063
 5333TIP3    H115963   4.143   1.733   0.773 -0.4405 -0.6719 -1.0472
 5333TIP3    H215964   4.198   1.871   0.748  0.8898 -0.9465  0.1513
 5334TIP3   OH215965   3.957   1.514   4.843  0.3664 -0.1008 -0.1634
 5334TIP3    H115966   3.921   1.601   4.830  1.9886  0.7912  0.9792
 5334TIP3    H215967   3.984   1.513   4.935 -0.7625 -2.2708  0.2163
 5335TIP3   OH215968   0.412   6.253   5.629  0.2412 -0.3504 -0.7134
 5335TIP3    H115969   0.410   6.184   5.695  2.2349 -0.0235 -0.2670
 5335TIP3    H215970   0.361   6.325   5.667  0.0280 -0.7536 -0.2357
 5336TIP3   OH215971   4.156   2.513   0.169 -0.2628  0.6584  0.9028
 5336TIP3    H115972   4.233   2.475   0.128 -0.7983  0.0432  0.4518
 5336TIP3    H215973   4.191   2.565   0.241  0.7071  1.8561 -0.3800
 5337TIP3   OH215974   4.724   0.431   1.389 -0.1270 -0.4809 -0.1971
 5337TIP3    H115975   4.725   0.363   1.456  2.5591  1.7886  2.3607
 5337TIP3    H215976   4.789   0.403   1.324  1.4753 -0.1386  1.1975
 5338TIP3   OH215977   5.635   2.271   4.166  0.5596 -0.1252 -0.6475
 5338TIP3    H115978   5.643   2.339   4.233  0.7376 -1.9227  1.2838
 5338TIP3    H215979   5.542   2.269   4.145  0.0641 -1.0191  1.3227
 5339TIP3   OH215980   4.480   3.102   2.803  0.1255 -0.1129 -0.1035
 5339TIP3    H115981   4.434   3.100   2.886  0.9278 -0.5232  0.3372
 5339TIP3    H215982   4.570   3.126   2.825  0.2307  0.2918 -0.9096
 5340TIP3   OH215983   2.816   5.731   1.055 -0.5798  0.0519  0.1708
 5340TIP3    H115984   2.783   5.754   0.968 -0.1588 -0.3032 -0.0907
 5340TIP3    H215985   2.881   5.663   1.038  0.2469  0.6862  0.6650
 5341TIP3   OH215986   0.738   1.163   4.536 -0.2053  0.0159  0.5597
 5341TIP3    H115987   0.768   1.254   4.530  1.4469 -0.4277  1.5375
 5341TIP3    H215988   0.704   1.155   4.626 -0.6035 -0.2724  0.3872
 5342TIP3   OH215989   1.693   2.361   4.116 -0.7797 -0.9558  0.5567
 5342TIP3    H115990   1.670   2.440   4.164 -1.4951 -0.0817 -1.1359
 5342TIP3    H215991   1.611   2.314   4.106 -0.9902 -0.3239 -1.1321
 5343TIP3   OH215992   6.405   3.820   1.021  1.0140  0.1792  0.0663
 5343TIP3    H115993   6.344   3.748   1.003  1.7539 -0.1003 -1.5433
 5343TIP3    H215994   6.456   3.791   1.096 -0.1881  0.0084  0.8384
 5344TIP3   OH215995   5.705   5.466   1.596  0.2339 -0.5178 -0.0695
 5344TIP3    H115996   5.627   5.452   1.649 -0.5225 -0.1563 -1.0650
 5344TIP3    H215997   5.778   5.461   1.659 -0.6684  0.5363  1.1149
 5345TIP3   OH215998   6.917   1.383   5.453 -0.3555  0.5776 -0.3870
 5345TIP3    H115999   6.920   1.467   5.407 -2.1122  1.2655  0.6361
 5345TIP3    H216000   6.968   1.397   5.533  1.9022 -0.3280 -1.5753
 5346TIP3   OH216001   5.514   3.016   0.950 -0.6350  0.1992 -0.2392
 5346TIP3    H116002   5.610   3.019   0.953 -0.6345 -0.0354  2.8938
 5346TIP3    H216003   5.486   3.095   0.996 -1.8635 -0.9774  1.1338
 5347TIP3   OH216004   6.622   0.961   2.592  0.3460 -0.5827  0.2729
 5347TIP3    H116005   6.627   0.933   2.683  0.4421 -0.0984  0.4219
 5347TIP3    H216006   6.652   1.052   2.594 -0.8156 -0.1767 -0.0505
 5348TIP3   OH216007   5.811   4.614   0.270 -0.2405  0.5033  0.4086
 5348TIP3    H116008   5.848   4.554   0.334 -0.9033  0.0649  0.3870
 5348TIP3    H216009   5.740   4.565   0.228 -0.0681  0.9101 -0.3979
 5349TIP3   OH216010   5.996   1.641   0.534 -0.6035  0.3380 -0.4695
 5349TIP3    H116011   6.021   1.732   0.525 -2.5301  0.8804 -0.7485
 5349TIP3    H216012   5.980   1.611   0.445 -0.5068 -0.1056 -0.3411
 5350TIP3   OH216013   5.613   2.529   2.142  0.7145  0.0602  0.0299
 5350TIP3    H116014   5.652   2.533   2.229 -0.0055  0.9890  0.3289
 5350TIP3    H216015   5.687   2.511   2.084  1.6126  1.6876  0.5910
 5351TIP3   OH216016   5.521   5.684   1.186 -0.0146  0.2395  0.8548
 5351TIP3    H116017   5.615   5.666   1.191  0.1409  0.8204  0.1406
 5351TIP3    H216018   5.488   5.661   1.273  0.3752 -2.2762  0.4118
 5352TIP3   OH216019   0.131   5.030   3.891 -0.3451 -0.1948 -0.0115
 5352TIP3    H116020   0.214   4.983   3.892 -0.9031 -1.2112 -0.0911
 5352TIP3    H216021   0.103   5.027   3.800  0.7971  2.5189 -0.5675
 5353TIP3   OH216022   3.359   5.509   0.202 -0.9674  0.1858  0.0842
 5353TIP3    H116023   3.334   5.474   0.287 -0.0873 -1.1389 -0.1787
 5353TIP3    H216024   3.278   5.509   0.151 -1.2724 -0.0658  0.5623
 5354TIP3   OH216025   1.046   0.054   4.079  0.5673 -0.0395  0.1024
 5354TIP3    H116026   1.013   0.134   4.121 -0.2079 -0.5139  0.4036
 5354TIP3    H216027   0.998  -0.017   4.121  2.5306 -0.8431  1.1637
 5355TIP3   OH216028   1.492   3.987   4.054  0.7594 -0.8562  0.3907
 5355TIP3    H116029   1.509   3.942   4.137  2.9037  0.2191  0.5958
 5355TIP3    H216030   1.457   3.918   3.997  0.9169 -2.0248  1.6488
 5356TIP3   OH216031   6.904   6.419   4.784 -0.1981 -0.0605 -0.3404
 5356TIP3    H116032   6.993   6.448   4.764 -0.4452  0.2988 -0.9482
 5356TIP3    H216033   6.886   6.352   4.718 -0.6478  0.3988 -0.6831
 5357TIP3   OH216034   2.867   2.421   2.268 -0.1052 -0.1039 -0.7174
 5357TIP3    H116035   2.800   2.423   2.199 -0.3358 -0.6284 -0.5123
 5357TIP3    H216036   2.895   2.513   2.277  0.9972 -0.1953 -2.5463
 5358TIP3   OH216037   5.985   2.986   2.487 -0.1686  0.1149 -0.7885
 5358TIP3    H116038   6.074   2.990   2.522 -0.2105 -1.5530 -0.3958
 5358TIP3    H216039   5.933   3.035   2.550  0.7788  3.3580 -2.3527
 5359TIP3   OH216040   5.785   1.049   2.696  0.7615  0.2665 -0.6907
 5359TIP3    H116041   5.702   1.096   2.705  1.3132  1.4029 -1.2999
 5359TIP3    H216042   5.763   0.971   2.646 -0.2951 -0.4953  0.8698
 5360TIP3   OH216043   6.097   5.713   4.265 -0.5629  0.1864 -0.1617
 5360TIP3    H116044   6.184   5.676   4.276 -0.9225 -0.4025  0.8444
 5360TIP3    H216045   6.105   5.802   4.301 -0.8318 -0.5231  1.7613
 5361TIP3   OH216046   3.980   0.359   0.973  0.7244 -0.1710  0.2166
 5361TIP3    H116047   3.927   0.366   0.894 -2.5154  1.8098  2.3022
 5361TIP3    H216048   3.946   0.282   1.018  1.4983 -0.4254  0.3744
 5362TIP3   OH216049   3.683   5.812   5.027  0.2965  1.1181 -0.3065
 5362TIP3    H116050   3.705   5.757   5.103  0.6789 -0.9634 -1.8319
 5362TIP3    H216051   3.595   5.845   5.046  0.8632  1.6764  1.5642
 5363TIP3   OH216052   3.316   2.073   5.599 -0.2503 -0.6335  0.6768
 5363TIP3    H116053   3.373   2.150   5.603 -0.3829 -0.4719 -0.2860
 5363TIP3    H216054   3.350   2.014   5.668  0.6774 -0.2732  0.5447
 5364TIP3   OH216055   2.222   2.042   3.140  0.4147 -0.4235 -0.9233
 5364TIP3    H116056   2.207   2.041   3.045 -0.3988  1.0247 -0.8264
 5364TIP3    H216057   2.135   2.052   3.178  0.9570  1.5026 -0.1072
 5365TIP3   OH216058   3.796   3.435   2.932 -0.7802 -0.0330 -0.0838
 5365TIP3    H116059   3.727   3.437   2.999 -0.5193  1.0195  0.1779
 5365TIP3    H216060   3.858   3.503   2.960  0.4646 -1.0886 -0.2167
 5366TIP3   OH216061   6.517   1.055   1.340 -0.2251 -0.1554  0.2516
 5366TIP3    H116062   6.535   1.149   1.333 -0.3506 -0.0911  0.7720
 5366TIP3    H216063   6.599   1.017   1.370 -0.1171 -0.2428 -0.1429
 5367TIP3   OH216064   4.642   3.078   1.299  0.1261 -0.4268  0.3662
 5367TIP3    H116065   4.730   3.067   1.336 -0.2893 -0.0853  1.5009
 5367TIP3    H216066   4.628   2.999   1.247  1.6782  0.1671 -1.0752
 5368TIP3   OH216067   1.015   1.744   1.750 -0.0751 -0.0722  0.6401
 5368TIP3    H116068   0.950   1.813   1.735 -1.1669 -0.8505  1.7163
 5368TIP3    H216069   1.009   1.725   1.843 -0.9861 -2.7823  0.1019
 5369TIP3   OH216070   5.023   3.027   3.121 -0.0487  0.3355  0.1666
 5369TIP3    H116071   5.086   3.086   3.161  1.6876 -0.8224 -0.7230
 5369TIP3    H216072   4.966   2.999   3.193  2.1898 -0.7017  1.6315
 5370TIP3   OH216073   7.041   2.217   1.789  0.4419 -0.1402  0.3283
 5370TIP3    H116074   7.037   2.136   1.839  1.1830 -0.0406  0.5656
 5370TIP3    H216075   7.112   2.204   1.727 -0.6415 -0.3577 -0.8936
 5371TIP3   OH216076   4.791   2.758   1.196  1.1007  0.2027 -0.1343
 5371TIP3    H116077   4.771   2.689   1.133  3.9842  0.0668 -1.0713
 5371TIP3    H216078   4.844   2.821   1.147  3.2698  0.2136  2.0035
 5372TIP3   OH216079   5.562   1.454   0.423  0.3210 -1.0879  0.2305
 5372TIP3    H116080   5.540   1.444   0.331  1.6543 -0.1593 -0.2304
 5372TIP3    H216081   5.582   1.547   0.433  1.3186 -1.3821  1.1794
 5373TIP3   OH216082   2.184   4.449   4.859 -0.0306 -0.6892 -0.1799
 5373TIP3    H116083   2.138   4.474   4.779  1.5997  0.9716 -0.6746
 5373TIP3    H216084   2.266   4.410   4.828  0.2099 -0.8896  0.6891
 5374TIP3   OH216085   3.166   1.270   5.232 -0.7005  0.1798  0.1179
 5374TIP3    H116086   3.117   1.233   5.305 -0.8307 -0.6453 -0.3681
 5374TIP3    H216087   3.252   1.228   5.236 -0.6775  0.1971 -0.1511
 5375TIP3   OH216088   5.752   3.997   2.316  0.2923 -0.6435 -0.3236
 5375TIP3    H116089   5.668   3.952   2.304 -0.0204 -0.1143 -0.1328
 5375TIP3    H216090   5.737   4.059   2.387  0.6316 -0.0188 -0.7877
 5376TIP3   OH216091   0.913   5.983   3.804  0.1814  0.5271 -0.0119
 5376TIP3    H116092   0.992   5.987   3.858  0.3283 -0.3699 -0.1375
 5376TIP3    H216093   0.860   5.914   3.844 -0.6258  1.2255  0.1686
 5377TIP3   OH216094   6.841   5.733   0.451  0.2520 -0.0672  0.1190
 5377TIP3    H116095   6.760   5.782   0.435  0.3221  0.6546  1.7661
 5377TIP3    H216096   6.828   5.693   0.537  1.6277  0.0214  0.3880
 5378TIP3   OH216097   1.439   4.758   1.998  0.6162 -0.2390 -0.2070
 5378TIP3    H116098   1.363   4.711   2.032  0.2132  1.0395  0.7559
 5378TIP3    H216099   1.423   4.766   1.904  0.4149 -1.4895 -0.2878
 5379TIP3   OH216100   0.408   1.201   2.837  0.7751 -0.2106  0.2058
 5379TIP3    H116101   0.408   1.120   2.786 -2.0846 -0.3857  0.3192
 5379TIP3    H216102   0.457   1.263   2.783 -0.3624 -0.9517 -1.8106
 5380TIP3   OH216103   5.880   1.805   2.444 -0.1391 -0.7158  0.1230
 5380TIP3    H116104   5.919   1.882   2.403  1.1071 -1.3715  0.0052
 5380TIP3    H216105   5.808   1.780   2.387 -1.5769  1.2478  0.9815
 5381TIP3   OH216106   0.242   2.848   5.876 -0.4962 -0.0473  0.3186
 5381TIP3    H116107   0.269   2.909   5.808 -0.2579 -0.1433  0.3263
 5381TIP3    H216108   0.150   2.868   5.891 -0.7149 -0.4335 -0.4614
 5382TIP3   OH216109   0.289   0.366   5.575  0.7659  0.5256  0.3502
 5382TIP3    H116110   0.362   0.309   5.550  1.2588  0.3933  1.9518
 5382TIP3    H216111   0.246   0.387   5.492  1.8547 -0.4271 -0.5064
 5383TIP3   OH216112   3.649   6.536   5.338 -0.6713  0.1736 -0.3602
 5383TIP3    H116113   3.632   6.571   5.425 -1.1764  1.8515 -1.0964
 5383TIP3    H216114   3.728   6.581   5.309 -0.0006 -1.0141 -0.4687
 5384TIP3   OH216115   0.471   0.454   0.519 -0.1763 -0.0655  0.5411
 5384TIP3    H116116   0.402   0.414   0.572 -1.0611  0.4555 -0.1809
 5384TIP3    H216117   0.426   0.522   0.469  0.9043  0.4019  0.1795
 5385TIP3   OH216118   5.753   4.746   1.547 -0.5026 -0.5000  0.0199
 5385TIP3    H116119   5.847   4.727   1.550 -0.6794 -1.3757  0.1381
 5385TIP3    H216120   5.734   4.756   1.454 -0.2788 -0.2498 -0.0007
 5386TIP3   OH216121   3.825   6.406   4.064  0.3329 -0.4371 -0.0610
 5386TIP3    H116122   3.787   6.322   4.092 -0.3873 -0.2348 -0.4165
 5386TIP3    H216123   3.823   6.402   3.969  0.3207 -0.0224 -0.0770
 5387TIP3   OH216124   5.131   1.787   2.428  0.0439 -0.2933 -0.4039
 5387TIP3    H116125   5.104   1.879   2.437 -2.2846 -0.9371  0.0624
 5387TIP3    H216126   5.148   1.759   2.518  0.2170 -0.4570 -0.4885
 5388TIP3   OH216127   2.087   5.918   0.989  0.4037 -0.4529  0.7998
 5388TIP3    H116128   2.110   5.874   1.070  1.2348 -2.2440 -0.3388
 5388TIP3    H216129   2.126   6.005   0.997  3.2018 -1.6258  1.1008
 5389TIP3   OH216130   6.831   4.584   5.163  0.0444 -0.1889 -0.1836
 5389TIP3    H116131   6.859   4.625   5.245 -0.5230  1.2904 -0.6893
 5389TIP3    H216132   6.900   4.606   5.101  0.5436 -1.4296 -0.0972
 5390TIP3   OH216133   1.308   2.833   2.787 -0.4546 -0.5511  0.1547
 5390TIP3    H116134   1.346   2.920   2.798 -0.7784 -0.0970 -1.9070
 5390TIP3    H216135   1.282   2.829   2.695 -3.2102 -1.7277  0.8611
 5391TIP3   OH216136   1.019   5.402   2.961  0.3535  0.1014  0.3874
 5391TIP3    H116137   1.001   5.463   3.032  1.5270 -0.9681  1.6542
 5391TIP3    H216138   0.968   5.324   2.982 -1.2216  0.6135 -1.2740
 5392TIP3   OH216139   2.381   2.511   4.380 -0.1848  0.0949  0.0253
 5392TIP3    H116140   2.426   2.578   4.328  0.2443  1.1318  1.6709
 5392TIP3    H216141   2.289   2.535   4.376 -0.2400 -0.2185 -0.7766
 5393TIP3   OH216142   1.633   3.369   0.904 -0.0794  0.2484  0.8082
 5393TIP3    H116143   1.601   3.360   0.994 -0.3015  1.7071  0.9056
 5393TIP3    H216144   1.715   3.319   0.902 -0.0029  0.3134  1.8670
 5394TIP3   OH216145   5.412   0.525   4.249  0.5125  0.6413  0.1313
 5394TIP3    H116146   5.342   0.509   4.185  1.1020  3.0482 -1.2447
 5394TIP3    H216147   5.366   0.550   4.329 -0.2187 -0.6434  0.1452
 5395TIP3   OH216148   0.388   5.156   0.775  0.5022  0.2847 -0.2736
 5395TIP3    H116149   0.432   5.139   0.858 -1.3775 -1.7584  0.3797
 5395TIP3    H216150   0.333   5.233   0.793  0.5662  0.2260  0.1898
 5396TIP3   OH216151   5.485   3.262   4.463 -0.4418  0.1657 -0.0031
 5396TIP3    H116152   5.422   3.252   4.393 -0.6189 -1.6907  0.3765
 5396TIP3    H216153   5.543   3.333   4.434 -0.3669 -0.6971 -2.1261
 5397TIP3   OH216154   2.340   0.039   4.493  0.0825  0.0518 -0.4280
 5397TIP3    H116155   2.322   0.115   4.438  3.3211  1.1138 -0.1812
 5397TIP3    H216156   2.410  -0.008   4.447  0.4318 -0.9430  1.0696
 5398TIP3   OH216157   4.216   0.707   5.041  0.1033 -0.1177 -0.5591
 5398TIP3    H116158   4.300   0.744   5.071  0.9905 -1.3432 -1.4540
 5398TIP3    H216159   4.207   0.737   4.951 -0.8123  0.6128 -0.2445
 5399TIP3   OH216160   6.905   4.180   4.552  0.3582 -0.1654 -0.0192
 5399TIP3    H116161   6.896   4.267   4.590 -1.2927 -0.8428  1.2926
 5399TIP3    H216162   6.935   4.125   4.625 -0.2078 -0.9783 -0.3698
 5400TIP3   OH216163   1.173   6.342   4.446 -0.2809 -0.2771 -0.7011
 5400TIP3    H116164   1.214   6.424   4.474  0.9820 -0.6564 -1.3489
 5400TIP3    H216165   1.225   6.314   4.371 -0.8317 -1.5593 -0.6270
 5401TIP3   OH216166   3.406   1.709   2.841  0.3178 -0.0789 -0.1878
 5401TIP3    H116167   3.389   1.616   2.854  0.8082  0.1570  3.1407
 5401TIP3    H216168   3.498   1.713   2.815  0.0888 -0.5128 -1.1189
 5402TIP3   OH216169   2.287   4.833   3.038 -0.6276 -0.3076  0.3936
 5402TIP3    H116170   2.291   4.782   3.119  0.1034  0.7486  1.0472
 5402TIP3    H216171   2.302   4.769   2.969  1.9965 -0.7826  1.2772
 5403TIP3   OH216172   1.854   5.583   0.125  0.7486 -0.2355  0.6988
 5403TIP3    H116173   1.879   5.518   0.059  0.7581 -0.4507  0.9115
 5403TIP3    H216174   1.862   5.667   0.080  0.3590 -0.4074  0.3038
 5404TIP3   OH216175   3.555   5.940   0.310 -0.2241  0.0499 -0.9511
 5404TIP3    H116176   3.501   5.862   0.296  0.2243 -0.1519 -1.6190
 5404TIP3    H216177   3.525   6.002   0.244 -0.6858  0.5113 -0.3198
 5405TIP3   OH216178   5.762   3.858   2.862 -0.5841 -0.4237  0.2376
 5405TIP3    H116179   5.716   3.883   2.782 -0.6441 -0.2119  0.3370
 5405TIP3    H216180   5.855   3.866   2.840 -0.5953  0.5355  0.4580
 5406TIP3   OH216181   2.457   3.108   2.524 -0.1788  0.0850 -0.0837
 5406TIP3    H116182   2.417   3.146   2.446  0.4772  2.2379  0.5678
 5406TIP3    H216183   2.403   3.031   2.544 -1.0376  0.1366 -1.9689
 5407TIP3   OH216184   2.463   0.421   2.526  0.2457 -0.1474 -0.0848
 5407TIP3    H116185   2.479   0.433   2.619  2.0688  1.7031 -0.5460
 5407TIP3    H216186   2.498   0.334   2.506 -0.1151 -0.5325  0.9411
 5408TIP3   OH216187   1.920   2.679   0.565  0.1869 -0.3160  0.2372
 5408TIP3    H116188   1.881   2.764   0.581 -1.0227 -0.9596  0.8072
 5408TIP3    H216189   1.889   2.654   0.477  2.4673  0.8364 -0.9874
 5409TIP3   OH216190   5.570   0.113   2.376  0.4069 -0.3403 -0.1387
 5409TIP3    H116191   5.577   0.202   2.341 -0.3694  0.5129  1.7444
 5409TIP3    H216192   5.659   0.091   2.404  0.1360  1.0857  2.1137
 5410TIP3   OH216193   5.224   6.548   4.926 -0.1025 -0.3501  0.1551
 5410TIP3    H116194   5.194   6.631   4.888  1.4385  0.0241 -0.3089
 5410TIP3    H216195   5.319   6.558   4.935 -0.0593 -1.5566  1.3917
 5411TIP3   OH216196  -0.007   5.056   1.943 -0.2096  0.0544 -0.4311
 5411TIP3    H116197   0.049   5.027   2.015 -2.3326  2.2580  2.2901
 5411TIP3    H216198  -0.000   5.151   1.944 -1.9540  0.2298 -1.7419
 5412TIP3   OH216199   1.329   3.472   2.869  0.1111 -0.1272  0.1463
 5412TIP3    H116200   1.311   3.554   2.822  0.9018 -0.2998 -0.4902
 5412TIP3    H216201   1.424   3.473   2.882 -0.1701  0.2724  2.4658
 5413TIP3   OH216202   1.228   6.038   0.743  0.9021  0.1708  0.4597
 5413TIP3    H116203   1.319   6.052   0.719  0.8976  1.0967  0.9386
 5413TIP3    H216204   1.215   5.943   0.734  1.4558  0.2180 -1.1410
 5414TIP3   OH216205   1.200   2.004   2.065 -0.2323  0.1804  0.1609
 5414TIP3    H116206   1.271   2.065   2.086  1.3891 -1.4932 -0.0931
 5414TIP3    H216207   1.232   1.919   2.096 -0.9530 -1.1062 -2.3181
 5415TIP3   OH216208   7.073   0.257   1.290 -0.3496  0.1532  0.1701
 5415TIP3    H116209   7.132   0.319   1.248  2.7367 -2.1581  0.7474
 5415TIP3    H216210   7.040   0.304   1.367  1.3755  1.2864  0.2660
 5416TIP3   OH216211   0.724   6.561   3.346  0.2457  0.1369  0.0021
 5416TIP3    H116212   0.635   6.587   3.321  0.4464 -0.2920 -1.2419
 5416TIP3    H216213   0.745   6.616   3.421 -0.6218  1.0943 -0.4320
 5417TIP3   OH216214   6.324   6.064   3.860  0.0168  0.2790  0.1697
 5417TIP3    H116215   6.310   6.038   3.951 -0.0943  0.6775  0.2688
 5417TIP3    H216216   6.371   6.147   3.865 -0.6938  0.7093 -0.1238
 5418TIP3   OH216217   1.584   6.126   1.871  0.8524 -0.0064 -0.5352
 5418TIP3    H116218   1.656   6.189   1.859 -0.0165  1.0499 -0.3789
 5418TIP3    H216219   1.536   6.159   1.947 -1.3815  0.9112 -2.2246
 5419TIP3   OH216220   0.567   4.774   2.725  0.2812 -0.1134  0.0787
 5419TIP3    H116221   0.571   4.837   2.797 -1.5379 -1.0288  1.0350
 5419TIP3    H216222   0.547   4.690   2.766  0.0321 -0.8253 -1.4091
 5420TIP3   OH216223   5.983   1.246   1.169  0.1192  0.1365  0.0431
 5420TIP3    H116224   6.044   1.253   1.095  1.2960 -2.8201  0.5848
 5420TIP3    H216225   5.905   1.206   1.131  0.1465  0.0214  0.1064
 5421TIP3   OH216226   4.460   6.576   0.945 -0.0984  0.1246 -0.0368
 5421TIP3    H116227   4.398   6.642   0.914  0.7270  1.2627  0.6643
 5421TIP3    H216228   4.531   6.578   0.881 -0.4958 -0.7704 -0.5246
 5422TIP3   OH216229   0.009   5.536   2.767 -0.5201 -0.2674  0.7173
 5422TIP3    H116230   0.068   5.492   2.706  0.2495 -1.3680  2.2022
 5422TIP3    H216231  -0.076   5.496   2.752 -0.2023 -0.9785  0.7883
 5423TIP3   OH216232   3.031   2.479   3.043  0.1283  0.3869 -0.1158
 5423TIP3    H116233   2.953   2.438   3.004 -0.9292  1.3043  0.9576
 5423TIP3    H216234   3.001   2.512   3.128  1.7430  0.6273  0.4002
 5424TIP3   OH216235   2.977   1.385   5.655 -0.0442 -0.4112 -0.3904
 5424TIP3    H116236   2.911   1.415   5.593 -2.0505  0.7040  2.1261
 5424TIP3    H216237   3.060   1.415   5.618 -0.9536 -0.9598 -3.1298
 5425TIP3   OH216238   1.782   6.743   1.861 -0.3280  0.6124 -0.0243
 5425TIP3    H116239   1.876   6.730   1.876 -0.1399 -1.3246 -2.3811
 5425TIP3    H216240   1.741   6.709   1.941  0.9199  0.5673  0.6267
 5426TIP3   OH216241   0.443   1.894   3.999 -0.0589 -0.5907  0.5087
 5426TIP3    H116242   0.493   1.846   3.933  0.5280 -0.1750  0.6399
 5426TIP3    H216243   0.414   1.828   4.061  0.4668 -0.8198  0.5123
 5427TIP3   OH216244   6.889   1.291   3.530  0.5015 -0.5253 -0.1933
 5427TIP3    H116245   6.975   1.249   3.526  1.5196  1.3960  0.2575
 5427TIP3    H216246   6.827   1.219   3.525  2.1239 -1.9529 -0.8741
 5428TIP3   OH216247   0.951   2.413   4.181  0.4257 -0.0589  0.0425
 5428TIP3    H116248   0.897   2.384   4.254  0.4883 -0.9387 -0.2490
 5428TIP3    H216249   0.927   2.354   4.109  2.4353 -1.1146  0.1558
 5429TIP3   OH216250   0.681   1.636   1.623  0.2864 -0.7767  0.0619
 5429TIP3    H116251   0.636   1.720   1.615  1.1482 -0.1977  1.0639
 5429TIP3    H216252   0.685   1.620   1.717 -0.6832 -2.4218 -0.1305
 5430TIP3   OH216253   3.334   6.419   5.641  0.5362 -0.1266 -0.1353
 5430TIP3    H116254   3.355   6.481   5.570 -0.4885  0.0105 -0.3373
 5430TIP3    H216255   3.354   6.333   5.604 -0.2219 -0.0727 -0.6832
 5431TIP3   OH216256   6.846   2.627   0.087  0.5927 -0.1040 -0.0962
 5431TIP3    H116257   6.843   2.613  -0.008  0.8582  0.6104 -0.2202
 5431TIP3    H216258   6.756   2.648   0.111  0.6849  0.5936 -0.3412
 5432TIP3   OH216259   5.241   5.027   1.738 -0.3374  0.8503  0.3946
 5432TIP3    H116260   5.239   5.014   1.643  0.5506 -0.2075  0.4980
 5432TIP3    H216261   5.158   5.069   1.758 -1.5916 -1.0492 -0.5636
 5433TIP3   OH216262   0.914   6.372   3.623 -0.1264 -0.4120  0.2894
 5433TIP3    H116263   0.834   6.321   3.608 -0.9602  0.6248  1.0471
 5433TIP3    H216264   0.885   6.463   3.616  1.5720  0.0407 -2.4225
 5434TIP3   OH216265   1.785   1.167   5.797 -0.3013  0.0697 -0.0963
 5434TIP3    H116266   1.785   1.084   5.750 -0.4973  0.3446 -0.5937
 5434TIP3    H216267   1.852   1.220   5.753 -1.6760  0.9604 -1.2434
 5435TIP3   OH216268   0.150   5.821   3.579 -0.8358  0.0058  0.1141
 5435TIP3    H116269   0.100   5.900   3.556 -0.9285 -0.5089 -1.5795
 5435TIP3    H216270   0.241   5.845   3.559 -0.3711  0.7599  2.6952
 5436TIP3   OH216271   1.318   1.018   3.779 -0.3006 -0.1309 -0.1301
 5436TIP3    H116272   1.399   1.069   3.784  0.4992 -1.4094  0.6583
 5436TIP3    H216273   1.255   1.077   3.739  0.7509  1.2471  0.1516
 5437TIP3   OH216274  -0.009   4.617   4.325  0.1746 -0.1645  0.2674
 5437TIP3    H116275   0.048   4.645   4.396 -0.6077 -0.7821  1.1647
 5437TIP3    H216276  -0.001   4.686   4.259  0.1893  0.9028  1.3585
 5438TIP3   OH216277   1.461   5.492   3.972  0.0801  0.6469 -0.2259
 5438TIP3    H116278   1.455   5.565   4.034  0.8758  0.7966 -0.3155
 5438TIP3    H216279   1.389   5.434   3.997 -0.3500  1.2933  0.0640
 5439TIP3   OH216280   0.084   0.979   3.341 -0.4983 -0.5185 -0.5310
 5439TIP3    H116281   0.161   0.971   3.398 -1.1987 -0.0292  0.5071
 5439TIP3    H216282   0.098   1.061   3.294  0.1978 -1.0425 -1.2767
 5440TIP3   OH216283   5.431   5.000   4.677  0.4459  0.5230  0.4759
 5440TIP3    H116284   5.484   4.922   4.665 -1.1058 -0.5623  0.3174
 5440TIP3    H216285   5.456   5.059   4.606  1.8622  0.3322  0.7868
 5441TIP3   OH216286   3.164   6.258   0.515 -0.2884  0.3064  0.3704
 5441TIP3    H116287   3.249   6.300   0.501  0.5195 -1.5525 -0.6179
 5441TIP3    H216288   3.178   6.166   0.492 -2.1075 -0.4466  1.9614
 5442TIP3   OH216289   4.444   1.594   1.622  0.4320  0.1712 -0.0803
 5442TIP3    H116290   4.437   1.566   1.531 -0.3502  0.6359 -0.1734
 5442TIP3    H216291   4.496   1.525   1.664  0.9879  0.0587 -0.9148
 5443TIP3   OH216292   6.855   2.699   1.638 -0.5125 -0.2895 -0.2230
 5443TIP3    H116293   6.856   2.763   1.709  1.1058  0.8513 -1.2089
 5443TIP3    H216294   6.930   2.642   1.655  0.7458  0.8278 -1.6613
 5444TIP3   OH216295   3.292   3.846   3.776 -0.0642  0.0950  0.1344
 5444TIP3    H116296   3.374   3.890   3.752  0.2738 -0.3270  0.4996
 5444TIP3    H216297   3.262   3.892   3.855  0.5195 -0.6040  0.7726
 5445TIP3   OH216298   1.673   2.985   3.934 -0.2273  0.2516 -0.0000
 5445TIP3    H116299   1.590   2.950   3.966 -0.7047  1.0061 -0.3782
 5445TIP3    H216300   1.668   2.978   3.839  0.0484  0.5012 -0.0362
 5446TIP3   OH216301   6.666   0.054   3.327  0.5083  0.9460 -0.7346
 5446TIP3    H116302   6.597   0.110   3.293 -1.0809  0.6092  1.6407
 5446TIP3    H216303   6.647  -0.033   3.290  0.8866  1.2559 -1.6714
 5447TIP3   OH216304   0.223   4.077   3.925  0.1347  0.3467  0.1398
 5447TIP3    H116305   0.197   4.157   3.970 -0.7580  0.5042 -0.6249
 5447TIP3    H216306   0.240   4.106   3.835  1.1381 -0.0920  0.1783
 5448TIP3   OH216307   0.815   1.429   3.783 -0.4239  0.2626  0.0250
 5448TIP3    H116308   0.878   1.496   3.810 -1.0310  0.9749 -0.2825
 5448TIP3    H216309   0.791   1.386   3.865 -2.2286  2.3815  0.7127
 5449TIP3   OH216310   0.971   4.444   3.979  0.2371 -0.1356  0.2744
 5449TIP3    H116311   1.030   4.400   4.041  0.1028 -0.5714  0.0967
 5449TIP3    H216312   0.918   4.373   3.942  0.2818  0.1238 -0.3030
 5450TIP3   OH216313   0.582   0.763   1.237 -0.0855  0.5953 -0.0940
 5450TIP3    H116314   0.635   0.683   1.231 -1.4583 -0.4639  1.0485
 5450TIP3    H216315   0.572   0.778   1.331 -1.7268  0.7886 -0.2704
 5451TIP3   OH216316   3.187   0.179   3.631 -0.1710  0.3777  0.1356
 5451TIP3    H116317   3.185   0.272   3.607 -0.3775  0.4962  0.5946
 5451TIP3    H216318   3.251   0.140   3.572  1.4201  1.1926  1.2465
 5452TIP3   OH216319   5.641   4.788   5.225 -0.0230 -0.1154  0.7089
 5452TIP3    H116320   5.704   4.716   5.232  0.4062  0.0907 -0.8083
 5452TIP3    H216321   5.693   4.864   5.203 -0.6311  0.3919  0.9993
 5453TIP3   OH216322   1.310   0.791   2.649 -0.0927  0.5325  0.3619
 5453TIP3    H116323   1.371   0.803   2.722 -0.6222  1.9270  0.6125
 5453TIP3    H216324   1.229   0.832   2.679 -0.1187  1.7189 -1.2389
 5454TIP3   OH216325   3.913   5.679   1.203 -0.1343  0.1004  0.4476
 5454TIP3    H116326   3.867   5.729   1.135  0.3984  1.0142  0.7459
 5454TIP3    H216327   3.845   5.626   1.244 -0.2977 -1.2930 -1.4979
 5455TIP3   OH216328   0.105   3.211   5.018 -0.5701 -0.0937 -0.1997
 5455TIP3    H116329   0.047   3.187   5.091  0.6205 -0.7165  0.5693
 5455TIP3    H216330   0.092   3.305   5.007 -0.6148  0.0462  0.9633
 5456TIP3   OH216331   1.815   1.425   2.360 -0.3370  0.2097 -0.0177
 5456TIP3    H116332   1.733   1.429   2.410  0.0969 -1.0954  0.8421
 5456TIP3    H216333   1.806   1.346   2.306  0.1531  0.3463 -0.3052
 5457TIP3   OH216334   2.374   3.770   1.692 -0.4553 -0.5403 -0.1281
 5457TIP3    H116335   2.342   3.680   1.693 -2.3551  0.0795 -0.9283
 5457TIP3    H216336   2.379   3.793   1.600 -2.1399  0.8500  0.0730
 5458TIP3   OH216337   5.159   0.922   5.356 -0.3808  0.3727  0.6354
 5458TIP3    H116338   5.097   0.856   5.328 -1.5457  1.2553  1.0575
 5458TIP3    H216339   5.244   0.889   5.327 -1.0696 -0.7168 -0.2154
 5459TIP3   OH216340   2.850   0.225   1.154 -0.5659  0.4126  0.0667
 5459TIP3    H116341   2.931   0.273   1.139  0.7784 -1.6117  0.4681
 5459TIP3    H216342   2.819   0.257   1.239  0.7222  0.0748  0.6973
 5460TIP3   OH216343   4.394   5.922   0.024 -0.9887 -0.0761  0.3445
 5460TIP3    H116344   4.360   5.912   0.113 -2.8032 -2.6216 -0.5161
 5460TIP3    H216345   4.485   5.891   0.030 -0.7561  0.7308  1.4421
 5461TIP3   OH216346   0.606   2.978   1.524 -0.2805 -0.2970  0.1173
 5461TIP3    H116347   0.527   3.028   1.548 -0.9207 -0.9181 -0.6580
 5461TIP3    H216348   0.580   2.928   1.447  0.4162 -1.6762  0.7537
 5462TIP3   OH216349   0.926   1.759   0.083  0.4301  0.7495  0.1462
 5462TIP3    H116350   0.969   1.830   0.035 -1.3977  1.3196 -0.7025
 5462TIP3    H216351   0.836   1.787   0.093  0.1989 -0.4287  1.8895
 5463TIP3   OH216352   6.960   3.826   2.164 -0.9649 -0.4204  0.1772
 5463TIP3    H116353   6.896   3.884   2.123 -2.4870 -0.6100  2.1488
 5463TIP3    H216354   6.966   3.857   2.254  2.1131 -0.1341 -0.0011
 5464TIP3   OH216355   0.819   6.060   1.639 -0.0047  0.2334  0.4044
 5464TIP3    H116356   0.727   6.085   1.647  0.0987  0.4768  0.8971
 5464TIP3    H216357   0.865   6.120   1.697  0.2587 -1.0161  1.5428
 5465TIP3   OH216358   5.930   0.955   3.339 -0.6348 -0.6080  0.2813
 5465TIP3    H116359   5.951   0.869   3.303  2.5320 -0.0057  0.4032
 5465TIP3    H216360   5.918   0.940   3.433  0.2917 -0.8838  0.3595
 5466TIP3   OH216361   4.358   3.711   5.835 -0.2168  0.0278  0.7781
 5466TIP3    H116362   4.362   3.807   5.838 -0.7831  0.0720  0.3236
 5466TIP3    H216363   4.410   3.683   5.910 -2.6533  0.7607  2.9095
 5467TIP3   OH216364   0.878   1.415   0.560 -0.1352 -0.4967 -0.5616
 5467TIP3    H116365   0.853   1.461   0.480  1.0872 -0.4540 -0.9358
 5467TIP3    H216366   0.829   1.332   0.556 -0.1400 -0.4610 -1.3103
 5468TIP3   OH216367   3.679   6.208   1.891  0.6053 -0.1979 -0.6070
 5468TIP3    H116368   3.740   6.145   1.928  0.1073 -0.3936 -0.1221
 5468TIP3    H216369   3.618   6.228   1.961 -0.5500 -0.8198 -1.4055
 5469TIP3   OH216370   5.277   3.314   1.867  0.1664  0.3691 -0.5071
 5469TIP3    H116371   5.230   3.256   1.807  2.2104 -0.8737 -0.9931
 5469TIP3    H216372   5.284   3.397   1.820 -1.1076  0.4375 -0.5998
 5470TIP3   OH216373   3.712   4.459   2.911  0.2753 -0.2740  0.1691
 5470TIP3    H116374   3.725   4.463   3.005 -0.8988 -1.7333  0.4407
 5470TIP3    H216375   3.627   4.415   2.901 -0.0379  0.6346 -1.5517
 5471TIP3   OH216376   6.023   2.623   3.032  0.5933 -0.5664  0.1807
 5471TIP3    H116377   6.038   2.640   3.125  1.2398  0.1365 -0.0377
 5471TIP3    H216378   5.960   2.690   3.005  0.0181 -1.0866  0.2233
 5472TIP3   OH216379   2.420   6.170   1.083  0.0875 -0.4033  0.1999
 5472TIP3    H116380   2.329   6.142   1.090 -0.2870  0.5176 -0.6648
 5472TIP3    H216381   2.416   6.266   1.090  0.9046 -0.2971 -0.5985
 5473TIP3   OH216382   5.335   6.121   0.128  0.0567 -0.0150 -0.5791
 5473TIP3    H116383   5.250   6.137   0.169  1.1336 -0.5828  2.0336
 5473TIP3    H216384   5.338   6.026   0.117  0.1573  0.0517 -1.1565
 5474TIP3   OH216385   4.524   5.746   2.234  0.4284  0.0791  0.1620
 5474TIP3    H116386   4.584   5.680   2.269  0.5935  0.6265  0.9203
 5474TIP3    H216387   4.554   5.828   2.272 -2.3658  0.0802  2.7057
 5475TIP3   OH216388   1.877   6.375   0.649 -0.5340  0.5029 -0.1440
 5475TIP3    H116389   1.895   6.460   0.608 -0.1063 -0.3150 -1.7691
 5475TIP3    H216390   1.820   6.395   0.723 -0.8110  2.1530 -0.7575
 5476TIP3   OH216391   4.365   5.562   2.386  0.0618  0.3381 -0.0440
 5476TIP3    H116392   4.437   5.552   2.324  1.9829 -2.4422  2.3294
 5476TIP3    H216393   4.376   5.650   2.422 -1.1046  2.0256 -3.4105
 5477TIP3   OH216394   4.712   2.148   5.445 -0.2341  0.5078 -0.2542
 5477TIP3    H116395   4.685   2.098   5.368 -0.3645 -0.2528  0.2618
 5477TIP3    H216396   4.771   2.089   5.492  0.4301  1.2420 -0.1411
 5478TIP3   OH216397   7.215   4.304   0.008  0.1325 -0.0787  0.5019
 5478TIP3    H116398   7.191   4.391  -0.025  0.7761 -0.0969 -0.0459
 5478TIP3    H216399   7.134   4.270   0.047 -0.5656  0.1099 -0.7131
 5479TIP3   OH216400   1.667   4.222   0.490 -0.3561 -0.0147 -0.6084
 5479TIP3    H116401   1.669   4.177   0.405  0.2814 -0.6838 -0.2550
 5479TIP3    H216402   1.635   4.310   0.470 -1.4626 -0.5590 -1.3545
 5480TIP3   OH216403   5.817   0.878   4.738  0.7833 -0.0210  0.4361
 5480TIP3    H116404   5.857   0.888   4.651 -1.3492 -0.2896 -0.6469
 5480TIP3    H216405   5.828   0.964   4.779  0.6676  0.5270 -0.6366
 5481TIP3   OH216406   6.671   3.125   4.026  0.2550  0.0925 -0.1932
 5481TIP3    H116407   6.658   3.068   4.101  2.0328 -1.9419 -1.3097
 5481TIP3    H216408   6.763   3.153   4.033 -0.1887  1.7215 -0.4348
 5482TIP3   OH216409   4.674   2.571   1.394 -0.0561  0.4399 -0.1487
 5482TIP3    H116410   4.714   2.626   1.327 -0.3637  0.7427 -0.0872
 5482TIP3    H216411   4.746   2.520   1.429 -0.1901 -1.1620 -2.0528
 5483TIP3   OH216412   6.808   3.892   2.925  0.4634  0.3360  0.2441
 5483TIP3    H116413   6.756   3.969   2.947 -2.6488 -1.6459  0.5673
 5483TIP3    H216414   6.811   3.891   2.830  2.8940  2.1917  0.2239
 5484TIP3   OH216415   6.870   5.170   2.227 -0.0786  0.1025  1.0674
 5484TIP3    H116416   6.937   5.105   2.208  0.6707  0.7253  1.4994
 5484TIP3    H216417   6.890   5.201   2.316 -0.8140  0.4436  1.1247
 5485TIP3   OH216418   6.561   5.473   0.338 -0.4509 -0.6938 -0.1511
 5485TIP3    H116419   6.567   5.522   0.420 -0.9293  1.0140 -1.0850
 5485TIP3    H216420   6.487   5.414   0.351 -0.9536  0.0389  0.4237
 5486TIP3   OH216421   0.512   4.745   4.607  0.1072  0.3896  1.0995
 5486TIP3    H116422   0.606   4.765   4.611  0.5443 -1.2755  0.1419
 5486TIP3    H216423   0.485   4.745   4.699  1.0173  0.9787  1.3908
 5487TIP3   OH216424   6.703   0.214   4.559 -0.5430  0.4411 -0.1694
 5487TIP3    H116425   6.686   0.158   4.634  2.1200 -1.0581 -0.5901
 5487TIP3    H216426   6.749   0.290   4.595 -1.5523  0.9899  0.0064
 5488TIP3   OH216427   5.057   0.163   5.796  0.0296  0.5975 -0.0587
 5488TIP3    H116428   5.036   0.212   5.717  0.5481 -0.4319 -0.8559
 5488TIP3    H216429   4.996   0.197   5.862  0.1346  2.0341 -0.6715
 5489TIP3   OH216430   0.418   5.601   2.278 -0.2362 -0.2603 -0.0053
 5489TIP3    H116431   0.451   5.661   2.345  2.5820  0.4450 -1.8395
 5489TIP3    H216432   0.415   5.654   2.198  3.3847 -2.5744 -1.9577
 5490TIP3   OH216433   4.619   2.541   4.937 -0.0854  0.6777 -0.0882
 5490TIP3    H116434   4.701   2.499   4.961 -0.1382 -0.1218 -1.1779
 5490TIP3    H216435   4.631   2.565   4.845 -0.4908  2.0206  0.1952
 5491TIP3   OH216436   5.197   2.777   2.985  0.8069 -0.0687 -0.0549
 5491TIP3    H116437   5.275   2.724   2.968  1.6232  0.8105  0.8151
 5491TIP3    H216438   5.198   2.790   3.080  0.4977  1.3008 -0.2296
 5492TIP3   OH216439   6.697   4.435   3.490 -0.5703  0.3613  0.3964
 5492TIP3    H116440   6.771   4.411   3.435 -0.3228  2.3557 -0.2203
 5492TIP3    H216441   6.626   4.455   3.429 -0.7466  1.1664  0.8419
 5493TIP3   OH216442   6.960   3.574   5.737 -0.1870  0.6470 -0.1682
 5493TIP3    H116443   6.879   3.524   5.736 -0.4948  1.1525 -0.6191
 5493TIP3    H216444   6.951   3.638   5.666 -1.2371  3.6186  2.4018
 5494TIP3   OH216445   4.184   3.506   5.734  0.7005 -0.1324  0.0884
 5494TIP3    H116446   4.232   3.582   5.767  0.8190 -0.0851 -0.1898
 5494TIP3    H216447   4.193   3.440   5.803  1.5845 -0.2945 -0.1641
 5495TIP3   OH216448   5.352   5.837   0.018 -0.1139  0.5758  0.2610
 5495TIP3    H116449   5.408   5.830   0.095 -0.3309  0.3476  0.3994
 5495TIP3    H216450   5.413   5.839  -0.056  0.0760 -3.7773  0.0564
 5496TIP3   OH216451   6.232   6.638   4.083 -0.2403  0.0521  0.0591
 5496TIP3    H116452   6.199   6.610   3.998  0.1210  0.7362 -0.3160
 5496TIP3    H216453   6.198   6.727   4.094 -2.5220 -0.9495  1.8457
 5497TIP3   OH216454   5.937   4.751   2.967 -0.1774  0.2963 -0.4597
 5497TIP3    H116455   5.991   4.749   2.887 -0.6920 -1.7228 -0.8300
 5497TIP3    H216456   5.855   4.792   2.940 -0.5367 -0.8162 -1.1443
 5498TIP3   OH216457   5.578   3.626   0.145 -0.2074 -0.1365 -0.4663
 5498TIP3    H116458   5.626   3.679   0.082  0.7265  0.0431  0.3653
 5498TIP3    H216459   5.579   3.677   0.226  1.3878 -1.6806  0.5811
 5499TIP3   OH216460   3.680   6.034   3.553  0.2190  0.0498 -0.2064
 5499TIP3    H116461   3.666   6.123   3.586  1.4824  0.2344 -0.1320
 5499TIP3    H216462   3.711   6.047   3.463 -0.1211 -0.3496 -0.3893
 5500TIP3   OH216463   4.995   2.593   4.266  0.0234 -0.6127 -0.7419
 5500TIP3    H116464   4.905   2.625   4.259  0.3072  0.6879  0.8399
 5500TIP3    H216465   4.990   2.519   4.326  0.4108  1.9537  2.7862
 5501TIP3   OH216466   3.221   0.800   1.746 -0.2496 -0.8554 -0.7568
 5501TIP3    H116467   3.277   0.756   1.810  0.0038  0.3026 -0.1652
 5501TIP3    H216468   3.142   0.746   1.742 -0.0897 -1.1698  0.2172
 5502TIP3   OH216469   4.282   3.307   3.487  0.3071 -0.1336  0.1998
 5502TIP3    H116470   4.294   3.226   3.436  0.2310  0.5583 -0.9489
 5502TIP3    H216471   4.312   3.284   3.575  0.6203 -1.3168 -0.1927
 5503TIP3   OH216472   2.139   2.687   0.389 -0.3720  0.0835 -0.0574
 5503TIP3    H116473   2.202   2.735   0.444 -0.6047  0.4965 -0.1446
 5503TIP3    H216474   2.053   2.712   0.423 -0.4945 -0.4372  0.0262
 5504TIP3   OH216475   0.980   5.382   3.576  0.3826  0.4511  0.4258
 5504TIP3    H116476   1.035   5.433   3.517 -0.8290  1.2312 -0.0565
 5504TIP3    H216477   0.897   5.373   3.530  0.3101 -1.3136  0.8306
 5505TIP3   OH216478   3.753   5.723   0.854  0.1792 -0.0677 -0.2859
 5505TIP3    H116479   3.776   5.790   0.918 -2.1627  0.7814 -0.2384
 5505TIP3    H216480   3.758   5.641   0.902  0.4797  0.3475  0.4116
 5506TIP3   OH216481   3.560   0.800   5.164  0.2008  0.1408 -0.8158
 5506TIP3    H116482   3.583   0.820   5.255  1.6408  0.6494 -1.2715
 5506TIP3    H216483   3.465   0.811   5.160  0.3249  1.8770  0.2000
 5507TIP3   OH216484   1.040   3.980   5.400 -0.6013 -0.3846 -0.4656
 5507TIP3    H116485   0.965   3.954   5.347 -1.5018 -0.8080  0.9907
 5507TIP3    H216486   1.023   4.072   5.421 -0.5445 -0.3908 -0.3945
 5508TIP3   OH216487   3.044   1.946   0.542  0.0895 -0.3704  0.1801
 5508TIP3    H116488   3.003   1.950   0.455 -0.8548 -0.4520  0.6122
 5508TIP3    H216489   2.992   2.005   0.596  0.8676 -0.0703  0.6202
 5509TIP3   OH216490   4.940   2.948   0.036  0.0340  0.0472 -0.1492
 5509TIP3    H116491   4.864   2.896   0.062  0.2503 -0.0386  0.3110
 5509TIP3    H216492   5.015   2.904   0.076  0.3210  0.1780 -0.5320
 5510TIP3   OH216493   6.225   4.036   4.658 -0.8388  0.3008 -0.7863
 5510TIP3    H116494   6.211   4.123   4.695  0.0024  0.0483  0.1891
 5510TIP3    H216495   6.163   3.980   4.705  1.3944 -0.3361  1.6067
 5511TIP3   OH216496   6.382   2.507   3.314 -0.0574 -0.1206 -0.3326
 5511TIP3    H116497   6.439   2.431   3.325  1.5596  0.8311 -1.6356
 5511TIP3    H216498   6.327   2.485   3.240 -0.8012 -0.6869  0.3713
 5512TIP3   OH216499   0.356   2.160   5.206 -0.4773 -0.3222  0.3670
 5512TIP3    H116500   0.300   2.100   5.255 -0.8524 -0.0686  0.2499
 5512TIP3    H216501   0.412   2.200   5.273 -1.5262  0.6204  0.7294
 5513TIP3   OH216502   3.491   5.098   0.081  0.4252 -0.4668 -0.3715
 5513TIP3    H116503   3.501   5.189   0.110 -1.1577 -0.9352  1.8475
 5513TIP3    H216504   3.581   5.066   0.073  1.0817 -0.1121  3.7598
 5514TIP3   OH216505   0.920   6.277   4.490  0.0298 -0.7808 -0.2536
 5514TIP3    H116506   0.902   6.308   4.401 -0.2337  0.9009  0.3586
 5514TIP3    H216507   1.014   6.291   4.501  0.4144 -2.5989 -0.8273
 5515TIP3   OH216508   7.155   3.885   1.591 -0.0569  0.1470  0.6509
 5515TIP3    H116509   7.125   3.877   1.501 -2.3496 -0.7970  1.4215
 5515TIP3    H216510   7.215   3.811   1.603  0.5667  0.5011 -0.1770
 5516TIP3   OH216511   2.078   3.593   0.619  0.7322  0.1193  0.1546
 5516TIP3    H116512   2.121   3.640   0.548  1.4480  0.7789  0.9955
 5516TIP3    H216513   1.993   3.636   0.628  0.4549 -0.2659 -0.5908
 5517TIP3   OH216514   6.479   5.525   4.736  0.1701  0.0759  0.0427
 5517TIP3    H116515   6.499   5.540   4.828 -0.5315  0.1863  0.1832
 5517TIP3    H216516   6.547   5.464   4.706 -0.7043 -1.5179  1.1321
 5518TIP3   OH216517   3.266   6.071   5.787 -0.2149 -0.4413  0.2603
 5518TIP3    H116518   3.223   6.156   5.776  1.4711  0.4240 -0.0782
 5518TIP3    H216519   3.206   6.020   5.841 -1.2140  1.0062  0.5753
 5519TIP3   OH216520   5.132   5.712   4.992  0.1042  0.0735  0.1862
 5519TIP3    H116521   5.051   5.725   4.942 -0.0085 -1.3962 -0.0441
 5519TIP3    H216522   5.199   5.760   4.943 -0.1028 -0.9232 -1.1125
 5520TIP3   OH216523   3.766   0.061   4.713  0.5770 -0.2288  0.3842
 5520TIP3    H116524   3.825  -0.011   4.737  0.4190 -0.7546 -0.7511
 5520TIP3    H216525   3.679   0.029   4.737  0.7750  0.8997  2.8951
 5521TIP3   OH216526   5.902   3.607   0.136 -0.1765 -0.2070 -0.1687
 5521TIP3    H116527   5.895   3.666   0.062 -0.6534  0.4681  0.4093
 5521TIP3    H216528   5.973   3.643   0.189 -0.7360  0.0811  0.3904
 5522TIP3   OH216529   2.512   5.742   3.103 -0.0042 -0.4638 -0.0390
 5522TIP3    H116530   2.558   5.726   3.021  1.2051 -0.7494  0.6713
 5522TIP3    H216531   2.560   5.691   3.168 -2.3101 -2.1242  0.4879
 5523TIP3   OH216532   5.437   1.105   3.055 -0.1224 -0.1280 -0.4814
 5523TIP3    H116533   5.459   1.197   3.070 -0.4041 -0.2068  0.4826
 5523TIP3    H216534   5.374   1.107   2.983 -0.5600  0.4871 -0.0939
 5524TIP3   OH216535   0.348   3.729   2.383  0.4764  0.3048 -0.3309
 5524TIP3    H116536   0.339   3.808   2.437  2.7189  0.0293  0.5662
 5524TIP3    H216537   0.261   3.716   2.345 -0.5482  1.9200  1.2756
 5525TIP3   OH216538   1.478   6.377   0.984 -0.2656 -0.1536  0.7904
 5525TIP3    H116539   1.444   6.466   0.994  1.8288  0.6121  1.8493
 5525TIP3    H216540   1.570   6.384   1.009  0.5767 -2.1622 -1.3632
 5526TIP3   OH216541   0.205   5.618   4.137 -0.0394 -0.5248  0.4719
 5526TIP3    H116542   0.227   5.585   4.050  0.1863 -1.4041  0.8573
 5526TIP3    H216543   0.160   5.545   4.180  1.3797 -0.7026  1.7026
 5527TIP3   OH216544   6.645   1.896   5.860 -0.3057 -0.2627  0.3652
 5527TIP3    H116545   6.558   1.903   5.821  0.2201 -1.5451 -1.1238
 5527TIP3    H216546   6.629   1.858   5.946 -1.1348 -1.7818 -0.4189
 5528TIP3   OH216547   1.196   6.117   3.507 -0.2631  0.1891  0.0862
 5528TIP3    H116548   1.239   6.069   3.578 -0.5139 -0.2828 -0.0775
 5528TIP3    H216549   1.228   6.207   3.516  0.6368 -0.1254  0.0498
 5529TIP3   OH216550   6.877   3.164   4.937  0.4498  0.3019 -0.6158
 5529TIP3    H116551   6.880   3.080   4.983 -0.1332 -0.0707 -1.2216
 5529TIP3    H216552   6.833   3.223   4.997  0.4063  0.0371 -0.3846
 5530TIP3   OH216553   5.179   5.588   5.467  0.3393  0.5413  0.6385
 5530TIP3    H116554   5.129   5.530   5.408  0.8641  0.4115  0.3145
 5530TIP3    H216555   5.129   5.588   5.548 -1.0347  1.6426 -0.1593
 5531TIP3   OH216556   4.983   3.621   3.512 -0.1018 -0.3574 -0.2959
 5531TIP3    H116557   5.043   3.591   3.443 -0.8298 -0.0805 -1.0604
 5531TIP3    H216558   4.981   3.548   3.575  0.3449 -0.7305 -0.7065
 5532TIP3   OH216559   4.239   3.531   3.325  0.0518 -0.8245 -0.2560
 5532TIP3    H116560   4.295   3.473   3.274 -0.8236 -0.6458 -1.4709
 5532TIP3    H216561   4.150   3.500   3.308 -0.4058  0.5753 -0.5805
 5533TIP3   OH216562   0.111   0.081   3.194 -0.1284  0.1143  0.1415
 5533TIP3    H116563   0.026   0.109   3.160 -0.3118  0.3376  0.7535
 5533TIP3    H216564   0.156   0.163   3.215 -0.8742  0.0270  2.4476
 5534TIP3   OH216565   2.176   1.710   1.611  0.0414 -1.0410  0.0314
 5534TIP3    H116566   2.148   1.717   1.702 -1.1198 -1.5917 -0.2599
 5534TIP3    H216567   2.101   1.745   1.561  0.6371 -0.8064 -0.7126
 5535TIP3   OH216568   4.943   6.293   5.613  0.1269  0.3597 -0.2144
 5535TIP3    H116569   4.914   6.351   5.684  0.2076 -0.7242  0.7315
 5535TIP3    H216570   4.864   6.278   5.561  0.0197  1.0129 -0.2459
 5536TIP3   OH216571   6.064   4.126   3.854 -0.0716  0.4301  0.2694
 5536TIP3    H116572   6.138   4.123   3.794  0.0459  1.1638  0.3594
 5536TIP3    H216573   6.096   4.179   3.928 -0.4612  0.1821  0.6195
 5537TIP3   OH216574   1.118   1.614   5.346 -0.2310 -0.4333  0.3219
 5537TIP3    H116575   1.207   1.649   5.354 -0.0360 -0.9297  0.3683
 5537TIP3    H216576   1.072   1.677   5.290 -0.3201  0.7177  1.6205
 5538TIP3   OH216577   7.125   4.652   5.727  0.8942  0.3139  0.8783
 5538TIP3    H116578   7.199   4.591   5.724 -0.5422 -1.4485 -0.4724
 5538TIP3    H216579   7.053   4.601   5.764 -0.3382  1.1949 -0.2512
 5539TIP3   OH216580   2.985   3.743   5.683 -0.2030  0.2267 -0.3305
 5539TIP3    H116581   2.978   3.648   5.698  0.2364  0.3017  0.3492
 5539TIP3    H216582   2.918   3.761   5.616 -1.6381 -0.2400  0.9279
 5540TIP3   OH216583   4.088   6.416   2.724  0.8463 -0.5352  0.5000
 5540TIP3    H116584   3.996   6.435   2.706  0.8506  0.5541  1.5800
 5540TIP3    H216585   4.116   6.364   2.648 -0.9152 -1.8101  0.6479
 5541TIP3   OH216586   7.133   4.319   5.892 -0.2191  0.3873 -0.1238
 5541TIP3    H116587   7.083   4.237   5.894 -0.0684  0.2998  0.0821
 5541TIP3    H216588   7.177   4.318   5.807  0.7053 -0.3034  0.3459
 5542TIP3   OH216589   4.001   1.507   2.809  0.0957  0.3880  0.0163
 5542TIP3    H116590   4.016   1.452   2.885  0.2364  1.9445  1.1612
 5542TIP3    H216591   4.012   1.597   2.841  0.8418  1.0772 -1.9905
 5543TIP3   OH216592   6.887   3.490   3.088  0.2276  0.4704  0.0375
 5543TIP3    H116593   6.979   3.461   3.092  0.5917  1.6426  0.4495
 5543TIP3    H216594   6.887   3.576   3.128 -1.2488  0.0811  0.9316
 5544TIP3   OH216595   5.875   4.238   2.581 -0.5063 -1.0563  0.3632
 5544TIP3    H116596   5.860   4.264   2.672  1.0560 -1.1639  0.6750
 5544TIP3    H216597   5.860   4.317   2.530 -1.2601 -0.9616  0.7155
 5545TIP3   OH216598   7.116   6.526   5.836  0.1051  0.5516  0.0764
 5545TIP3    H116599   7.197   6.498   5.879 -0.3065 -0.4671  0.2184
 5545TIP3    H216600   7.046   6.488   5.889 -0.4893  1.6814  0.1384
 5546TIP3   OH216601   3.651   1.654   1.946  0.2407  0.2971  0.1845
 5546TIP3    H116602   3.718   1.704   1.899  2.6066 -1.8574  1.0563
 5546TIP3    H216603   3.667   1.672   2.038  0.5882 -1.3446  0.4726
 5547TIP3   OH216604   5.446   0.740   3.815  0.6076 -0.2758 -0.1168
 5547TIP3    H116605   5.413   0.829   3.826  0.4815 -0.2127 -0.9480
 5547TIP3    H216606   5.373   0.684   3.843  0.9460 -0.1381  1.1303
 5548TIP3   OH216607   1.810   2.921   1.035 -1.0550  0.0366  0.3759
 5548TIP3    H116608   1.852   2.842   1.068  0.6332  0.0334 -1.5423
 5548TIP3    H216609   1.718   2.897   1.026 -0.5238 -1.9026 -0.5367
 5549TIP3   OH216610   0.143   3.047   4.416 -0.1606  0.4915 -0.0069
 5549TIP3    H116611   0.122   3.047   4.322  0.2794  1.5348 -0.1140
 5549TIP3    H216612   0.097   2.970   4.450 -1.2433  0.7262 -0.8726
 5550TIP3   OH216613   2.863   3.628   5.245  0.5735  0.1041  0.1424
 5550TIP3    H116614   2.815   3.683   5.184  2.1830  1.1594 -0.2347
 5550TIP3    H216615   2.926   3.581   5.190  2.1807  1.2190  0.9540
 5551TIP3   OH216616   1.938   4.471   0.203  0.0586  0.0822  0.2834
 5551TIP3    H116617   1.983   4.393   0.171  2.1316  0.8270  1.2046
 5551TIP3    H216618   1.969   4.541   0.145 -1.3081  0.3555 -0.1527
 5552TIP3   OH216619   2.423   1.943   1.397  0.0897 -0.4284 -0.0805
 5552TIP3    H116620   2.425   1.863   1.450  0.2058 -0.2506  0.1819
 5552TIP3    H216621   2.373   2.005   1.449  1.1420  0.1022  0.3192
 5553TIP3   OH216622   1.988   2.350   5.648 -0.3913 -0.0950 -0.3689
 5553TIP3    H116623   2.027   2.272   5.610 -0.5595 -0.3522 -0.0178
 5553TIP3    H216624   2.036   2.363   5.730 -0.1743  0.3294 -0.5616
 5554TIP3   OH216625   1.963   1.323   3.092  0.0922  0.0337  0.0807
 5554TIP3    H116626   2.022   1.255   3.124  0.1142 -0.5213 -1.0941
 5554TIP3    H216627   2.009   1.405   3.111  0.1730 -0.2626  1.2882
 5555TIP3   OH216628   2.696   6.357   4.208 -0.0162  0.2989  1.2905
 5555TIP3    H116629   2.710   6.263   4.202  0.1765  0.4005 -0.3451
 5555TIP3    H216630   2.629   6.367   4.276 -0.2677 -1.0365  1.2643
 5556TIP3   OH216631   5.258   5.077   3.305  0.0223 -0.6156 -0.2399
 5556TIP3    H116632   5.251   5.043   3.395  0.5258  0.5058  0.2408
 5556TIP3    H216633   5.344   5.120   3.303 -0.5438  0.5181 -0.8522
 5557TIP3   OH216634   1.135   6.190   0.545  0.5221  0.5085  0.4410
 5557TIP3    H116635   1.180   6.137   0.479 -1.0910 -0.4640  0.0510
 5557TIP3    H216636   1.168   6.158   0.628  2.6768  1.8318  0.1644
 5558TIP3   OH216637   3.676   0.053   0.103 -0.5563 -0.0613  0.1739
 5558TIP3    H116638   3.610   0.002   0.057  0.3200 -1.2944  0.2371
 5558TIP3    H216639   3.636   0.139   0.115 -1.4603 -0.2393 -1.3348
 5559TIP3   OH216640   6.218   5.888   3.685  0.1107  0.5683  0.2837
 5559TIP3    H116641   6.308   5.865   3.663  0.9870  1.0650  2.9622
 5559TIP3    H216642   6.226   5.941   3.765 -2.4786  1.8257 -0.1932
 5560TIP3   OH216643   0.946   3.034   0.498  0.3963 -0.3198 -0.4717
 5560TIP3    H116644   0.851   3.033   0.514  0.1090 -1.2975 -2.0302
 5560TIP3    H216645   0.983   3.076   0.576 -1.3425  0.4060  0.0082
 5561TIP3   OH216646   2.560   2.945   2.047  0.1488  0.0598 -0.0757
 5561TIP3    H116647   2.502   2.919   1.975  0.0384 -0.7962  0.3106
 5561TIP3    H216648   2.640   2.895   2.033 -0.0086 -0.3975  0.5992
 5562TIP3   OH216649   5.777   4.528   1.954 -0.3805  0.2622  0.1921
 5562TIP3    H116650   5.769   4.435   1.975 -0.1552  0.2857  0.3914
 5562TIP3    H216651   5.687   4.560   1.947 -0.4768 -0.2133 -0.9962
 5563TIP3   OH216652   3.805   4.493   0.118 -0.9421  0.1568 -0.0016
 5563TIP3    H116653   3.869   4.423   0.129 -0.4045  0.5444 -0.6014
 5563TIP3    H216654   3.751   4.463   0.044  1.1106  1.6576 -2.2507
 5564TIP3   OH216655   4.496   2.460   2.174  0.8859 -0.1411 -0.4987
 5564TIP3    H116656   4.489   2.411   2.256  0.3840  0.2200 -0.3188
 5564TIP3    H216657   4.444   2.540   2.189  1.5413  0.3622 -0.8485
 5565TIP3   OH216658   4.443   6.321   2.638  0.0066  0.3945  0.8566
 5565TIP3    H116659   4.537   6.340   2.635 -0.1508  1.0465 -0.7179
 5565TIP3    H216660   4.408   6.361   2.559 -1.8222  1.2574  2.0463
 5566TIP3   OH216661   0.195   2.666   4.943 -0.4212 -0.2171  0.4234
 5566TIP3    H116662   0.115   2.719   4.934 -0.5253  0.3347  3.5733
 5566TIP3    H216663   0.163   2.579   4.967 -0.1058 -0.5487 -0.3350
 5567TIP3   OH216664   2.044   5.327   1.207 -0.6885  0.0112  0.2732
 5567TIP3    H116665   2.061   5.398   1.270 -0.1749 -0.7637  1.0311
 5567TIP3    H216666   2.104   5.257   1.233 -0.1236 -0.1605 -1.3871
 5568TIP3   OH216667   0.712   4.206   5.574  0.3890 -0.0404  0.2180
 5568TIP3    H116668   0.699   4.239   5.485  1.1418 -0.5073 -0.0725
 5568TIP3    H216669   0.662   4.124   5.576  1.6078 -0.8269 -0.2808
 5569TIP3   OH216670   5.613   5.423   2.578 -0.0421 -0.0600  0.2484
 5569TIP3    H116671   5.608   5.508   2.621  0.0589  1.0376 -1.7900
 5569TIP3    H216672   5.706   5.410   2.560 -0.1964  0.1014 -0.7262
 5570TIP3   OH216673   3.952   4.577   3.961 -0.3606 -0.2724 -0.1808
 5570TIP3    H116674   4.045   4.593   3.942 -0.0002 -1.0819  0.8102
 5570TIP3    H216675   3.946   4.482   3.974 -0.7398  0.0411  2.5748
 5571TIP3   OH216676   0.927   1.683   0.822 -0.1903  0.2157  0.0837
 5571TIP3    H116677   0.853   1.726   0.779  0.8882  1.3822 -0.6852
 5571TIP3    H216678   1.001   1.698   0.763  0.9777  0.3897  1.5400
 5572TIP3   OH216679   1.202   4.637   1.796  0.0201  0.0977 -0.2748
 5572TIP3    H116680   1.189   4.719   1.843 -0.3982 -1.2399  2.1057
 5572TIP3    H216681   1.130   4.632   1.734 -0.5944  1.0090  0.3545
 5573TIP3   OH216682   6.660   5.993   2.623 -0.6779 -0.4276  0.3305
 5573TIP3    H116683   6.698   5.940   2.694 -0.6593 -1.6666 -0.5601
 5573TIP3    H216684   6.595   5.935   2.583  0.2910 -0.3123 -1.5386
 5574TIP3   OH216685   1.139   0.752   4.108  0.1293  0.7388 -0.1054
 5574TIP3    H116686   1.065   0.707   4.149  0.7262  0.2810  0.4822
 5574TIP3    H216687   1.207   0.685   4.100  1.3120  1.6781  1.4982
 5575TIP3   OH216688   3.109   2.619   2.583  0.2671  0.2912 -0.9416
 5575TIP3    H116689   3.030   2.673   2.577 -0.3962 -0.6357 -0.7571
 5575TIP3    H216690   3.107   2.564   2.505  1.5521  1.3010 -1.7354
 5576TIP3   OH216691   5.030   6.274   5.897  0.0691  0.1198 -0.5957
 5576TIP3    H116692   5.102   6.314   5.849 -0.8990  0.7679 -1.5490
 5576TIP3    H216693   4.964   6.253   5.830 -0.7995 -0.0966  0.2901
 5577TIP3   OH216694   6.773   0.993   2.199  0.3727  0.6378 -0.4279
 5577TIP3    H116695   6.772   1.088   2.193  1.3555  0.6949  0.1135
 5577TIP3    H216696   6.857   0.967   2.160  0.0379 -0.0191 -0.7352
 5578TIP3   OH216697   3.764   2.524   2.801  0.6542  0.4486  0.4289
 5578TIP3    H116698   3.855   2.547   2.782  1.1082 -0.5321  1.3326
 5578TIP3    H216699   3.753   2.437   2.761 -0.3732  1.2176 -1.0441
 5579TIP3   OH216700   2.725   0.354   4.177 -0.2133 -0.3597  0.2632
 5579TIP3    H116701   2.737   0.434   4.126 -0.2365 -0.8846 -0.5956
 5579TIP3    H216702   2.655   0.307   4.131  1.2274 -1.8505 -0.5341
 5580TIP3   OH216703   0.538   2.355   1.866 -0.1702  0.1475  0.2354
 5580TIP3    H116704   0.532   2.393   1.779  1.4643 -0.8155 -0.3376
 5580TIP3    H216705   0.566   2.265   1.851 -0.0565 -0.0925  1.7472
 5581TIP3   OH216706   2.074   4.739   4.324 -0.1700  0.3039 -0.0522
 5581TIP3    H116707   2.094   4.818   4.375  0.3962  0.0900  0.0581
 5581TIP3    H216708   2.133   4.744   4.249 -0.7923  0.4638 -0.5389
 5582TIP3   OH216709   1.974   6.722   1.398 -0.1257 -0.3237  0.0033
 5582TIP3    H116710   1.879   6.717   1.396 -0.2589 -0.2763  2.6085
 5582TIP3    H216711   1.993   6.803   1.447  1.3797  1.9500 -3.8962
 5583TIP3   OH216712   7.122   1.773   1.687  0.1809 -0.0798  0.3241
 5583TIP3    H116713   7.120   1.706   1.756  1.2977 -1.0608 -0.5595
 5583TIP3    H216714   7.034   1.770   1.648 -0.3052  0.1509  1.3622
 5584TIP3   OH216715   0.577   2.422   0.570 -0.0171  0.0962 -0.0122
 5584TIP3    H116716   0.639   2.487   0.539  1.3554 -1.1854 -0.0895
 5584TIP3    H216717   0.581   2.351   0.506 -0.1027 -0.8564  0.9876
 5585TIP3   OH216718   1.537   6.325   4.778 -0.1527  0.2637  0.2295
 5585TIP3    H116719   1.537   6.323   4.682 -0.4616 -2.0221  0.2070
 5585TIP3    H216720   1.444   6.316   4.802 -0.3452  3.0009  0.8173
 5586TIP3   OH216721   1.148   2.422   3.527  0.5120 -0.1089 -0.1450
 5586TIP3    H116722   1.190   2.339   3.549  1.6924  0.6019  0.3942
 5586TIP3    H216723   1.220   2.478   3.497 -0.6300 -0.1925 -3.5059
 5587TIP3   OH216724   3.041   3.337   2.853  0.4371 -0.2473 -0.2948
 5587TIP3    H116725   2.957   3.348   2.898  0.2045 -1.5171 -0.4025
 5587TIP3    H216726   3.070   3.249   2.875  1.3249 -0.1418 -0.9675
 5588TIP3   OH216727   6.580   1.782   5.527 -0.1580 -0.2860  0.4138
 5588TIP3    H116728   6.605   1.697   5.563 -3.0297 -1.9740 -1.2057
 5588TIP3    H216729   6.523   1.820   5.594  0.9582  0.3306  1.0452
 5589TIP3   OH216730   1.762   3.745   2.303 -0.2288  0.7990  0.3446
 5589TIP3    H116731   1.689   3.796   2.269 -1.4307  0.5144  2.3394
 5589TIP3    H216732   1.726   3.657   2.316  1.2220 -0.0562 -1.0372
 5590TIP3   OH216733   4.599   3.654   3.601 -0.2082  0.2602 -0.3342
 5590TIP3    H116734   4.578   3.680   3.691 -1.1306 -0.0104 -0.4675
 5590TIP3    H216735   4.684   3.695   3.584  0.7805 -1.0177  1.2256
 5591TIP3   OH216736   2.511   1.036   1.458 -0.2509 -0.2926 -0.0489
 5591TIP3    H116737   2.605   1.047   1.468 -0.0550 -0.5375 -1.4823
 5591TIP3    H216738   2.478   1.034   1.548  1.0183  0.4752  0.4643
 5592TIP3   OH216739   3.407   2.863   3.810  0.3006  0.0910  0.2151
 5592TIP3    H116740   3.435   2.850   3.720 -0.2615 -1.6389  0.2550
 5592TIP3    H216741   3.317   2.831   3.813 -0.2101  1.5117  1.0709
 5593TIP3   OH216742   1.114   3.249   1.508 -0.2596  0.4879  0.2823
 5593TIP3    H116743   1.138   3.280   1.421  0.2652 -1.4851 -0.3228
 5593TIP3    H216744   1.026   3.212   1.497 -0.9175  1.7836  1.0080
 5594TIP3   OH216745   2.197   3.991   1.496  0.1330 -0.2656  0.2274
 5594TIP3    H116746   2.282   3.951   1.479  1.6287  1.2701  3.1399
 5594TIP3    H216747   2.196   4.069   1.441  0.7051 -0.2355  0.2458
 5595TIP3   OH216748   5.320   5.392   3.413 -0.0355  0.4925 -0.0645
 5595TIP3    H116749   5.260   5.354   3.348 -0.3549 -1.5690  1.3290
 5595TIP3    H216750   5.371   5.318   3.445  1.5117  1.7916  0.6317
 5596TIP3   OH216751   4.541   3.847   3.314  0.3510 -0.4073  0.0861
 5596TIP3    H116752   4.619   3.792   3.314 -1.2126 -2.8109 -0.1610
 5596TIP3    H216753   4.486   3.811   3.384 -0.8402  0.6986 -0.2368
 5597TIP3   OH216754   6.487   4.564   4.815 -0.4080  0.4769 -0.1299
 5597TIP3    H116755   6.452   4.563   4.904 -1.9114 -1.4232 -0.6726
 5597TIP3    H216756   6.504   4.656   4.797 -0.5948  0.9571  1.9080
 5598TIP3   OH216757   4.400   0.456   5.108 -0.2052 -0.3197  0.0757
 5598TIP3    H116758   4.376   0.429   5.019  1.8507 -0.6277 -0.4444
 5598TIP3    H216759   4.417   0.374   5.154  0.3968 -0.1252  0.2198
 5599TIP3   OH216760   0.068   5.491   5.529 -0.0013 -0.9121  0.5656
 5599TIP3    H116761   0.033   5.431   5.594 -1.0542 -0.6843  0.2410
 5599TIP3    H216762   0.095   5.568   5.579 -0.4321 -0.8964  0.7780
 5600TIP3   OH216763   4.033   2.105   1.800  0.2683  0.4295 -0.1225
 5600TIP3    H116764   4.058   2.108   1.708  0.1712  1.0315 -0.1318
 5600TIP3    H216765   4.002   2.193   1.819  1.6574  0.7389  0.8630
 5601TIP3   OH216766   0.781   3.005   3.290  0.3709  0.5152  0.7329
 5601TIP3    H116767   0.741   3.092   3.292  0.5217  0.7738 -2.1854
 5601TIP3    H216768   0.873   3.021   3.310  0.3363  0.9811  0.5316
 5602TIP3   OH216769   1.565   2.090   1.534  0.6359  0.2003 -0.1932
 5602TIP3    H116770   1.557   2.153   1.463  0.4230  1.0765  0.5973
 5602TIP3    H216771   1.635   2.125   1.589 -0.1026  0.2405  0.7449
 5603TIP3   OH216772   5.342   5.769   3.396 -0.5150 -0.3628 -0.6017
 5603TIP3    H116773   5.323   5.769   3.490 -1.4386  0.2580 -0.7813
 5603TIP3    H216774   5.411   5.834   3.386  0.3818 -1.2180 -0.2218
 5604TIP3   OH216775   4.490   0.128   5.063 -0.0351 -0.4661 -0.2126
 5604TIP3    H116776   4.502   0.106   5.155 -0.7631  1.1795  0.3106
 5604TIP3    H216777   4.452   0.049   5.024  1.9159 -1.8299  0.4579
 5605TIP3   OH216778   3.264   4.826   3.549  0.1452 -0.2995  0.3082
 5605TIP3    H116779   3.330   4.873   3.599 -0.2775  0.5898  0.0546
 5605TIP3    H216780   3.304   4.812   3.463 -0.5832  1.7908 -0.4382
 5606TIP3   OH216781   6.632   5.000   1.593 -0.7674  0.1171  0.4450
 5606TIP3    H116782   6.689   5.061   1.641 -0.3089 -0.0283  0.0911
 5606TIP3    H216783   6.661   5.006   1.502 -1.3721  0.0962  0.2462
 5607TIP3   OH216784   5.585   1.548   3.820 -0.1619 -0.0835 -0.1883
 5607TIP3    H116785   5.639   1.469   3.819  1.1423  0.7705 -1.2067
 5607TIP3    H216786   5.600   1.589   3.734 -0.1133  1.6932  0.6169
 5608TIP3   OH216787   6.740   0.016   3.878 -0.0965 -0.4924 -0.1021
 5608TIP3    H116788   6.662   0.055   3.838  0.0893  0.0381  0.0396
 5608TIP3    H216789   6.705  -0.043   3.945 -0.3847  1.5297  1.6340
 5609TIP3   OH216790   4.910   2.115   0.086  0.3466  0.0786 -0.3022
 5609TIP3    H116791   5.003   2.130   0.103  0.5576 -0.7611 -0.6676
 5609TIP3    H216792   4.867   2.126   0.171  0.9990 -1.1850  0.2069
 5610TIP3   OH216793   6.308   6.462   2.319 -0.2426  0.0263 -0.1510
 5610TIP3    H116794   6.322   6.368   2.330  0.2583 -0.4697 -3.6885
 5610TIP3    H216795   6.275   6.492   2.403 -0.2155 -3.2641  1.1665
 5611TIP3   OH216796   2.433   3.880   1.411 -0.4620 -0.0157 -0.0270
 5611TIP3    H116797   2.437   3.824   1.333  0.2600 -1.7570  1.2002
 5611TIP3    H216798   2.514   3.930   1.409 -0.8077  0.5383 -0.7864
 5612TIP3   OH216799   0.554   4.751   1.948 -0.0543  0.1020  0.2671
 5612TIP3    H116800   0.512   4.835   1.965  0.0385  0.6540 -1.9701
 5612TIP3    H216801   0.627   4.771   1.890  0.6139 -1.4045  0.5428
 5613TIP3   OH216802   2.970   6.538   2.011 -0.2338 -0.4287  0.5916
 5613TIP3    H116803   3.043   6.598   1.998 -0.1601 -0.4141  1.0671
 5613TIP3    H216804   2.894   6.583   1.974 -0.2533  0.1248  1.2877
 5614TIP3   OH216805   0.453   0.250   4.718 -0.0640 -0.7959 -0.2044
 5614TIP3    H116806   0.488   0.331   4.755  0.1745 -1.7213  1.6848
 5614TIP3    H216807   0.384   0.224   4.778  0.0199 -2.1292 -0.6596
 5615TIP3   OH216808   2.885   3.355   4.545 -0.4026 -0.4483  0.3280
 5615TIP3    H116809   2.885   3.261   4.526  0.6093 -0.6759  1.3555
 5615TIP3    H216810   2.974   3.383   4.522 -0.0831 -0.1460  1.8223
 5616TIP3   OH216811   1.418   3.545   4.167 -0.3752  0.1186 -0.2254
 5616TIP3    H116812   1.510   3.533   4.191 -0.0965 -0.1682 -1.3724
 5616TIP3    H216813   1.386   3.614   4.226  0.4764 -0.0030  0.3938
 5617TIP3   OH216814   6.828   5.509   1.769 -0.1353  0.2887  0.0880
 5617TIP3    H116815   6.847   5.492   1.861 -0.2454 -1.5386 -0.1925
 5617TIP3    H216816   6.752   5.454   1.749 -0.3046  0.8832 -1.0187
 5618TIP3   OH216817   5.601   5.392   5.549 -1.0577 -0.1599  0.1722
 5618TIP3    H116818   5.568   5.333   5.617 -0.8966 -0.0747  0.3253
 5618TIP3    H216819   5.696   5.380   5.550 -0.7490  1.8474  1.8693
 5619TIP3   OH216820   2.986   3.440   5.754 -0.4676 -0.3652  0.4957
 5619TIP3    H116821   2.917   3.399   5.806 -1.1407 -0.9961 -0.8480
 5619TIP3    H216822   2.946   3.454   5.668  1.0504 -0.6900 -0.2990
 5620TIP3   OH216823   2.048   4.489   1.218  0.0637  0.0444  0.0789
 5620TIP3    H116824   1.974   4.428   1.224 -1.2435  1.5236 -0.5694
 5620TIP3    H216825   2.020   4.566   1.267  1.3241  0.5198  0.0962
 5621TIP3   OH216826   0.605   3.069   4.895 -0.6913  0.5296 -0.2787
 5621TIP3    H116827   0.539   3.131   4.926 -1.2326  0.1950 -0.7380
 5621TIP3    H216828   0.635   3.107   4.812 -4.3650 -1.9995 -3.0665
 5622TIP3   OH216829   1.511   3.358   3.386  0.1232  0.1405 -0.2146
 5622TIP3    H116830   1.549   3.433   3.432 -1.6938  1.6497 -1.0125
 5622TIP3    H216831   1.581   3.326   3.330  0.9220  1.3244  0.0511
 5623TIP3   OH216832   0.359   4.306   4.096 -0.0203  0.6274 -0.2161
 5623TIP3    H116833   0.277   4.352   4.083 -0.5131 -0.1574  0.0332
 5623TIP3    H216834   0.412   4.365   4.150 -0.9035  0.6100  0.6981
 5624TIP3   OH216835   6.453   3.213   2.405 -0.0409  0.7261  0.3411
 5624TIP3    H116836   6.527   3.272   2.420 -1.5523  2.0965  2.9527
 5624TIP3    H216837   6.387   3.239   2.469 -2.0561 -1.7477 -0.5548
 5625TIP3   OH216838   4.405   1.173   3.634 -0.6789 -0.7937 -0.1550
 5625TIP3    H116839   4.486   1.155   3.587  0.0491  0.3311  0.6254
 5625TIP3    H216840   4.429   1.172   3.726 -0.9119  2.1136  0.0561
 5626TIP3   OH216841   5.422   0.281   2.125 -0.4396 -0.3660 -0.1711
 5626TIP3    H116842   5.332   0.293   2.094 -0.5097 -1.7845 -0.5856
 5626TIP3    H216843   5.422   0.195   2.166  0.2961  0.4114  1.5392
 5627TIP3   OH216844   1.178   5.237   4.524 -0.2783 -0.1307 -0.3340
 5627TIP3    H116845   1.214   5.324   4.542 -0.6488 -0.2265  0.9621
 5627TIP3    H216846   1.195   5.223   4.431 -0.3239  1.3751 -0.5887
 5628TIP3   OH216847   4.441   2.731   0.042 -0.2563 -0.3194 -0.2332
 5628TIP3    H116848   4.391   2.674   0.100 -0.8779 -0.2099 -0.6553
 5628TIP3    H216849   4.414   2.706  -0.046 -0.1946  0.3169 -0.4359
 5629TIP3   OH216850   0.926   2.503   2.042  0.2978  0.0436 -0.0617
 5629TIP3    H116851   0.915   2.537   1.953  0.5758  0.0673 -0.0902
 5629TIP3    H216852   0.921   2.408   2.032  0.6240  0.0332 -0.1498
 5630TIP3   OH216853   5.240   3.180   3.674 -0.4834  0.6429  0.0367
 5630TIP3    H116854   5.295   3.247   3.716  1.3108 -0.8883  0.2286
 5630TIP3    H216855   5.298   3.136   3.613 -1.1754 -1.7863  1.0374
 5631TIP3   OH216856   6.951   2.229   4.741  0.3784 -0.4314  0.2497
 5631TIP3    H116857   6.921   2.213   4.651 -0.0533  0.3668  0.2379
 5631TIP3    H216858   7.017   2.298   4.731  1.1234 -1.1052  0.4399
 5632TIP3   OH216859   4.964   4.847   1.828  0.1381  0.1218  0.2182
 5632TIP3    H116860   4.967   4.934   1.867  0.2356 -0.0036  0.5017
 5632TIP3    H216861   4.899   4.799   1.880 -0.9628  0.4352 -0.8287
 5633TIP3   OH216862   5.726   1.322   1.991  0.2792 -0.6903 -0.4286
 5633TIP3    H116863   5.752   1.231   2.007  3.4671  0.2414  0.4541
 5633TIP3    H216864   5.720   1.328   1.895 -0.1383 -1.8474 -0.4977
 5634TIP3   OH216865   3.989   2.978   2.775 -0.1672  0.3647 -0.0417
 5634TIP3    H116866   4.057   3.012   2.717  2.8670 -2.2730  1.6470
 5634TIP3    H216867   3.968   3.051   2.832  0.0309  1.7028 -1.6030
 5635TIP3   OH216868   1.537   5.536   1.153 -0.6286  0.0270 -0.5629
 5635TIP3    H116869   1.571   5.553   1.241 -1.1492  0.2014 -0.3914
 5635TIP3    H216870   1.455   5.586   1.149  0.4740  1.8323 -1.9369
 5636TIP3   OH216871   4.338   5.073   1.417 -0.4462  0.3049 -0.5739
 5636TIP3    H116872   4.261   5.041   1.463  0.0750 -2.3469 -1.4004
 5636TIP3    H216873   4.304   5.103   1.332 -0.4258 -3.5022 -2.1353
 5637TIP3   OH216874   3.492   5.051   3.026 -0.2998  0.2842  0.1971
 5637TIP3    H116875   3.522   5.140   3.011  0.6592 -0.0731 -0.0430
 5637TIP3    H216876   3.436   5.058   3.104 -0.5144  1.1410 -0.0215
 5638TIP3   OH216877   2.758   3.179   0.978  0.0206  0.5807 -0.3142
 5638TIP3    H116878   2.843   3.134   0.977  0.6618  1.6895  1.0050
 5638TIP3    H216879   2.738   3.195   0.886  1.5295  0.8120 -0.6255
 5639TIP3   OH216880   6.501   4.699   5.764  0.0642 -0.0927 -0.0012
 5639TIP3    H116881   6.424   4.667   5.811 -0.5066 -1.8748 -1.9853
 5639TIP3    H216882   6.479   4.789   5.739 -0.5540  0.0701  1.1026
 5640TIP3   OH216883   0.466   5.345   4.798  0.0960 -0.1701  0.9943
 5640TIP3    H116884   0.465   5.424   4.744  1.0622 -1.0299 -0.3656
 5640TIP3    H216885   0.389   5.352   4.854 -1.6093  0.2565 -1.2767
 5641TIP3   OH216886   5.552   4.259   2.269  0.0645  0.2539 -0.7042
 5641TIP3    H116887   5.536   4.257   2.364 -1.1456 -1.2552 -0.9119
 5641TIP3    H216888   5.491   4.325   2.236 -1.2688 -0.9319 -0.6979
 5642TIP3   OH216889   5.265   6.159   1.477  0.8766 -0.0723  0.3854
 5642TIP3    H116890   5.188   6.200   1.437 -0.4145 -1.1313  1.6648
 5642TIP3    H216891   5.339   6.191   1.425 -0.6576 -1.4971 -3.0295
 5643TIP3   OH216892   3.366   0.415   1.601  0.0810  0.1701 -0.1787
 5643TIP3    H116893   3.345   0.350   1.668 -3.5818  0.5873 -0.7268
 5643TIP3    H216894   3.383   0.496   1.649  1.4289 -0.3883  0.3406
 5644TIP3   OH216895   2.781   4.803   3.604 -0.3349  0.4651  0.4468
 5644TIP3    H116896   2.768   4.715   3.568 -0.1046 -0.1852  1.8613
 5644TIP3    H216897   2.729   4.860   3.548  0.1713 -0.4502 -1.0062
 5645TIP3   OH216898   6.069   5.966   4.442 -0.7392  0.3704 -0.3307
 5645TIP3    H116899   6.161   5.963   4.468 -0.3553 -0.6702 -1.6823
 5645TIP3    H216900   6.021   5.958   4.524  0.3830 -2.7111  0.1677
 5646TIP3   OH216901   1.597   2.701   4.956 -0.4542  0.0888 -0.1379
 5646TIP3    H116902   1.692   2.696   4.952 -0.4250 -0.9720  1.1917
 5646TIP3    H216903   1.576   2.788   4.924  0.8213 -0.2985 -2.2414
 5647TIP3   OH216904   1.587   5.297   4.905 -0.2564 -0.1228 -1.1166
 5647TIP3    H116905   1.532   5.265   4.977 -0.2371  1.7404 -0.2239
 5647TIP3    H216906   1.541   5.270   4.826 -0.8089 -1.3265 -0.4130
 5648TIP3   OH216907   5.889   0.554   0.755  0.3808  0.4863 -0.0536
 5648TIP3    H116908   5.873   0.462   0.737 -0.8134  0.4717  0.9641
 5648TIP3    H216909   5.844   0.571   0.838  0.4419  2.0258 -0.2988
 5649TIP3   OH216910   6.418   6.682   3.202  0.2234 -0.1370 -0.6770
 5649TIP3    H116911   6.433   6.647   3.114  1.7874 -0.8660 -0.1597
 5649TIP3    H216912   6.378   6.609   3.250  1.0208 -0.3384 -0.3120
 5650TIP3   OH216913   2.594   5.322   3.040 -0.1846 -0.4322 -0.4551
 5650TIP3    H116914   2.573   5.414   3.057  0.1690 -0.2767 -0.8497
 5650TIP3    H216915   2.557   5.275   3.115  1.2721  0.2333  0.7306
 5651TIP3   OH216916   0.370   3.676   1.168  0.0774 -1.2005 -0.3449
 5651TIP3    H116917   0.446   3.730   1.191 -1.3009 -0.0113  1.6483
 5651TIP3    H216918   0.392   3.641   1.082  3.0163 -1.1497  0.2668
 5652TIP3   OH216919   2.312   3.323   1.008 -0.0335 -0.4058  0.1893
 5652TIP3    H116920   2.249   3.344   0.940 -0.6104 -1.3018  0.4403
 5652TIP3    H216921   2.295   3.232   1.031 -0.6777  0.1948  2.3653
 5653TIP3   OH216922   0.585   5.562   3.810  0.3608  0.0287 -0.0964
 5653TIP3    H116923   0.673   5.525   3.818  0.6104  0.6374 -0.0025
 5653TIP3    H216924   0.589   5.620   3.735 -0.3145 -0.8991 -0.8827
 5654TIP3   OH216925   0.838   3.350   4.817 -0.4081 -0.4351 -0.1002
 5654TIP3    H116926   0.901   3.282   4.843 -0.0466 -0.5904 -1.3419
 5654TIP3    H216927   0.890   3.430   4.813 -0.0141 -0.7457 -2.1450
 5655TIP3   OH216928   3.792   1.231   1.020 -0.0594  0.3085  0.6888
 5655TIP3    H116929   3.781   1.293   0.948  0.0918  1.3652  1.5459
 5655TIP3    H216930   3.886   1.216   1.023 -0.1256 -0.2229  0.2846
 5656TIP3   OH216931   7.025   3.434   2.542 -0.1093 -0.1580  0.4538
 5656TIP3    H116932   6.977   3.505   2.500  0.6145  0.8209  1.2469
 5656TIP3    H216933   7.107   3.427   2.492  0.0031 -0.1456  0.6346
 5657TIP3   OH216934   4.206   5.795   2.946 -0.3608  0.5106  0.1536
 5657TIP3    H116935   4.232   5.860   3.011  0.6264 -0.2950  0.5990
 5657TIP3    H216936   4.219   5.711   2.990 -1.9788  0.0128 -0.2848
 5658TIP3   OH216937   5.979   4.926   5.655  0.0723  0.1348  0.7413
 5658TIP3    H116938   6.016   5.015   5.650 -2.5635  1.3594  1.3502
 5658TIP3    H216939   6.048   4.874   5.695  1.7143  1.8926  0.3689
 5659TIP3   OH216940   0.502   0.126   4.488 -1.0285  0.7314  0.4526
 5659TIP3    H116941   0.582   0.173   4.466 -1.8893  2.0155 -0.1071
 5659TIP3    H216942   0.476   0.163   4.573 -0.4853 -0.4374  1.1400
 5660TIP3   OH216943   4.280   5.847   4.494  0.4287  0.4039 -0.1461
 5660TIP3    H116944   4.361   5.837   4.445 -1.0409 -1.1155 -2.4429
 5660TIP3    H216945   4.226   5.905   4.440 -0.2620  0.9637  1.0830
 5661TIP3   OH216946   3.788   6.552   2.936  0.2450 -0.4904 -0.2179
 5661TIP3    H116947   3.715   6.611   2.918 -0.0047  0.1909  2.5799
 5661TIP3    H216948   3.756   6.465   2.909 -0.7263  0.1099 -1.0848
 5662TIP3   OH216949   1.471   5.974  -0.011 -0.6332 -0.1094 -0.4423
 5662TIP3    H116950   1.479   6.070  -0.010  0.2904 -0.1776 -0.5765
 5662TIP3    H216951   1.539   5.944   0.049 -0.9420 -0.6860 -0.3770
 5663TIP3   OH216952   6.467   4.107   0.382  0.5760 -0.2313  0.1303
 5663TIP3    H116953   6.489   4.136   0.471  0.9206 -1.6108  0.5179
 5663TIP3    H216954   6.484   4.184   0.327  1.8050  0.2037  1.0598
 5664TIP3   OH216955   5.472   0.481   1.818 -0.1357 -0.1060  0.4605
 5664TIP3    H116956   5.466   0.472   1.723  1.0521 -0.2855  0.3799
 5664TIP3    H216957   5.558   0.445   1.840 -0.2973  0.1399  1.5786
 5665TIP3   OH216958   5.990   4.480  -0.004 -0.4230  0.3059  0.5100
 5665TIP3    H116959   6.035   4.402  -0.036  1.1400  1.0706  0.7938
 5665TIP3    H216960   5.927   4.447   0.060 -2.7100 -1.1391 -2.2216
 5666TIP3   OH216961   1.428   0.831   2.905  0.5114 -0.3858  0.2107
 5666TIP3    H116962   1.373   0.764   2.946  0.9616 -1.0876 -0.3144
 5666TIP3    H216963   1.486   0.860   2.974  1.0417 -1.3192  0.1768
 5667TIP3   OH216964   6.411   2.757   3.509 -0.6008 -0.6550 -0.6443
 5667TIP3    H116965   6.423   2.672   3.466  1.1705 -0.0166 -1.5296
 5667TIP3    H216966   6.353   2.805   3.450 -2.0069 -1.3603  0.0975
 5668TIP3   OH216967   7.190   4.017   1.822  0.0269 -0.0948 -0.2540
 5668TIP3    H116968   7.192   3.935   1.773 -1.3990 -0.4703  0.2783
 5668TIP3    H216969   7.097   4.039   1.829  0.2162  0.2775  1.6983
 5669TIP3   OH216970   3.772   2.279   1.248 -0.0199  0.0266  0.0138
 5669TIP3    H116971   3.802   2.354   1.196 -0.4747 -0.5362 -1.0886
 5669TIP3    H216972   3.793   2.203   1.195 -1.2340 -0.5208  0.2798
 5670TIP3   OH216973   6.105   0.277   0.829 -0.3001 -0.7657  0.2961
 5670TIP3    H116974   6.030   0.257   0.773  0.3095 -1.5752 -0.2513
 5670TIP3    H216975   6.114   0.201   0.887  0.1008 -0.6817  0.3490
 5671TIP3   OH216976   5.876   0.321   5.563 -0.3253  0.2225 -0.0994
 5671TIP3    H116977   5.783   0.330   5.543 -0.7912 -0.5597  1.5386
 5671TIP3    H216978   5.908   0.411   5.571 -0.8653  0.4977 -0.9590
 5672TIP3   OH216979   5.053   2.958   4.096  0.1264 -0.5515 -0.5315
 5672TIP3    H116980   4.966   2.919   4.087 -0.3945  0.8089 -1.7362
 5672TIP3    H216981   5.093   2.949   4.009 -0.0676  1.6045 -0.9092
 5673TIP3   OH216982   6.007   2.092   0.997 -0.0651 -0.7711 -0.2692
 5673TIP3    H116983   6.005   2.184   0.968  0.1273 -1.1688 -1.6038
 5673TIP3    H216984   6.038   2.097   1.087  2.2654  0.3289 -1.0415
 5674TIP3   OH216985   5.166   5.465   5.091  0.2679 -0.2956 -0.4079
 5674TIP3    H116986   5.136   5.555   5.099  1.2112  0.0017 -0.0118
 5674TIP3    H216987   5.157   5.444   4.998 -0.9850 -0.1797 -0.3284
 5675TIP3   OH216988   0.816   6.342  -0.014 -0.2826 -0.5214  0.7210
 5675TIP3    H116989   0.747   6.407  -0.024  1.2039  1.6268  3.0193
 5675TIP3    H216990   0.812   6.317   0.079  1.2432 -1.2322  0.6306
 5676TIP3   OH216991   1.791   2.089   3.705 -0.1608 -0.4821  0.2327
 5676TIP3    H116992   1.804   2.003   3.744  1.5824 -0.1146  0.5688
 5676TIP3    H216993   1.790   2.149   3.780 -2.2564 -0.2553  0.0801
 5677TIP3   OH216994   0.388   6.149   3.235 -0.2235  0.4275 -0.0346
 5677TIP3    H116995   0.320   6.216   3.225  0.0020  0.4798 -1.3247
 5677TIP3    H216996   0.464   6.186   3.190  0.2178 -0.2647  0.1334
 5678TIP3   OH216997   3.974   0.266   1.619  0.1226  0.2455  0.0235
 5678TIP3    H116998   3.933   0.243   1.702 -1.7565  1.6552 -0.4505
 5678TIP3    H216999   4.049   0.321   1.644  0.5242 -0.6330  0.8160
 5679TIP3   OH217000   1.023   0.360   2.713  0.1336  0.6568  0.0769
 5679TIP3    H117001   0.940   0.403   2.734 -0.9780 -1.1627 -0.4525
 5679TIP3    H217002   1.083   0.433   2.694 -1.4775  1.9896 -0.1231
 5680TIP3   OH217003   1.149   4.915   0.099  0.5046  0.0074  0.2494
 5680TIP3    H117004   1.149   4.938   0.006  0.1768 -1.0990 -0.0445
 5680TIP3    H217005   1.081   4.848   0.107  0.6401 -0.0238  1.2587
 5681TIP3   OH217006   5.965   3.346   0.413  0.0106 -0.2377 -0.0383
 5681TIP3    H117007   6.006   3.395   0.484  1.7740  0.2059 -1.2821
 5681TIP3    H217008   5.889   3.399   0.388  1.7544  1.8797 -1.2115
 5682TIP3   OH217009   0.744   4.333   2.508  0.8401  0.1843  0.2600
 5682TIP3    H117010   0.680   4.309   2.441 -0.5151  0.9087  1.2526
 5682TIP3    H217011   0.775   4.420   2.482  0.1591  0.5550  0.6682
 5683TIP3   OH217012   1.504   2.941  -0.007 -0.3245 -0.7005  0.0885
 5683TIP3    H117013   1.461   2.856   0.004 -1.6995 -0.0425  0.0046
 5683TIP3    H217014   1.474   2.994   0.067  1.4120 -0.5985  0.7828
 5684TIP3   OH217015   1.082   2.785   0.515 -0.3238  0.1438  0.3124
 5684TIP3    H117016   1.053   2.876   0.517  0.9707  0.5763  0.0347
 5684TIP3    H217017   1.161   2.786   0.461  1.2140 -0.6737  2.3958
 5685TIP3   OH217018   2.330   5.921   5.284  0.0315  0.0396  0.1314
 5685TIP3    H117019   2.272   5.903   5.210 -0.2678 -0.3691  0.4587
 5685TIP3    H217020   2.343   5.835   5.325 -1.7745  0.5886  1.9954
 5686TIP3   OH217021   5.059   3.233   0.312 -0.6415  0.1584 -0.8118
 5686TIP3    H117022   5.016   3.215   0.229 -0.6953 -1.3985 -0.4627
 5686TIP3    H217023   5.153   3.222   0.293 -0.4999  1.6028 -1.0857
 5687TIP3   OH217024   1.613   0.485   2.970 -0.0805  0.0741  0.2184
 5687TIP3    H117025   1.650   0.400   2.994  1.1265  0.1010 -1.4102
 5687TIP3    H217026   1.635   0.495   2.877 -0.0346  2.2601  0.4269
 5688TIP3   OH217027   3.166   3.208   3.966  0.4227 -0.5530 -0.2151
 5688TIP3    H117028   3.143   3.285   4.017  0.0669 -0.8370  0.0620
 5688TIP3    H217029   3.087   3.189   3.915  0.9822  0.1040 -1.3583
 5689TIP3   OH217030   3.251   1.246   1.992 -0.0406  0.5831  0.3124
 5689TIP3    H117031   3.167   1.201   1.982 -0.0923  0.7950 -0.2727
 5689TIP3    H217032   3.231   1.325   2.043 -0.2843  0.8582 -0.1984
 5690TIP3   OH217033   1.945   1.023   2.047  0.0603  0.9164  0.0983
 5690TIP3    H117034   1.958   1.036   1.954 -2.0123  0.1775 -0.3445
 5690TIP3    H217035   2.033   1.016   2.083  0.8950  0.8810 -1.8477
 5691TIP3   OH217036   5.924   0.423   1.051  0.8772  0.5888  0.2156
 5691TIP3    H117037   5.923   0.342   1.102 -0.1184  0.9555  0.7978
 5691TIP3    H217038   6.016   0.432   1.023  0.9890 -0.7607  0.0809
 5692TIP3   OH217039   0.823   5.373   4.539  0.0875 -0.5184  0.1810
 5692TIP3    H117040   0.800   5.350   4.449 -1.5512 -1.7019  0.8480
 5692TIP3    H217041   0.887   5.308   4.565  0.3099 -0.3780 -0.0081
 5693TIP3   OH217042   2.540   1.641   5.723  0.1175  0.2742  0.3226
 5693TIP3    H117043   2.489   1.571   5.683 -1.5523 -0.5444  3.5464
 5693TIP3    H217044   2.475   1.709   5.741  1.2323  1.5305 -0.2798
 5694TIP3   OH217045   0.440   5.927   1.837  0.1056  0.6236  0.0633
 5694TIP3    H117046   0.398   5.892   1.916  1.2401 -1.3455 -0.1485
 5694TIP3    H217047   0.444   6.022   1.852  1.4689  0.2208  3.0202
 5695TIP3   OH217048   0.128   5.457   4.640 -0.1813  0.2778 -0.0036
 5695TIP3    H117049   0.188   5.433   4.569 -0.1568  0.1286  0.0677
 5695TIP3    H217050   0.086   5.538   4.610 -2.4923 -1.3896 -1.5958
 5696TIP3   OH217051   2.734   2.478   4.302 -1.0904 -0.0854  0.1436
 5696TIP3    H117052   2.694   2.564   4.315 -0.9322  0.0044  0.0440
 5696TIP3    H217053   2.700   2.448   4.217 -0.1296  0.4589 -0.4551
 5697TIP3   OH217054   6.082   0.111   5.522  0.0288  0.0581  0.3798
 5697TIP3    H117055   6.149   0.162   5.569  0.0381  1.0489 -0.6586
 5697TIP3    H217056   6.003   0.165   5.528 -0.1100 -0.0651 -0.2490
 5698TIP3   OH217057   2.148   2.514   2.664  0.3769 -0.3553  0.3884
 5698TIP3    H117058   2.230   2.563   2.663 -1.0479  2.2210  0.6905
 5698TIP3    H217059   2.107   2.536   2.748 -1.1704 -0.5552 -0.2703
 5699TIP3   OH217060   0.869   6.577   4.724 -0.0274  0.3192  0.2431
 5699TIP3    H117061   0.818   6.601   4.801  0.3375  1.8171  0.0457
 5699TIP3    H217062   0.804   6.571   4.654 -0.3030 -0.6352  0.5644
 5700TIP3   OH217063   5.087   5.847   5.647 -0.0793 -0.0652  0.0659
 5700TIP3    H117064   5.144   5.835   5.723  0.5644  2.2209  0.0113
 5700TIP3    H217065   5.125   5.791   5.579  1.6833  0.7930  0.2793
 5701TIP3   OH217066  -0.007   1.912   0.527 -0.2626 -0.0913 -0.3906
 5701TIP3    H117067   0.054   1.982   0.504  1.7321 -1.4724  0.3752
 5701TIP3    H217068  -0.036   1.877   0.443  1.8667 -0.8912 -0.8452
 5702TIP3   OH217069   2.520   5.183   1.258  0.1123  0.0704  0.2324
 5702TIP3    H117070   2.566   5.157   1.177  2.6705  2.3773  0.7675
 5702TIP3    H217071   2.519   5.278   1.255 -2.3855  0.1697  1.6227
 5703TIP3   OH217072   1.315   0.680   5.514  0.4762  0.2091  0.2819
 5703TIP3    H117073   1.279   0.650   5.598  0.4578  0.4643  0.3672
 5703TIP3    H217074   1.410   0.683   5.528  0.7986 -2.5378 -0.5957
 5704TIP3   OH217075   1.442   6.405   2.287 -0.0012 -0.0229 -0.9950
 5704TIP3    H117076   1.428   6.500   2.280  0.8075  0.1728 -0.1480
 5704TIP3    H217077   1.402   6.381   2.371  2.4202  0.1419  0.3168
 5705TIP3   OH217078   6.061   1.144   4.310 -0.3542 -0.3227 -0.3078
 5705TIP3    H117079   6.100   1.142   4.398 -1.5187 -1.0141  0.2067
 5705TIP3    H217080   6.098   1.067   4.266 -0.2464 -0.3190 -0.2255
 5706TIP3   OH217081   3.592   4.417   5.218 -0.2383  0.3401  0.1124
 5706TIP3    H117082   3.649   4.384   5.287 -2.5706 -1.6022  1.2450
 5706TIP3    H217083   3.549   4.493   5.256  0.5050  0.9641 -0.2540
 5707TIP3   OH217084   4.866   0.417   4.897 -0.0755  0.1031  0.7277
 5707TIP3    H117085   4.922   0.343   4.872  0.1034  0.0007  1.4129
 5707TIP3    H217086   4.777   0.385   4.883  0.0145  0.4800 -0.9771
 5708TIP3   OH217087   2.420   1.669   1.505 -0.3331 -0.1400  0.1073
 5708TIP3    H117088   2.478   1.611   1.554 -0.5924 -1.1811 -0.7745
 5708TIP3    H217089   2.345   1.683   1.562 -0.7377 -1.5165 -0.0699
 5709TIP3   OH217090   0.076   3.366   2.403 -0.6374  0.0239  0.0240
 5709TIP3    H117091   0.129   3.332   2.476 -0.9369 -0.8577 -0.1607
 5709TIP3    H217092   0.109   3.319   2.326 -0.9594  0.2639 -0.2616
 5710TIP3   OH217093   6.719   0.565   0.781  0.0296  0.2335  0.4631
 5710TIP3    H117094   6.800   0.603   0.747 -0.4759  0.5738 -0.4003
 5710TIP3    H217095   6.649   0.611   0.735 -0.6840  0.3748  1.6435
 5711TIP3   OH217096   6.712   5.658   2.790  0.4030  0.3334  0.0129
 5711TIP3    H117097   6.659   5.615   2.857  0.6936 -1.7718 -1.0319
 5711TIP3    H217098   6.768   5.718   2.839 -0.6593  0.2112  1.4453
 5712TIP3   OH217099   3.694   5.022   5.031 -0.5037 -0.3367  0.0065
 5712TIP3    H117100   3.689   5.064   5.117  0.8517  1.9796 -0.9258
 5712TIP3    H217101   3.637   4.946   5.038 -1.1104  0.2410  2.6735
 5713TIP3   OH217102   4.729   1.924   3.278  0.6455 -0.1689 -0.7927
 5713TIP3    H117103   4.642   1.956   3.251  0.8819  0.1102 -1.2453
 5713TIP3    H217104   4.790   1.981   3.232  1.0970 -1.5219 -1.9576
 5714TIP3   OH217105   4.077   1.941   2.395  0.2794  0.4360  0.0526
 5714TIP3    H117106   4.172   1.934   2.392  0.3341  0.9238  0.5044
 5714TIP3    H217107   4.047   1.852   2.416  0.6491  0.3468  0.2090
 5715TIP3   OH217108   2.270   6.422   1.104  0.3450  0.0688 -0.0552
 5715TIP3    H117109   2.228   6.502   1.136 -0.2160  0.4860 -1.7497
 5715TIP3    H217110   2.358   6.449   1.080 -0.3744  0.6677 -2.3044
 5716TIP3   OH217111   1.786   5.939   3.858 -0.7123  0.3675  0.9670
 5716TIP3    H117112   1.831   5.954   3.775  1.4563 -1.2976  1.7544
 5716TIP3    H217113   1.693   5.942   3.836 -0.2177  1.3349 -1.2362
 5717TIP3   OH217114   4.809   6.193   0.293  0.0373 -0.1665  0.6696
 5717TIP3    H117115   4.717   6.215   0.285 -0.0550 -0.7609 -0.0040
 5717TIP3    H217116   4.842   6.251   0.362 -0.4655  1.2316 -0.2285
 5718TIP3   OH217117   0.318   4.172   1.044  0.5668  0.3520  0.0292
 5718TIP3    H117118   0.239   4.142   1.001  0.7598  0.3320 -0.3179
 5718TIP3    H217119   0.389   4.139   0.989  0.9130 -1.6676  1.5908
 5719TIP3   OH217120   4.056   0.255   3.153  0.5876 -0.0432 -0.0283
 5719TIP3    H117121   3.989   0.188   3.168 -0.2595  0.4155 -1.5509
 5719TIP3    H217122   4.088   0.276   3.241 -0.3456 -1.1976  0.6335
 5720TIP3   OH217123   6.629   1.511   1.868  0.4541  0.1837 -0.2469
 5720TIP3    H117124   6.601   1.523   1.778  2.3427  1.5445 -0.7272
 5720TIP3    H217125   6.721   1.483   1.861 -0.0922 -2.3537  1.2367
 5721TIP3   OH217126   4.221   4.827   4.045 -0.8421  0.8213 -0.3752
 5721TIP3    H117127   4.160   4.818   4.117 -0.5435 -0.5013 -0.2720
 5721TIP3    H217128   4.214   4.745   3.996  1.3103  0.3348  0.0289
 5722TIP3   OH217129   0.038   4.328   1.851 -0.2359 -0.2103  0.6094
 5722TIP3    H117130   0.040   4.279   1.933 -0.0356 -1.1263  0.0818
 5722TIP3    H217131   0.129   4.329   1.822 -0.5656 -1.8448 -0.6787
 5723TIP3   OH217132   0.233   0.855   5.478 -0.6716  0.1396  0.3547
 5723TIP3    H117133   0.160   0.912   5.454 -0.5674  0.1978  0.1775
 5723TIP3    H217134   0.254   0.879   5.569 -0.9168  0.0759  0.4291
 5724TIP3   OH217135   5.144   5.121   5.448  0.2478 -0.1517 -0.2318
 5724TIP3    H117136   5.058   5.108   5.488  0.2047 -0.5926 -0.4621
 5724TIP3    H217137   5.164   5.037   5.406  0.1656  0.3722 -1.3770
 5725TIP3   OH217138   2.843   6.304   5.005  0.1523  0.6153 -0.5504
 5725TIP3    H117139   2.868   6.337   5.091  1.8451 -1.6451 -0.0828
 5725TIP3    H217140   2.757   6.265   5.018  0.5498 -0.0238  0.2137
 5726TIP3   OH217141   3.439   4.665   5.351  0.5351  0.0142 -0.0284
 5726TIP3    H117142   3.371   4.724   5.383  0.5392 -0.6461  1.2464
 5726TIP3    H217143   3.433   4.588   5.407  1.1713 -0.8087 -1.0456
 5727TIP3   OH217144   3.913   6.388   1.933  0.0339  0.3194 -0.4935
 5727TIP3    H117145   3.834   6.338   1.909 -0.4262  1.1068 -0.6519
 5727TIP3    H217146   3.888   6.480   1.921  1.6276  0.5539 -2.6034
 5728TIP3   OH217147   6.107   0.620   2.014 -0.2171 -0.3789  0.6351
 5728TIP3    H117148   6.156   0.672   1.950  0.4498 -1.6274  0.0930
 5728TIP3    H217149   6.129   0.530   1.993 -2.3405 -0.9726  0.7413
 5729TIP3   OH217150   6.813   1.567   4.882 -0.6326  0.1387 -0.3695
 5729TIP3    H117151   6.757   1.519   4.822 -0.2427  0.1122 -0.7199
 5729TIP3    H217152   6.753   1.606   4.946 -0.9046 -1.3008  0.2714
 5730TIP3   OH217153   5.375   3.136   0.229  0.4194 -0.0282 -0.5051
 5730TIP3    H117154   5.401   3.159   0.139 -0.0552 -1.0699 -0.9226
 5730TIP3    H217155   5.431   3.190   0.284  0.3038  1.1007 -1.4258
 5731TIP3   OH217156   0.535   1.531   5.482  0.3667 -0.4527 -0.6679
 5731TIP3    H117157   0.499   1.454   5.526 -0.9901  1.6339  2.1641
 5731TIP3    H217158   0.628   1.531   5.507  0.1339 -0.6292  0.2582
 5732TIP3   OH217159   6.224   4.102   1.369 -0.0079  0.4235 -0.5895
 5732TIP3    H117160   6.318   4.100   1.348 -0.0535 -0.4433 -0.7497
 5732TIP3    H217161   6.221   4.138   1.458  0.4945  0.3365 -0.5318
 5733TIP3   OH217162   4.263   2.772   4.459 -0.0353 -0.1895 -0.0500
 5733TIP3    H117163   4.184   2.724   4.435 -0.4097  0.0257  0.7444
 5733TIP3    H217164   4.232   2.852   4.501  0.5915  0.4048 -0.6627
 5734TIP3   OH217165   6.729   2.065   3.688  0.2070  0.4492  0.1667
 5734TIP3    H117166   6.761   2.149   3.721  0.2652  1.0630 -1.3868
 5734TIP3    H217167   6.804   2.006   3.693  1.3866  1.6025 -2.4980
 5735TIP3   OH217168   0.240   5.363   0.877 -0.6692  0.0770 -0.0691
 5735TIP3    H117169   0.323   5.410   0.874  1.0479 -2.4895  2.5380
 5735TIP3    H217170   0.184   5.417   0.933 -0.7567  1.6231 -1.5270
 5736TIP3   OH217171   6.490   1.244   5.699  0.1220  0.0795 -0.2758
 5736TIP3    H117172   6.528   1.248   5.611 -1.7289  2.0631 -1.1098
 5736TIP3    H217173   6.422   1.312   5.697 -1.1482 -1.0263  2.1405
 5737TIP3   OH217174   0.286   1.950   2.585 -0.1032  0.4719  0.0883
 5737TIP3    H117175   0.372   1.975   2.551 -0.0106  0.3384  0.2251
 5737TIP3    H217176   0.275   1.859   2.557  0.1854  0.2040  0.8389
 5738TIP3   OH217177   1.555   3.837   5.684  0.5943 -0.0534 -0.2609
 5738TIP3    H117178   1.580   3.775   5.615  0.0997 -0.4535 -0.0863
 5738TIP3    H217179   1.638   3.869   5.719  0.9201  1.7992 -2.4844
 5739TIP3   OH217180   2.745   5.986   2.214 -0.4564  0.3395 -0.5618
 5739TIP3    H117181   2.795   6.014   2.137  1.6887  0.7841  0.9093
 5739TIP3    H217182   2.780   6.038   2.286 -0.8239 -1.6233  1.1308
 5740TIP3   OH217183   0.835   4.237   4.828 -0.3474  0.3844  0.0331
 5740TIP3    H117184   0.908   4.239   4.889  0.3883  1.0295 -0.8509
 5740TIP3    H217185   0.767   4.186   4.874  0.5525 -0.0189  0.9554
 5741TIP3   OH217186   6.608   3.506   3.068 -0.1304 -0.4396 -0.0446
 5741TIP3    H117187   6.595   3.515   3.163  1.5407  1.6494  0.0579
 5741TIP3    H217188   6.703   3.506   3.057 -0.2944 -0.5645 -1.7545
 5742TIP3   OH217189   4.768   1.405   5.760 -0.1949  0.1691  0.1412
 5742TIP3    H117190   4.693   1.453   5.795 -1.2440 -0.5543 -1.0368
 5742TIP3    H217191   4.746   1.389   5.669  0.0608 -2.5931  0.4749
 5743TIP3   OH217192   2.654   0.002   1.301  0.0835 -0.2089  0.1424
 5743TIP3    H117193   2.672   0.087   1.342 -0.7457  0.1225 -0.1562
 5743TIP3    H217194   2.667  -0.061   1.372  1.7365  0.0518  0.1021
 5744TIP3   OH217195   1.991   5.521   5.060 -0.1801 -0.3932 -0.1816
 5744TIP3    H117196   1.916   5.582   5.061 -0.6562 -0.9607 -0.4832
 5744TIP3    H217197   2.035   5.536   5.143  1.1272  2.0890 -1.2369
 5745TIP3   OH217198   5.025   5.709   1.567  0.1742 -0.3167 -0.0645
 5745TIP3    H117199   4.952   5.679   1.512 -0.7065 -1.6502  1.7399
 5745TIP3    H217200   5.069   5.628   1.593  1.6133  0.4109 -0.1903
 5746TIP3   OH217201   0.395   3.163   4.158 -0.2545  0.0879  0.1419
 5746TIP3    H117202   0.323   3.226   4.157 -0.4054 -0.0187  1.6922
 5746TIP3    H217203   0.363   3.089   4.106 -0.7312  0.5911 -0.2922
 5747TIP3   OH217204   4.003   0.105   2.224 -0.0884  0.2306  0.3260
 5747TIP3    H117205   4.060   0.105   2.300  0.9234 -1.5401 -0.3718
 5747TIP3    H217206   3.916   0.124   2.259  0.4580  0.1073  1.8150
 5748TIP3   OH217207   1.780   5.164   1.127 -0.0423 -0.3981  0.2684
 5748TIP3    H117208   1.811   5.176   1.037 -0.6310  0.9431  0.2276
 5748TIP3    H217209   1.796   5.248   1.169 -2.5453  0.0168  0.5577
 5749TIP3   OH217210   4.455   0.043   3.262 -0.3073  0.0409  0.6818
 5749TIP3    H117211   4.379   0.015   3.314 -0.3845 -0.3709  0.3494
 5749TIP3    H217212   4.417   0.076   3.181 -0.0491 -2.5126 -0.5954
 5750TIP3   OH217213   5.565   6.425   1.457  0.8147 -0.5613 -0.6102
 5750TIP3    H117214   5.493   6.463   1.508  1.1805  0.7580 -1.0495
 5750TIP3    H217215   5.521   6.381   1.384  0.4531  0.7855 -1.2383
 5751TIP3   OH217216   1.602   1.271   1.424 -0.0148 -0.1806  0.2292
 5751TIP3    H117217   1.530   1.219   1.388 -0.1587  1.2749 -1.7543
 5751TIP3    H217218   1.648   1.306   1.347 -0.6120  3.5322  1.3360
 5752TIP3   OH217219   6.636   5.139   3.714  0.1308 -0.5763  0.0653
 5752TIP3    H117220   6.730   5.136   3.700  0.3135  0.6184  0.8907
 5752TIP3    H217221   6.622   5.215   3.771 -1.1989 -1.4457  0.9651
 5753TIP3   OH217222   4.972   1.551   4.299 -0.4658  0.0972 -0.0731
 5753TIP3    H117223   5.008   1.556   4.210  1.1796 -0.4889  0.5198
 5753TIP3    H217224   4.971   1.458   4.319  2.5494  0.3237  1.7580
 5754TIP3   OH217225   5.791   3.233   1.338  0.5055  0.3409  0.6388
 5754TIP3    H117226   5.816   3.278   1.257 -3.0714  0.6356 -0.4422
 5754TIP3    H217227   5.767   3.303   1.398 -0.3957  0.0370  0.6481
 5755TIP3   OH217228   0.969   2.619   4.464 -0.4198 -0.6066  0.1819
 5755TIP3    H117229   0.964   2.666   4.381 -0.5608 -2.2414 -0.7661
 5755TIP3    H217230   0.906   2.548   4.456  1.1597 -2.1524  0.7783
 5756TIP3   OH217231   0.273   1.031   3.524 -0.2364 -0.2435  0.4551
 5756TIP3    H117232   0.312   1.096   3.466 -2.5893  0.9053  0.0619
 5756TIP3    H217233   0.260   1.077   3.606  1.9186 -1.5090  1.6076
 5757TIP3   OH217234   5.177   2.972   3.858 -0.0548  0.6261 -0.0136
 5757TIP3    H117235   5.174   3.052   3.806 -0.5879  1.1320  0.7657
 5757TIP3    H217236   5.270   2.953   3.869  0.0703  0.0792 -1.7567
 5758TIP3   OH217237   6.306   4.025   2.836  0.1169  0.0347  0.5960
 5758TIP3    H117238   6.332   4.040   2.927 -1.6819 -0.9822  1.3261
 5758TIP3    H217239   6.248   4.098   2.816  0.8914  0.5249  0.0642
 5759TIP3   OH217240   1.990   4.476   5.084 -0.4314 -0.3350 -0.2617
 5759TIP3    H117241   2.007   4.550   5.142 -0.2272 -0.8117  0.2927
 5759TIP3    H217242   2.047   4.490   5.009 -1.1131  0.5942 -0.6374
 5760TIP3   OH217243   3.802   2.524   5.016 -0.5649 -0.5631  0.1478
 5760TIP3    H117244   3.877   2.465   5.025  0.6906  0.5559 -2.1670
 5760TIP3    H217245   3.773   2.540   5.106  0.7519 -2.5011  0.9851
 5761TIP3   OH217246   1.097   0.815   5.402 -0.6677 -0.5754 -0.0322
 5761TIP3    H117247   1.180   0.768   5.407 -0.5965 -0.4734 -0.2517
 5761TIP3    H217248   1.082   0.846   5.491  0.7890  1.5889 -0.4607
 5762TIP3   OH217249   4.876   6.341   4.506 -0.2569  0.2888  0.2625
 5762TIP3    H117250   4.891   6.391   4.586  3.0625  0.3273 -0.2411
 5762TIP3    H217251   4.918   6.257   4.522 -1.3192 -0.4670 -0.7388
 5763TIP3   OH217252   1.584   5.982   3.540 -0.6123 -0.4348  0.6302
 5763TIP3    H117253   1.556   5.944   3.457 -1.2775 -0.8122  1.0178
 5763TIP3    H217254   1.547   5.924   3.607 -1.2701  0.6323  1.2226
 5764TIP3   OH217255   3.995   0.355   0.264  0.2649  0.0169  0.1423
 5764TIP3    H117256   3.940   0.431   0.242  0.1249 -0.1130  0.0477
 5764TIP3    H217257   4.010   0.364   0.358 -0.3320 -0.2157  0.2658
 5765TIP3   OH217258   1.951   1.223   4.646 -0.0446 -0.4632  0.4189
 5765TIP3    H117259   1.888   1.194   4.712  0.4406  0.9172  1.5341
 5765TIP3    H217260   1.952   1.318   4.653 -1.2591 -0.0572 -2.8061
 5766TIP3   OH217261   7.096   2.708   4.749  0.2970  0.0726  0.5824
 5766TIP3    H117262   7.033   2.748   4.688  0.5494  0.4366  0.5566
 5766TIP3    H217263   7.155   2.658   4.693 -0.9826 -1.7344  0.7288
 5767TIP3   OH217264   4.156   3.166   5.807  0.2651  0.1210 -0.5854
 5767TIP3    H117265   4.242   3.184   5.767 -0.6758  0.0821 -2.7808
 5767TIP3    H217266   4.108   3.248   5.798  0.2399  0.3338  1.2156
 5768TIP3   OH217267   0.241   0.338   3.206 -0.3287  0.1042  0.2994
 5768TIP3    H117268   0.323   0.371   3.244 -0.6014  2.1077 -0.7022
 5768TIP3    H217269   0.230   0.389   3.125 -1.6296 -1.4311 -0.5590
 5769TIP3   OH217270   3.487   5.390   0.764  0.5390 -0.1668  0.2590
 5769TIP3    H117271   3.560   5.416   0.708  1.8375  2.4854  2.9592
 5769TIP3    H217272   3.420   5.457   0.749 -0.7021 -1.5681 -0.8224
 5770TIP3   OH217273   4.527   4.203   3.602  0.4210  0.6166 -0.1875
 5770TIP3    H117274   4.511   4.284   3.555  0.7178 -0.0211 -1.4141
 5770TIP3    H217275   4.457   4.144   3.574  0.1836  0.4499  0.7232
 5771TIP3   OH217276   3.016   2.903   4.875  0.1462 -0.1457 -0.0019
 5771TIP3    H117277   3.048   2.936   4.958 -0.1388 -1.2459  0.5585
 5771TIP3    H217278   2.934   2.950   4.860 -0.6345 -1.0865  1.1547
 5772TIP3   OH217279   4.342   1.975   5.361 -0.1844 -0.3562 -0.6487
 5772TIP3    H117280   4.299   1.896   5.328 -2.2845  0.4117  0.1213
 5772TIP3    H217281   4.392   1.945   5.437 -2.0240 -0.7795  0.4446
 5773TIP3   OH217282   0.343   3.530   0.906 -0.2188  0.2415  0.4065
 5773TIP3    H117283   0.355   3.488   0.821  0.2282 -0.0531  0.6049
 5773TIP3    H217284   0.276   3.596   0.892 -0.0398  0.2981 -0.2123
 5774TIP3   OH217285   3.759   0.578   3.678 -0.4920  0.0201  0.1427
 5774TIP3    H117286   3.696   0.634   3.722 -0.1455  0.5331  0.0046
 5774TIP3    H217287   3.821   0.639   3.638  0.5262 -0.4702  0.9179
 5775TIP3   OH217288   6.850   3.132   2.492  0.5869 -0.2986 -0.0800
 5775TIP3    H117289   6.934   3.166   2.522  1.4536 -0.6734 -1.9473
 5775TIP3    H217290   6.818   3.198   2.431 -1.3017  0.6146  1.7790
 5776TIP3   OH217291   0.618   0.380   1.475 -0.5339 -0.0461  0.5564
 5776TIP3    H117292   0.703   0.394   1.433 -0.2689 -0.4919  0.9208
 5776TIP3    H217293   0.556   0.370   1.403  0.1833 -2.4814  0.1847
 5777TIP3   OH217294   2.686   0.736   0.468 -0.8578 -0.3947  0.2027
 5777TIP3    H117295   2.609   0.777   0.507 -1.7702 -2.4493  0.7339
 5777TIP3    H217296   2.752   0.738   0.537 -0.5992  0.8622 -0.0596
 5778TIP3   OH217297   4.756   3.140   2.655  0.0131  0.3282  0.0583
 5778TIP3    H117298   4.668   3.171   2.636 -1.0522 -2.8741 -0.7277
 5778TIP3    H217299   4.790   3.110   2.571  1.3751  0.3284  0.5794
 5779TIP3   OH217300   6.193   1.678   5.758  0.6124  0.4226  0.5684
 5779TIP3    H117301   6.178   1.722   5.842 -0.2002 -1.0765  1.2493
 5779TIP3    H217302   6.105   1.658   5.726  0.9303  0.5647 -0.4171
 5780TIP3   OH217303   4.774   4.524   1.298  0.0214 -0.4687 -0.0343
 5780TIP3    H117304   4.701   4.586   1.297 -0.6967 -1.3007 -1.2050
 5780TIP3    H217305   4.773   4.484   1.212  0.7296 -1.8339  0.5591
 5781TIP3   OH217306   2.271   1.300   5.731  0.3648  0.0860 -0.3951
 5781TIP3    H117307   2.258   1.324   5.823  2.8401  1.4065 -0.3108
 5781TIP3    H217308   2.245   1.208   5.726 -0.9084  0.2957  1.3322
 5782TIP3   OH217309   3.663   1.288   0.230 -0.0769 -0.1132 -0.3057
 5782TIP3    H117310   3.623   1.204   0.205 -1.6370  0.6381 -0.4611
 5782TIP3    H217311   3.589   1.345   0.247  0.9278  1.5978 -1.3589
 5783TIP3   OH217312   1.924   4.711   4.933  0.4200  0.2582  0.0462
 5783TIP3    H117313   1.900   4.619   4.948  0.1751  0.0230 -1.6433
 5783TIP3    H217314   1.858   4.761   4.981 -3.1371 -0.3749 -3.6758
 5784TIP3   OH217315   1.865   0.530   3.873 -0.0544 -0.3991 -0.1811
 5784TIP3    H117316   1.866   0.618   3.834 -1.5378 -0.4277 -0.3535
 5784TIP3    H217317   1.948   0.524   3.920  0.0562  1.1224 -0.1079
 5785TIP3   OH217318   2.428   3.515   0.532 -0.0171  0.2111 -0.0529
 5785TIP3    H117319   2.386   3.565   0.462  0.1163  0.8925  0.3508
 5785TIP3    H217320   2.509   3.562   0.550  0.1286 -0.1688  0.3084
 5786TIP3   OH217321   2.483   5.956   2.302  0.4053 -0.1501  0.6322
 5786TIP3    H117322   2.418   5.921   2.242  0.7837 -1.4139  0.9230
 5786TIP3    H217323   2.553   5.987   2.246 -0.0771  0.4466  0.3504
 5787TIP3   OH217324   5.947   2.320   0.006 -0.1101  0.4626  0.2810
 5787TIP3    H117325   6.036   2.287   0.016 -0.3095 -0.0192  0.5131
 5787TIP3    H217326   5.904   2.297   0.088 -0.7099 -0.1570 -0.1849
 5788TIP3   OH217327   2.315   2.623   5.482  0.1527 -0.3563 -0.0620
 5788TIP3    H117328   2.369   2.574   5.420 -0.6734 -0.9672 -0.3129
 5788TIP3    H217329   2.226   2.614   5.449 -0.3372 -0.8881  1.3124
 5789TIP3   OH217330   6.233   0.542   5.024  0.0703  0.2858  0.5210
 5789TIP3    H117331   6.261   0.477   5.088  0.0276 -0.4243 -0.1656
 5789TIP3    H217332   6.139   0.527   5.015 -0.2565  1.5270  1.5488
 5790TIP3   OH217333   3.787   4.311   0.573  0.6898 -0.7111  0.4811
 5790TIP3    H117334   3.860   4.352   0.526 -1.4173  1.5774 -0.9977
 5790TIP3    H217335   3.750   4.381   0.627 -1.9224 -1.0572 -0.7367
 5791TIP3   OH217336   3.638   4.576   4.372  0.0320 -0.3431  0.4556
 5791TIP3    H117337   3.543   4.586   4.386  0.3465  1.9055  1.3903
 5791TIP3    H217338   3.671   4.543   4.455  0.3922  1.5558  1.0960
 5792TIP3   OH217339   3.588   4.575   1.361  0.5482  0.2820  0.6169
 5792TIP3    H117340   3.600   4.639   1.291  1.6951 -1.8753 -1.3019
 5792TIP3    H217341   3.668   4.522   1.359  0.3944 -0.1969  3.2691
 5793TIP3   OH217342   3.409   5.681   4.981 -0.4620  0.1925  0.5442
 5793TIP3    H117343   3.403   5.766   5.023 -0.0019  0.9443 -0.8573
 5793TIP3    H217344   3.363   5.692   4.898  1.6697 -0.1898 -0.7559
 5794TIP3   OH217345   1.954   1.459   4.770 -0.1785  0.1935  0.1849
 5794TIP3    H117346   1.929   1.536   4.719  1.6702  0.2573 -0.7069
 5794TIP3    H217347   2.048   1.468   4.783 -0.1215 -1.3310  1.0886
 5795TIP3   OH217348   6.056   1.761   1.453 -0.6915  0.0604 -1.1224
 5795TIP3    H117349   6.061   1.673   1.415 -0.4153 -0.4558  0.0889
 5795TIP3    H217350   5.978   1.760   1.508  0.6209 -0.2330  0.8348
 5796TIP3   OH217351   5.800   5.105   3.469  0.1240  0.1691 -0.1668
 5796TIP3    H117352   5.788   5.011   3.456  0.4367 -0.0235  0.8614
 5796TIP3    H217353   5.874   5.128   3.413 -1.0821  0.1811 -1.8301
 5797TIP3   OH217354   2.348   1.683   0.434  0.0629 -0.0012 -0.2925
 5797TIP3    H117355   2.382   1.740   0.366 -1.9400 -0.5277 -1.8290
 5797TIP3    H217356   2.398   1.602   0.425 -1.4517 -0.7621 -2.4941
 5798TIP3   OH217357   4.244   6.222   4.539 -0.3923  0.2894 -0.1986
 5798TIP3    H117358   4.155   6.201   4.566 -0.6493  2.1429  0.5770
 5798TIP3    H217359   4.298   6.195   4.613 -0.6768  1.8468  0.6250
 5799TIP3   OH217360   2.557   2.695   4.229  0.6297  0.0340  0.3357
 5799TIP3    H117361   2.530   2.684   4.138  0.3573 -0.1530  0.4413
 5799TIP3    H217362   2.559   2.790   4.242  3.2101  0.1936 -0.6420
 5800TIP3   OH217363   4.540   4.506   1.111 -0.4004 -0.3144  0.0337
 5800TIP3    H117364   4.507   4.482   1.198  0.2048 -1.4135 -0.0246
 5800TIP3    H217365   4.514   4.432   1.055 -0.2716  0.1134 -0.5927
 5801TIP3   OH217366   1.072   0.171   0.141  0.2120  0.1400  0.1903
 5801TIP3    H117367   0.990   0.123   0.149 -0.7726  1.4483 -1.3905
 5801TIP3    H217368   1.116   0.132   0.066  0.8761 -0.2971  0.7925
 5802TIP3   OH217369   5.069   0.384   1.502 -0.3685  0.1818 -0.0517
 5802TIP3    H117370   5.157   0.362   1.469 -0.7129 -0.5787 -0.4821
 5802TIP3    H217371   5.059   0.477   1.482  0.2369  0.2169 -0.2318
 5803TIP3   OH217372   1.244   1.573   0.421  0.4773 -0.1312 -0.0579
 5803TIP3    H117373   1.316   1.623   0.383  1.3293 -0.7513  0.7032
 5803TIP3    H217374   1.167   1.600   0.371  1.4549 -0.4665 -1.8289
 5804TIP3   OH217375   3.754   0.214   0.458 -0.0973  0.1507  0.2805
 5804TIP3    H117376   3.812   0.163   0.514 -0.8676  0.7206  1.6384
 5804TIP3    H217377   3.701   0.149   0.413 -0.0757 -0.2904  0.8841
 5805TIP3   OH217378   2.035   4.608   1.668  0.8006 -0.2080 -0.3062
 5805TIP3    H117379   1.947   4.603   1.706  0.9537 -0.6665 -0.0122
 5805TIP3    H217380   2.081   4.672   1.722  0.4724  0.4694 -0.8175
 5806TIP3   OH217381   6.903   5.150   1.424  0.8362 -0.6413  0.1424
 5806TIP3    H117382   6.831   5.112   1.374  0.7316 -0.1282 -0.1098
 5806TIP3    H217383   6.981   5.103   1.395  0.6663 -0.8701  0.0613
 5807TIP3   OH217384   3.501   5.790   2.461 -0.3481 -0.4989  0.5652
 5807TIP3    H117385   3.523   5.702   2.429  0.4427  0.2209 -0.9895
 5807TIP3    H217386   3.463   5.834   2.385  1.1481  1.1329  0.7044
 5808TIP3   OH217387   2.722   2.102   5.362 -0.0838 -0.2813  0.1125
 5808TIP3    H117388   2.720   2.155   5.442  1.1136 -0.0800  0.0182
 5808TIP3    H217389   2.802   2.050   5.369 -0.2947 -0.7302 -0.6651
 5809TIP3   OH217390   1.871   4.597   2.852  0.0395  0.3380  0.2225
 5809TIP3    H117391   1.873   4.626   2.761  1.3092  1.8588  0.6977
 5809TIP3    H217392   1.908   4.508   2.849 -0.8109 -0.0026 -0.8378
 5810TIP3   OH217393   6.950   0.679   2.484  0.6273 -0.4263  0.2712
 5810TIP3    H117394   7.030   0.726   2.461  1.1557 -0.5877  1.6958
 5810TIP3    H217395   6.962   0.653   2.575 -2.3455  2.3279  1.6507
 5811TIP3   OH217396   4.843   6.606   1.999 -0.3053  0.6385  0.9822
 5811TIP3    H117397   4.769   6.550   1.978  0.5584 -0.0686 -0.2777
 5811TIP3    H217398   4.869   6.581   2.087  1.0287 -2.1211 -0.0796
 5812TIP3   OH217399   0.702   4.037   3.378 -0.3657 -0.9812  0.1951
 5812TIP3    H117400   0.764   4.109   3.372 -1.9381  0.3210 -2.1195
 5812TIP3    H217401   0.751   3.967   3.421  2.2566  0.3941 -0.3242
 5813TIP3   OH217402   6.954   1.171   0.641 -0.1962  0.0372 -0.0465
 5813TIP3    H117403   6.952   1.143   0.733  0.8216  2.2167  0.6979
 5813TIP3    H217404   7.047   1.183   0.622 -0.3504 -0.8042 -1.5528
 5814TIP3   OH217405   1.994   5.946   0.555  0.2240 -0.2000 -0.1194
 5814TIP3    H117406   1.937   5.895   0.612 -0.4665 -1.5953 -1.9829
 5814TIP3    H217407   2.070   5.890   0.540  0.6547  0.3807 -0.1419
 5815TIP3   OH217408   7.105   3.780   5.219  0.0843 -0.0954  0.2474
 5815TIP3    H117409   7.151   3.697   5.207 -2.6237 -1.5720 -0.5274
 5815TIP3    H217410   7.120   3.828   5.137 -1.4042 -1.4547 -0.8708
 5816TIP3   OH217411   2.287   0.459   5.032  0.5228  0.1716  0.5036
 5816TIP3    H117412   2.257   0.511   4.957  0.8604  0.4826  0.5851
 5816TIP3    H217413   2.283   0.369   5.001 -1.0405  0.1409  0.6817
 5817TIP3   OH217414   1.399   3.800   0.520 -0.4000 -0.2831  0.7470
 5817TIP3    H117415   1.468   3.865   0.530 -0.5253  0.1814 -1.0614
 5817TIP3    H217416   1.446   3.718   0.503 -0.2834 -0.2148  0.7372
 5818TIP3   OH217417   2.003   4.671   5.304 -0.5960 -0.1611  0.7327
 5818TIP3    H117418   1.959   4.755   5.319 -1.5620 -0.5269  0.0348
 5818TIP3    H217419   2.089   4.682   5.345 -0.2164  1.6074 -0.4065
 5819TIP3   OH217420   1.009   2.048   3.416 -0.5694 -0.6969  0.1045
 5819TIP3    H117421   0.996   2.092   3.332 -0.5338 -1.4833 -0.3160
 5819TIP3    H217422   0.952   1.972   3.413  0.2924 -1.3635  0.3277
 5820TIP3   OH217423   4.267   0.228   1.281  0.0273 -0.3901  0.0919
 5820TIP3    H117424   4.342   0.265   1.327 -0.2553 -1.3598  1.3959
 5820TIP3    H217425   4.303   0.195   1.199  0.6771  0.7440 -0.0948
 5821TIP3   OH217426   1.466   4.283   3.634 -0.0339  0.0662 -0.3248
 5821TIP3    H117427   1.522   4.291   3.712  1.0115 -0.1395 -1.0403
 5821TIP3    H217428   1.449   4.190   3.627  0.2724  0.0300 -0.6120
 5822TIP3   OH217429   6.376   3.122   2.729  0.4783 -0.2928 -0.4634
 5822TIP3    H117430   6.341   3.202   2.692 -3.4872 -0.8187  1.6150
 5822TIP3    H217431   6.441   3.151   2.793 -0.4335  1.2360 -0.1979
 5823TIP3   OH217432   6.691   3.957   2.090  0.7406  0.0809  0.4640
 5823TIP3    H117433   6.666   4.014   2.017  2.5740  0.9910  0.4862
 5823TIP3    H217434   6.654   3.872   2.068  0.7702  0.4795 -1.2535
 5824TIP3   OH217435   5.741   5.086   1.691  0.4708  0.0298  0.3370
 5824TIP3    H117436   5.720   5.026   1.763  0.7286 -0.2534  0.1772
 5824TIP3    H217437   5.658   5.099   1.645  0.8701 -2.1871 -1.1422
 5825TIP3   OH217438   6.849   1.384   3.274  0.1414 -0.2562 -0.9017
 5825TIP3    H117439   6.865   1.358   3.365  2.1213  0.8757 -0.8837
 5825TIP3    H217440   6.860   1.303   3.224 -1.3107 -0.9637 -0.1431
 5826TIP3   OH217441   4.531   6.752   0.483 -0.5982  0.1170  0.1991
 5826TIP3    H117442   4.458   6.738   0.543  0.0602  0.0169  0.9996
 5826TIP3    H217443   4.536   6.671   0.432 -1.2942  0.2852 -0.1498
 5827TIP3   OH217444   1.155   1.830   4.390 -0.4636 -0.1846  0.0622
 5827TIP3    H117445   1.088   1.814   4.456 -2.3346  1.9430 -1.1733
 5827TIP3    H217446   1.174   1.924   4.397  0.8405 -0.3423 -1.0103
 5828TIP3   OH217447   2.652   0.743   0.023  0.1069  0.6531  0.0139
 5828TIP3    H117448   2.691   0.673   0.075  0.1216  0.5587 -0.1246
 5828TIP3    H217449   2.706   0.747  -0.056 -1.2944 -0.7822 -1.0853
 5829TIP3   OH217450   2.840   0.675   2.298  0.2267 -0.0956  0.1215
 5829TIP3    H117451   2.774   0.740   2.273  0.6343  0.5055  0.5926
 5829TIP3    H217452   2.790   0.593   2.309 -0.0528 -0.2641 -2.0654
 5830TIP3   OH217453   1.561   3.819   4.468 -0.3830  0.8397  0.0773
 5830TIP3    H117454   1.612   3.738   4.469 -0.0052  1.0256 -1.3911
 5830TIP3    H217455   1.622   3.885   4.434 -1.5119  1.1168 -1.4736
 5831TIP3   OH217456   1.913   5.897   4.753  0.1034 -0.0143 -0.5655
 5831TIP3    H117457   1.934   5.961   4.685 -0.1745 -0.7067 -1.3238
 5831TIP3    H217458   1.998   5.863   4.781  0.1737 -0.5745 -1.4201
 5832TIP3   OH217459   6.741   2.158   1.676  0.5397 -0.3057  0.4451
 5832TIP3    H117460   6.812   2.197   1.625  0.5338 -0.5038  0.2842
 5832TIP3    H217461   6.661   2.185   1.629  0.4909  0.1517  0.7840
 5833TIP3   OH217462   2.651   3.149   4.728  0.2999 -0.1081 -0.0016
 5833TIP3    H117463   2.646   3.243   4.746  0.2628 -0.2466  0.7319
 5833TIP3    H217464   2.682   3.144   4.638  1.4809  0.5957  0.3427
 5834TIP3   OH217465   4.482   0.983   2.795  0.1589 -0.5410 -0.2946
 5834TIP3    H117466   4.508   1.075   2.791  0.7013 -0.5631  1.6326
 5834TIP3    H217467   4.457   0.961   2.705 -0.0587  1.4976 -0.7874
 5835TIP3   OH217468   1.002   4.239   2.836 -0.0711  0.6003 -0.0879
 5835TIP3    H117469   1.096   4.223   2.831 -0.2700 -0.6912 -0.1840
 5835TIP3    H217470   0.977   4.205   2.923 -0.4786  0.7244 -0.1538
 5836TIP3   OH217471   0.018   5.526  -0.017  0.0732  0.6760  0.0624
 5836TIP3    H117472   0.042   5.548   0.073 -1.9552  0.6117  0.6592
 5836TIP3    H217473   0.008   5.431  -0.017 -0.2506  0.7082 -0.1456
 5837TIP3   OH217474   3.592   2.478   5.743 -0.5163 -0.5809 -0.1396
 5837TIP3    H117475   3.521   2.414   5.750  0.0855 -1.3064 -0.5202
 5837TIP3    H217476   3.669   2.433   5.778 -0.3851  0.4644  1.0153
 5838TIP3   OH217477   5.015   0.420   5.628  0.2757 -0.1119 -0.0065
 5838TIP3    H117478   5.015   0.415   5.724  0.7999 -1.9310 -0.0567
 5838TIP3    H217479   4.955   0.491   5.607 -1.7219 -1.2083  1.6417
 5839TIP3   OH217480   2.922   4.888   4.280  0.1388 -0.3454  0.0546
 5839TIP3    H117481   2.923   4.827   4.354 -1.3253 -0.2273  0.2166
 5839TIP3    H217482   2.878   4.966   4.315  0.9809  0.3757 -0.4652
 5840TIP3   OH217483   4.843   6.532   2.282 -0.1487 -0.3026  0.0349
 5840TIP3    H117484   4.929   6.508   2.317 -0.1652 -0.6048 -0.1286
 5840TIP3    H217485   4.788   6.457   2.302  0.1150 -0.9649 -1.6396
 5841TIP3   OH217486   0.409   3.108   0.512 -0.1127  0.0511  0.2502
 5841TIP3    H117487   0.444   3.126   0.599  0.2738 -0.4752  0.2092
 5841TIP3    H217488   0.478   3.058   0.468 -0.4348  0.0311 -0.2445
 5842TIP3   OH217489   7.012   6.174   0.935  0.3684 -1.2172 -1.6081
 5842TIP3    H117490   7.051   6.087   0.942  1.9889 -0.6607 -3.0983
 5842TIP3    H217491   7.085   6.234   0.942 -0.6725  0.0333 -1.0485
 5843TIP3   OH217492   6.375   0.658   0.546 -0.7733 -0.6567 -0.2182
 5843TIP3    H117493   6.332   0.608   0.616  0.0261 -0.7171  0.2425
 5843TIP3    H217494   6.455   0.608   0.528 -2.1815 -2.1595 -3.0401
 5844TIP3   OH217495   2.924   4.167   0.108  0.1033  0.2902  0.3217
 5844TIP3    H117496   2.994   4.229   0.088  1.2084 -1.2763 -0.8684
 5844TIP3    H217497   2.889   4.142   0.022 -1.9527  1.0042  0.8761
 5845TIP3   OH217498   3.023   2.981   2.270  0.3313  0.0788 -0.0155
 5845TIP3    H117499   3.015   3.033   2.351  0.8852  1.4514 -0.7990
 5845TIP3    H217500   3.103   2.930   2.283  0.2325  0.0290  0.4358
 5846TIP3   OH217501   5.472   4.773   3.010 -0.3137 -0.2348 -0.3468
 5846TIP3    H117502   5.558   4.789   2.970  0.2027  1.5632  1.3359
 5846TIP3    H217503   5.417   4.845   2.979 -0.0521  0.8867  1.6662
 5847TIP3   OH217504   6.340   3.697   4.622  0.5269 -0.5366 -0.4314
 5847TIP3    H117505   6.333   3.730   4.532 -1.2021  0.9901  0.2083
 5847TIP3    H217506   6.368   3.772   4.673 -0.7333 -0.7615  0.6358
 5848TIP3   OH217507   1.311   0.894   2.400 -0.4127  0.4007  0.0693
 5848TIP3    H117508   1.324   0.839   2.477  1.9224  1.0502  0.2068
 5848TIP3    H217509   1.399   0.923   2.376 -1.2909  1.8141 -1.6717
 5849TIP3   OH217510   4.691   2.812   0.146  0.3142 -0.2167 -0.1182
 5849TIP3    H117511   4.617   2.775   0.099 -0.6862  0.5203  0.8311
 5849TIP3    H217512   4.652   2.861   0.218  1.8068 -1.7105  1.8089
 5850TIP3   OH217513   4.922   3.819   4.704 -0.2544 -0.2705 -0.2882
 5850TIP3    H117514   4.987   3.750   4.715 -0.3253 -0.5138 -1.3307
 5850TIP3    H217515   4.860   3.784   4.640 -0.2079  0.8073 -0.9509
 5851TIP3   OH217516   0.366   2.994   0.905 -0.1107  0.2680 -0.2913
 5851TIP3    H117517   0.432   3.052   0.869 -1.0901  1.6922  0.1419
 5851TIP3    H217518   0.416   2.926   0.950  1.0498  1.5109  0.3425
 5852TIP3   OH217519   0.128   4.473   4.958 -0.0329  0.5904 -0.4358
 5852TIP3    H117520   0.110   4.384   4.928  0.4343  0.5054 -0.4723
 5852TIP3    H217521   0.064   4.528   4.913  0.6849  0.4750 -1.6254
 5853TIP3   OH217522   6.584   2.983   3.532 -0.3298  0.0829 -0.1719
 5853TIP3    H117523   6.657   2.974   3.470 -0.0567  2.2042 -0.2340
 5853TIP3    H217524   6.529   2.906   3.516  0.9466 -0.6232 -1.3939
 5854TIP3   OH217525   4.460   6.750   3.022 -0.3193  0.3226 -0.2027
 5854TIP3    H117526   4.480   6.677   3.080  1.3965  1.0193  0.1499
 5854TIP3    H217527   4.454   6.710   2.935  1.0234 -0.2001 -0.0756
 5855TIP3   OH217528   4.784   3.394   2.189  0.2991  0.9056  0.0018
 5855TIP3    H117529   4.717   3.397   2.120 -0.0882  4.0488  0.3760
 5855TIP3    H217530   4.865   3.418   2.144  1.2581 -2.4234 -0.3506
 5856TIP3   OH217531   7.181   3.630   5.882 -0.6466  0.2690  0.1776
 5856TIP3    H117532   7.221   3.698   5.827 -2.3800  1.0727 -0.1765
 5856TIP3    H217533   7.094   3.618   5.844 -1.3617 -0.1800  1.8974
 5857TIP3   OH217534   0.375   3.491   2.510 -0.3408  0.5171  0.1186
 5857TIP3    H117535   0.319   3.511   2.585 -0.0908 -0.4629  0.5847
 5857TIP3    H217536   0.385   3.574   2.464 -0.7118  1.0750  1.0276
 5858TIP3   OH217537   2.778   2.976   4.183 -0.0356  0.2516  0.5100
 5858TIP3    H117538   2.687   2.996   4.205  0.5337  0.9238  2.4468
 5858TIP3    H217539   2.827   2.991   4.264  1.8703  0.2578 -0.5709
 5859TIP3   OH217540   6.845   3.915   3.783 -0.0501  0.4352  0.1799
 5859TIP3    H117541   6.902   3.853   3.829  1.6556  0.6617 -1.4830
 5859TIP3    H217542   6.891   3.999   3.790 -2.0835  1.5034  1.9914
 5860TIP3   OH217543   1.461   0.037   1.670 -0.2404 -0.4904  0.1297
 5860TIP3    H117544   1.552   0.029   1.699 -0.0944  1.5421  0.3943
 5860TIP3    H217545   1.411   0.032   1.751 -0.0375  2.2483  0.5114
 5861TIP3   OH217546   4.013   4.934   4.290 -0.1131  0.3641 -0.1497
 5861TIP3    H117547   4.026   4.998   4.219  3.3460 -2.7840 -2.7744
 5861TIP3    H217548   4.085   4.951   4.350  0.0536 -0.2139 -0.1817
 5862TIP3   OH217549   0.828   3.795   5.661  0.5575 -0.1797  0.0221
 5862TIP3    H117550   0.807   3.822   5.571  2.3731 -0.3543 -0.4918
 5862TIP3    H217551   0.910   3.745   5.653  1.1184  0.3614  1.8446
 5863TIP3   OH217552   5.379   5.588   0.531 -0.5812  0.4961 -0.2492
 5863TIP3    H117553   5.393   5.680   0.553 -1.4825  0.7307 -0.6240
 5863TIP3    H217554   5.427   5.576   0.448  0.3939  0.3531  0.3220
 5864TIP3   OH217555   5.501   4.545   1.964  0.0375 -0.0165  0.0903
 5864TIP3    H117556   5.502   4.453   1.938 -0.0555  0.4274 -1.5508
 5864TIP3    H217557   5.415   4.557   2.006 -0.2616 -0.4885 -0.3755
 5865TIP3   OH217558   0.090   5.404   3.308  0.5302 -0.0373 -0.1083
 5865TIP3    H117559   0.166   5.442   3.353 -0.2435  2.8288 -1.0102
 5865TIP3    H217560   0.117   5.398   3.216  0.0071  0.0431 -0.2703
 5866TIP3   OH217561   6.798   3.164   3.001  0.2688  0.6076 -0.1427
 5866TIP3    H117562   6.766   3.186   2.913  1.5939 -0.9809 -1.0862
 5866TIP3    H217563   6.874   3.108   2.985  0.2255 -0.1556  2.0409
 5867TIP3   OH217564   6.958   0.454   2.871  0.4180 -0.6413 -0.1638
 5867TIP3    H117565   7.003   0.530   2.834 -1.4209 -0.4918 -2.3310
 5867TIP3    H217566   7.011   0.379   2.844 -0.0695 -0.4072 -1.8861
 5868TIP3   OH217567   1.434   5.507   5.346  0.0108 -0.5219  0.3073
 5868TIP3    H117568   1.415   5.593   5.384 -0.4270  0.9326 -2.8695
 5868TIP3    H217569   1.350   5.463   5.341 -0.3804  0.3046 -1.1001
 5869TIP3   OH217570   1.739   1.349   1.190  0.2041 -0.3285  0.3610
 5869TIP3    H117571   1.757   1.265   1.147 -0.4632 -0.7502  0.8817
 5869TIP3    H217572   1.675   1.392   1.133  1.6854  0.5367 -0.7289
 5870TIP3   OH217573   2.969   5.732   0.241  0.1528  0.0892 -0.0995
 5870TIP3    H117574   2.904   5.716   0.310 -1.2181  1.5880 -0.9725
 5870TIP3    H217575   3.015   5.811   0.271  0.7754 -0.2934 -0.0487
 5871TIP3   OH217576   0.236   3.831   1.478  0.2611 -0.2928  0.0620
 5871TIP3    H117577   0.164   3.770   1.465  0.5038 -0.7396  0.7963
 5871TIP3    H217578   0.212   3.908   1.425  0.3499 -1.3229 -1.5493
 5872TIP3   OH217579   1.218   5.459   0.771 -0.0851 -0.1785 -0.2034
 5872TIP3    H117580   1.296   5.453   0.826  0.2261 -1.3923 -0.7348
 5872TIP3    H217581   1.232   5.393   0.703  0.2339  2.2639 -2.6509
 5873TIP3   OH217582   3.326   4.107   0.583 -0.4002 -0.5853 -0.3431
 5873TIP3    H117583   3.252   4.159   0.614  0.2860 -0.5189  1.3071
 5873TIP3    H217584   3.326   4.118   0.488  1.0257  4.3168 -0.0261
 5874TIP3   OH217585   6.123   2.879   4.531 -0.2607 -0.2450 -0.5237
 5874TIP3    H117586   6.202   2.905   4.484 -0.2098 -1.0221 -0.8857
 5874TIP3    H217587   6.086   2.961   4.563  1.6639  0.0135  1.2582
 5875TIP3   OH217588   0.514   3.588   5.400  0.1421 -0.5790 -0.6812
 5875TIP3    H117589   0.558   3.532   5.336  0.2074  1.8616 -2.9362
 5875TIP3    H217590   0.579   3.653   5.425  0.3717 -1.8504  2.6187
 5876TIP3   OH217591   6.551   2.295   4.981  0.0223 -0.4046 -0.5930
 5876TIP3    H117592   6.606   2.279   5.058  1.7449  2.4485 -1.0656
 5876TIP3    H217593   6.462   2.282   5.011  0.7595 -1.7789  1.1775
 5877TIP3   OH217594   6.104   1.681   3.152 -0.3647  0.3435 -0.0085
 5877TIP3    H117595   6.029   1.698   3.095  0.2442  2.3704 -0.2884
 5877TIP3    H217596   6.120   1.587   3.144 -3.3711 -0.3388  0.7407
 5878TIP3   OH217597   3.261   2.297   3.569 -0.6521 -0.6006  0.0671
 5878TIP3    H117598   3.327   2.330   3.630  0.0050 -0.8061 -0.5279
 5878TIP3    H217599   3.247   2.368   3.507 -0.9919 -0.5566  0.1931
 5879TIP3   OH217600   7.084   2.515   2.582 -0.0875  0.8829 -0.3617
 5879TIP3    H117601   7.014   2.467   2.627 -1.2625 -0.1415 -3.0991
 5879TIP3    H217602   7.157   2.453   2.578 -0.9007 -0.0321 -2.0906
 5880TIP3   OH217603   2.136   2.378   1.921  0.5944  0.2418  0.0827
 5880TIP3    H117604   2.092   2.318   1.981 -0.0609  0.4557 -0.1729
 5880TIP3    H217605   2.138   2.462   1.966  1.1801  0.1215  0.2893
 5881TIP3   OH217606   5.830   1.014   3.618  0.3252  0.4306 -0.3441
 5881TIP3    H117607   5.828   0.921   3.639  0.0926  0.1694 -1.4642
 5881TIP3    H217608   5.738   1.036   3.600  0.2964  1.0162  0.4414
 5882TIP3   OH217609   4.801   3.802   0.258 -0.1797  0.1511  0.6329
 5882TIP3    H117610   4.833   3.714   0.275  0.6527  0.6180  1.5575
 5882TIP3    H217611   4.715   3.789   0.217  0.5288 -1.0986 -0.5297
 5883TIP3   OH217612   1.214   0.588   3.187 -0.5627 -1.0719  0.6157
 5883TIP3    H117613   1.292   0.553   3.232  0.3802 -1.2954 -1.1188
 5883TIP3    H217614   1.223   0.558   3.097 -1.8780  0.2366  0.0180
 5884TIP3   OH217615   2.206   5.437   3.009 -0.0955 -0.1139  0.3121
 5884TIP3    H117616   2.137   5.374   2.987 -1.0279  1.3683 -1.3018
 5884TIP3    H217617   2.160   5.511   3.047  0.8830 -0.0087  1.3409
 5885TIP3   OH217618   2.367   0.909   3.398  0.1385  0.4357 -0.5123
 5885TIP3    H117619   2.325   0.870   3.475 -1.3803  1.9234 -0.5475
 5885TIP3    H217620   2.298   0.960   3.357  0.8902 -0.3761 -2.9363
 5886TIP3   OH217621   1.423   6.469   3.317  0.7221 -0.3357 -0.0042
 5886TIP3    H117622   1.420   6.375   3.332 -1.0414 -0.2994  0.0899
 5886TIP3    H217623   1.501   6.499   3.363  0.0676 -1.4424  1.9013
 5887TIP3   OH217624   5.566   2.107   1.211  0.5265  0.1052 -0.0931
 5887TIP3    H117625   5.654   2.128   1.242  1.9152 -2.6900 -1.7101
 5887TIP3    H217626   5.569   2.013   1.193 -2.5063  0.1093 -1.1786
 5888TIP3   OH217627   5.503   0.708   1.086  0.0708 -0.0026  0.1294
 5888TIP3    H117628   5.489   0.755   1.003 -0.3796  0.6016  0.5366
 5888TIP3    H217629   5.466   0.766   1.152 -1.7605 -1.5377  0.5217
 5889TIP3   OH217630   7.098   1.324   1.237  0.0753  0.2785 -0.4014
 5889TIP3    H117631   7.085   1.397   1.178  3.4876  0.8575 -0.6564
 5889TIP3    H217632   7.132   1.253   1.181 -0.8275 -0.6700  0.2153
 5890TIP3   OH217633   3.201   5.184   5.540  0.1459  0.2735 -0.0090
 5890TIP3    H117634   3.235   5.274   5.548 -0.0219  0.3336  0.0411
 5890TIP3    H217635   3.129   5.180   5.603  0.6059 -0.1161  0.4926
 5891TIP3   OH217636   1.255   4.527   4.093 -0.6005  0.1708 -0.2636
 5891TIP3    H117637   1.313   4.513   4.168 -2.8131  0.1908  1.5810
 5891TIP3    H217638   1.290   4.605   4.050  2.1647 -1.2432 -0.8036
 5892TIP3   OH217639   6.136   3.564   4.925 -0.0675 -0.4615 -0.6192
 5892TIP3    H117640   6.084   3.508   4.983 -0.5129  1.1172  0.5431
 5892TIP3    H217641   6.222   3.569   4.966 -0.0893 -0.1306 -0.6114
 5893TIP3   OH217642   6.558   0.801   0.739 -0.1590 -0.1322 -0.0194
 5893TIP3    H117643   6.640   0.850   0.750 -0.0964 -0.2908  0.2254
 5893TIP3    H217644   6.497   0.866   0.704  0.4850 -0.3900 -1.7049
 5894TIP3   OH217645   0.435   3.661   1.566  0.1784 -0.1611  0.1789
 5894TIP3    H117646   0.367   3.718   1.531 -0.5289 -0.1909  1.4471
 5894TIP3    H217647   0.392   3.577   1.578  0.9862 -0.7511 -0.8654
 5895TIP3   OH217648   5.062   4.628   0.426 -0.4909 -0.4900 -0.0732
 5895TIP3    H117649   5.125   4.566   0.389  1.3346 -0.1031  2.1426
 5895TIP3    H217650   5.106   4.713   0.420 -1.4297  0.0287  0.2051
 5896TIP3   OH217651   2.039   3.966   5.407 -0.0765  0.1872 -0.0538
 5896TIP3    H117652   2.074   3.955   5.318 -0.6020 -2.0454 -0.0405
 5896TIP3    H217653   1.951   4.002   5.394  0.1284  0.5921 -0.3752
 5897TIP3   OH217654   4.902   0.348   4.056  0.1215 -0.5214  0.2955
 5897TIP3    H117655   4.916   0.440   4.032 -0.9626 -0.4225  0.0101
 5897TIP3    H217656   4.974   0.301   4.012  0.4533  0.1328  0.1185
 5898TIP3   OH217657   5.477   4.283   1.628  0.2163 -0.1007  0.0717
 5898TIP3    H117658   5.554   4.229   1.614  0.1484 -0.0001 -0.7715
 5898TIP3    H217659   5.510   4.373   1.628 -0.0832  0.0751 -2.1389
 5899TIP3   OH217660   2.134   6.315   5.372 -0.1155  0.3900  0.6342
 5899TIP3    H117661   2.045   6.316   5.335  0.1143  0.0535  0.0644
 5899TIP3    H217662   2.139   6.397   5.422 -0.4386  0.8634 -0.0803
 5900TIP3   OH217663   4.637   1.793   1.589  0.1129  0.7039  0.5354
 5900TIP3    H117664   4.577   1.868   1.598  1.0710  1.6186 -0.3532
 5900TIP3    H217665   4.581   1.716   1.600 -0.7470  1.5359  2.4053
 5901TIP3   OH217666   4.624   1.874   3.541 -0.1466 -0.0183 -0.1554
 5901TIP3    H117667   4.682   1.876   3.465 -0.2335 -1.3943 -0.2753
 5901TIP3    H217668   4.683   1.866   3.616 -0.1050  0.5605 -0.1147
 5902TIP3   OH217669   4.109   2.592   5.154 -0.3966 -0.0842  0.1099
 5902TIP3    H117670   4.071   2.679   5.168 -0.7662  0.0630 -1.5662
 5902TIP3    H217671   4.201   2.609   5.134 -0.4064 -0.1000  0.0506
 5903TIP3   OH217672   1.265   5.227   2.090  0.5182 -0.0752 -0.1225
 5903TIP3    H117673   1.280   5.134   2.072 -1.1279 -0.1752 -1.2228
 5903TIP3    H217674   1.244   5.230   2.184 -0.4240 -0.9831 -0.2861
 5904TIP3   OH217675   5.464   0.234   3.110 -0.5813  0.3414 -0.3995
 5904TIP3    H117676   5.420   0.306   3.155 -0.7275 -0.2384  0.4110
 5904TIP3    H217677   5.443   0.247   3.018 -0.2429  1.5823 -0.3158
 5905TIP3   OH217678   0.552   5.456   2.599 -0.2193  0.9435  0.4324
 5905TIP3    H117679   0.609   5.416   2.665  0.6875  1.2306 -0.1590
 5905TIP3    H217680   0.555   5.395   2.525 -1.2868  0.5873  0.6634
 5906TIP3   OH217681   2.274   4.963   4.712  0.6442 -0.2018  0.3087
 5906TIP3    H117682   2.193   4.923   4.743  0.6064 -0.9377 -0.7008
 5906TIP3    H217683   2.286   5.040   4.768 -0.2728 -0.5835  1.0477
 5907TIP3   OH217684   3.682   4.021   1.846  0.2553 -0.1350 -0.4691
 5907TIP3    H117685   3.645   4.082   1.783 -1.2746 -0.6786 -0.1339
 5907TIP3    H217686   3.614   4.009   1.911  0.5763 -2.0672 -0.4334
 5908TIP3   OH217687   2.240   3.322   3.496  0.7117  0.2033 -0.0361
 5908TIP3    H117688   2.233   3.413   3.469 -1.9365 -0.1336 -0.7589
 5908TIP3    H217689   2.264   3.275   3.416  1.1638  0.1647  0.1226
 5909TIP3   OH217690   4.253   4.875   2.799 -0.3076  0.2058  0.1089
 5909TIP3    H117691   4.158   4.871   2.807 -0.2878 -1.6062 -0.1430
 5909TIP3    H217692   4.271   4.965   2.773 -2.0182  0.3945 -0.5797
 5910TIP3   OH217693   6.934   3.644   3.540  0.3848  0.3836 -0.4320
 5910TIP3    H117694   6.852   3.687   3.564  0.1304  0.1482 -0.8609
 5910TIP3    H217695   6.926   3.555   3.574 -0.0227  0.0158 -1.4509
 5911TIP3   OH217696   6.782   6.603   2.722 -0.1602  0.2974  0.1426
 5911TIP3    H117697   6.836   6.542   2.771 -0.2812 -0.0009 -0.0969
 5911TIP3    H217698   6.713   6.549   2.683 -0.5963  0.6639  0.3972
 5912TIP3   OH217699   1.444   3.072   4.462  0.1446 -0.5507 -0.3142
 5912TIP3    H117700   1.463   3.036   4.549 -1.4031  0.1599  0.3559
 5912TIP3    H217701   1.530   3.098   4.428  0.7705 -0.7486  1.0432
 5913TIP3   OH217702   0.980   2.766   1.082 -0.8852 -0.0957 -0.0157
 5913TIP3    H117703   0.948   2.809   1.162  0.3194  0.6305  0.0979
 5913TIP3    H217704   0.977   2.672   1.102  0.0220  0.0974  1.1517
 5914TIP3   OH217705   1.802   0.345   2.637 -0.0540  0.3964  0.2162
 5914TIP3    H117706   1.820   0.436   2.659  1.0729  0.8801 -2.3151
 5914TIP3    H217707   1.871   0.321   2.575 -1.8174 -1.3452 -1.2114
 5915TIP3   OH217708   7.063   2.743   4.306 -0.1058 -0.0948 -0.3740
 5915TIP3    H117709   7.154   2.721   4.327 -0.7082 -1.1573  1.3909
 5915TIP3    H217710   7.068   2.827   4.261  1.5939  1.0707  1.7826
 5916TIP3   OH217711   5.056   4.973   0.852 -0.0243 -0.1399  0.1678
 5916TIP3    H117712   5.150   4.966   0.863  0.0534 -0.4348 -0.5757
 5916TIP3    H217713   5.043   4.982   0.757 -0.8157 -1.8707  0.0602
 5917TIP3   OH217714   1.121   0.228   1.799  0.1258 -0.1558  0.0251
 5917TIP3    H117715   1.212   0.210   1.821 -0.2525 -1.0731  0.9389
 5917TIP3    H217716   1.079   0.245   1.883 -0.5112  0.4725 -0.4100
 5918TIP3   OH217717   4.400   2.154   5.176 -0.1886  0.1984 -0.0232
 5918TIP3    H117718   4.463   2.102   5.127  1.1260  0.5669  1.2246
 5918TIP3    H217719   4.361   2.092   5.237 -0.3174  0.1868 -0.1166
 5919TIP3   OH217720   5.469   3.110   3.518 -0.1345  0.0660  0.4391
 5919TIP3    H117721   5.509   3.153   3.442 -1.9204  1.0439 -0.0149
 5919TIP3    H217722   5.523   3.033   3.534  1.1251  0.6221 -0.9214
 5920TIP3   OH217723   3.313   3.408   1.554  0.5144 -0.1491  0.2951
 5920TIP3    H117724   3.362   3.491   1.554  0.0576  0.1239  0.6589
 5920TIP3    H217725   3.226   3.431   1.522  0.5201 -0.5735 -0.0281
 5921TIP3   OH217726   2.982   2.320   5.034 -0.0764  0.1857  0.2836
 5921TIP3    H117727   2.987   2.327   4.939  1.1930  0.5156  0.3557
 5921TIP3    H217728   2.930   2.241   5.049 -1.6541  0.9831 -0.6520
 5922TIP3   OH217729   4.185   1.361   4.553  0.0005 -0.2041 -0.1367
 5922TIP3    H117730   4.275   1.350   4.584 -0.1611  0.0552  0.4406
 5922TIP3    H217731   4.193   1.416   4.476  0.3318 -0.1128 -0.0381
 5923TIP3   OH217732   2.401   3.762   1.134  0.3679  0.0157  0.1505
 5923TIP3    H117733   2.453   3.714   1.070  0.5790  1.1518 -0.5678
 5923TIP3    H217734   2.437   3.851   1.132 -1.1064  0.6455  0.1778
 5924TIP3   OH217735   6.004   3.470   2.534  0.1796 -0.0258  0.4165
 5924TIP3    H117736   5.913   3.452   2.513  0.2781 -0.9262  0.7024
 5924TIP3    H217737   6.022   3.556   2.496 -0.9344  0.4006  0.8214
 5925TIP3   OH217738   1.342   0.856   3.178  0.3418  0.4787 -0.2389
 5925TIP3    H117739   1.377   0.836   3.264 -1.2534  3.0898  1.1363
 5925TIP3    H217740   1.292   0.778   3.153  1.5636 -0.6606  0.7253
 5926TIP3   OH217741   1.228   0.990   5.707 -0.1960  0.4014  0.0920
 5926TIP3    H117742   1.147   0.940   5.704 -1.7602  2.7911 -0.4540
 5926TIP3    H217743   1.297   0.926   5.688 -2.2069 -1.1797 -2.5608
 5927TIP3   OH217744   4.877   6.276   1.191  0.1758  0.1037  0.1108
 5927TIP3    H117745   4.816   6.225   1.138 -0.1252 -0.3101  0.8270
 5927TIP3    H217746   4.828   6.353   1.218  0.4467  0.5002 -0.4992
 5928TIP3   OH217747   0.808   4.818   2.555 -0.0190  0.4931 -0.0067
 5928TIP3    H117748   0.863   4.740   2.553 -0.3382  0.2474  0.6213
 5928TIP3    H217749   0.735   4.795   2.612 -2.3950 -0.2531 -3.0705
 5929TIP3   OH217750   2.534   1.315   4.968  0.0038 -0.3460  0.5891
 5929TIP3    H117751   2.500   1.405   4.968  0.7518 -0.0144  2.0377
 5929TIP3    H217752   2.616   1.322   5.017  1.9494 -1.2001 -2.3187
 5930TIP3   OH217753   3.614   4.224   2.720  0.0973  0.6131 -0.4396
 5930TIP3    H117754   3.593   4.174   2.641 -1.2721 -0.6988  0.6908
 5930TIP3    H217755   3.564   4.305   2.711 -0.2820  0.3455 -0.8024
 5931TIP3   OH217756   1.596   0.850   4.230 -0.1663 -0.1033  0.0700
 5931TIP3    H117757   1.623   0.882   4.144  1.3142 -0.5157  0.3607
 5931TIP3    H217758   1.542   0.921   4.265  1.7177  1.4478  0.0311
 5932TIP3   OH217759   1.665   5.591   1.720  0.2558  0.0001  0.1351
 5932TIP3    H117760   1.656   5.685   1.739  1.0871  0.1640 -0.2434
 5932TIP3    H217761   1.623   5.547   1.794  0.5451  0.6596  0.6984
 5933TIP3   OH217762   0.889   4.221   2.046 -0.2098  0.1091 -0.0179
 5933TIP3    H117763   0.947   4.297   2.042  1.5732 -1.1392  0.7553
 5933TIP3    H217764   0.805   4.257   2.073  0.0054  2.0606 -1.6580
 5934TIP3   OH217765   4.578   2.659   3.542  0.0665  0.6137  0.2197
 5934TIP3    H117766   4.599   2.616   3.459  0.6290  2.8212 -0.8757
 5934TIP3    H217767   4.589   2.591   3.608  0.4433 -1.0070 -1.4238
 5935TIP3   OH217768   5.173   0.499   0.534 -0.3349 -0.2899  0.5762
 5935TIP3    H117769   5.098   0.523   0.480 -0.3421 -1.8519 -0.1642
 5935TIP3    H217770   5.249   0.533   0.487 -0.4233 -0.6867  0.1411
 5936TIP3   OH217771   1.790   2.947   4.596 -0.1616 -0.3472 -0.1598
 5936TIP3    H117772   1.769   3.004   4.522 -0.9070  0.6257  0.7757
 5936TIP3    H217773   1.713   2.951   4.653  0.8408 -0.1065  1.2538
 5937TIP3   OH217774   2.369   1.676   1.890 -0.5576 -0.3812 -0.3767
 5937TIP3    H117775   2.363   1.678   1.985 -1.4261  2.9212 -0.3759
 5937TIP3    H217776   2.278   1.674   1.860 -0.3118 -0.4804 -1.1480
 5938TIP3   OH217777   7.103   1.073   2.795  0.0042  0.5227 -0.3084
 5938TIP3    H117778   7.030   1.031   2.841 -0.3049  1.0510 -0.3192
 5938TIP3    H217779   7.179   1.057   2.851  0.1689 -1.2252 -0.9514
 5939TIP3   OH217780   6.421   1.981   4.903 -0.3511 -0.0503 -0.1210
 5939TIP3    H117781   6.427   1.904   4.846  0.7094 -0.7526  0.8906
 5939TIP3    H217782   6.512   2.002   4.924 -0.6486  1.2503 -0.0641
 5940TIP3   OH217783   0.434   3.971   4.579  0.5069 -0.6066 -0.4024
 5940TIP3    H117784   0.347   3.951   4.614  0.5750  0.0466  0.1652
 5940TIP3    H217785   0.424   4.054   4.533  0.1330 -2.0418 -3.1081
 5941TIP3   OH217786   5.176   6.357   3.615 -0.3739 -0.2078 -0.6721
 5941TIP3    H117787   5.083   6.351   3.635 -0.5541 -2.4148 -1.8991
 5941TIP3    H217788   5.182   6.430   3.552 -1.1089  0.5574  0.1268
 5942TIP3   OH217789   4.123   1.568   4.359 -0.1366 -0.1832 -0.0705
 5942TIP3    H117790   4.091   1.510   4.290 -0.5066  0.7253 -0.6704
 5942TIP3    H217791   4.104   1.656   4.328 -1.2822  0.2345  1.6525
 5943TIP3   OH217792   2.786   4.439   4.228  0.2433 -0.1534 -0.0137
 5943TIP3    H117793   2.812   4.531   4.218 -0.4510 -0.0437 -0.9288
 5943TIP3    H217794   2.698   4.443   4.266 -0.3348 -0.3930 -1.2898
 5944TIP3   OH217795   1.805   0.921   3.151  0.0409 -0.1168 -0.1985
 5944TIP3    H117796   1.765   1.001   3.117 -0.0547 -0.5624 -1.1471
 5944TIP3    H217797   1.819   0.940   3.244 -0.7834  0.6788 -0.2152
 5945TIP3   OH217798   4.888   4.534   4.608  0.1068  0.2981 -0.2929
 5945TIP3    H117799   4.979   4.514   4.630  0.3538  0.3010 -1.2684
 5945TIP3    H217800   4.893   4.614   4.555 -0.5749  0.9935  0.6714
 5946TIP3   OH217801   7.141   6.501   2.515  0.1672 -0.3076  0.0527
 5946TIP3    H117802   7.115   6.563   2.584 -2.4784 -1.7626  0.4807
 5946TIP3    H217803   7.146   6.417   2.560 -2.6533 -1.4849 -1.5995
 5947TIP3   OH217804   3.730   4.921   4.574 -0.0484  0.1005 -0.3841
 5947TIP3    H117805   3.811   4.885   4.611 -0.2718 -2.5844 -2.2364
 5947TIP3    H217806   3.753   5.010   4.548  2.2767 -0.5378 -0.7259
 5948TIP3   OH217807   2.185   0.855   2.674  0.2936 -0.3393  0.4525
 5948TIP3    H117808   2.257   0.905   2.636  0.7044 -1.2570 -0.0064
 5948TIP3    H217809   2.207   0.849   2.768  0.8725 -0.6867  0.3021
 5949TIP3   OH217810   1.391   3.305   5.045 -0.0194  0.4566  0.0951
 5949TIP3    H117811   1.378   3.256   5.126  0.8054  0.4998  0.2659
 5949TIP3    H217812   1.351   3.251   4.977 -1.9585  1.0711  0.6905
 5950TIP3   OH217813   6.289   0.741   0.938  0.6469  0.9346  0.0005
 5950TIP3    H117814   6.208   0.777   0.975 -1.4085 -1.2838 -2.0221
 5950TIP3    H217815   6.322   0.810   0.880 -1.6224  0.7818 -1.5928
 5951TIP3   OH217816   1.081   1.105   2.561  0.1362  0.3555  0.6493
 5951TIP3    H117817   1.102   1.146   2.645  0.9415  0.0434  0.6116
 5951TIP3    H217818   1.166   1.097   2.517 -0.2665  0.4392 -0.1613
 5952TIP3   OH217819   0.315   6.706   4.567 -0.4972  0.2021  0.0290
 5952TIP3    H117820   0.370   6.722   4.490 -1.8816  1.0277 -0.8410
 5952TIP3    H217821   0.287   6.615   4.559 -1.5976  0.6097 -1.1383
 5953TIP3   OH217822   6.597   5.465   1.158  0.3836  0.2196  0.3317
 5953TIP3    H117823   6.623   5.401   1.092 -0.3717  0.7654 -0.5083
 5953TIP3    H217824   6.621   5.424   1.241 -0.3247 -1.2738 -0.1680
 5954TIP3   OH217825   3.916   4.867   5.594  0.3243 -0.2629  0.3295
 5954TIP3    H117826   3.916   4.793   5.655 -0.5484 -0.9975 -0.5290
 5954TIP3    H217827   3.852   4.843   5.527  0.9815  0.7038 -0.6759
 5955TIP3   OH217828   4.777   1.635   3.344 -0.1263 -0.2012 -0.4414
 5955TIP3    H117829   4.842   1.632   3.414 -1.2523 -1.1853  0.5936
 5955TIP3    H217830   4.758   1.729   3.334  0.1171 -0.0394  0.5034
 5956TIP3   OH217831   3.940   5.370   4.424  0.2754 -0.3928  0.1631
 5956TIP3    H117832   3.881   5.431   4.468  1.2574 -0.3191  1.4545
 5956TIP3    H217833   3.902   5.284   4.441  0.1978 -0.3023  0.4570
 5957TIP3   OH217834   5.049   2.345   1.276  0.4441 -1.0174  0.1491
 5957TIP3    H117835   5.128   2.293   1.258  0.7425 -0.9398  1.1581
 5957TIP3    H217836   4.980   2.280   1.288  0.3191 -1.0800 -0.8778
 5958TIP3   OH217837   2.646   3.486   1.194 -0.2321 -0.4431  0.3580
 5958TIP3    H117838   2.656   3.416   1.259  1.0566  0.8208  1.5851
 5958TIP3    H217839   2.552   3.506   1.195 -0.3453 -0.9532  1.2750
 5959TIP3   OH217840   2.355   0.801   0.940 -0.1961 -0.2959  0.0978
 5959TIP3    H117841   2.429   0.746   0.966 -0.0308 -0.2703 -0.3170
 5959TIP3    H217842   2.394   0.885   0.916 -0.3398 -0.3483 -0.3205
 5960TIP3   OH217843   0.989   0.517   3.346  0.3469  0.1101 -0.3481
 5960TIP3    H117844   1.060   0.538   3.286  0.5151 -0.0433 -0.2052
 5960TIP3    H217845   1.015   0.433   3.385  0.9853  0.9216  1.0497
 5961TIP3   OH217846   0.319   6.617   0.089  0.3498  0.2571 -0.0886
 5961TIP3    H117847   0.243   6.592   0.142  0.2029  1.4699  0.2934
 5961TIP3    H217848   0.289   6.609  -0.002  0.2306 -0.6531  0.0164
 5962TIP3   OH217849   6.705   5.588   4.142  0.7238  0.0874 -0.6603
 5962TIP3    H117850   6.705   5.518   4.077  0.1565  1.2673 -1.9649
 5962TIP3    H217851   6.672   5.546   4.222 -1.6249 -0.7006 -1.9408
 5963TIP3   OH217852   0.493   2.246   0.781 -0.1590  0.7780  0.1642
 5963TIP3    H117853   0.535   2.318   0.734  0.6643 -0.1365 -0.5400
 5963TIP3    H217854   0.494   2.173   0.719 -1.6234  0.3425  0.6075
 5964TIP3   OH217855   6.286   5.854   2.232  0.2697  0.4257 -0.2147
 5964TIP3    H117856   6.195   5.874   2.254  0.5961  1.3413  0.3645
 5964TIP3    H217857   6.295   5.760   2.248 -0.7988  0.1443 -1.1189
 5965TIP3   OH217858   0.046   1.638   4.006 -0.2993 -0.0532 -0.1976
 5965TIP3    H117859   0.032   1.679   3.921 -1.4756  0.1434  0.0821
 5965TIP3    H217860  -0.026   1.669   4.061 -0.6188 -1.6091  0.3385
 5966TIP3   OH217861   3.428   6.551   3.475  0.3661  0.1393  0.2740
 5966TIP3    H117862   3.395   6.619   3.416  0.1845 -0.3729 -0.2231
 5966TIP3    H217863   3.465   6.599   3.549 -0.8287  0.7411  0.4929
 5967TIP3   OH217864   1.020   2.029   0.892 -0.1434  0.0758  0.4666
 5967TIP3    H117865   0.998   1.953   0.946  0.4230  0.3614  1.1018
 5967TIP3    H217866   0.951   2.031   0.826  0.1322 -1.3162  0.0983
 5968TIP3   OH217867   3.855   6.626   5.527 -0.2305  0.2539  0.1721
 5968TIP3    H117868   3.883   6.694   5.587  1.5806 -0.1211 -0.1930
 5968TIP3    H217869   3.889   6.653   5.442 -0.1344 -0.7295 -0.1144
 5969TIP3   OH217870   7.130   6.237   1.332  0.2574  0.0499 -0.3770
 5969TIP3    H117871   7.099   6.239   1.422  2.0884  0.3653  0.2724
 5969TIP3    H217872   7.212   6.285   1.333  1.1741 -1.3689 -1.8621
 5970TIP3   OH217873   4.692   6.027   4.355  0.4558  0.4376 -0.1420
 5970TIP3    H117874   4.659   6.046   4.443 -0.2427 -2.1264  0.2493
 5970TIP3    H217875   4.777   5.984   4.370  0.0750 -0.5376 -0.6412
 5971TIP3   OH217876   0.058   0.058   4.819  0.9182 -0.8449  0.4090
 5971TIP3    H117877  -0.009   0.067   4.888  0.5973 -0.6495  0.0771
 5971TIP3    H217878   0.109  -0.019   4.845  0.0527 -1.4925  0.2449
 5972TIP3   OH217879   6.425   0.112   5.001 -0.4056  0.3107 -0.0205
 5972TIP3    H117880   6.404   0.027   5.040 -1.3527  0.7383  0.4424
 5972TIP3    H217881   6.358   0.171   5.036  0.8744  1.4923  0.5167
 5973TIP3   OH217882   4.197   2.201   5.450 -0.3244  0.2337 -0.0177
 5973TIP3    H117883   4.258   2.140   5.409 -2.0754 -1.9083  0.4108
 5973TIP3    H217884   4.129   2.216   5.385  0.2380  2.1059 -0.2543
 5974TIP3   OH217885   6.047   5.050   3.814  0.0519  0.4145  0.4160
 5974TIP3    H117886   5.976   5.078   3.871 -0.0633  1.2616 -0.1110
 5974TIP3    H217887   6.090   4.979   3.861 -1.0717 -0.0367  0.7925
 5975TIP3   OH217888   0.366   4.226   2.898  0.2476 -0.5831  0.6016
 5975TIP3    H117889   0.379   4.276   2.979 -0.6871 -0.1585  0.5036
 5975TIP3    H217890   0.450   4.232   2.853 -0.1882  2.1116 -0.0599
 5976TIP3   OH217891   1.838   4.647   4.387 -0.1518  0.0672  0.4078
 5976TIP3    H117892   1.774   4.718   4.383 -1.3255 -1.0045 -0.8457
 5976TIP3    H217893   1.922   4.689   4.367 -0.5678  1.3415  1.2055
 5977TIP3   OH217894   0.705   2.985   0.646 -0.0937 -0.3637  0.5582
 5977TIP3    H117895   0.631   3.032   0.683  0.2876 -1.1414  2.4447
 5977TIP3    H217896   0.666   2.920   0.587 -1.0208 -1.3237  2.1593
 5978TIP3   OH217897   6.277   3.300   4.553  0.3457 -0.2423 -0.4766
 5978TIP3    H117898   6.245   3.381   4.513 -1.5890 -0.1176  1.1748
 5978TIP3    H217899   6.340   3.329   4.619  0.6463 -0.1818 -0.7886
 5979TIP3   OH217900   0.834   5.536   1.447  0.4258  0.3996 -0.0675
 5979TIP3    H117901   0.885   5.468   1.492 -0.1582  0.7580  1.1824
 5979TIP3    H217902   0.876   5.618   1.472 -1.6738  0.8567  2.4187
 5980TIP3   OH217903   1.329   4.985   3.022 -0.4622 -0.3208 -0.1232
 5980TIP3    H117904   1.298   5.038   2.949 -1.1663  1.5310  1.4397
 5980TIP3    H217905   1.395   4.928   2.983  0.3366  1.6842 -1.9173
 5981TIP3   OH217906   0.270   3.884   5.383  0.6108 -0.1789  0.1171
 5981TIP3    H117907   0.339   3.863   5.320  1.0386  0.5279  0.3411
 5981TIP3    H217908   0.240   3.799   5.416 -0.9061 -0.7291 -2.3793
 5982TIP3   OH217909   2.988   0.135   5.577 -0.0560  0.3294  0.0013
 5982TIP3    H117910   2.983   0.153   5.671  0.1863  0.4852 -0.0164
 5982TIP3    H217911   2.980   0.221   5.536  1.9108  0.5264 -0.0627
 5983TIP3   OH217912   0.644   2.061   1.508 -0.4378  0.4439 -0.1650
 5983TIP3    H117913   0.613   2.009   1.434 -0.0465  0.1666 -0.1391
 5983TIP3    H217914   0.564   2.086   1.555 -0.7309  1.1598 -1.0275
 5984TIP3   OH217915   5.993   0.848   4.504 -0.4492  0.2883  0.0154
 5984TIP3    H117916   5.980   0.762   4.543  0.0311 -0.3625 -1.2414
 5984TIP3    H217917   6.041   0.832   4.423 -4.1176  1.2266 -2.6133
 5985TIP3   OH217918   4.056   1.469   0.241 -0.0728  0.3985  0.2600
 5985TIP3    H117919   4.041   1.563   0.236 -1.1132  0.2019 -1.2416
 5985TIP3    H217920   3.972   1.432   0.268 -0.1399 -0.1846 -0.6662
 5986TIP3   OH217921   6.781   4.519   1.403  0.1303  0.8156  0.0572
 5986TIP3    H117922   6.748   4.600   1.442  0.1197  0.6155  0.4674
 5986TIP3    H217923   6.730   4.450   1.444  2.1221  0.3530  1.9493
 5987TIP3   OH217924   3.331   5.097   0.909 -0.3455  0.1071  0.0965
 5987TIP3    H117925   3.377   5.085   0.826 -0.2408  0.0723  0.1592
 5987TIP3    H217926   3.246   5.134   0.884 -0.5866 -0.5553 -0.0776
 5988TIP3   OH217927   3.204   6.729   1.904  0.2548 -0.5182 -0.5257
 5988TIP3    H117928   3.191   6.747   1.997 -0.5169  0.5730 -0.8220
 5988TIP3    H217929   3.298   6.710   1.897  0.7147  1.2559  0.2128
 5989TIP3   OH217930   2.334   2.743   3.813  0.3800 -0.2713 -0.5537
 5989TIP3    H117931   2.264   2.808   3.822 -1.6153 -2.4614  0.9717
 5989TIP3    H217932   2.340   2.703   3.900  2.6117 -1.1065 -1.0270
 5990TIP3   OH217933   5.871   5.339   5.569 -0.0243  0.5186  0.8672
 5990TIP3    H117934   5.881   5.429   5.599 -0.0621  0.0448  2.3474
 5990TIP3    H217935   5.956   5.299   5.586  0.1239  0.3640 -0.1680
 5991TIP3   OH217936   3.167   0.726   2.048  0.2768 -0.2708 -0.1817
 5991TIP3    H117937   3.207   0.684   2.125  0.7130 -0.2851 -0.4140
 5991TIP3    H217938   3.241   0.755   1.995 -0.0225  0.0275 -0.4442
 5992TIP3   OH217939   1.865   3.454   1.602 -0.0456 -0.0188 -0.0573
 5992TIP3    H117940   1.827   3.477   1.517 -1.7169 -0.2420  0.5994
 5992TIP3    H217941   1.943   3.403   1.580 -1.1381 -1.1797 -1.4677
 5993TIP3   OH217942   6.343   3.370   1.970  0.6826 -0.4293 -0.2557
 5993TIP3    H117943   6.412   3.313   2.004 -1.3392 -2.7992  0.1566
 5993TIP3    H217944   6.312   3.326   1.891 -0.5130  0.4866 -0.3196
 5994TIP3   OH217945   6.444   4.947   4.365  0.5581  0.7586 -0.0101
 5994TIP3    H117946   6.393   4.900   4.431 -0.2255  1.4984 -0.0777
 5994TIP3    H217947   6.381   4.968   4.296  0.7556  2.3622  0.2520
 5995TIP3   OH217948   0.217   1.724   3.508  0.1590  0.4023  0.5778
 5995TIP3    H117949   0.123   1.743   3.508  0.2971  1.2380 -0.7823
 5995TIP3    H217950   0.226   1.648   3.451  0.3347  0.4752  0.5083
 5996TIP3   OH217951   1.284   3.103   3.481 -0.6310 -0.2543  0.0035
 5996TIP3    H117952   1.354   3.038   3.469  0.5526  1.0651 -0.4601
 5996TIP3    H217953   1.292   3.129   3.573 -0.4764 -0.0620 -0.0645
 5997TIP3   OH217954   4.078   1.719   4.622  0.3883  0.6515  0.4632
 5997TIP3    H117955   4.019   1.788   4.592 -0.6425  0.0721  1.0915
 5997TIP3    H217956   4.059   1.644   4.565  0.9215  0.6344  0.3045
 5998TIP3   OH217957   1.874   0.396   5.307  0.4029  0.4699  0.4930
 5998TIP3    H117958   1.896   0.402   5.400 -0.4083 -0.9210  0.7899
 5998TIP3    H217959   1.959   0.392   5.263  0.8944  3.2919  0.9319
 5999TIP3   OH217960   3.967   2.588   3.183 -0.3326  0.5930  0.6905
 5999TIP3    H117961   3.955   2.560   3.273 -0.7254 -0.4139  0.3428
 5999TIP3    H217962   3.880   2.612   3.153 -0.1482  1.2755  0.6824
 6000TIP3   OH217963   5.661   0.935   5.263 -0.1234  0.5231  0.9479
 6000TIP3    H117964   5.622   0.856   5.225  2.8121  0.0715 -1.4476
 6000TIP3    H217965   5.588   0.996   5.271 -1.9084 -1.3402 -0.1413
 6001TIP3   OH217966   0.484   4.082   5.055  0.2809 -1.0122 -0.0833
 6001TIP3    H117967   0.542   4.128   5.116 -0.8785 -1.9555  1.8223
 6001TIP3    H217968   0.405   4.136   5.052  0.4370 -0.8199 -1.0116
 6002TIP3   OH217969   4.013   2.166   0.176 -0.4101  0.2759  0.0114
 6002TIP3    H117970   3.973   2.144   0.261 -2.4391 -4.2939 -1.8336
 6002TIP3    H217971   3.972   2.250   0.153 -1.2228  0.7211  2.6522
 6003TIP3   OH217972   0.247   1.727   3.111 -0.7724  0.5363  0.4274
 6003TIP3    H117973   0.308   1.682   3.053 -1.2253  0.0671  0.3105
 6003TIP3    H217974   0.196   1.784   3.053  0.8467  2.4390  0.7561
 6004TIP3   OH217975   6.309   6.040   5.232 -0.2110 -0.1152 -0.2657
 6004TIP3    H117976   6.366   6.117   5.237 -0.8012  0.3772 -1.0499
 6004TIP3    H217977   6.249   6.049   5.307 -0.4979  0.3618 -0.5539
 6005TIP3   OH217978   4.123   1.240   3.910  0.2757  0.0841 -0.0970
 6005TIP3    H117979   4.197   1.180   3.915  0.7624  0.7577  1.6472
 6005TIP3    H217980   4.051   1.186   3.877  0.4987 -1.7104  2.0853
 6006TIP3   OH217981   3.479   5.513   2.389  0.2548 -0.2531  0.2148
 6006TIP3    H117982   3.537   5.437   2.383 -0.4452 -0.8295  0.6334
 6006TIP3    H217983   3.437   5.518   2.304 -0.9099 -1.3408  0.6856
 6007TIP3   OH217984   4.909   0.247   5.331  0.6533 -0.0027  0.1497
 6007TIP3    H117985   4.918   0.338   5.302  0.0981  0.0129  0.0048
 6007TIP3    H217986   4.880   0.200   5.252 -2.5433  0.3386  0.9740
 6008TIP3   OH217987   5.304   2.154   3.088  0.1822  0.1832  0.6448
 6008TIP3    H117988   5.308   2.224   3.023  1.3578  0.7620  1.3190
 6008TIP3    H217989   5.210   2.142   3.104 -0.0439  2.9108  1.8983
 6009TIP3   OH217990   3.377   5.446   2.874  0.2162 -0.8605 -0.3734
 6009TIP3    H117991   3.359   5.510   2.806  0.5195  1.3731  1.5028
 6009TIP3    H217992   3.331   5.367   2.846 -1.3464  0.5874 -2.1261
 6010TIP3   OH217993   1.551   4.380   0.723  0.2211  0.3770  0.3878
 6010TIP3    H117994   1.501   4.333   0.657  0.6408 -0.6857  0.8014
 6010TIP3    H217995   1.528   4.472   0.710  0.4510  0.2269 -1.3663
 6011TIP3   OH217996   2.158   6.445   1.930 -0.0873 -0.5372 -0.2677
 6011TIP3    H117997   2.187   6.356   1.951 -0.6421 -0.5727  0.3563
 6011TIP3    H217998   2.239   6.496   1.927  0.3108 -1.1890 -1.3227
 6012TIP3   OH217999   3.095   5.207   4.261  0.0562 -0.4249  0.3025
 6012TIP3    H118000   3.091   5.221   4.356  0.7541  1.7559  0.0609
 6012TIP3    H218001   3.188   5.197   4.241  0.0267  0.3561 -0.2822
 6013TIP3   OH218002   4.437   1.124   0.224  0.2515  0.0662 -0.2556
 6013TIP3    H118003   4.342   1.122   0.239  0.4275 -2.8038  1.2957
 6013TIP3    H218004   4.451   1.062   0.152  1.0449 -0.7505  0.5797
 6014TIP3   OH218005   0.838   5.751   5.085  0.3390  0.3698 -0.4856
 6014TIP3    H118006   0.907   5.702   5.131  0.0363  0.2653 -0.1301
 6014TIP3    H218007   0.884   5.822   5.041  0.6260  0.5630  0.1076
 6015TIP3   OH218008   4.727   2.518   1.718 -0.4397  0.0516 -0.4397
 6015TIP3    H118009   4.800   2.479   1.670 -0.3059 -0.8447  0.4621
 6015TIP3    H218010   4.740   2.613   1.709  0.9498 -0.0923 -0.1360
 6016TIP3   OH218011   3.924   4.117   2.600 -0.4503  0.2993  0.0488
 6016TIP3    H118012   3.986   4.166   2.546 -2.1568  1.2890 -1.1045
 6016TIP3    H218013   3.915   4.169   2.680  1.2350 -0.5914  0.8616
 6017TIP3   OH218014   3.400   5.007   1.149  0.3510 -0.8035  0.0875
 6017TIP3    H118015   3.381   5.056   1.069  2.6388  0.2161  0.0877
 6017TIP3    H218016   3.496   5.004   1.153  0.2931 -2.3087  1.9274
 6018TIP3   OH218017   1.227   2.402   4.750  0.0006 -0.1681  0.2680
 6018TIP3    H118018   1.139   2.373   4.727  0.6362 -0.8857 -1.4222
 6018TIP3    H218019   1.218   2.496   4.765 -0.8528 -0.0021 -1.1105
 6019TIP3   OH218020   3.691   3.567   0.053 -0.6890  0.7888 -0.0580
 6019TIP3    H118021   3.781   3.598   0.059 -0.4495  0.0358  0.3912
 6019TIP3    H218022   3.679   3.513   0.131 -1.2099  0.0794 -0.6130
 6020TIP3   OH218023   3.620   0.537   0.808 -0.5670  0.2292  0.4744
 6020TIP3    H118024   3.560   0.581   0.869  0.4977  0.6924  1.2151
 6020TIP3    H218025   3.694   0.597   0.799 -0.6364  0.1098 -1.2012
 6021TIP3   OH218026   1.947   4.312   2.827  0.6361 -0.3429 -0.2232
 6021TIP3    H118027   1.894   4.238   2.797  1.4192 -0.8273 -0.4426
 6021TIP3    H218028   2.014   4.323   2.759 -0.8141  2.0577 -1.3801
 6022TIP3   OH218029   4.874   0.113   4.772  0.3641  0.2479 -0.7407
 6022TIP3    H118030   4.781   0.132   4.779  0.3255  0.5391 -1.9002
 6022TIP3    H218031   4.882   0.061   4.693  1.1936  0.2651 -0.6762
 6023TIP3   OH218032   3.518   4.746   4.609  0.2164  0.3259 -0.0481
 6023TIP3    H118033   3.590   4.800   4.576  1.3047 -1.4449 -0.7108
 6023TIP3    H218034   3.560   4.685   4.670 -0.8913 -0.1389  0.2686
 6024TIP3   OH218035   0.527   3.319   1.758 -0.5653  0.0843 -0.2309
 6024TIP3    H118036   0.433   3.309   1.743 -0.7110 -0.7764  1.0775
 6024TIP3    H218037   0.534   3.347   1.850  0.4907 -0.8550 -0.0019
 6025TIP3   OH218038   0.599   0.764   1.513 -0.2723 -0.4178 -0.3098
 6025TIP3    H118039   0.539   0.699   1.549  2.1387 -1.7914  1.6271
 6025TIP3    H218040   0.576   0.846   1.557 -0.0039 -1.2003  1.3622
 6026TIP3   OH218041   1.357   2.718   4.694 -0.3784 -0.0884  0.3878
 6026TIP3    H118042   1.361   2.643   4.753  2.8410  0.3334  0.9256
 6026TIP3    H218043   1.352   2.679   4.606  0.4656 -0.9266  0.6967
 6027TIP3   OH218044   2.275   5.020   0.334 -0.6619 -0.0623  0.2230
 6027TIP3    H118045   2.209   5.089   0.347  0.6775  1.6258 -1.4447
 6027TIP3    H218046   2.358   5.066   0.336  0.2656 -1.5239 -1.5874
 6028TIP3   OH218047   0.326   6.201   1.749  0.3921  0.5695  0.0301
 6028TIP3    H118048   0.269   6.164   1.682 -0.9922  1.9584  0.3696
 6028TIP3    H218049   0.265   6.236   1.815  1.5821  2.8069  0.0357
 6029TIP3   OH218050   2.823   3.538   1.018  0.0911  0.0598  0.2977
 6029TIP3    H118051   2.758   3.501   1.078 -0.0730  0.9770  0.6950
 6029TIP3    H218052   2.824   3.632   1.038  1.3245  0.1053  0.1023
 6030TIP3   OH218053   4.109   5.345   3.608  0.2229 -0.5514 -0.6317
 6030TIP3    H118054   4.054   5.422   3.625  0.2873 -0.3758 -1.1910
 6030TIP3    H218055   4.175   5.347   3.677 -0.5239 -0.8151  0.1024
 6031TIP3   OH218056   3.038   2.748   5.747 -0.1966 -0.4494  0.3650
 6031TIP3    H118057   3.013   2.741   5.839 -0.8172  0.8073  0.3094
 6031TIP3    H218058   3.126   2.708   5.744  0.0599 -0.0426  1.5963
 6032TIP3   OH218059   0.988   0.253   3.801  0.1388 -0.2115  0.5507
 6032TIP3    H118060   1.036   0.316   3.854 -2.1355 -0.3642  3.0135
 6032TIP3    H218061   1.024   0.168   3.826  0.4444 -0.1566  0.3016
 6033TIP3   OH218062   4.772   3.029   0.875  0.8086 -0.3341 -0.2880
 6033TIP3    H118063   4.720   3.010   0.797  0.1840  0.9205 -0.2111
 6033TIP3    H218064   4.838   3.091   0.845 -0.9058  2.0664  0.5791
 6034TIP3   OH218065   4.764   5.207   1.398 -0.0887 -0.5673  0.2587
 6034TIP3    H118066   4.833   5.257   1.354  0.4251  0.2645  1.9093
 6034TIP3    H218067   4.809   5.133   1.439 -0.3767 -0.7433  0.2637
 6035TIP3   OH218068   4.937   6.689   3.744 -0.2916  0.4761 -0.5987
 6035TIP3    H118069   4.932   6.597   3.717 -1.9908  0.8713 -1.8432
 6035TIP3    H218070   4.899   6.737   3.670 -0.4571  2.0925  0.4883
 6036TIP3   OH218071   3.563   0.389   4.510 -0.8241  0.3098 -0.0169
 6036TIP3    H118072   3.517   0.347   4.583 -1.9952 -0.9232 -1.3944
 6036TIP3    H218073   3.526   0.477   4.506 -1.4994  0.0442  0.2340
 6037TIP3   OH218074   6.027   4.569   1.853  0.3832  0.0912 -0.0790
 6037TIP3    H118075   5.955   4.557   1.915 -0.6091 -0.5665 -1.3092
 6037TIP3    H218076   6.005   4.649   1.805 -1.3267 -1.7592 -2.6689
 6038TIP3   OH218077   3.206   4.421   0.987 -0.1287  0.2600  0.0292
 6038TIP3    H118078   3.198   4.475   0.908 -1.7204  0.2806  0.1574
 6038TIP3    H218079   3.189   4.481   1.059  2.4349  0.4890  0.5284
 6039TIP3   OH218080   1.357   5.247   1.318  0.0846 -0.3567  0.1045
 6039TIP3    H118081   1.370   5.341   1.331  0.1724 -0.3216 -0.2273
 6039TIP3    H218082   1.328   5.239   1.227  0.9784 -0.7303 -0.1546
 6040TIP3   OH218083   0.667   3.068   2.935 -0.1564 -0.3507 -0.1717
 6040TIP3    H118084   0.592   3.090   2.990  0.2306 -1.1729  0.7261
 6040TIP3    H218085   0.736   3.044   2.997  0.8568  0.3899 -0.9724
 6041TIP3   OH218086   3.144   0.234   2.713 -0.5097  0.3888 -0.2328
 6041TIP3    H118087   3.214   0.170   2.708 -0.8338  0.0943 -1.2931
 6041TIP3    H218088   3.136   0.269   2.624 -2.0791 -0.0056 -0.2820
 6042TIP3   OH218089   5.408   5.717   2.767  0.5683 -0.2500  0.3362
 6042TIP3    H118090   5.434   5.663   2.841 -0.3597 -0.0969  0.7930
 6042TIP3    H218091   5.447   5.802   2.784 -0.6034  0.1321  1.2872
 6043TIP3   OH218092   1.846   4.395   3.236  0.5495  0.2928  0.4222
 6043TIP3    H118093   1.850   4.432   3.324 -0.5493  1.5423 -0.0166
 6043TIP3    H218094   1.917   4.438   3.189  0.4721  0.4211  0.4217
 6044TIP3   OH218095   2.590   1.647   0.682  0.3148  0.2971 -0.6112
 6044TIP3    H118096   2.563   1.559   0.659 -1.4201  0.9063 -1.0022
 6044TIP3    H218097   2.603   1.644   0.777 -0.1251 -0.2760 -0.5644
 6045TIP3   OH218098   5.581   5.909   1.490 -0.2376 -0.4139  0.0545
 6045TIP3    H118099   5.595   5.982   1.550  1.5613 -1.0194  0.4432
 6045TIP3    H218100   5.652   5.847   1.510  0.1311 -0.8763 -2.3234
 6046TIP3   OH218101   1.245   5.028   4.989 -0.0450 -0.4401 -0.1224
 6046TIP3    H118102   1.316   4.977   4.948 -0.9320  0.2942 -2.8221
 6046TIP3    H218103   1.166   4.979   4.967 -0.5768  0.0616  0.6727
 6047TIP3   OH218104   3.578   3.975   4.568 -0.7192  0.0825  0.0234
 6047TIP3    H118105   3.580   3.944   4.477 -0.1360  0.8034 -0.2194
 6047TIP3    H218106   3.490   4.011   4.579 -0.7265  0.1760 -0.3234
 6048TIP3   OH218107   2.412   0.827   5.867  0.0507  0.1973  0.4578
 6048TIP3    H118108   2.331   0.779   5.886  0.0036 -0.1566 -0.5606
 6048TIP3    H218109   2.466   0.764   5.819  0.2938  0.9270 -0.2498
 6049TIP3   OH218110   1.846   3.048   5.709  0.1449  0.0707  0.4743
 6049TIP3    H118111   1.783   3.075   5.775  0.5009  1.7456  0.1571
 6049TIP3    H218112   1.912   2.998   5.758  0.1210  0.8302  1.3005
 6050TIP3   OH218113   1.576   6.171   5.033 -0.1267  0.1443 -0.1777
 6050TIP3    H118114   1.577   6.233   4.960  1.6967 -0.4000 -0.6784
 6050TIP3    H218115   1.604   6.088   4.994  1.1661 -0.0899  1.1676
 6051TIP3   OH218116   1.546   3.269   4.270  0.3235  0.8149 -0.1346
 6051TIP3    H118117   1.477   3.245   4.208  0.8502  0.5853 -0.6412
 6051TIP3    H218118   1.618   3.300   4.215  0.6940  0.8819  0.3807
 6052TIP3   OH218119   4.874   2.535   2.373  0.1209  0.5078 -0.1488
 6052TIP3    H118120   4.779   2.533   2.385  0.0433  3.0251  0.1324
 6052TIP3    H218121   4.887   2.592   2.297  1.4188  0.3759 -0.0498
 6053TIP3   OH218122   3.044   5.512   5.124 -0.1414  0.2845 -0.3143
 6053TIP3    H118123   3.066   5.439   5.067  0.5934  0.8128 -0.7146
 6053TIP3    H218124   3.081   5.488   5.210 -1.6720 -0.7368  0.1063
 6054TIP3   OH218125   6.264   4.794   3.590 -0.5593  0.5755  0.2198
 6054TIP3    H118126   6.279   4.700   3.598 -1.0464  0.5832  1.4367
 6054TIP3    H218127   6.196   4.801   3.522  0.3276  0.1522 -0.7505
 6055TIP3   OH218128   3.762   0.065   0.788 -0.5529 -0.2222 -0.2361
 6055TIP3    H118129   3.675   0.069   0.748 -0.6403 -0.0127 -0.0287
 6055TIP3    H218130   3.805   0.146   0.760 -0.7690  0.1346  0.4352
 6056TIP3   OH218131   5.089   5.267   4.470 -0.2152 -0.2167 -0.3467
 6056TIP3    H118132   5.183   5.283   4.458 -0.1699 -1.1925 -1.5605
 6056TIP3    H218133   5.047   5.315   4.399 -0.7516  1.1171  0.8417
 6057TIP3   OH218134   2.281   2.096   3.477 -0.1964 -0.5824 -0.0479
 6057TIP3    H118135   2.260   2.117   3.386  1.3361 -1.4773 -0.6247
 6057TIP3    H218136   2.369   2.059   3.475  1.8513  3.4247  2.2928
 6058TIP3   OH218137   2.167   3.607   4.921  0.6369  0.4603  0.4356
 6058TIP3    H118138   2.184   3.669   4.850 -1.4427  1.2851  0.6022
 6058TIP3    H218139   2.095   3.552   4.889  1.4062 -0.8910  0.9125
 6059TIP3   OH218140   1.951   5.999   5.695  0.7608 -0.0056  0.5972
 6059TIP3    H118141   1.884   5.930   5.703  0.7925 -0.2986 -1.2018
 6059TIP3    H218142   1.907   6.068   5.646  1.4478  0.2560  0.3454
 6060TIP3   OH218143   4.320   6.058   0.883 -0.0670 -0.0400  0.6101
 6060TIP3    H118144   4.384   6.026   0.819 -1.1248 -0.2454 -0.3840
 6060TIP3    H218145   4.338   6.009   0.963  1.9266  0.9224  0.8074
 6061TIP3   OH218146   6.944   2.270   5.020  0.0231 -0.1481  0.4560
 6061TIP3    H118147   6.972   2.360   5.004  1.0248 -0.3437  1.0160
 6061TIP3    H218148   6.955   2.226   4.936 -0.7049  0.2991  0.1161
 6062TIP3   OH218149   6.950   1.988   0.101  0.2488  0.1350  0.1939
 6062TIP3    H118150   6.883   1.926   0.131 -2.9574  2.0432 -2.3590
 6062TIP3    H218151   6.969   2.041   0.179 -2.8575  0.8037  0.6374
 6063TIP3   OH218152   5.312   3.206   2.146 -0.0362  0.6295 -0.5709
 6063TIP3    H118153   5.330   3.213   2.052  0.0502 -0.2100 -0.6296
 6063TIP3    H218154   5.256   3.280   2.166 -1.3083 -0.0123 -1.6212
 6064TIP3   OH218155   1.595   3.680   1.976 -0.0061 -0.7070  0.3060
 6064TIP3    H118156   1.622   3.723   2.057  0.8264 -1.3221  0.3648
 6064TIP3    H218157   1.499   3.681   1.979 -0.0216  1.1009  0.3145
 6065TIP3   OH218158   5.144   1.834   2.081 -0.0308 -0.5836 -0.1903
 6065TIP3    H118159   5.229   1.836   2.125 -0.1179  0.1441 -0.0439
 6065TIP3    H218160   5.080   1.845   2.151 -0.2987 -1.9335 -0.1993
 6066TIP3   OH218161   6.571   5.306   2.171  0.2171 -0.0864  0.0257
 6066TIP3    H118162   6.629   5.369   2.214  0.0923 -0.2964  0.5110
 6066TIP3    H218163   6.555   5.239   2.238 -1.5611  0.5867  0.3314
 6067TIP3   OH218164   6.869   3.189   1.494 -0.0435  0.4743  0.1370
 6067TIP3    H118165   6.957   3.152   1.491 -0.1022  0.3864 -1.4673
 6067TIP3    H218166   6.828   3.147   1.569  1.7703  1.7225  1.9477
 6068TIP3   OH218167   0.528   6.706   4.054 -0.3748  0.8630 -0.5302
 6068TIP3    H118168   0.509   6.614   4.039 -0.3859  1.0124 -1.5011
 6068TIP3    H218169   0.618   6.707   4.087 -0.1771  0.5423 -1.0548
 6069TIP3   OH218170   2.957   5.149   0.597 -0.0392  0.2701  0.0938
 6069TIP3    H118171   2.962   5.110   0.510  0.1347  0.5973 -0.0429
 6069TIP3    H218172   2.965   5.075   0.657  0.9578  0.1721 -0.1549
 6070TIP3   OH218173   5.270   1.119   0.686  0.3898 -0.0869 -0.5026
 6070TIP3    H118174   5.298   1.210   0.676 -0.4451  0.0715 -1.6165
 6070TIP3    H218175   5.344   1.067   0.652  1.5238  0.0681  1.5694
 6071TIP3   OH218176   0.189   0.962   0.245 -0.3425  0.1917 -0.2842
 6071TIP3    H118177   0.266   0.954   0.301 -0.4316 -1.5502 -0.3537
 6071TIP3    H218178   0.162   0.872   0.228 -0.6216  0.6543 -2.7041
 6072TIP3   OH218179   1.538   2.422   2.974  0.5263 -0.1540 -0.1120
 6072TIP3    H118180   1.628   2.448   2.957  0.3273  0.7524  0.1796
 6072TIP3    H218181   1.490   2.450   2.896  0.4244 -0.2838 -0.0972
 6073TIP3   OH218182   3.922   1.465   5.365  0.1297  0.4808  0.1713
 6073TIP3    H118183   3.990   1.410   5.325 -0.2741  0.7745 -0.9629
 6073TIP3    H218184   3.852   1.467   5.300 -0.6183  0.8734  0.9695
 6074TIP3   OH218185   2.261   1.696   1.124  0.1818  0.2015 -0.5418
 6074TIP3    H118186   2.236   1.779   1.083 -0.3334  0.3431  0.0461
 6074TIP3    H218187   2.186   1.639   1.111 -0.3984  0.5529  1.0175
 6075TIP3   OH218188   1.366   3.174   2.070 -0.5798  0.7952 -0.2649
 6075TIP3    H118189   1.381   3.255   2.022 -1.4188  0.7122 -0.6834
 6075TIP3    H218190   1.393   3.105   2.009 -1.1461  0.7100 -0.4207
 6076TIP3   OH218191   0.538   3.786   3.802  0.6487  0.1840 -0.5418
 6076TIP3    H118192   0.502   3.709   3.846 -2.9192  1.1217 -1.4886
 6076TIP3    H218193   0.559   3.846   3.873 -1.3628  0.2006  0.1086
 6077TIP3   OH218194   1.422   4.907   4.504  0.3824  0.1790  0.2263
 6077TIP3    H118195   1.489   4.939   4.443 -0.3079 -1.8196 -1.7156
 6077TIP3    H218196   1.472   4.864   4.574  1.1642 -0.1684 -0.5296
 6078TIP3   OH218197   3.598   5.334   0.222  0.3681 -0.5071  0.3674
 6078TIP3    H118198   3.550   5.384   0.288  0.1355 -0.3661  0.0935
 6078TIP3    H218199   3.685   5.374   0.220  0.0826  0.1151 -0.0914
 6079TIP3   OH218200   2.585   3.369   2.560  0.0532  0.4810 -0.8086
 6079TIP3    H118201   2.577   3.279   2.590  0.6229  0.3912 -0.9080
 6079TIP3    H218202   2.495   3.399   2.548 -0.2282  0.6900  1.4458
 6080TIP3   OH218203   3.751   5.727   1.854  0.2598  0.4038 -0.7409
 6080TIP3    H118204   3.733   5.679   1.773 -0.3180  1.3420 -1.1854
 6080TIP3    H218205   3.776   5.660   1.917  1.4468 -0.2799 -1.8962
 6081TIP3   OH218206   2.165   0.685   5.758 -0.3100 -0.0287  0.8207
 6081TIP3    H118207   2.183   0.670   5.665 -0.8625  0.6660  0.5938
 6081TIP3    H218208   2.089   0.742   5.758 -0.6573 -0.4904  1.7180
 6082TIP3   OH218209   7.146   2.755   2.698 -0.0300 -0.4108  0.2325
 6082TIP3    H118210   7.145   2.687   2.632 -1.5708 -0.7197  0.5365
 6082TIP3    H218211   7.082   2.820   2.668  0.9946  0.6525  0.2322
 6083TIP3   OH218212   7.062   2.280   1.294  0.2188 -0.2542 -0.3278
 6083TIP3    H118213   7.120   2.250   1.224 -0.2984 -1.5068 -0.2475
 6083TIP3    H218214   7.014   2.353   1.256  2.2791  1.2813 -0.1873
 6084TIP3   OH218215   3.834   4.116   2.323 -0.4992 -0.0980 -0.1535
 6084TIP3    H118216   3.741   4.131   2.305 -0.6008  0.2785  0.6558
 6084TIP3    H218217   3.839   4.106   2.418  0.3579  0.3729 -0.1424
 6085TIP3   OH218218   3.459   5.677   3.452  0.3267  0.2331 -0.6711
 6085TIP3    H118219   3.475   5.610   3.385 -0.3087  0.4337 -1.0371
 6085TIP3    H218220   3.440   5.756   3.401 -0.8521  0.2269 -0.2631
 6086TIP3   OH218221   7.108  -0.002   1.235  0.3233  0.1736 -0.0794
 6086TIP3    H118222   7.165  -0.014   1.160 -0.0033  0.2301 -0.3365
 6086TIP3    H218223   7.104   0.092   1.247  0.5316  0.1576  0.1321
 6087TIP3   OH218224   3.034   5.211   1.391  0.3287  0.2500 -0.2345
 6087TIP3    H118225   3.021   5.141   1.327  0.3364  0.1080 -0.0812
 6087TIP3    H218226   3.122   5.245   1.372  0.7190 -0.4403  0.3255
 6088TIP3   OH218227   4.167   6.223   5.569 -0.0338 -0.0049 -0.4470
 6088TIP3    H118228   4.222   6.263   5.637 -0.1783  0.1705 -0.4352
 6088TIP3    H218229   4.096   6.285   5.556  0.0738  0.0322 -0.8677
 6089TIP3   OH218230   0.194   2.183   2.314 -0.7654  0.0542 -0.5381
 6089TIP3    H118231   0.263   2.193   2.379 -0.5900 -2.4960 -0.2449
 6089TIP3    H218232   0.156   2.271   2.306  2.1525  1.4583 -0.3781
 6090TIP3   OH218233   4.635   0.534   4.093 -0.3941  0.2225  0.1444
 6090TIP3    H118234   4.556   0.487   4.122  0.8376 -1.8817  0.3271
 6090TIP3    H218235   4.701   0.511   4.159  1.2939 -1.0269 -1.8757
 6091TIP3   OH218236   7.082   2.785   2.139  0.0862  0.3770 -0.0416
 6091TIP3    H118237   7.029   2.852   2.180  0.2555  1.0064 -0.8311
 6091TIP3    H218238   7.142   2.756   2.207 -2.1692 -1.3985  1.3408
 6092TIP3   OH218239   3.215   1.137   5.724 -0.3141  0.4058 -0.4018
 6092TIP3    H118240   3.130   1.138   5.769 -0.6393 -0.4032 -0.9730
 6092TIP3    H218241   3.269   1.078   5.777 -0.7691 -0.7333 -1.1565
 6093TIP3   OH218242   0.821   3.210   2.187 -0.2303 -0.1859 -0.0953
 6093TIP3    H118243   0.797   3.284   2.131 -1.9149 -0.0801  0.6972
 6093TIP3    H218244   0.879   3.248   2.253 -1.3119  0.5402  0.4798
 6094TIP3   OH218245   2.184   2.937   1.962  0.2302 -0.2179  0.4670
 6094TIP3    H118246   2.258   2.923   1.904 -0.5495 -1.2910 -0.3131
 6094TIP3    H218247   2.204   3.018   2.009  1.8336 -0.4415  0.2078
 6095TIP3   OH218248   5.640   5.071   3.753 -0.6931  0.2420 -0.4326
 6095TIP3    H118249   5.580   5.141   3.727 -0.2305  0.8216  0.0057
 6095TIP3    H218250   5.686   5.048   3.672  0.1968  1.4965 -0.3093
 6096TIP3   OH218251   1.425   2.198   1.768  0.0973 -0.1409  0.4605
 6096TIP3    H118252   1.467   2.168   1.849 -0.6299 -0.3665  0.7612
 6096TIP3    H218253   1.379   2.121   1.735  0.9994 -0.2586 -0.5813
 6097TIP3   OH218254   3.818   0.559   5.243  0.6452 -0.1883 -0.2219
 6097TIP3    H118255   3.870   0.639   5.251  0.3234  0.0143 -0.1189
 6097TIP3    H218256   3.788   0.559   5.152 -0.7377  0.6862  0.2104
 6098TIP3   OH218257   6.663   2.505   2.857  0.3570 -0.5711  0.6071
 6098TIP3    H118258   6.601   2.575   2.834  1.4382  1.1069  2.4206
 6098TIP3    H218259   6.616   2.452   2.921  0.8782  1.0712  2.4708
 6099TIP3   OH218260   2.927   6.415   0.527 -0.1400 -0.1823 -0.4729
 6099TIP3    H118261   2.993   6.347   0.519 -0.2809 -0.7085  2.0675
 6099TIP3    H218262   2.849   6.370   0.560 -0.0860  1.2076  1.7840
 6100TIP3   OH218263   0.071   3.613   0.121 -0.0974 -0.0912 -0.1311
 6100TIP3    H118264   0.010   3.685   0.140 -2.0957 -0.9999 -2.5139
 6100TIP3    H218265   0.049   3.546   0.185 -0.1724  0.3752  0.3384
 6101TIP3   OH218266   6.979   4.962   5.017  0.1574 -0.3610 -0.7342
 6101TIP3    H118267   7.044   5.022   4.980  0.3184 -0.5676 -0.7893
 6101TIP3    H218268   6.988   4.972   5.112 -1.1723  1.1577 -0.7300
 6102TIP3   OH218269   5.089   3.610   1.616 -0.2450  0.7222  0.0041
 6102TIP3    H118270   5.168   3.570   1.580 -0.8410  0.2223 -0.7885
 6102TIP3    H218271   5.103   3.609   1.711  0.2064 -0.4292 -0.0531
 6103TIP3   OH218272   4.975   2.040   2.191  0.2341 -0.3184 -0.8698
 6103TIP3    H118273   4.945   2.126   2.161  0.3107 -0.6088 -1.8369
 6103TIP3    H218274   4.913   1.979   2.151  1.4580 -0.8526 -2.0295
 6104TIP3   OH218275   1.818   4.194   4.586 -0.3223 -0.1601  0.4606
 6104TIP3    H118276   1.765   4.224   4.660  0.8888  0.8108  0.9671
 6104TIP3    H218277   1.892   4.254   4.584  0.0289 -0.6166 -1.1174
 6105TIP3   OH218278   2.314   3.685   2.888 -0.4068 -0.6935  0.1225
 6105TIP3    H118279   2.277   3.692   2.800 -0.8365  0.8618  0.4047
 6105TIP3    H218280   2.357   3.599   2.889  0.3160 -0.4104 -1.8713
 6106TIP3   OH218281   6.762   2.389   0.918 -0.2885  0.1642  0.0798
 6106TIP3    H118282   6.736   2.480   0.902  0.2015 -0.0126 -2.0585
 6106TIP3    H218283   6.773   2.351   0.831 -0.0614 -1.8442  0.9136
 6107TIP3   OH218284   6.467   3.560   0.117  0.4934  0.4792 -0.2171
 6107TIP3    H118285   6.514   3.501   0.176  0.3491  0.8408  0.2645
 6107TIP3    H218286   6.523   3.637   0.110  0.6626  0.3010 -0.8145
 6108TIP3   OH218287   1.908   1.742   5.702  0.2465  0.0824 -0.2174
 6108TIP3    H118288   1.990   1.709   5.664  0.2741 -0.4221  0.2763
 6108TIP3    H218289   1.882   1.676   5.766 -0.5418  0.2506 -0.3549
 6109TIP3   OH218290   7.172   2.188   1.540 -0.5658 -0.0274 -0.8242
 6109TIP3    H118291   7.142   2.229   1.459 -1.1622  0.2453 -0.4716
 6109TIP3    H218292   7.190   2.097   1.516 -0.9300  0.0035 -1.2159
 6110TIP3   OH218293   0.451   0.522   3.510 -0.1870 -0.2831  0.4081
 6110TIP3    H118294   0.455   0.534   3.415  0.2069  0.8376  0.5545
 6110TIP3    H218295   0.439   0.610   3.544  2.5565 -0.2647  1.5696
 6111TIP3   OH218296   2.687   3.280   5.758 -0.2655  0.4175 -0.4639
 6111TIP3    H118297   2.693   3.343   5.830 -0.3399  1.6095 -1.4856
 6111TIP3    H218298   2.593   3.259   5.754 -0.5282  1.6541 -1.2878
 6112TIP3   OH218299   3.328   1.836   2.150 -0.5768  0.8270 -0.8177
 6112TIP3    H118300   3.367   1.813   2.234  0.9949 -1.4212 -2.0641
 6112TIP3    H218301   3.335   1.932   2.146  1.0327  0.8296  0.7982
 6113TIP3   OH218302   1.632   0.304   2.018 -0.1926 -0.4979 -0.7815
 6113TIP3    H118303   1.553   0.315   2.070  1.6716 -0.8441  2.3860
 6113TIP3    H218304   1.671   0.391   2.015 -0.9199 -0.1929 -2.8805
 6114TIP3   OH218305   3.617   0.696   4.045 -0.1742 -0.1879 -0.3901
 6114TIP3    H118306   3.574   0.686   3.960 -1.1610 -0.8671  0.1651
 6114TIP3    H218307   3.545   0.692   4.108  0.4699  1.0279  0.4381
 6115TIP3   OH218308   1.584   2.314   0.095 -0.4364  0.2060  0.2441
 6115TIP3    H118309   1.614   2.288   0.007  1.1037  1.8480  0.2365
 6115TIP3    H218310   1.616   2.245   0.152 -1.5832 -0.9657 -0.4657
 6116TIP3   OH218311   3.244   5.981   0.488  0.1758 -0.3889 -0.1472
 6116TIP3    H118312   3.337   5.994   0.467 -0.2611  2.1539 -0.8681
 6116TIP3    H218313   3.208   5.936   0.412 -0.0230  2.8127 -2.1532
 6117TIP3   OH218314   5.268   2.602   0.779 -0.4207  0.6079 -0.5985
 6117TIP3    H118315   5.280   2.521   0.729 -0.1902 -0.9070  1.7105
 6117TIP3    H218316   5.244   2.572   0.867  0.4526  3.0391  0.5693
 6118TIP3   OH218317   2.480   6.456   2.420  0.2774  0.2823 -0.0856
 6118TIP3    H118318   2.543   6.387   2.404  1.2750  1.4643 -1.5051
 6118TIP3    H218319   2.527   6.522   2.471 -0.2640  0.5006  0.1501
 6119TIP3   OH218320   1.339   2.176   0.786 -0.0618 -0.7784 -0.7743
 6119TIP3    H118321   1.306   2.103   0.734 -0.4297 -1.3935  0.3049
 6119TIP3    H218322   1.384   2.136   0.860 -1.1490  0.0642  0.3891
 6120TIP3   OH218323   6.628   6.557   0.827 -0.3675 -0.4871 -0.0689
 6120TIP3    H118324   6.641   6.471   0.867 -0.6320 -0.2901  0.4491
 6120TIP3    H218325   6.610   6.615   0.901  0.0248  0.0584 -0.3959
 6121TIP3   OH218326   0.122   2.878   4.141  0.0398  0.5769 -0.2051
 6121TIP3    H118327   0.077   2.856   4.060 -1.5615  1.2578  0.4561
 6121TIP3    H218328   0.193   2.937   4.114  0.4217 -0.3266 -1.2405
 6122TIP3   OH218329   4.333   1.194   5.809 -0.2401 -0.1079  0.7865
 6122TIP3    H118330   4.418   1.235   5.820 -0.5176  1.0768 -1.1330
 6122TIP3    H218331   4.281   1.227   5.882 -0.0643  2.0067  0.0201
 6123TIP3   OH218332   1.735   5.187   1.727  0.0409  0.0134  0.4229
 6123TIP3    H118333   1.802   5.121   1.744  1.6537  1.3805 -0.2304
 6123TIP3    H218334   1.785   5.266   1.706 -1.7478  0.5718 -2.3095
 6124TIP3   OH218335   4.554   5.251   3.273 -0.0944 -0.3676 -0.5152
 6124TIP3    H118336   4.497   5.230   3.347 -0.2995  0.9513 -0.2637
 6124TIP3    H218337   4.632   5.196   3.286  0.2284  0.4159  1.1567
 6125TIP3   OH218338   6.182   4.412   5.863 -0.4673 -0.5004  0.4514
 6125TIP3    H118339   6.166   4.485   5.803 -2.0664  0.0057  1.4531
 6125TIP3    H218340   6.265   4.433   5.904  0.0165 -0.2082 -0.6231
 6126TIP3   OH218341   3.776   3.005   1.875 -0.1721 -0.3417 -0.2700
 6126TIP3    H118342   3.732   2.922   1.856  0.5895 -0.7264 -0.4047
 6126TIP3    H218343   3.793   3.002   1.970  0.6367 -0.7515 -0.4121
 6127TIP3   OH218344   3.968   0.227   4.987  0.1029  0.1771 -0.4612
 6127TIP3    H118345   3.957   0.214   5.081 -0.0883  1.0695 -0.3497
 6127TIP3    H218346   4.018   0.308   4.980 -1.5519  1.1990 -1.1504
 6128TIP3   OH218347   3.956   6.256   0.718  0.0802 -0.0640 -0.9066
 6128TIP3    H118348   3.982   6.316   0.788 -1.8281  1.2456 -1.2313
 6128TIP3    H218349   3.949   6.312   0.641 -1.9858 -0.5981 -1.1683
 6129TIP3   OH218350   0.465   6.035   5.193 -0.2345  0.4520  0.8412
 6129TIP3    H118351   0.556   6.046   5.220 -0.2691 -1.0539  1.6610
 6129TIP3    H218352   0.459   6.082   5.110  0.5959  2.8029  2.0092
 6130TIP3   OH218353   4.109   3.036   2.125  1.0057  0.0909 -0.2725
 6130TIP3    H118354   4.017   3.020   2.146  0.0198  1.6328 -2.9190
 6130TIP3    H218355   4.145   3.077   2.204 -0.0827 -1.9576  1.3837
 6131TIP3   OH218356   5.481   4.921   0.176  0.7543  0.2732 -0.1471
 6131TIP3    H118357   5.452   4.845   0.126  0.9268 -0.3604  0.7023
 6131TIP3    H218358   5.576   4.913   0.180  1.0133  1.7537 -1.9763
 6132TIP3   OH218359   2.128   1.984   0.694 -0.2243  0.0939 -0.2939
 6132TIP3    H118360   2.051   1.969   0.640 -0.4942 -1.5434  0.5057
 6132TIP3    H218361   2.173   1.900   0.697  1.4323  0.9282 -0.4696
 6133TIP3   OH218362   5.181   1.594   1.357  0.1820  0.0556  0.2372
 6133TIP3    H118363   5.220   1.546   1.284  1.6210  1.3730  0.1000
 6133TIP3    H218364   5.235   1.573   1.433 -0.0504  0.3182  0.4795
 6134TIP3   OH218365   1.021   2.236   1.240  0.6106  0.0613  0.0873
 6134TIP3    H118366   1.045   2.167   1.302  0.4750  0.6275  0.7883
 6134TIP3    H218367   0.926   2.226   1.228  0.7680 -0.5448 -0.6475
 6135TIP3   OH218368   5.122   4.171   0.269 -0.3603 -0.2383 -0.1313
 6135TIP3    H118369   5.206   4.153   0.225  0.7188 -0.0844  1.7668
 6135TIP3    H218370   5.130   4.128   0.354 -2.2379 -0.2087  0.0885
 6136TIP3   OH218371   3.156   5.914   1.640  0.3243  0.4178  0.1643
 6136TIP3    H118372   3.065   5.916   1.609 -0.7255 -0.4662  2.9001
 6136TIP3    H218373   3.172   6.003   1.672 -0.5325 -0.0337  1.9880
 6137TIP3   OH218374   1.463   5.773   3.717  0.0846 -0.2094  0.1824
 6137TIP3    H118375   1.391   5.830   3.692 -0.6633 -1.6796 -1.2994
 6137TIP3    H218376   1.432   5.727   3.795 -0.2554 -0.2511  0.0235
 6138TIP3   OH218377   6.912   5.716   4.425  0.0052 -0.4498 -0.1396
 6138TIP3    H118378   6.989   5.666   4.398 -0.1742 -0.7119 -0.1632
 6138TIP3    H218379   6.894   5.686   4.514  1.2150  1.1433  0.7077
 6139TIP3   OH218380   4.258   0.881   4.840 -0.3975  0.4328 -0.5120
 6139TIP3    H118381   4.254   0.958   4.897 -1.6354  0.1132 -0.1332
 6139TIP3    H218382   4.172   0.878   4.798  0.1742  0.1215 -1.6988
 6140TIP3   OH218383   5.513   1.019   0.609 -0.3304 -0.3455  0.2893
 6140TIP3    H118384   5.584   0.981   0.660 -0.6988  0.3068  1.3222
 6140TIP3    H218385   5.553   1.088   0.557  0.2226 -1.6509 -1.0806
 6141TIP3   OH218386   4.623   5.174   3.753 -0.1045  0.3637 -0.3903
 6141TIP3    H118387   4.591   5.097   3.706 -0.0315 -1.1060  1.8530
 6141TIP3    H218388   4.678   5.219   3.688 -2.2606  0.0249 -2.5849
 6142TIP3   OH218389   5.385   0.410   3.916 -0.0461  0.2520  0.7545
 6142TIP3    H118390   5.441   0.485   3.938  0.1881  0.1810  0.4057
 6142TIP3    H218391   5.304   0.448   3.883  0.2013  0.3547  0.2535
 6143TIP3   OH218392   4.232   5.303   2.188 -0.2546 -0.1515  0.0488
 6143TIP3    H118393   4.187   5.259   2.115 -0.2451  2.3786 -1.6222
 6143TIP3    H218394   4.161   5.339   2.241 -0.2491  0.3489 -0.2785
 6144TIP3   OH218395   5.737   0.988   4.050 -0.2753  0.0219 -0.6051
 6144TIP3    H118396   5.776   0.975   4.137 -0.9417 -0.1062 -0.3226
 6144TIP3    H218397   5.789   0.933   3.992 -0.4638 -0.6903 -0.1130
 6145TIP3   OH218398   7.090   0.163   3.024  0.1225 -0.6724 -0.1927
 6145TIP3    H118399   7.014   0.105   3.021 -1.0067  0.8002 -1.9742
 6145TIP3    H218400   7.148   0.131   2.955 -0.0115 -0.3059 -0.4730
 6146TIP3   OH218401   1.877   1.698   4.312  0.4830 -0.3467  0.2205
 6146TIP3    H118402   1.909   1.645   4.239  1.2517  1.4544 -0.8196
 6146TIP3    H218403   1.882   1.640   4.388  0.9502 -1.8497 -0.9159
 6147TIP3   OH218404   0.786   3.419   3.738  0.6468 -0.1132  0.1494
 6147TIP3    H118405   0.750   3.348   3.791  0.2259 -0.4877 -0.6248
 6147TIP3    H218406   0.743   3.410   3.653 -0.5872  1.9969  0.4819
 6148TIP3   OH218407   3.183   1.864   4.048  0.0033 -0.0765 -0.1463
 6148TIP3    H118408   3.129   1.790   4.076 -1.5255  1.0579  0.0780
 6148TIP3    H218409   3.126   1.914   3.989  0.2877  1.8857  1.1365
 6149TIP3   OH218410   1.884   2.651   1.084  0.3512  0.1558 -0.7298
 6149TIP3    H118411   1.961   2.599   1.109  0.0568  0.6693  1.4774
 6149TIP3    H218412   1.811   2.607   1.127 -0.4550  0.2636 -1.9655
 6150TIP3   OH218413   0.245   6.434   4.211 -0.2160 -0.0599 -0.0167
 6150TIP3    H118414   0.257   6.452   4.118  0.7128  3.2056  0.5871
 6150TIP3    H218415   0.334   6.430   4.246 -0.5222 -2.1187  0.6775
 6151TIP3   OH218416   0.703   5.646   3.489  0.1267  0.8047 -0.0964
 6151TIP3    H118417   0.747   5.674   3.409  0.0842  0.8142 -0.1168
 6151TIP3    H218418   0.709   5.551   3.488 -1.2143  0.6983 -0.8960
 6152TIP3   OH218419   3.350   2.398   5.441  0.1011  0.0933  0.1842
 6152TIP3    H118420   3.362   2.492   5.430  0.0008  0.1149  0.2609
 6152TIP3    H218421   3.302   2.370   5.363 -1.8377  0.4736  1.1867
 6153TIP3   OH218422   6.946   4.176   1.015  0.2881 -0.1300 -0.3441
 6153TIP3    H118423   6.899   4.195   0.934 -2.1295 -1.4698  0.6136
 6153TIP3    H218424   6.935   4.254   1.068 -0.6052 -0.3007 -0.2659
 6154TIP3   OH218425   4.561   6.578   5.201  0.0607  0.0447 -0.4275
 6154TIP3    H118426   4.635   6.627   5.237  0.9766 -2.2978  1.1568
 6154TIP3    H218427   4.489   6.596   5.261 -0.6316  2.0390 -1.7672
 6155TIP3   OH218428   6.561   6.392   5.650  0.7038  0.0478  0.0963
 6155TIP3    H118429   6.622   6.347   5.592 -1.9036 -2.8254 -0.6490
 6155TIP3    H218430   6.541   6.329   5.718 -1.2795  0.9447  0.4156
 6156TIP3   OH218431   1.319   6.637   0.952  0.4910  0.5848 -0.3637
 6156TIP3    H118432   1.326   6.720   0.905 -0.3072  2.1138  2.0607
 6156TIP3    H218433   1.226   6.615   0.948  0.0603  1.6841  1.8634
 6157TIP3   OH218434   2.386   6.087   3.765  0.5805  0.1242  0.3916
 6157TIP3    H118435   2.303   6.134   3.755  0.2831 -0.7045 -1.4290
 6157TIP3    H218436   2.361   6.002   3.803  0.8826  0.6536  1.8333
 6158TIP3   OH218437   5.973   0.652   4.112  0.0114 -0.2827  0.4693
 6158TIP3    H118438   5.937   0.740   4.095 -0.9069 -0.8688 -0.7601
 6158TIP3    H218439   6.052   0.648   4.058 -1.4509 -1.1701 -1.7292
 6159TIP3   OH218440   3.507   1.400   0.633 -0.1094  0.0402 -0.4740
 6159TIP3    H118441   3.440   1.333   0.624 -0.0459 -0.1792  0.5946
 6159TIP3    H218442   3.497   1.455   0.555 -0.1711 -1.1894 -1.3595
 6160TIP3   OH218443   4.880   4.046   3.023 -0.8439 -0.0806  0.3662
 6160TIP3    H118444   4.890   4.122   3.080 -1.5304 -0.0438  0.4443
 6160TIP3    H218445   4.795   4.010   3.046 -1.1804 -0.0025 -0.7208
 6161TIP3   OH218446   5.617   1.145   3.837 -0.1951 -0.2850  0.2016
 6161TIP3    H118447   5.674   1.221   3.841 -1.1742  0.4844 -0.2296
 6161TIP3    H218448   5.651   1.086   3.904  0.3216  0.7066  0.8276
 6162TIP3   OH218449   6.212   5.260   3.398  0.0000  0.3301  0.0755
 6162TIP3    H118450   6.125   5.261   3.438 -0.5569 -2.6503 -0.8289
 6162TIP3    H218451   6.266   5.211   3.460  0.6891  0.9079 -0.0557
 6163TIP3   OH218452   1.045   3.992   0.677  0.1135  0.5452  0.2582
 6163TIP3    H118453   0.992   4.059   0.634  1.5771  1.8275  0.3291
 6163TIP3    H218454   1.065   4.030   0.763 -0.7941 -0.9453  1.1605
 6164TIP3   OH218455   5.806   3.045   2.047 -0.3685 -0.6358 -0.0603
 6164TIP3    H118456   5.896   3.051   2.078  0.7237  0.4658 -3.0933
 6164TIP3    H218457   5.788   2.951   2.043  0.3911 -0.8494  1.1318
 6165TIP3   OH218458   6.988   0.413   5.518  0.6953 -0.2557  0.4783
 6165TIP3    H118459   7.080   0.424   5.545  0.7452 -1.1146  0.6853
 6165TIP3    H218460   6.993   0.387   5.426  0.6250  0.3968  0.2881
 6166TIP3   OH218461   3.092   4.495   5.744 -0.1171  0.0259  0.1064
 6166TIP3    H118462   3.017   4.533   5.789  1.2571  1.4747  1.3320
 6166TIP3    H218463   3.085   4.401   5.761 -2.8182 -0.2008 -1.7379
 6167TIP3   OH218464   2.717   5.906   3.206 -0.8468  0.2867  0.3473
 6167TIP3    H118465   2.652   5.848   3.246  1.1061 -2.6089 -0.3382
 6167TIP3    H218466   2.684   5.923   3.118 -2.5549  2.2812  1.2807
 6168TIP3   OH218467   4.399   6.777   2.198  0.1245 -0.2869  0.3548
 6168TIP3    H118468   4.407   6.732   2.113 -0.0559  0.5166 -0.0976
 6168TIP3    H218469   4.487   6.771   2.236  1.1031  2.0071 -1.2778
 6169TIP3   OH218470   2.204   6.455   4.203 -0.1303  0.2698  0.3788
 6169TIP3    H118471   2.254   6.408   4.136  1.2023  0.2218  1.3731
 6169TIP3    H218472   2.266   6.470   4.274 -0.5884  3.2861  0.2660
 6170TIP3   OH218473   1.425   4.734   3.967 -0.1530 -0.0005  0.5858
 6170TIP3    H118474   1.416   4.717   3.873 -1.6820  2.8237  0.1041
 6170TIP3    H218475   1.456   4.824   3.972  3.5310 -1.1425  2.8603
 6171TIP3   OH218476   3.024   0.810   1.283  0.1023 -0.1803 -0.0456
 6171TIP3    H118477   3.040   0.861   1.362  0.0061  0.1398 -0.2294
 6171TIP3    H218478   2.932   0.826   1.262  0.2188  0.0189 -0.4192
 6172TIP3   OH218479   0.887   2.624   5.627  0.2521  0.0572 -0.1316
 6172TIP3    H118480   0.971   2.670   5.619  0.3228 -0.1988 -0.9488
 6172TIP3    H218481   0.853   2.621   5.537 -0.2891 -0.4723  0.0870
 6173TIP3   OH218482   5.510   5.550   3.561  0.5161  0.3928 -0.4522
 6173TIP3    H118483   5.466   5.496   3.494 -1.2929  1.2750 -0.0371
 6173TIP3    H218484   5.450   5.622   3.577  1.7419  1.1788  0.8454
 6174TIP3   OH218485   3.001   3.293   0.035  0.7251 -0.4833  0.8672
 6174TIP3    H118486   2.931   3.237  -0.000  0.2793 -1.2970  2.9079
 6174TIP3    H218487   3.002   3.273   0.129  0.6988  2.7884  1.6695
 6175TIP3   OH218488   4.298   4.522   5.023  0.2742 -0.1875  0.5261
 6175TIP3    H118489   4.234   4.453   5.005 -0.8345  1.1393 -0.8509
 6175TIP3    H218490   4.329   4.503   5.111 -1.6109 -1.2136  1.0208
 6176TIP3   OH218491   0.070   1.347   0.104  0.1089  0.2471 -0.4203
 6176TIP3    H118492   0.029   1.302   0.030  0.6684  3.2948 -2.7928
 6176TIP3    H218493  -0.003   1.392   0.147  0.2076  1.4609 -1.4601
 6177TIP3   OH218494   0.664   4.666   2.194  0.0671  0.0147  0.1944
 6177TIP3    H118495   0.622   4.686   2.110  0.5317  1.1056  0.1997
 6177TIP3    H218496   0.662   4.750   2.241  2.6421  0.2317  0.0217
 6178TIP3   OH218497   1.666   5.229   2.111  0.3730  0.0850 -0.5285
 6178TIP3    H118498   1.755   5.232   2.146  0.3039 -1.1982 -0.2139
 6178TIP3    H218499   1.612   5.264   2.183  0.7575  2.7313 -1.3999
 6179TIP3   OH218500   6.740   2.748   4.938  0.2299 -0.0143  0.3078
 6179TIP3    H118501   6.710   2.683   5.001  1.5593  0.6224  1.6697
 6179TIP3    H218502   6.671   2.814   4.936 -0.3678 -0.6387  0.1789
 6180TIP3   OH218503   0.568   1.903   1.964  0.2663 -0.1983 -0.2603
 6180TIP3    H118504   0.552   1.854   1.883  0.5437 -1.8386  0.6317
 6180TIP3    H218505   0.481   1.917   2.001  0.0700  1.2344 -1.1820
 6181TIP3   OH218506   6.566   3.906   0.213  0.4073 -0.1094 -0.7860
 6181TIP3    H118507   6.534   3.946   0.132  1.8396  0.6478 -1.0212
 6181TIP3    H218508   6.536   3.964   0.283 -1.8184 -1.3739 -0.6114
 6182TIP3   OH218509   4.030   2.764   1.658 -0.2414 -0.0753 -0.0104
 6182TIP3    H118510   4.005   2.754   1.566 -0.2067  1.3750 -0.2009
 6182TIP3    H218511   4.094   2.694   1.673 -0.0792 -0.1914 -1.1598
 6183TIP3   OH218512   5.670   4.668   0.838 -0.4648  0.0019  0.0179
 6183TIP3    H118513   5.620   4.701   0.912 -0.3675  2.8193 -1.0241
 6183TIP3    H218514   5.730   4.739   0.817  0.6922 -1.4058 -1.6938
 6184TIP3   OH218515   1.907   4.425   4.245  0.5186 -0.1349  0.7264
 6184TIP3    H118516   1.959   4.462   4.174 -0.6941  0.4808  0.1310
 6184TIP3    H218517   1.886   4.500   4.301 -1.7716  0.1020 -0.3689
 6185TIP3   OH218518   3.343   4.570   3.376 -0.1175 -0.3487  0.0476
 6185TIP3    H118519   3.340   4.494   3.318  2.2699  0.6057 -1.4609
 6185TIP3    H218520   3.284   4.633   3.337  0.9186  0.0128 -0.9728
 6186TIP3   OH218521   6.599   2.132   0.851 -0.1652 -0.3736 -0.1029
 6186TIP3    H118522   6.663   2.202   0.862  0.4389 -0.9851  0.4097
 6186TIP3    H218523   6.640   2.072   0.789  0.1167 -1.1606  0.8156
 6187TIP3   OH218524   1.811   1.439   4.483 -0.7595 -0.5262  0.2815
 6187TIP3    H118525   1.768   1.496   4.547  0.9043  2.4928 -1.0993
 6187TIP3    H218526   1.740   1.408   4.427 -1.5640  2.0440 -0.2551
 6188TIP3   OH218527   2.285   5.539   2.012 -0.3637 -0.0346 -0.4935
 6188TIP3    H118528   2.283   5.584   2.096 -1.0100 -1.7454  0.4757
 6188TIP3    H218529   2.195   5.545   1.979  0.1851  1.8741 -1.8310
 6189TIP3   OH218530   2.488   3.130   5.319  0.1927 -0.5408 -0.4284
 6189TIP3    H118531   2.491   3.037   5.298  0.4323 -0.1961 -2.0953
 6189TIP3    H218532   2.488   3.134   5.415 -2.5239 -2.3420 -0.2487
 6190TIP3   OH218533   1.958   5.938   0.270 -0.5327 -0.2968  0.2573
 6190TIP3    H118534   1.929   5.973   0.354 -0.7080 -0.2987  0.1974
 6190TIP3    H218535   2.051   5.919   0.283 -0.2237  0.9843  0.0292
 6191TIP3   OH218536   6.840   2.022   1.356 -0.0759  0.1001 -0.3919
 6191TIP3    H118537   6.796   2.007   1.273  0.0613  1.3960 -0.7296
 6191TIP3    H218538   6.800   2.102   1.390  1.2327  0.6915 -0.1825
 6192TIP3   OH218539   6.274   2.637   2.920  0.4992 -0.4868 -0.0126
 6192TIP3    H118540   6.299   2.711   2.864  1.0961 -0.1429  0.6895
 6192TIP3    H218541   6.194   2.665   2.964  0.0103 -0.7707 -0.7015
 6193TIP3   OH218542   3.816   4.855   1.964 -0.1071  0.1938 -0.1490
 6193TIP3    H118543   3.911   4.857   1.952 -0.0380  1.4549  0.4379
 6193TIP3    H218544   3.804   4.848   2.059 -0.6306 -2.0449 -0.3200
 6194TIP3   OH218545   1.702   3.444   5.114 -0.0712 -0.0885  0.1278
 6194TIP3    H118546   1.627   3.446   5.173 -0.0144 -0.6728  0.2258
 6194TIP3    H218547   1.736   3.534   5.114 -1.5385  0.5021 -0.9276
 6195TIP3   OH218548   4.796   5.017   0.734 -0.3524  0.1698  0.1193
 6195TIP3    H118549   4.725   5.066   0.693 -0.0816  0.8963  0.5062
 6195TIP3    H218550   4.833   4.964   0.663 -0.2564  0.9870 -0.4536
 6196TIP3   OH218551   2.192   2.895   1.301  0.2830 -0.0863  0.2804
 6196TIP3    H118552   2.173   2.865   1.212  1.3341 -0.6594  0.2362
 6196TIP3    H218553   2.158   2.826   1.358  2.1156 -1.1130  0.2014
 6197TIP3   OH218554   2.698   5.203   0.703 -0.2833 -0.3327 -0.6629
 6197TIP3    H118555   2.788   5.222   0.729 -0.3393 -1.1329  0.1593
 6197TIP3    H218556   2.697   5.214   0.608  0.1625  1.7504 -0.4834
 6198TIP3   OH218557   3.726   5.107   2.531  0.4825 -0.8028 -0.7444
 6198TIP3    H118558   3.698   5.020   2.562 -0.1417 -0.7340 -1.1227
 6198TIP3    H218559   3.747   5.154   2.612  1.6123 -1.5621 -0.5642
 6199TIP3   OH218560   3.370   1.079   5.468  0.1612  0.0489  0.2263
 6199TIP3    H118561   3.408   1.114   5.548 -0.3592  1.7532 -0.2363
 6199TIP3    H218562   3.394   1.142   5.400 -0.4369 -0.7303 -0.7402
 6200TIP3   OH218563   4.192   0.183   0.034  0.0887  0.0398 -0.2290
 6200TIP3    H118564   4.106   0.219   0.058  0.1895  0.7739 -0.9423
 6200TIP3    H218565   4.173   0.096  -0.002 -0.3382  0.1412 -0.2502
 6201TIP3   OH218566   2.825   1.070   5.883 -0.0370  0.2751 -0.0738
 6201TIP3    H118567   2.787   0.996   5.837  0.9853 -1.1082  1.2143
 6201TIP3    H218568   2.756   1.136   5.884 -0.5685 -0.2013 -2.2457
 6202TIP3   OH218569   5.983   2.969   4.153 -0.5376  0.6163 -0.7216
 6202TIP3    H118570   5.926   2.975   4.229 -2.8405  0.9955 -2.3602
 6202TIP3    H218571   6.055   3.028   4.172 -1.2794  1.0350  0.9637
 6203TIP3   OH218572   5.179   1.518   3.476  0.0821 -0.2352 -0.2041
 6203TIP3    H118573   5.191   1.490   3.567 -1.7880  2.4243  1.0040
 6203TIP3    H218574   5.264   1.553   3.450  0.4993 -0.5117  0.7447
 6204TIP3   OH218575   5.566   1.942   5.249  0.1857 -0.0516  0.5413
 6204TIP3    H118576   5.517   2.005   5.301 -1.6513 -1.3361  0.4789
 6204TIP3    H218577   5.515   1.861   5.256  2.4826 -1.5726  0.6849
 6205TIP3   OH218578   1.187   0.439   3.892 -0.4590  0.4213 -0.5150
 6205TIP3    H118579   1.154   0.509   3.835 -1.1795 -0.8407 -1.7159
 6205TIP3    H218580   1.260   0.401   3.842  0.9789  1.2933  0.8304
 6206TIP3   OH218581   6.287   2.588   2.414  0.1368 -0.1477 -0.2097
 6206TIP3    H118582   6.327   2.637   2.486 -0.1660 -0.8869  0.4755
 6206TIP3    H218583   6.360   2.545   2.370  0.2476 -0.3422  0.1569
 6207TIP3   OH218584   3.909   1.931   4.584  0.3507 -0.2871 -0.5606
 6207TIP3    H118585   3.942   1.923   4.494  1.3671  1.9650 -0.4547
 6207TIP3    H218586   3.929   2.021   4.609 -1.2507 -0.4052  1.4253
 6208TIP3   OH218587   3.517   3.087   4.521 -0.2315  0.2160 -0.6601
 6208TIP3    H118588   3.496   3.070   4.429  1.1030 -1.0441 -0.7636
 6208TIP3    H218589   3.443   3.053   4.570 -2.0320  2.8865 -1.2958
 6209TIP3   OH218590   4.952   5.838   3.933  0.3519  0.1999  0.0436
 6209TIP3    H118591   4.998   5.919   3.910 -0.7656  0.4219 -1.5914
 6209TIP3    H218592   4.864   5.866   3.958  0.4395 -0.3916  1.0485
 6210TIP3   OH218593   0.117   2.672   2.211  0.8711 -0.5427  0.5329
 6210TIP3    H118594   0.178   2.605   2.181  0.2397 -0.0757 -2.0464
 6210TIP3    H218595   0.160   2.710   2.288  2.0214 -2.7127  1.0572
 6211TIP3   OH218596   3.744   1.225   1.362 -0.3461 -0.1968  0.4175
 6211TIP3    H118597   3.670   1.206   1.420  0.1106  1.1198  1.4930
 6211TIP3    H218598   3.809   1.159   1.382 -0.8243 -0.7354  0.2157
 6212TIP3   OH218599   4.298   6.026   5.462 -0.8666 -0.0389  0.8080
 6212TIP3    H118600   4.289   6.022   5.367  1.3468  0.6936  0.4965
 6212TIP3    H218601   4.250   6.105   5.487  1.9442  2.2434 -0.3493
 6213TIP3   OH218602   1.193   1.147   4.748 -0.0579  0.1207 -0.6065
 6213TIP3    H118603   1.221   1.067   4.704  2.1526  0.1018  0.7384
 6213TIP3    H218604   1.187   1.212   4.677  1.5514 -0.3797 -1.2292
 6214TIP3   OH218605   6.791   1.822   3.457  0.5034  0.2817  0.0738
 6214TIP3    H118606   6.757   1.910   3.438 -0.6121  0.2393  1.6303
 6214TIP3    H218607   6.875   1.838   3.500  0.2448  0.6196  0.4712
 6215TIP3   OH218608   2.074   3.004   4.539  0.5354  0.1709 -0.1992
 6215TIP3    H118609   2.046   3.092   4.563 -1.7726  0.4183 -3.1927
 6215TIP3    H218610   1.992   2.955   4.528  1.7560 -2.3125  1.1039
 6216TIP3   OH218611   0.860   2.845   3.991  0.1065  0.0134 -0.4435
 6216TIP3    H118612   0.824   2.780   4.051  0.0633  2.3028  2.1981
 6216TIP3    H218613   0.799   2.846   3.917 -0.5734 -1.9957  0.0319
 6217TIP3   OH218614   6.876   0.170   1.613  0.4368  1.0972 -0.1408
 6217TIP3    H118615   6.783   0.182   1.593 -0.8332 -2.0003  2.9183
 6217TIP3    H218616   6.903   0.097   1.557  0.2458  0.3261  0.7428
 6218TIP3   OH218617   4.582   4.789   0.517 -0.1970  0.7273  0.1851
 6218TIP3    H118618   4.606   4.740   0.596  0.3690  0.6649 -0.0258
 6218TIP3    H218619   4.497   4.752   0.492  0.0269  0.1399  0.2659
 6219TIP3   OH218620   5.966   2.439   1.277  0.4194 -0.0711 -0.3531
 6219TIP3    H118621   5.971   2.534   1.280 -0.8084  0.2150 -3.2578
 6219TIP3    H218622   6.032   2.414   1.212 -0.4666 -0.9988 -0.9327
 6220TIP3   OH218623   1.013   1.619   3.289 -0.1872 -0.5020  0.1866
 6220TIP3    H118624   0.992   1.697   3.237 -1.0566 -0.8465  0.0059
 6220TIP3    H218625   1.040   1.554   3.224  2.2526  0.1252  0.4476
 6221TIP3   OH218626   4.037   5.097   1.979 -0.2926 -0.3398 -0.7862
 6221TIP3    H118627   4.076   5.050   1.906  0.3345 -0.2913 -0.4900
 6221TIP3    H218628   4.059   5.045   2.056 -1.8670 -0.9715 -0.7170
 6222TIP3   OH218629   6.502   0.659   4.707  0.3091  0.2282  0.7620
 6222TIP3    H118630   6.557   0.652   4.785  0.7909 -0.5919  0.3538
 6222TIP3    H218631   6.472   0.570   4.690  2.4747 -0.1580 -1.5921
 6223TIP3   OH218632   3.216   4.652   0.410  0.1328  0.2336 -0.3472
 6223TIP3    H118633   3.184   4.686   0.493 -0.9301 -0.4609 -0.4595
 6223TIP3    H218634   3.161   4.576   0.391  0.0678  0.6247 -1.8943
 6224TIP3   OH218635   5.410   5.318   5.095  0.3911 -0.3014  0.4432
 6224TIP3    H118636   5.397   5.228   5.125 -2.2152 -0.1289  0.0214
 6224TIP3    H218637   5.331   5.364   5.121  0.9347  1.4792 -0.8561
 6225TIP3   OH218638   3.995   3.654   0.455  0.2854 -0.0504 -0.2401
 6225TIP3    H118639   4.066   3.702   0.497 -0.0856  0.4984 -0.2281
 6225TIP3    H218640   3.917   3.707   0.472 -0.4580 -1.5397  1.3146
 6226TIP3   OH218641   3.428   3.367   5.529 -0.1152 -0.0011  0.2525
 6226TIP3    H118642   3.360   3.406   5.584 -0.4703 -0.0698 -0.1380
 6226TIP3    H218643   3.403   3.275   5.521  0.8442 -0.3818  1.3603
 6227TIP3   OH218644   7.036   0.569   0.901  0.3100 -0.2137  0.3812
 6227TIP3    H118645   7.016   0.638   0.839  0.5766  0.4365  1.0128
 6227TIP3    H218646   6.977   0.584   0.974 -0.4322 -1.3391  0.0518
 6228TIP3   OH218647   0.682   0.383   5.255 -0.4934  0.6999  0.2075
 6228TIP3    H118648   0.667   0.448   5.186 -0.5785  1.3474  0.8318
 6228TIP3    H218649   0.765   0.409   5.294 -0.0723 -0.1066 -0.1334
 6229TIP3   OH218650   3.007   6.509   4.142 -0.3683  0.1547  0.0467
 6229TIP3    H118651   3.085   6.457   4.161  0.0816  1.3046  1.5021
 6229TIP3    H218652   2.972   6.470   4.062  2.6820  0.7184 -1.7307
 6230TIP3   OH218653   4.926   0.327   1.242 -0.9525  0.1255 -0.0022
 6230TIP3    H118654   4.920   0.275   1.162  1.3846 -2.0544  1.0592
 6230TIP3    H218655   4.961   0.265   1.307  0.8778  2.7421  1.6827
 6231TIP3   OH218656   5.990   5.087   3.271  0.1240 -0.1923  0.5176
 6231TIP3    H118657   5.951   5.140   3.201  0.0006 -0.1042  0.6524
 6231TIP3    H218658   6.033   5.015   3.225 -0.2745 -0.3399  0.3678
 6232TIP3   OH218659   2.593   0.404   4.772  0.0172  0.4689 -1.1087
 6232TIP3    H118660   2.660   0.342   4.743 -0.3996 -0.0483 -0.9829
 6232TIP3    H218661   2.604   0.480   4.714  0.5824  0.3120 -1.2110
 6233TIP3   OH218662   5.171   4.106   2.044  0.4135  0.2560 -0.3583
 6233TIP3    H118663   5.191   4.178   2.103 -0.7362 -0.2995  0.7436
 6233TIP3    H218664   5.087   4.129   2.004 -0.4270 -0.8476  0.6903
 6234TIP3   OH218665   4.384   5.163   1.892  0.1740  0.1778 -0.2332
 6234TIP3    H118666   4.323   5.108   1.942  0.7105 -0.1927  0.0269
 6234TIP3    H218667   4.424   5.103   1.828 -1.9512  1.0390 -2.5155
 6235TIP3   OH218668   1.288   2.029   2.745 -0.1178 -0.0045  0.0291
 6235TIP3    H118669   1.344   2.105   2.724  0.2039 -0.2414  0.0209
 6235TIP3    H218670   1.350   1.956   2.755 -0.3941 -0.1890  0.4061
 6236TIP3   OH218671   3.553   5.471   3.871  0.4920  0.1369 -0.7776
 6236TIP3    H118672   3.641   5.437   3.856 -0.0481 -1.5342 -0.3103
 6236TIP3    H218673   3.566   5.564   3.892  2.3115 -0.4672  1.0560
 6237TIP3   OH218674   3.760   0.813   3.385 -0.4005 -0.6265  0.5258
 6237TIP3    H118675   3.694   0.883   3.377  0.8220  0.4353 -0.7105
 6237TIP3    H218676   3.791   0.800   3.296 -0.3585 -2.5589  0.7974
 6238TIP3   OH218677   1.416   3.087   0.246 -0.1636  0.1860 -0.0804
 6238TIP3    H118678   1.321   3.077   0.242 -0.0501 -0.8316 -0.5822
 6238TIP3    H218679   1.440   3.049   0.330  0.1114 -2.8216 -1.3699
 6239TIP3   OH218680   4.708   4.232   1.056  0.4310 -0.3380 -0.0273
 6239TIP3    H118681   4.693   4.299   0.989  0.1655 -2.0078 -1.7299
 6239TIP3    H218682   4.622   4.192   1.069  0.3318  0.3734  1.8610
 6240TIP3   OH218683   2.107   4.772   5.844  0.1413  0.6936  0.7158
 6240TIP3    H118684   2.134   4.863   5.825  0.0750  0.5010 -0.4032
 6240TIP3    H218685   2.065   4.777   5.929  1.1514  1.5191  1.2007
 6241TIP3   OH218686   4.132   4.303   5.027 -0.2753  0.3065 -0.0977
 6241TIP3    H118687   4.113   4.250   4.950  1.1041  1.8110 -1.5438
 6241TIP3    H218688   4.051   4.299   5.078 -1.2398 -0.7318 -1.5991
 6242TIP3   OH218689   1.111   3.411   4.487  0.5270 -0.7923  0.4125
 6242TIP3    H118690   1.057   3.488   4.470  0.3233 -0.9990  0.1100
 6242TIP3    H218691   1.164   3.402   4.408  1.0493 -0.5561  0.7308
 6243TIP3   OH218692   4.127   3.090   2.538  0.3227  0.0274  0.3867
 6243TIP3    H118693   4.051   3.112   2.484  0.7074  0.2970 -0.0501
 6243TIP3    H218694   4.171   3.174   2.552  1.3953 -0.3450 -0.6604
 6244TIP3   OH218695   4.753   4.578   3.604 -0.3264  0.5969 -0.5241
 6244TIP3    H118696   4.693   4.630   3.550  0.0218 -0.2040 -1.7277
 6244TIP3    H218697   4.705   4.564   3.685 -2.2301 -0.8646 -1.8052
 6245TIP3   OH218698   0.560   2.513   0.956 -0.1096 -0.1079  0.3991
 6245TIP3    H118699   0.603   2.443   0.907  0.5960 -0.0572  0.9308
 6245TIP3    H218700   0.466   2.494   0.947  0.0669 -2.2092  2.0543
 6246TIP3   OH218701   4.477   3.153   2.544  0.6153  0.1863 -0.5773
 6246TIP3    H118702   4.463   3.133   2.636  1.6790  0.6260 -0.3110
 6246TIP3    H218703   4.454   3.246   2.535 -1.3826 -0.3061 -1.1877
 6247TIP3   OH218704   5.191   0.651   1.607 -0.1165 -0.0778  0.5595
 6247TIP3    H118705   5.138   0.666   1.529  0.2707  0.7870  0.4568
 6247TIP3    H218706   5.275   0.621   1.573 -0.7381 -2.1655  0.7463
 6248TIP3   OH218707   6.216   3.241   0.699 -0.2514  0.2984  0.4479
 6248TIP3    H118708   6.228   3.245   0.605 -1.3017 -0.1349  0.2830
 6248TIP3    H218709   6.299   3.273   0.736  1.4633 -2.6123 -0.5593
 6249TIP3   OH218710   3.480   1.785   3.147 -0.3515  0.2516 -0.2241
 6249TIP3    H118711   3.545   1.851   3.123 -1.5725  2.9558  3.0464
 6249TIP3    H218712   3.516   1.742   3.224 -1.7880  0.8997  0.8560
 6250TIP3   OH218713   1.405   1.887   3.865  0.9327  0.2891 -0.2529
 6250TIP3    H118714   1.394   1.908   3.772  0.2176 -2.1613 -0.7701
 6250TIP3    H218715   1.499   1.896   3.880  0.8889  2.1608 -0.7821
 6251TIP3   OH218716   3.260   3.851   0.591  0.4701  0.4632 -0.4255
 6251TIP3    H118717   3.265   3.947   0.588  1.5784  0.4072 -0.6353
 6251TIP3    H218718   3.233   3.826   0.502  0.2560  0.5712 -0.3924
 6252TIP3   OH218719   3.165   0.619   1.423 -0.6066 -0.0335  0.1507
 6252TIP3    H118720   3.228   0.666   1.477 -0.9141 -0.0598  0.5431
 6252TIP3    H218721   3.107   0.686   1.388 -0.0396  0.0496 -0.6573
 6253TIP3   OH218722   0.233   6.555   3.699  0.1152  0.6175 -0.5784
 6253TIP3    H118723   0.247   6.614   3.773  1.0107 -0.1322 -0.1325
 6253TIP3    H218724   0.317   6.510   3.688 -0.2873  0.0628 -1.4674
 6254TIP3   OH218725   5.310   3.987   4.342 -0.4311  0.1973  0.1964
 6254TIP3    H118726   5.255   3.977   4.419 -0.3961 -1.4230  0.0463
 6254TIP3    H218727   5.281   3.919   4.282  1.9535 -0.9929  0.2558
 6255TIP3   OH218728   5.604   4.525   4.340  0.9453 -0.1995  0.0980
 6255TIP3    H118729   5.512   4.528   4.366  0.9374 -0.0219  0.0481
 6255TIP3    H218730   5.619   4.434   4.315  0.0905  0.2559 -2.3578
 6256TIP3   OH218731   0.894   1.518   1.471  0.5431 -0.2766  0.0747
 6256TIP3    H118732   0.942   1.496   1.552  2.4478  1.0088 -0.6299
 6256TIP3    H218733   0.819   1.569   1.501  1.4355  0.5180  1.0427
 6257TIP3   OH218734   6.788   0.711   5.187 -0.2363  0.4291 -0.5181
 6257TIP3    H118735   6.746   0.792   5.217 -1.5159  0.6820 -2.7616
 6257TIP3    H218736   6.881   0.725   5.205 -0.7174  1.2334  1.6173
 6258TIP3   OH218737   2.455   0.766   3.194  0.0909 -0.1767  0.3148
 6258TIP3    H118738   2.454   0.676   3.227 -0.9564 -0.1134  0.4875
 6258TIP3    H218739   2.435   0.820   3.270  0.6876  0.2171  0.2038
 6259TIP3   OH218740   5.399   2.746   5.352 -0.0492 -0.0746 -0.5876
 6259TIP3    H118741   5.484   2.785   5.374  0.1717 -0.4324 -0.8018
 6259TIP3    H218742   5.358   2.730   5.437 -0.7897  2.0176 -0.5187
 6260TIP3   OH218743   5.874   1.353   2.474  0.6456  0.1397 -0.2246
 6260TIP3    H118744   5.926   1.273   2.464  0.9341  0.4480 -1.3919
 6260TIP3    H218745   5.891   1.403   2.394 -1.2041  0.4111 -0.4979
 6261TIP3   OH218746   4.101   0.988   2.560 -0.0360  0.0446  0.0638
 6261TIP3    H118747   4.057   0.904   2.568 -2.2377  1.1189 -0.0101
 6261TIP3    H218748   4.142   0.986   2.474 -0.6219 -0.6880 -0.2023
 6262TIP3   OH218749   4.872   0.074   1.830 -0.1827 -0.3278  0.1764
 6262TIP3    H118750   4.961   0.090   1.798 -0.1492 -0.2111  0.3292
 6262TIP3    H218751   4.859   0.138   1.900 -0.4197 -0.2858  0.0964
 6263TIP3   OH218752   7.017   5.500   5.388  0.3196  0.4881  0.8453
 6263TIP3    H118753   7.086   5.499   5.455 -0.2518  0.9766  1.4562
 6263TIP3    H218754   7.061   5.530   5.309  1.0772 -0.3875  0.9106
 6264TIP3   OH218755   0.957   6.189   1.955 -0.0929 -0.0045  0.1432
 6264TIP3    H118756   0.912   6.135   2.019 -0.0784 -1.9265 -1.3734
 6264TIP3    H218757   0.891   6.250   1.924 -0.3666  0.2684  1.2219
 6265TIP3   OH218758   6.514   3.469   5.002 -0.3090  0.3662  0.4104
 6265TIP3    H118759   6.607   3.462   4.983 -0.1634  1.4440  0.6552
 6265TIP3    H218760   6.492   3.387   5.045  0.2066 -0.4802 -0.8755
 6266TIP3   OH218761   4.379   5.281   2.433 -0.3742 -0.2000 -0.6732
 6266TIP3    H118762   4.371   5.368   2.471  1.2544  0.2214 -1.2304
 6266TIP3    H218763   4.354   5.292   2.341 -0.2618 -0.3395 -0.7224
 6267TIP3   OH218764   2.352   6.152   5.446  0.2570 -0.0562 -0.3117
 6267TIP3    H118765   2.351   6.089   5.375 -1.9594 -1.2194  0.6662
 6267TIP3    H218766   2.266   6.192   5.444 -0.9115 -1.9804  3.2163
 6268TIP3   OH218767   2.432   4.030   1.087  0.0544  0.4369  0.0474
 6268TIP3    H118768   2.439   4.108   1.143 -2.1689 -0.2199  1.3859
 6268TIP3    H218769   2.358   4.049   1.029 -3.3114 -2.0156  3.0608
 6269TIP3   OH218770   4.844   3.309   0.884  0.5178  0.4049 -0.0358
 6269TIP3    H118771   4.825   3.398   0.855  0.5890  0.1729 -0.8023
 6269TIP3    H218772   4.778   3.291   0.951  0.2544  0.8905 -0.1640
 6270TIP3   OH218773   5.406   0.498   0.319  0.1401 -0.3610 -0.3847
 6270TIP3    H118774   5.473   0.527   0.382  1.3077 -0.5690 -1.4772
 6270TIP3    H218775   5.409   0.563   0.249 -2.6667  1.0904  0.7003
 6271TIP3   OH218776   4.826   4.739   4.262 -0.2196  0.1007 -0.0039
 6271TIP3    H118777   4.743   4.697   4.285 -0.3055  0.2066 -0.1212
 6271TIP3    H218778   4.878   4.734   4.342 -0.3643  0.0946  0.0900
 6272TIP3   OH218779   5.109   3.522   1.024 -0.1501 -0.1282 -0.2132
 6272TIP3    H118780   5.075   3.526   1.114  2.0709  0.3142  0.6839
 6272TIP3    H218781   5.179   3.457   1.028  1.7198  1.7096 -0.9133
 6273TIP3   OH218782   5.267   0.583   1.273  0.2931  0.0548  0.4129
 6273TIP3    H118783   5.182   0.611   1.239  0.0949 -1.4032 -0.3893
 6273TIP3    H218784   5.331   0.631   1.221 -0.0378  0.4430  0.3620
 6274TIP3   OH218785   0.384   6.267   3.503  0.0361  0.1455  0.2325
 6274TIP3    H118786   0.437   6.237   3.576 -0.2913  0.6265  0.6757
 6274TIP3    H218787   0.397   6.202   3.434  2.9793  1.3631 -0.5127
 6275TIP3   OH218788   6.460   5.781   0.631  0.4442 -0.2881 -0.0692
 6275TIP3    H118789   6.447   5.802   0.723 -0.5182 -0.7772 -0.0859
 6275TIP3    H218790   6.385   5.727   0.607  0.5329  0.0543 -1.2123
 6276TIP3   OH218791   2.535   4.422   2.244 -0.8305  0.4190 -0.1586
 6276TIP3    H118792   2.574   4.359   2.304 -0.3345  1.4697  0.6657
 6276TIP3    H218793   2.454   4.449   2.289 -1.4316 -0.1790 -0.8626
 6277TIP3   OH218794   4.752   2.707   3.243  0.0384 -0.2453 -0.4153
 6277TIP3    H118795   4.804   2.650   3.300  0.7426  0.6560 -0.1433
 6277TIP3    H218796   4.783   2.796   3.262 -2.3491  0.4549  0.5628
 6278TIP3   OH218797   4.368   2.955   2.032 -0.1637  0.1338  0.0779
 6278TIP3    H118798   4.316   3.001   2.098  0.8512 -0.6425  1.4759
 6278TIP3    H218799   4.338   2.864   2.037 -1.5066  0.4090 -2.0131
 6279TIP3   OH218800   0.004   6.791   1.159 -0.6046  0.3946 -0.9091
 6279TIP3    H118801   0.003   6.704   1.119 -0.0396 -0.4195  0.7547
 6279TIP3    H218802   0.094   6.804   1.188 -0.9870  0.9338  0.0982
 6280TIP3   OH218803   0.551   4.586   3.544 -0.0380  0.2826 -0.1141
 6280TIP3    H118804   0.612   4.640   3.494 -0.9000 -0.9819 -2.7012
 6280TIP3    H218805   0.602   4.510   3.570  0.2598  0.6577  0.4067
 6281TIP3   OH218806   0.403   6.745   0.812 -0.3593  0.1921  0.1470
 6281TIP3    H118807   0.360   6.792   0.884  0.3768  0.3383  0.5046
 6281TIP3    H218808   0.422   6.814   0.747 -0.5365  0.1484  0.0465
 6282TIP3   OH218809   5.271   0.400   3.282  0.0794 -0.1199  0.5838
 6282TIP3    H118810   5.240   0.346   3.355  0.8907 -1.8372 -0.2689
 6282TIP3    H218811   5.203   0.466   3.270 -1.3075 -1.3696  1.2709
 6283TIP3   OH218812   0.668   1.833   0.967  0.1893  0.3683  0.2050
 6283TIP3    H118813   0.689   1.862   0.878 -0.3051  1.3495  0.3972
 6283TIP3    H218814   0.752   1.804   1.003  0.1831 -1.3190 -1.0186
 6284TIP3   OH218815   1.806   3.453   3.872 -0.1400  0.2520 -0.7236
 6284TIP3    H118816   1.791   3.512   3.798 -0.2563  2.1792  0.7607
 6284TIP3    H218817   1.890   3.481   3.909 -0.5428 -0.0118  0.4541
 6285TIP3   OH218818   2.578   0.188   2.450 -0.0878 -0.7145  0.0268
 6285TIP3    H118819   2.653   0.240   2.481 -1.7047  1.3052  0.7570
 6285TIP3    H218820   2.595   0.176   2.357  0.7808  0.3553  0.0227
 6286TIP3   OH218821   1.173   4.873   1.546 -0.2853 -1.0492 -0.5294
 6286TIP3    H118822   1.262   4.848   1.572 -0.2595  0.4934  1.0361
 6286TIP3    H218823   1.165   4.964   1.574 -2.3457 -1.1351 -0.7051
 6287TIP3   OH218824   1.093   3.313   0.484  0.0724  0.0601 -0.1185
 6287TIP3    H118825   1.061   3.228   0.453 -0.3002  0.3218 -0.4591
 6287TIP3    H218826   1.068   3.374   0.415  0.1479  0.4835  0.2301
 6288TIP3   OH218827   3.971   0.804   4.325 -0.1542 -0.2481 -0.2342
 6288TIP3    H118828   4.018   0.884   4.352  0.1459  0.0685 -1.5955
 6288TIP3    H218829   4.026   0.767   4.256  0.1412 -2.1201  0.9388
 6289TIP3   OH218830   4.760   0.541   5.540  0.0935 -0.0215 -0.4839
 6289TIP3    H118831   4.690   0.590   5.583 -0.2052 -2.8630  2.7164
 6289TIP3    H218832   4.718   0.460   5.511  1.6549 -0.9391 -0.2812
 6290TIP3   OH218833   5.132   4.281   4.499  0.0361 -0.0574 -0.0246
 6290TIP3    H118834   5.040   4.268   4.523 -0.0229  0.7759  0.2440
 6290TIP3    H218835   5.177   4.293   4.582 -0.0892  2.3608 -0.2193
 6291TIP3   OH218836   3.578   4.331   3.577  0.0666  0.3213  0.2825
 6291TIP3    H118837   3.652   4.392   3.574  0.1526  0.1769 -1.5283
 6291TIP3    H218838   3.616   4.246   3.555 -0.6338  0.2696 -0.8046
 6292TIP3   OH218839   1.992   1.973   0.109  0.2405  0.0603  0.6609
 6292TIP3    H118840   1.951   2.033   0.045 -0.1480 -0.3975  0.4781
 6292TIP3    H218841   1.925   1.906   0.125  1.5193 -1.6984 -0.9743
 6293TIP3   OH218842   6.407   5.232   5.170 -0.0513 -0.1136 -0.5885
 6293TIP3    H118843   6.503   5.231   5.172  0.0126  0.8270  2.2242
 6293TIP3    H218844   6.385   5.323   5.149 -0.1045  0.9355  3.2340
 6294TIP3   OH218845   3.768   5.899   4.774  0.3850  0.2717  0.6900
 6294TIP3    H118846   3.754   5.885   4.868  0.1968 -0.7799  0.5055
 6294TIP3    H218847   3.839   5.839   4.751 -1.9266 -2.1234 -0.5779
 6295TIP3   OH218848   0.422   1.905   1.056 -0.4845  0.5364  0.6370
 6295TIP3    H118849   0.495   1.852   1.026  0.7240  1.3875  1.9700
 6295TIP3    H218850   0.459   1.963   1.123 -2.1873  1.5986  0.7381
 6296TIP3   OH218851   5.078   3.601   5.656 -0.0589  0.4774  0.2575
 6296TIP3    H118852   5.032   3.683   5.673  3.3501  2.4684  0.8024
 6296TIP3    H218853   5.135   3.620   5.582  0.1200 -1.7595 -0.2636
 6297TIP3   OH218854   0.371   1.229   2.465 -0.1762 -0.0079 -0.3143
 6297TIP3    H118855   0.306   1.297   2.451 -0.1389  0.3449  1.0078
 6297TIP3    H218856   0.442   1.273   2.513 -0.9603 -1.3105  2.2552
 6298TIP3   OH218857   0.740   0.944   0.955  0.0732  0.0259  0.2219
 6298TIP3    H118858   0.690   1.011   0.909  1.5468 -0.0067 -1.5241
 6298TIP3    H218859   0.683   0.867   0.955  0.7080 -0.6452 -3.5086
 6299TIP3   OH218860   7.160   2.533   1.479  0.1137 -0.4083 -0.1089
 6299TIP3    H118861   7.122   2.488   1.404  0.8337  2.2140 -2.2066
 6299TIP3    H218862   7.254   2.531   1.464  0.1779  1.8274 -0.4289
 6300TIP3   OH218863   2.022   5.791   2.328  0.2752 -0.0079 -0.2811
 6300TIP3    H118864   1.991   5.732   2.259  0.9012 -0.3765 -0.2521
 6300TIP3    H218865   1.953   5.857   2.335 -0.3481 -0.6226 -0.4491
 6301TIP3   OH218866   2.385   4.667   3.470  0.2698  0.5100  0.0274
 6301TIP3    H118867   2.412   4.677   3.561  1.0477 -0.3129 -0.1010
 6301TIP3    H218868   2.359   4.576   3.462  2.5861 -0.1401 -1.1410
 6302TIP3   OH218869   6.628   1.209   5.453 -0.2297  0.4392 -0.7046
 6302TIP3    H118870   6.677   1.133   5.485 -0.0602  0.7429 -0.2325
 6302TIP3    H218871   6.606   1.187   5.363 -1.5336 -0.8522 -0.1035
 6303TIP3   OH218872   1.047   3.561   4.158 -0.7750  0.3353 -0.9309
 6303TIP3    H118873   0.961   3.580   4.122 -0.2457  2.7894 -1.1116
 6303TIP3    H218874   1.047   3.604   4.243  0.6204  1.4079 -1.4295
 6304TIP3   OH218875   1.400   0.074   2.293  0.2007  0.0854  0.6086
 6304TIP3    H118876   1.448   0.068   2.211 -0.9312 -1.3096 -0.0012
 6304TIP3    H218877   1.309   0.089   2.267 -0.2291 -0.7054  1.5653
 6305TIP3   OH218878   5.354   1.823   2.259  0.1141  0.3208  0.4586
 6305TIP3    H118879   5.377   1.906   2.302  0.9723 -0.8158  2.3396
 6305TIP3    H218880   5.284   1.787   2.313 -3.0263  1.4740 -2.4935
 6306TIP3   OH218881   4.550   0.893   0.822 -0.3615 -0.5155 -0.4800
 6306TIP3    H118882   4.503   0.922   0.744 -0.0098  0.0264 -0.4933
 6306TIP3    H218883   4.519   0.950   0.892  1.4164  0.9489 -0.7955
 6307TIP3   OH218884   5.285   1.443   4.727 -0.4814 -0.2898 -0.0518
 6307TIP3    H118885   5.198   1.417   4.757  0.1648 -0.8481  1.4146
 6307TIP3    H218886   5.288   1.538   4.739 -0.1423 -0.5295  2.0109
 6308TIP3   OH218887   4.512   2.335   3.229  0.3337 -0.0947  0.0264
 6308TIP3    H118888   4.586   2.372   3.277  0.4643  0.1273 -0.3401
 6308TIP3    H218889   4.499   2.395   3.156 -0.2025 -0.1403  0.0857
 6309TIP3   OH218890   6.736   3.033   5.849  0.1606  0.0383  0.2854
 6309TIP3    H118891   6.765   3.122   5.869  1.3143 -0.1245 -0.6050
 6309TIP3    H218892   6.815   2.980   5.855 -0.1902 -0.6382 -0.8657
 6310TIP3   OH218893   0.919   6.004   3.532 -0.6196 -0.3201  0.1871
 6310TIP3    H118894   1.002   6.047   3.512  0.1723 -2.0361 -0.3899
 6310TIP3    H218895   0.922   5.988   3.626  0.7981 -2.4345 -0.1553
 6311TIP3   OH218896   0.523   0.538   2.645  0.1797  0.1270 -0.8064
 6311TIP3    H118897   0.550   0.486   2.721 -0.2950 -0.1195 -0.8026
 6311TIP3    H218898   0.525   0.629   2.677 -0.6105 -0.0204 -0.3096
 6312TIP3   OH218899   0.246   1.465   2.916  0.3553 -0.2605 -0.5518
 6312TIP3    H118900   0.190   1.450   2.839  0.2230 -0.6200 -0.3878
 6312TIP3    H218901   0.334   1.479   2.879  0.0559  0.9757 -0.8561
 6313TIP3   OH218902   3.963   0.359   2.853 -0.1652 -0.5463 -0.2463
 6313TIP3    H118903   3.889   0.376   2.911  0.1064 -0.2545  0.0186
 6313TIP3    H218904   3.981   0.266   2.862  0.9039 -0.2195  1.3763
 6314TIP3   OH218905   0.449   2.315   3.388 -0.1841 -0.4476  0.1954
 6314TIP3    H118906   0.387   2.268   3.443  0.5377 -1.8276 -0.1216
 6314TIP3    H218907   0.414   2.404   3.382 -2.6692 -1.3968 -0.7880
 6315TIP3   OH218908   6.912   2.583   5.577 -0.1087  0.7736  0.4118
 6315TIP3    H118909   6.972   2.563   5.505  1.5565  0.0076  1.9255
 6315TIP3    H218910   6.849   2.644   5.539  1.2493  1.1173 -1.4505
 6316TIP3   OH218911   5.189   6.377   5.433  0.3647 -0.2510 -0.1588
 6316TIP3    H118912   5.130   6.355   5.504  0.2626  0.4976  0.0015
 6316TIP3    H218913   5.271   6.401   5.476  0.2491  0.3709 -0.2775
 6317TIP3   OH218914   3.100   5.884   3.610  0.0932 -0.2483 -0.3103
 6317TIP3    H118915   3.161   5.860   3.680 -0.2255  1.2164  0.5015
 6317TIP3    H218916   3.136   5.964   3.572 -0.9372  0.2614 -0.2709
 6318TIP3   OH218917   4.722   0.857   3.065  0.2533  0.3310  0.2988
 6318TIP3    H118918   4.665   0.787   3.035  0.7619  0.2342 -0.4687
 6318TIP3    H218919   4.692   0.935   3.018  1.3771  0.0759 -0.9121
 6319TIP3   OH218920   3.660   0.964   4.179  0.5989  0.0254 -0.2733
 6319TIP3    H118921   3.617   0.880   4.167  2.5038 -1.3692  1.9694
 6319TIP3    H218922   3.604   1.012   4.241  1.1953 -1.0007  1.1063
 6320TIP3   OH218923   0.669  -0.001   3.541 -0.3881  0.5453  0.5835
 6320TIP3    H118924   0.648   0.082   3.497 -1.1178 -0.1382 -0.3951
 6320TIP3    H218925   0.597  -0.016   3.601  0.2792  1.1375  1.5760
 6321TIP3   OH218926   6.986   2.009   4.110  0.0943  0.7750 -0.1506
 6321TIP3    H118927   7.035   2.042   4.185 -0.2640  0.9288  0.0208
 6321TIP3    H218928   6.987   1.914   4.121 -1.9009  0.8369  1.3506
 6322TIP3   OH218929   3.292   4.278   4.776  0.3325  1.0989  0.2571
 6322TIP3    H118930   3.322   4.354   4.826  1.5594  1.0304 -0.3166
 6322TIP3    H218931   3.201   4.298   4.754  0.4263  2.0910  0.7086
 6323TIP3   OH218932   3.965   6.432   0.515 -0.5724  0.4513 -0.0841
 6323TIP3    H118933   3.925   6.435   0.429  0.8945  1.1091 -0.7738
 6323TIP3    H218934   3.989   6.523   0.535 -0.3016  0.2186  0.7258
 6324TIP3   OH218935   6.318   4.708   2.774 -0.0962  0.0505  0.2133
 6324TIP3    H118936   6.371   4.641   2.816 -0.5444 -0.0269  0.6603
 6324TIP3    H218937   6.374   4.742   2.704  0.6211  0.1183  0.8099
 6325TIP3   OH218938   5.159   5.314   0.679  0.2618  0.3151  0.0756
 6325TIP3    H118939   5.134   5.406   0.675 -3.4196 -0.4976  0.9103
 6325TIP3    H218940   5.178   5.291   0.588 -2.0490  1.1710 -0.6887
 6326TIP3   OH218941   2.524   6.084   3.518 -0.0458  0.0532  0.4676
 6326TIP3    H118942   2.452   6.093   3.580  0.9597 -0.2107  1.7179
 6326TIP3    H218943   2.482   6.084   3.432 -1.4947  0.2223  1.1477
 6327TIP3   OH218944   5.317   4.622   0.925  0.1133  0.0652 -0.0002
 6327TIP3    H118945   5.327   4.538   0.881  0.8147 -0.4515  1.1098
 6327TIP3    H218946   5.375   4.617   1.001 -0.1740  1.3794  0.3387
 6328TIP3   OH218947   6.726   3.112   3.716 -0.3508 -0.7306  0.6338
 6328TIP3    H118948   6.696   3.061   3.791 -2.2838  0.7342  0.9193
 6328TIP3    H218949   6.687   3.069   3.641  0.2573 -1.2366  0.5949
 6329TIP3   OH218950   2.452   2.169   0.819 -0.3455 -0.2715  0.0588
 6329TIP3    H118951   2.407   2.140   0.740 -0.7157 -1.5721  0.7288
 6329TIP3    H218952   2.499   2.248   0.792 -1.2600 -0.1351 -1.2005
 6330TIP3   OH218953   6.069   5.451   4.280 -0.5343 -0.4448 -0.3080
 6330TIP3    H118954   6.038   5.398   4.354  0.7725 -1.1875 -0.2651
 6330TIP3    H218955   6.050   5.541   4.307  0.8263 -0.6127  1.4291
 6331TIP3   OH218956   3.033   4.217   5.776  0.3735 -0.3606  0.3723
 6331TIP3    H118957   2.971   4.186   5.709 -0.5416 -0.8210  1.4059
 6331TIP3    H218958   2.981   4.222   5.856  1.3024  0.7783  0.9382
 6332TIP3   OH218959   6.275   4.956   2.967  0.0251 -0.2051  0.2020
 6332TIP3    H118960   6.343   5.013   2.931 -1.2073  0.4724 -1.1588
 6332TIP3    H218961   6.286   4.873   2.920  0.2082 -0.2562  0.3341
 6333TIP3   OH218962   5.991   1.216   0.347 -0.3402  0.2952 -0.0255
 6333TIP3    H118963   5.958   1.297   0.309  0.4558  0.2883 -0.7777
 6333TIP3    H218964   5.919   1.154   0.339 -0.5329  0.5862 -0.6049
 6334TIP3   OH218965   4.377   3.733   0.948  0.0079 -0.0568 -0.5120
 6334TIP3    H118966   4.371   3.739   1.043  1.4388 -2.0814 -0.2302
 6334TIP3    H218967   4.290   3.759   0.916 -0.9136 -0.6069  1.4114
 6335TIP3   OH218968   4.585   1.426   1.758 -0.2638 -0.2389 -0.4013
 6335TIP3    H118969   4.632   1.390   1.834 -1.2322  0.1606  0.4059
 6335TIP3    H218970   4.588   1.356   1.693 -1.2267 -1.4240  0.7682
 6336TIP3   OH218971   3.837   3.480   3.886 -0.5524  0.3474  0.1803
 6336TIP3    H118972   3.749   3.479   3.924  0.3647 -0.4531  2.3946
 6336TIP3    H218973   3.854   3.572   3.868 -0.8958  0.8377  2.1442
 6337TIP3   OH218974   5.526   0.450   3.385  0.3044 -0.2785 -0.0813
 6337TIP3    H118975   5.522   0.409   3.471 -0.3787  2.2595  1.2062
 6337TIP3    H218976   5.438   0.441   3.349  0.2738 -0.3194  0.0053
 6338TIP3   OH218977   6.754   2.022   2.088 -0.5544 -0.5164 -0.0305
 6338TIP3    H118978   6.668   2.010   2.048  0.1951  2.1613 -2.8421
 6338TIP3    H218979   6.816   2.011   2.016  1.2411  0.3538  1.2932
 6339TIP3   OH218980   1.205   0.554   4.915  0.4193  0.2498  0.3134
 6339TIP3    H118981   1.170   0.640   4.938  0.7585  0.5205 -0.1711
 6339TIP3    H218982   1.231   0.562   4.824  1.6573  0.0374  0.6263
 6340TIP3   OH218983   4.299   5.385   0.226  0.3726 -0.1300 -0.1868
 6340TIP3    H118984   4.283   5.449   0.156  1.6937  0.3143 -0.0967
 6340TIP3    H218985   4.253   5.306   0.197 -2.3314  1.1625  0.2578
 6341TIP3   OH218986   3.009   5.602   1.276  0.0289  0.4821 -0.0797
 6341TIP3    H118987   2.922   5.616   1.314 -1.0612 -0.6116 -2.0269
 6341TIP3    H218988   3.069   5.629   1.345 -1.8261  0.1018  1.7989
 6342TIP3   OH218989   4.561   6.386   4.505 -0.8995  0.2017 -0.0143
 6342TIP3    H118990   4.533   6.408   4.593 -0.7779 -2.1130  0.6864
 6342TIP3    H218991   4.657   6.387   4.509 -0.8681 -1.3174  0.3432
 6343TIP3   OH218992   0.708   0.803   2.616 -0.3022  0.6171 -0.3936
 6343TIP3    H118993   0.747   0.879   2.573  0.0854 -0.2635 -1.6684
 6343TIP3    H218994   0.668   0.754   2.545  0.4709 -0.9723  0.2137
 6344TIP3   OH218995   1.369   1.626   2.462 -0.0900  0.7422 -0.4420
 6344TIP3    H118996   1.396   1.692   2.398  3.0802  1.2652  1.2445
 6344TIP3    H218997   1.450   1.580   2.485 -0.8913  0.9936  3.5763
 6345TIP3   OH218998   3.177   1.780   5.461 -0.5974 -0.1588 -0.2200
 6345TIP3    H118999   3.152   1.813   5.547 -0.9203  1.7835 -0.9924
 6345TIP3    H219000   3.271   1.797   5.454 -0.3152 -1.4707  0.2070
 6346TIP3   OH219001   2.236   3.823   3.755 -0.3764  0.1193  0.3189
 6346TIP3    H119002   2.280   3.887   3.810 -0.4400 -0.0219  0.5352
 6346TIP3    H219003   2.296   3.810   3.681 -0.5733  0.7568  0.0482
 6347TIP3   OH219004   0.198   1.455   1.272  0.2753 -0.4325 -0.5430
 6347TIP3    H119005   0.104   1.460   1.289  0.5446  0.3591  0.8394
 6347TIP3    H219006   0.218   1.535   1.223  0.3152 -0.3672 -0.4192
 6348TIP3   OH219007   0.681   3.715   3.095 -0.3552 -0.4993  0.3642
 6348TIP3    H119008   0.702   3.641   3.152 -0.3069 -0.9947 -0.2805
 6348TIP3    H219009   0.690   3.680   3.006  1.7214  0.8317 -0.0107
 6349TIP3   OH219010   1.276   3.405   0.014  0.1194 -0.3485 -0.2240
 6349TIP3    H119011   1.212   3.474   0.029  0.9409  0.2803  0.5193
 6349TIP3    H219012   1.226   3.334  -0.026 -1.2702 -0.3019  1.3055
 6350TIP3   OH219013   7.133   3.567   0.722 -0.6855 -0.6595 -0.4352
 6350TIP3    H119014   7.055   3.544   0.773 -1.0850  0.6781 -0.4102
 6350TIP3    H219015   7.168   3.483   0.693 -2.3566 -1.2850 -0.7790
 6351TIP3   OH219016   2.142   6.191   1.051  0.1249  0.2941 -0.4713
 6351TIP3    H119017   2.089   6.197   1.131  1.0074 -0.7169  0.2160
 6351TIP3    H219018   2.175   6.280   1.037  1.2732  0.1746  1.2326
 6352TIP3   OH219019   1.126   5.038   5.697 -0.0605 -0.4931  0.1785
 6352TIP3    H119020   1.159   5.121   5.661 -0.0962 -0.9979 -1.0814
 6352TIP3    H219021   1.183   5.020   5.772  1.6178 -0.5842 -1.0561
 6353TIP3   OH219022   0.477   3.880   2.800 -0.1789 -0.0828 -0.3050
 6353TIP3    H119023   0.509   3.794   2.774 -0.4494 -0.1370 -0.4581
 6353TIP3    H219024   0.390   3.864   2.837  0.5440 -0.1248  1.4598
 6354TIP3   OH219025   0.612   3.769   4.536  0.1577 -0.2117 -0.1425
 6354TIP3    H119026   0.679   3.790   4.600 -1.6578  1.0602  1.4642
 6354TIP3    H219027   0.560   3.849   4.529 -2.2077 -1.6340  0.0340
 6355TIP3   OH219028   4.809   2.822   4.064  0.1459  0.3785 -0.0796
 6355TIP3    H119029   4.779   2.842   3.976 -0.9575  1.5795  0.5243
 6355TIP3    H219030   4.767   2.739   4.086 -0.2015  0.4671 -0.4039
 6356TIP3   OH219031   3.031   2.748   1.302  0.2884  0.3621 -0.0147
 6356TIP3    H119032   3.011   2.838   1.275  0.7843  2.2873  4.9647
 6356TIP3    H219033   2.946   2.707   1.316 -0.0087  1.1531  0.5710
 6357TIP3   OH219034   5.448   2.922   3.818  0.0042 -0.7102 -0.4279
 6357TIP3    H119035   5.498   3.003   3.825 -1.2400  0.1183 -0.6734
 6357TIP3    H219036   5.468   2.888   3.731 -0.6444  0.1729 -0.9417
 6358TIP3   OH219037   4.733   0.818   5.213 -0.2198 -0.0073  0.1629
 6358TIP3    H119038   4.713   0.728   5.185  0.4754  0.1421 -0.8635
 6358TIP3    H219039   4.791   0.852   5.145  0.0886  0.9925  0.9034
 6359TIP3   OH219040   3.691   1.916   5.791  0.2611  0.1629  0.3112
 6359TIP3    H119041   3.747   1.951   5.722  0.4695 -1.8743 -0.6309
 6359TIP3    H219042   3.750   1.898   5.864  0.4168  0.2676  0.2108
 6360TIP3   OH219043   4.516   4.932   4.900 -0.4547  0.0375 -0.5841
 6360TIP3    H119044   4.476   5.018   4.897 -0.8428 -0.1654 -1.9956
 6360TIP3    H219045   4.472   4.887   4.973 -2.4858  0.0008 -1.7548
 6361TIP3   OH219046   1.843   5.744   5.159 -0.1489 -0.7345 -0.4316
 6361TIP3    H119047   1.876   5.810   5.219  0.4051 -0.9175 -0.5291
 6361TIP3    H219048   1.752   5.769   5.143  0.1128  0.1268 -0.6332
 6362TIP3   OH219049   0.684   6.101   3.948  0.1885 -0.3277  0.6589
 6362TIP3    H119050   0.705   6.172   4.009 -1.4420  0.3200  0.5415
 6362TIP3    H219051   0.745   6.112   3.876  0.3293  0.6329  0.9093
 6363TIP3   OH219052   1.726   3.232   3.276 -0.0638 -0.2208  0.5075
 6363TIP3    H119053   1.815   3.245   3.242  0.0447 -2.5915 -0.2848
 6363TIP3    H219054   1.734   3.157   3.336 -1.7906 -1.6373 -0.9294
 6364TIP3   OH219055   5.611   0.367   0.073  0.8909  0.4567  0.3389
 6364TIP3    H119056   5.560   0.437   0.113  0.0290  0.3897 -0.5901
 6364TIP3    H219057   5.618   0.392  -0.019 -0.6965 -1.3406 -0.3403
 6365TIP3   OH219058   1.043   2.269   2.686 -0.0749 -0.0584  0.2417
 6365TIP3    H119059   1.033   2.186   2.732  2.4173  0.1511  1.3137
 6365TIP3    H219060   1.003   2.255   2.601 -2.3335 -1.3663  1.4400
 6366TIP3   OH219061   0.234   2.708   4.354 -0.1566  0.3486  0.3697
 6366TIP3    H119062   0.324   2.732   4.376  0.6283 -2.8575  1.0638
 6366TIP3    H219063   0.213   2.765   4.280  2.2532  1.5239  0.4649
 6367TIP3   OH219064   6.430   4.835   4.030 -0.0961 -0.3164  0.1445
 6367TIP3    H119065   6.375   4.834   4.108 -1.4087  1.3790 -0.6826
 6367TIP3    H219066   6.452   4.927   4.018  1.5698 -0.7607 -0.5194
 6368TIP3   OH219067   2.373   1.420   4.402 -0.7023 -0.2967  0.1864
 6368TIP3    H119068   2.280   1.413   4.423 -0.6962  1.1406  0.8127
 6368TIP3    H219069   2.393   1.513   4.412  0.9385 -0.6629  0.6501
 6369TIP3   OH219070   2.071   0.881   3.569  0.7642  0.6953  0.1949
 6369TIP3    H119071   2.153   0.831   3.559 -0.0354 -0.3699 -1.4158
 6369TIP3    H219072   2.016   0.825   3.624 -0.7655 -1.2151 -2.9531
 6370TIP3   OH219073   2.795   0.514   1.354  0.4164  0.0442  0.3100
 6370TIP3    H119074   2.884   0.510   1.317  0.4030  5.2293 -1.0746
 6370TIP3    H219075   2.782   0.606   1.375 -4.4298 -0.5692  1.1965
 6371TIP3   OH219076   6.827   1.289   0.325  0.1828  0.0167 -0.4395
 6371TIP3    H119077   6.915   1.266   0.296 -0.1274 -0.5838 -0.9530
 6371TIP3    H219078   6.770   1.231   0.273 -0.5366  0.7715 -0.5024
 6372TIP3   OH219079   1.276   6.169   2.724 -0.0692 -0.1444 -0.2490
 6372TIP3    H119080   1.204   6.138   2.669 -1.8035  0.4469  1.5660
 6372TIP3    H219081   1.263   6.124   2.808  1.1264  0.7149  0.4250
 6373TIP3   OH219082   1.798   3.195   1.195  0.3476  0.0960 -0.1374
 6373TIP3    H119083   1.749   3.152   1.265 -0.1431  0.5923 -0.1728
 6373TIP3    H219084   1.791   3.134   1.121 -2.4394  1.2415 -0.9766
 6374TIP3   OH219085   2.435   1.129   1.770 -0.1667  0.5390 -0.8449
 6374TIP3    H119086   2.480   1.049   1.741 -1.3964  0.4954 -2.7931
 6374TIP3    H219087   2.474   1.148   1.856  1.0698 -1.4149 -0.9015
 6375TIP3   OH219088   4.496   2.373   5.325 -0.5848  0.3434 -0.0964
 6375TIP3    H119089   4.468   2.310   5.259  0.2732 -0.3946  0.2300
 6375TIP3    H219090   4.414   2.403   5.365 -0.9593 -1.8587  0.9188
 6376TIP3   OH219091   5.554   2.577   2.426 -0.1893 -0.0161  0.0784
 6376TIP3    H119092   5.642   2.571   2.463 -0.2270 -1.2325  0.0114
 6376TIP3    H219093   5.503   2.513   2.474 -0.8603  0.1625 -0.3823
 6377TIP3   OH219094   0.210   2.088   4.095 -0.0566  0.1235 -0.0701
 6377TIP3    H119095   0.194   2.140   4.174 -0.0527 -1.9155  1.3631
 6377TIP3    H219096   0.305   2.075   4.094 -0.2130 -1.2888  0.6173
 6378TIP3   OH219097   6.745   3.247   0.576  0.0047 -0.3670 -0.1589
 6378TIP3    H119098   6.827   3.296   0.580  0.6457 -1.1739 -2.0683
 6378TIP3    H219099   6.767   3.168   0.526 -1.4492 -1.6523  1.1463
 6379TIP3   OH219100   6.840   4.175   0.350  0.1096  0.1559  0.2829
 6379TIP3    H119101   6.800   4.227   0.420 -0.3914 -0.3299  0.3604
 6379TIP3    H219102   6.861   4.092   0.391 -2.0854 -0.9301 -0.6046
 6380TIP3   OH219103   5.980   3.662   3.609 -0.9878  0.5580 -0.0380
 6380TIP3    H119104   5.906   3.719   3.589 -1.0761  0.3225 -0.3969
 6380TIP3    H219105   6.008   3.628   3.524 -2.7366 -2.1824  0.3392
 6381TIP3   OH219106   2.639   1.378   1.201 -0.0094 -0.1707  0.2015
 6381TIP3    H119107   2.651   1.467   1.235  2.3669 -0.6208  0.6822
 6381TIP3    H219108   2.632   1.323   1.279 -1.4825 -0.4425 -0.0946
 6382TIP3   OH219109   0.959   1.960   2.199  0.0879  0.2427 -0.8163
 6382TIP3    H119110   0.936   2.045   2.162 -0.1563  1.3078  1.5909
 6382TIP3    H219111   1.045   1.974   2.237  0.3648 -0.8278 -1.0370
 6383TIP3   OH219112   4.625   0.078   3.889 -0.1986  0.2937 -0.2990
 6383TIP3    H119113   4.590   0.046   3.806 -0.6224  1.6238 -0.6511
 6383TIP3    H219114   4.677   0.155   3.866 -0.9229  1.1283  0.7239
 6384TIP3   OH219115   4.506   5.503   3.971 -0.3193 -0.1937 -0.4089
 6384TIP3    H119116   4.535   5.543   3.888 -1.0181  0.7742 -0.2039
 6384TIP3    H219117   4.587   5.483   4.017  0.0817 -0.8251 -1.3579
 6385TIP3   OH219118   7.040   4.616   3.730  0.0291 -0.4256  0.4800
 6385TIP3    H119119   6.964   4.558   3.738  1.1230 -1.7142  2.4647
 6385TIP3    H219120   7.006   4.703   3.748 -1.5431 -0.4522 -1.9694
 6386TIP3   OH219121   4.349   6.212   1.753  0.1971 -0.3903 -0.5042
 6386TIP3    H119122   4.341   6.135   1.696  2.0359 -0.3204 -0.8960
 6386TIP3    H219123   4.352   6.176   1.841 -0.6116 -0.6379 -0.5668
 6387TIP3   OH219124   1.266   4.653   0.080  0.3093 -0.3330 -0.1644
 6387TIP3    H119125   1.242   4.745   0.070 -0.2880 -0.5173 -0.4739
 6387TIP3    H219126   1.237   4.630   0.168  0.9318 -0.0880  0.1085
 6388TIP3   OH219127   0.324   5.101   4.749 -0.4226  0.2531 -0.6857
 6388TIP3    H119128   0.298   5.183   4.791  0.1694  0.1681 -0.1396
 6388TIP3    H219129   0.418   5.110   4.736 -0.1033 -0.8807  0.6323
 6389TIP3   OH219130   3.485   0.727   1.003 -0.3844  0.6469  0.0981
 6389TIP3    H119131   3.507   0.728   1.097 -3.7825 -1.8249  1.1327
 6389TIP3    H219132   3.443   0.811   0.987 -0.8816  0.6169  1.1626
 6390TIP3   OH219133   6.766   4.665   5.842  0.2692  0.4018  0.2728
 6390TIP3    H119134   6.785   4.758   5.854  1.2985  0.2109  0.2889
 6390TIP3    H219135   6.672   4.660   5.826 -0.0156  1.3265  1.5126
 6391TIP3   OH219136   0.065   1.686   0.656 -0.1380 -0.7245  0.2946
 6391TIP3    H119137   0.030   1.766   0.618  1.1243 -0.2339  0.0973
 6391TIP3    H219138  -0.006   1.622   0.648 -0.4015 -0.2499 -1.6106
 6392TIP3   OH219139   0.983   5.543   4.861 -0.0877  0.2718  0.3404
 6392TIP3    H119140   0.903   5.496   4.887  0.3642 -0.6282  0.1154
 6392TIP3    H219141   1.009   5.502   4.779 -0.1717  1.5103 -0.3181
 6393TIP3   OH219142   5.877   0.951   5.067  0.7112 -0.1384  0.1020
 6393TIP3    H119143   5.805   0.940   5.129 -0.3866 -1.7164 -1.3562
 6393TIP3    H219144   5.881   1.046   5.052 -0.8371  0.0253  0.5150
 6394TIP3   OH219145   2.006   0.164   4.510  0.0351  0.1397  0.0043
 6394TIP3    H119146   2.053   0.086   4.540  1.2907  1.0513  0.4847
 6394TIP3    H219147   1.919   0.132   4.487 -0.2610 -1.0228  2.4654
 6395TIP3   OH219148   6.195   4.651   0.124  0.5336 -0.7019 -0.3076
 6395TIP3    H119149   6.121   4.596   0.097 -1.9372  0.6745  3.0507
 6395TIP3    H219150   6.191   4.726   0.064 -1.7838  0.0304  0.6521
 6396TIP3   OH219151   1.954   1.133   5.456  0.0389 -0.1758 -0.2544
 6396TIP3    H119152   1.896   1.151   5.382 -0.5876 -0.4684  0.1487
 6396TIP3    H219153   1.982   1.219   5.487 -1.0887  0.0386  0.2328
 6397TIP3   OH219154   6.913   3.621   0.263  0.1365  0.0619 -0.2672
 6397TIP3    H119155   6.934   3.533   0.231 -2.9331 -0.6885 -0.5626
 6397TIP3    H219156   6.939   3.679   0.191  0.6513 -0.7860 -0.7819
 6398TIP3   OH219157   6.307   2.375   0.502  0.1287  0.2705  0.1114
 6398TIP3    H119158   6.260   2.418   0.574  1.0734 -0.7307  1.3848
 6398TIP3    H219159   6.282   2.424   0.424 -1.5186  0.9511  1.0059
 6399TIP3   OH219160   0.496   3.201   0.790 -0.5986  0.1296  0.6790
 6399TIP3    H119161   0.422   3.259   0.777 -0.9471  0.4214  3.3938
 6399TIP3    H219162   0.559   3.253   0.840  1.0066 -0.4666 -0.6274
 6400TIP3   OH219163   3.799   1.008   5.581  0.2948 -0.2189 -0.4049
 6400TIP3    H119164   3.854   0.930   5.582 -0.9447 -1.1850 -2.1185
 6400TIP3    H219165   3.734   0.992   5.649  0.4180 -0.3961 -0.3294
 6401TIP3   OH219166   2.693   2.715   4.970 -0.1091  0.5012  0.0746
 6401TIP3    H119167   2.685   2.807   4.944 -0.0007 -0.0687 -2.1287
 6401TIP3    H219168   2.604   2.680   4.963  0.1115  0.0694 -0.5777
 6402TIP3   OH219169   0.179   1.392   2.054 -0.1472 -0.5827  0.1689
 6402TIP3    H119170   0.124   1.383   2.133 -0.8575 -0.3278 -0.2807
 6402TIP3    H219171   0.239   1.318   2.058 -1.1135 -1.3899  0.2204
 6403TIP3   OH219172   1.806   1.320   0.021 -0.2388 -0.7507 -0.2897
 6403TIP3    H119173   1.732   1.380   0.028 -0.4805 -1.1926  1.7538
 6403TIP3    H219174   1.773   1.237   0.057  1.4438 -0.7097  1.5835
 6404TIP3   OH219175   5.747   1.806   0.117 -0.2348 -0.0180  0.5707
 6404TIP3    H119176   5.683   1.841   0.178 -0.1095  1.0448  0.1060
 6404TIP3    H219177   5.799   1.745   0.170 -1.2843 -0.5109  1.0670
 6405TIP3   OH219178   6.990   3.622   2.797 -0.0647 -0.1230  0.2655
 6405TIP3    H119179   6.924   3.615   2.728 -1.1616 -0.9545  1.3316
 6405TIP3    H219180   7.006   3.532   2.824  0.7657  0.1442  0.7076
 6406TIP3   OH219181   0.264   6.546   4.983  0.3639 -0.1679 -0.1741
 6406TIP3    H119182   0.290   6.562   5.073 -0.2297 -3.2675  0.6344
 6406TIP3    H219183   0.260   6.634   4.943  1.7329  1.1790  2.4507
 6407TIP3   OH219184   3.811   0.785   2.050  0.6115 -0.4432 -0.2134
 6407TIP3    H119185   3.894   0.759   2.089  1.1957  1.7911  0.2239
 6407TIP3    H219186   3.830   0.871   2.011 -1.5442  0.2616  0.1580
 6408TIP3   OH219187   1.809   4.070   2.703 -0.6248 -0.2439  0.1720
 6408TIP3    H119188   1.831   3.981   2.728  1.8960  0.0840 -0.5456
 6408TIP3    H219189   1.759   4.061   2.622  1.9095 -1.0384 -1.4222
 6409TIP3   OH219190   4.899   3.822   5.730  0.3076 -0.1421  0.5118
 6409TIP3    H119191   4.811   3.784   5.722  0.4681 -0.1389 -1.7619
 6409TIP3    H219192   4.884   3.916   5.733  0.2167 -0.1637  0.8805
 6410TIP3   OH219193   2.008   3.582   2.864  0.6518 -0.3263  0.2186
 6410TIP3    H119194   2.078   3.525   2.897  1.2297  0.3620  0.1903
 6410TIP3    H219195   1.986   3.638   2.938 -0.6302 -1.2442  0.5685
 6411TIP3   OH219196   6.144   5.974   0.573 -0.0976  0.1768 -0.5061
 6411TIP3    H119197   6.149   5.937   0.661 -0.2584 -1.8110 -1.2672
 6411TIP3    H219198   6.072   5.926   0.532  1.0300 -0.1505 -2.2217
 6412TIP3   OH219199   4.592   0.041   0.370 -0.0106  0.2587 -0.9776
 6412TIP3    H119200   4.496   0.045   0.369 -0.0250  0.6301  0.2822
 6412TIP3    H219201   4.613  -0.004   0.452  0.8968  0.2370 -1.2131
 6413TIP3   OH219202   4.915   0.244   0.973 -0.2471 -0.5317 -0.4141
 6413TIP3    H119203   4.988   0.264   0.914  1.4403  0.9024  1.9875
 6413TIP3    H219204   4.846   0.212   0.915  1.1103  1.1985 -3.2239
 6414TIP3   OH219205   2.427   6.620   5.010 -0.1416  1.0057  0.3249
 6414TIP3    H119206   2.391   6.545   4.963 -1.0171  1.7382 -0.2124
 6414TIP3    H219207   2.522   6.612   4.999 -0.1096 -0.7272  1.4010
 6415TIP3   OH219208   3.629   5.515   4.846 -0.8242 -0.0153  0.4471
 6415TIP3    H119209   3.548   5.557   4.874 -3.4162 -3.3569 -1.1751
 6415TIP3    H219210   3.628   5.430   4.890  0.3239 -1.2460 -1.7467
 6416TIP3   OH219211   6.944   6.746   4.648  0.1985 -0.4114 -0.3508
 6416TIP3    H119212   6.963   6.654   4.669  1.2845 -0.8046 -2.7285
 6416TIP3    H219213   7.014   6.772   4.588 -1.2268  1.3366 -1.3632
 6417TIP3   OH219214   1.799   2.605   3.904  0.2813 -0.0528 -0.0226
 6417TIP3    H119215   1.740   2.578   3.975  0.2513  2.0146  0.7978
 6417TIP3    H219216   1.886   2.583   3.935  0.1186 -1.4073 -0.4432
 6418TIP3   OH219217   0.037   1.796   3.785 -0.4595  0.4057  0.2310
 6418TIP3    H119218   0.081   1.879   3.801  0.5653  0.1346 -1.0101
 6418TIP3    H219219   0.014   1.798   3.692 -0.7830 -0.5266  0.2745
 6419TIP3   OH219220   1.778   1.514   5.545  0.3262 -0.0383 -0.0563
 6419TIP3    H119221   1.757   1.516   5.639  1.7773  0.6747  0.2803
 6419TIP3    H219222   1.740   1.432   5.514 -1.1811  0.2527  0.9002
 6420TIP3   OH219223   0.817   0.824   4.787  0.2090  0.4445  0.1928
 6420TIP3    H119224   0.727   0.841   4.815  0.9115  0.2368  2.8091
 6420TIP3    H219225   0.856   0.911   4.782 -0.6572  0.7686 -3.2802
 6421TIP3   OH219226   6.446   3.689   1.510  0.4605 -0.6380 -0.0320
 6421TIP3    H119227   6.513   3.737   1.558 -1.7380  2.4866  0.2135
 6421TIP3    H219228   6.364   3.712   1.554 -1.1575 -1.3751 -2.4675
 6422TIP3   OH219229   7.136   4.994   2.269 -0.4195 -0.3430 -0.0066
 6422TIP3    H119230   7.229   4.991   2.246 -0.5457  0.0055 -0.5932
 6422TIP3    H219231   7.127   5.072   2.324 -0.0128 -1.4943  1.7709
 6423TIP3   OH219232   6.988   5.254   3.118 -0.6218 -0.0702 -0.5078
 6423TIP3    H119233   7.057   5.249   3.052 -0.9614 -0.8130 -0.8178
 6423TIP3    H219234   6.958   5.164   3.128 -1.2258  0.1761 -0.0249
 6424TIP3   OH219235   1.268   5.945   2.035  0.3489 -0.8953  0.4027
 6424TIP3    H119236   1.250   5.891   2.112  2.3296 -1.5434  0.4799
 6424TIP3    H219237   1.299   5.883   1.969  3.4565  0.1192  0.7485
 6425TIP3   OH219238   6.483   0.542   5.301  0.0000 -0.1051 -0.5431
 6425TIP3    H119239   6.410   0.480   5.302  0.2583 -0.4031 -0.1536
 6425TIP3    H219240   6.561   0.489   5.313  0.2080  0.3101 -0.0052
 6426TIP3   OH219241   2.466   5.104   4.551  0.4528  0.0527  0.5567
 6426TIP3    H119242   2.485   5.105   4.457 -0.8630 -0.3362  0.2694
 6426TIP3    H219243   2.379   5.065   4.558  0.5456  0.0305  1.9500
 6427TIP3   OH219244   4.023   5.935   2.160 -0.2792  0.3688 -0.4633
 6427TIP3    H119245   3.977   5.918   2.242  0.1256 -0.2112 -0.3486
 6427TIP3    H219246   3.972   5.889   2.094 -0.2759  0.3461 -0.4499
 6428TIP3   OH219247   4.599   5.516   4.678  0.2320  0.2819 -0.6037
 6428TIP3    H119248   4.598   5.421   4.693 -0.2700  0.3748 -0.0300
 6428TIP3    H219249   4.507   5.539   4.667  0.1627  1.0011  1.2016
 6429TIP3   OH219250   0.230   5.151   0.136 -0.3132 -0.6006  0.3737
 6429TIP3    H119251   0.175   5.072   0.136 -0.7537 -0.2990  0.8196
 6429TIP3    H219252   0.219   5.188   0.223  0.7479 -0.6284  0.5367
 6430TIP3   OH219253   2.527   2.872   3.014  0.1872 -0.2403 -0.0811
 6430TIP3    H119254   2.450   2.861   2.958  0.9847  0.5072 -1.3601
 6430TIP3    H219255   2.586   2.802   2.987  1.9938  2.1088 -2.6720
 6431TIP3   OH219256   4.718   4.882   1.635 -0.1588 -0.3715 -0.2613
 6431TIP3    H119257   4.768   4.820   1.582  0.6594 -2.1141  2.3644
 6431TIP3    H219258   4.784   4.930   1.684 -0.9296  0.0822  0.3558
 6432TIP3   OH219259   3.657   5.768   4.542  0.2912 -0.0803  0.1469
 6432TIP3    H119260   3.669   5.830   4.470  0.0829  0.2502  0.3933
 6432TIP3    H219261   3.657   5.822   4.621  1.3174 -0.5253  0.4644
 6433TIP3   OH219262   5.919   0.579   4.392  0.4488  0.2971  0.2751
 6433TIP3    H119263   6.009   0.549   4.405 -0.2712 -2.0711  0.3365
 6433TIP3    H219264   5.920   0.622   4.307  1.5833  0.0322  0.1439
 6434TIP3   OH219265   6.728   3.798   0.405 -0.2627  0.6778 -0.3082
 6434TIP3    H119266   6.749   3.716   0.360 -0.2376  0.4887  0.0434
 6434TIP3    H219267   6.661   3.839   0.351 -0.9558 -0.0204  0.0123
 6435TIP3   OH219268   3.552   3.227   5.209  0.1910  0.4033 -0.1785
 6435TIP3    H119269   3.601   3.169   5.150  0.7673  1.0456 -0.3420
 6435TIP3    H219270   3.565   3.190   5.296  0.3765  0.1653 -0.3059
 6436TIP3   OH219271   0.818   0.248   4.100 -0.7056 -0.4003  0.0894
 6436TIP3    H119272   0.750   0.205   4.048 -2.5533  0.3611  1.7636
 6436TIP3    H219273   0.832   0.331   4.056 -0.6875 -0.6522 -0.3883
 6437TIP3   OH219274   3.437   4.719   2.150 -0.5718  0.6329  0.0039
 6437TIP3    H119275   3.385   4.639   2.140  0.5619 -0.1907  0.4983
 6437TIP3    H219276   3.393   4.768   2.220  0.1580 -0.7866  1.5313
 6438TIP3   OH219277   0.036   0.479   5.649  0.0168 -0.2601 -0.3313
 6438TIP3    H119278   0.128   0.455   5.639 -0.4440 -1.9022 -0.9544
 6438TIP3    H219279   0.022   0.483   5.744  0.8659  0.6708 -0.2291
 6439TIP3   OH219280   3.608   5.832   0.660  0.4567  0.1291 -0.5616
 6439TIP3    H119281   3.662   5.781   0.720  0.6366  1.9564  0.9516
 6439TIP3    H219282   3.648   5.919   0.661  0.2493  0.3210 -3.1284
 6440TIP3   OH219283   0.539   4.563   5.289  0.3338 -0.7351 -0.3572
 6440TIP3    H119284   0.456   4.540   5.247 -0.3552 -0.7026  0.9384
 6440TIP3    H219285   0.566   4.644   5.245 -1.3458  0.3645  0.5254
 6441TIP3   OH219286   3.632   2.435   0.692  0.1035 -0.1919 -0.1017
 6441TIP3    H119287   3.552   2.398   0.729 -0.5137 -0.2654 -1.4410
 6441TIP3    H219288   3.676   2.361   0.651  0.0868  0.1010 -0.6691
 6442TIP3   OH219289   6.298   3.846   4.986 -0.4287  0.2898  0.3205
 6442TIP3    H119290   6.368   3.881   4.930  0.6159  0.7103  1.8360
 6442TIP3    H219291   6.217   3.876   4.944  0.2118 -0.8562 -1.9007
 6443TIP3   OH219292   0.744   1.542   3.535  0.0112  0.3484  0.6523
 6443TIP3    H119293   0.835   1.545   3.566  0.7109 -2.2193 -0.7957
 6443TIP3    H219294   0.699   1.485   3.598  0.1345 -0.6244 -0.1139
 6444TIP3   OH219295   0.935   1.964   5.832 -0.1441 -0.4599  0.0132
 6444TIP3    H119296   1.007   2.017   5.796 -0.8522  0.7778  0.3763
 6444TIP3    H219297   0.957   1.953   5.924 -0.2204 -0.4448  0.0329
 6445TIP3   OH219298   2.566   5.113   0.966  0.7048  0.4828 -0.1736
 6445TIP3    H119299   2.488   5.058   0.958  1.4196 -0.7556  0.9410
 6445TIP3    H219300   2.583   5.144   0.877 -0.4790 -0.0499 -0.5963
 6446TIP3   OH219301   5.888   2.594   5.677 -0.2444 -0.0641  0.4591
 6446TIP3    H119302   5.795   2.585   5.697  0.1289 -1.0536  1.8428
 6446TIP3    H219303   5.900   2.688   5.666 -0.9998  0.3231  2.4863
 6447TIP3   OH219304   3.520   2.268   4.766  0.2672 -0.4197  0.1624
 6447TIP3    H119305   3.490   2.356   4.745 -0.6032 -0.3032  1.7228
 6447TIP3    H219306   3.467   2.210   4.712 -1.0679 -0.0946  1.0878
 6448TIP3   OH219307   6.428   3.251   3.463  0.1530  0.4672  0.3212
 6448TIP3    H119308   6.351   3.198   3.443  0.7238  0.2658 -1.4729
 6448TIP3    H219309   6.497   3.187   3.482  1.0110  0.4292 -2.4608
 6449TIP3   OH219310   0.612   4.134   3.690 -0.1284 -0.2617  0.0275
 6449TIP3    H119311   0.539   4.155   3.632 -0.2587  0.6915  0.5252
 6449TIP3    H219312   0.574   4.130   3.777  0.3671 -0.0361  0.2600
 6450TIP3   OH219313   2.217   0.940   2.103  0.3180 -0.6119 -0.0209
 6450TIP3    H119314   2.241   1.023   2.062 -2.0820 -0.3984 -1.1872
 6450TIP3    H219315   2.211   0.878   2.031  0.8163 -1.4981  0.6796
 6451TIP3   OH219316   3.064   5.287   3.738 -0.6364 -0.1015  0.1941
 6451TIP3    H119317   3.142   5.241   3.709 -0.8550  0.5145 -1.5360
 6451TIP3    H219318   3.069   5.288   3.833  1.8295  0.5703  0.1059
 6452TIP3   OH219319   4.033   0.187   3.437 -0.5929 -0.1197  0.6470
 6452TIP3    H119320   4.080   0.258   3.482  1.3062 -1.0128  0.1734
 6452TIP3    H219321   3.940   0.205   3.456 -0.4632  3.8253 -1.3398
 6453TIP3   OH219322   5.301   3.470   2.654 -0.3166  0.3233 -0.1243
 6453TIP3    H119323   5.370   3.470   2.588 -0.6973 -2.0419 -0.6055
 6453TIP3    H219324   5.345   3.497   2.735  0.4844  1.7580 -0.9951
 6454TIP3   OH219325   0.673   6.680   2.718 -0.6598  0.0921  0.1010
 6454TIP3    H119326   0.704   6.590   2.715  0.1405  0.3481  0.2485
 6454TIP3    H219327   0.610   6.682   2.790  1.3017  0.2154  1.8941
 6455TIP3   OH219328   0.940   5.847   5.434 -0.1777 -0.2115 -0.1443
 6455TIP3    H119329   1.001   5.809   5.498 -1.1195 -0.5457  0.5806
 6455TIP3    H219330   0.918   5.774   5.377 -3.9185 -1.6408  2.7099
 6456TIP3   OH219331   5.415   6.363   0.519 -0.1513 -0.3482  0.5129
 6456TIP3    H119332   5.441   6.285   0.471 -0.7987 -0.5047  0.4022
 6456TIP3    H219333   5.371   6.330   0.597 -0.3717 -0.0953  0.4995
 6457TIP3   OH219334   5.765   1.660   4.431 -0.1974  0.2694  0.0572
 6457TIP3    H119335   5.695   1.648   4.496 -0.2227  0.5430  0.0808
 6457TIP3    H219336   5.788   1.752   4.437  0.4782  0.0862  0.3666
 6458TIP3   OH219337   6.538   1.764   3.083  0.4028  0.2360 -0.0313
 6458TIP3    H119338   6.613   1.731   3.132  1.3385  2.0371 -0.1603
 6458TIP3    H219339   6.522   1.851   3.119 -0.3848  0.6538 -1.3146
 6459TIP3   OH219340   0.310   2.143   1.909 -0.2206 -0.0719 -0.3607
 6459TIP3    H119341   0.342   2.127   1.997  0.2394 -2.4621 -0.8774
 6459TIP3    H219342   0.221   2.177   1.921 -0.0624 -0.0953  1.0236
 6460TIP3   OH219343   1.842   3.123   0.383 -0.2693 -0.3740  0.1898
 6460TIP3    H119344   1.838   3.142   0.289  0.8931 -0.5186  0.1054
 6460TIP3    H219345   1.917   3.173   0.415 -1.0198  0.1600  1.1695
 6461TIP3   OH219346   0.051   5.239   2.337  0.2260 -0.5355 -0.6586
 6461TIP3    H119347   0.129   5.202   2.379  0.0660 -1.9913 -1.5486
 6461TIP3    H219348   0.070   5.332   2.329  0.6089 -0.3404  1.8125
 6462TIP3   OH219349   3.105   6.741   4.015  0.1090 -0.2128 -0.2539
 6462TIP3    H119350   3.070   6.669   4.068 -0.0462 -0.6774 -0.9759
 6462TIP3    H219351   3.090   6.819   4.068 -0.0197 -0.6720  0.3979
 6463TIP3   OH219352   6.116   3.218   1.372  0.4641  0.7881  0.0090
 6463TIP3    H119353   6.147   3.256   1.289  1.5424 -1.9879 -0.9930
 6463TIP3    H219354   6.078   3.291   1.419  0.8954  2.7311 -2.4365
 6464TIP3   OH219355   3.532   3.143   0.345 -0.2220 -0.0327 -0.4283
 6464TIP3    H119356   3.515   3.172   0.435 -0.7706 -0.6708 -0.3221
 6464TIP3    H219357   3.555   3.050   0.353  0.3395  0.0563 -0.8902
 6465TIP3   OH219358   5.794   3.296   3.221 -0.4506  0.9867  0.7829
 6465TIP3    H119359   5.847   3.329   3.148 -0.6142  1.1785  0.7488
 6465TIP3    H219360   5.848   3.310   3.299 -0.5549  1.4293  0.7799
 6466TIP3   OH219361   4.224   3.229   1.086  0.1368 -0.2059  0.1272
 6466TIP3    H119362   4.150   3.277   1.123 -0.0060  0.6311 -1.1633
 6466TIP3    H219363   4.279   3.207   1.162  1.0351  3.4099  0.7277
 6467TIP3   OH219364   1.860   3.447   0.352  0.3990  0.5228  0.4524
 6467TIP3    H119365   1.842   3.422   0.442 -0.1673 -0.6580  0.0413
 6467TIP3    H219366   1.775   3.438   0.308  0.8778  0.0943 -0.4065
 6468TIP3   OH219367   6.993   1.091   0.889 -0.3055 -0.0701 -0.2763
 6468TIP3    H119368   7.061   1.039   0.931 -0.1351  0.4849  0.1429
 6468TIP3    H219369   7.004   1.178   0.925 -1.4098 -0.0315  0.0010
 6469TIP3   OH219370   5.367   4.825   1.867  0.3151 -0.0598  0.2020
 6469TIP3    H119371   5.326   4.886   1.806 -1.0140 -0.4692  0.6454
 6469TIP3    H219372   5.454   4.861   1.883  0.0061  1.0382 -0.4902
 6470TIP3   OH219373   5.613   4.628   5.509  0.0430  0.0255 -0.5510
 6470TIP3    H119374   5.658   4.700   5.552  1.4036 -0.8355 -0.4840
 6470TIP3    H219375   5.548   4.671   5.453 -0.9452  1.2009  1.3832
 6471TIP3   OH219376   6.463   2.874   1.356 -0.6385 -0.9257 -0.4028
 6471TIP3    H119377   6.553   2.901   1.374 -1.0248  0.3877 -0.3308
 6471TIP3    H219378   6.460   2.782   1.382  0.5653 -0.8714 -0.0034
 6472TIP3   OH219379   6.537   0.088   2.226 -0.0013  0.5038  0.6437
 6472TIP3    H119380   6.490   0.016   2.267 -0.6374  1.2579  1.2812
 6472TIP3    H219381   6.625   0.054   2.211 -0.6932 -0.8934 -0.4792
 6473TIP3   OH219382   3.976   0.177   1.910 -0.1077  0.0016  0.2473
 6473TIP3    H119383   3.943   0.111   1.971 -0.3881  0.5754  0.7269
 6473TIP3    H219384   4.069   0.158   1.902 -0.4063 -1.2260 -0.5978
 6474TIP3   OH219385   1.623   2.685   3.409  0.2257  0.4947  0.2394
 6474TIP3    H119386   1.580   2.639   3.337 -0.1502  0.2934  0.5933
 6474TIP3    H219387   1.700   2.725   3.368 -1.6037  3.0033 -0.9513
 6475TIP3   OH219388   0.779   0.003   5.138  0.0954  0.1216  0.1171
 6475TIP3    H119389   0.717   0.037   5.074 -0.1580  0.3591  0.4801
 6475TIP3    H219390   0.784   0.071   5.205  0.1933 -0.2127  0.4547
 6476TIP3   OH219391   5.996   3.442   2.104 -0.4283  0.1172  0.8270
 6476TIP3    H119392   5.994   3.405   2.016 -0.2951 -1.0380  1.2904
 6476TIP3    H219393   5.932   3.390   2.153 -0.9310  1.1379  1.2701
 6477TIP3   OH219394   7.093   3.399   1.562  0.1379  0.3432  0.2304
 6477TIP3    H119395   7.015   3.445   1.528  0.1959  0.3530  0.1116
 6477TIP3    H219396   7.099   3.320   1.509 -0.2419 -0.0407  0.7556
 6478TIP3   OH219397   6.375   1.656   0.810 -0.4157  0.3923 -0.2280
 6478TIP3    H119398   6.430   1.598   0.863  0.5331  1.6685  0.2595
 6478TIP3    H219399   6.386   1.625   0.721  0.8877  0.4132 -0.0976
 6479TIP3   OH219400   4.925   0.634   4.025 -0.0688 -0.5656 -0.3419
 6479TIP3    H119401   4.961   0.694   3.960  1.7672 -1.8585 -0.6158
 6479TIP3    H219402   4.862   0.687   4.074  0.3872  1.1533 -1.5037
 6480TIP3   OH219403   2.258   2.273   3.687  0.0382 -0.0888  0.5549
 6480TIP3    H119404   2.267   2.218   3.609 -1.4788 -2.6834  2.0719
 6480TIP3    H219405   2.175   2.318   3.675 -1.0914 -1.8389  1.3436
 6481TIP3   OH219406   5.959   5.936   4.699  0.4280  0.1534  0.4931
 6481TIP3    H119407   6.037   5.881   4.695  1.4340  1.5165  0.5324
 6481TIP3    H219408   5.934   5.936   4.791  0.3074 -0.3660  0.4653
 6482TIP3   OH219409   4.605   4.653   4.995  0.4394 -0.6547 -0.2781
 6482TIP3    H119410   4.547   4.682   5.066  1.1787  1.3972 -0.4393
 6482TIP3    H219411   4.549   4.648   4.918 -0.5078 -3.4958  0.4645
 6483TIP3   OH219412   6.395   3.770   2.083 -0.0775 -0.3079 -0.9262
 6483TIP3    H119413   6.477   3.736   2.048  0.8750 -0.3339  1.1882
 6483TIP3    H219414   6.358   3.697   2.132 -0.0016  0.4935  0.3577
 6484TIP3   OH219415   4.668   3.076   4.728 -0.6334 -0.2386  0.1902
 6484TIP3    H119416   4.577   3.071   4.758  0.1913 -1.3898  2.7606
 6484TIP3    H219417   4.703   3.153   4.772  0.0678 -0.7886  0.6152
 6485TIP3   OH219418   2.519   2.152   4.804 -0.1733  0.0518  0.4739
 6485TIP3    H119419   2.466   2.202   4.742  1.0473  0.3720 -0.3575
 6485TIP3    H219420   2.502   2.193   4.889 -0.4509  0.8221  0.0552
 6486TIP3   OH219421   2.695   6.372   3.522  0.4425  0.6952  0.3440
 6486TIP3    H119422   2.690   6.295   3.579  1.7739 -0.9136 -1.5776
 6486TIP3    H219423   2.787   6.377   3.498 -0.1130  1.1287 -1.8755
 6487TIP3   OH219424   0.463   3.851   5.194  0.0579  0.0579 -0.1626
 6487TIP3    H119425   0.524   3.782   5.167 -0.3349 -0.0414 -0.8292
 6487TIP3    H219426   0.489   3.928   5.144 -0.5402 -0.0643 -0.6728
 6488TIP3   OH219427   2.596   0.010   0.493  0.0966 -0.9900 -0.7742
 6488TIP3    H119428   2.511   0.006   0.536 -1.5205  1.0220 -3.4994
 6488TIP3    H219429   2.658   0.027   0.565 -2.1158  0.0967  1.0181
 6489TIP3   OH219430   2.140   3.349   0.290 -0.2423 -0.0960  0.5219
 6489TIP3    H119431   2.053   3.387   0.297  0.8154  2.2398  2.7916
 6489TIP3    H219432   2.160   3.320   0.379  1.9415  1.1053  0.4863
 6490TIP3   OH219433   2.141   1.842   4.503 -0.0140  1.0236  0.3018
 6490TIP3    H119434   2.197   1.917   4.484 -0.1356  1.0024 -0.1394
 6490TIP3    H219435   2.141   1.791   4.422  0.8221  0.0623  0.8843
 6491TIP3   OH219436   3.620   2.021   4.494  0.0019 -0.3437 -0.3227
 6491TIP3    H119437   3.674   1.993   4.568  0.3566  0.6950 -0.1723
 6491TIP3    H219438   3.625   1.949   4.431  2.3449  0.1127 -0.7242
 6492TIP3   OH219439   3.858   2.055   0.369  0.1828  0.0035 -1.0002
 6492TIP3    H119440   3.794   2.035   0.301 -1.1839 -1.9082  0.7208
 6492TIP3    H219441   3.906   1.972   0.381 -0.7093 -0.2311  1.4104
 6493TIP3   OH219442   1.377   3.101   2.826 -0.0860  0.1150  0.4866
 6493TIP3    H119443   1.377   3.156   2.747  0.5567  0.1428  0.5006
 6493TIP3    H219444   1.312   3.142   2.884 -1.3549 -0.5217 -0.4411
 6494TIP3   OH219445   0.954   6.572   1.483 -0.2223  0.3235  0.1214
 6494TIP3    H119446   1.015   6.565   1.409 -0.2299  0.5878  0.0916
 6494TIP3    H219447   0.887   6.505   1.465 -0.0050  0.1106  0.0960
 6495TIP3   OH219448   5.800   5.757   3.686 -0.4256  0.5124 -0.2960
 6495TIP3    H119449   5.803   5.832   3.746 -0.6900  1.1824 -1.0976
 6495TIP3    H219450   5.891   5.732   3.674 -0.3760  0.3155  0.4486
 6496TIP3   OH219451   6.029   1.122   2.464 -0.0777 -0.3047  0.4489
 6496TIP3    H119452   6.004   1.040   2.506 -1.0244  0.0114  0.5343
 6496TIP3    H219453   6.089   1.096   2.394  0.1058 -1.0030  0.8545
 6497TIP3   OH219454   1.549   6.641   2.451 -0.4221 -0.0811  0.4678
 6497TIP3    H119455   1.589   6.583   2.516  1.1185 -0.1849 -0.5187
 6497TIP3    H219456   1.602   6.720   2.454  0.3102 -0.4663 -1.3302
 6498TIP3   OH219457   3.108   2.010   3.846  0.6199 -0.1593  0.5964
 6498TIP3    H119458   3.109   2.105   3.857 -0.8375 -0.0444 -0.0266
 6498TIP3    H219459   3.150   1.996   3.761  2.3826 -0.2419  1.4294
 6499TIP3   OH219460   4.356   1.107   1.539 -0.4764 -0.0568  0.0741
 6499TIP3    H119461   4.429   1.049   1.562 -0.6302 -1.1216 -1.9132
 6499TIP3    H219462   4.292   1.094   1.609  0.0013 -1.4006  0.2803
 6500TIP3   OH219463   6.373   2.390   2.712 -0.1371 -0.0047 -0.4794
 6500TIP3    H119464   6.337   2.479   2.714 -0.7743 -0.2302 -1.2672
 6500TIP3    H219465   6.441   2.394   2.644 -0.1981 -0.1282 -0.5484
 6501TIP3   OH219466   6.262   0.857   3.083  0.7023 -0.2242  0.2266
 6501TIP3    H119467   6.170   0.854   3.057  0.2053  1.3572  1.6277
 6501TIP3    H219468   6.310   0.847   3.001 -0.7438  0.8499 -0.8158
 6502TIP3   OH219469   6.059   6.276   4.398 -0.0343 -0.5525  0.1418
 6502TIP3    H119470   5.986   6.276   4.460 -1.2851 -3.2965 -1.1510
 6502TIP3    H219471   6.095   6.188   4.405  0.4456 -0.6035 -2.2529
 6503TIP3   OH219472   1.171   2.691   1.470  0.0809  0.0181  0.0241
 6503TIP3    H119473   1.083   2.695   1.435 -0.6102 -0.9195  1.5438
 6503TIP3    H219474   1.186   2.778   1.508 -1.0716 -0.4574  1.6782
 6504TIP3   OH219475   1.752   5.318   1.396  0.3984 -0.2334  0.5541
 6504TIP3    H119476   1.749   5.223   1.387 -1.5184 -0.0776 -0.9617
 6504TIP3    H219477   1.845   5.339   1.397  0.8769 -2.1538  1.5987
 6505TIP3   OH219478   5.494   3.900   1.542 -0.2298 -0.0444 -0.2364
 6505TIP3    H119479   5.504   3.810   1.575 -0.7852 -0.6275 -1.5819
 6505TIP3    H219480   5.405   3.903   1.508 -0.2440  1.0518 -0.1316
 6506TIP3   OH219481   2.343   6.722   3.665  0.1754  0.1312  0.5176
 6506TIP3    H119482   2.321   6.659   3.597  0.1196 -0.5299  1.1336
 6506TIP3    H219483   2.437   6.708   3.680  0.5087  1.2553 -0.3999
 6507TIP3   OH219484   3.956   5.240   1.441 -0.3561  0.2324  0.3938
 6507TIP3    H119485   4.051   5.246   1.437 -0.3457  0.2569  0.6667
 6507TIP3    H219486   3.937   5.146   1.435 -0.3168  0.2295  0.3174
 6508TIP3   OH219487   2.410   0.598   0.198 -0.1650 -0.0661  0.1175
 6508TIP3    H119488   2.501   0.569   0.190 -0.5954 -1.2642 -0.7816
 6508TIP3    H219489   2.387   0.583   0.290  0.4357 -0.0617  0.2697
 6509TIP3   OH219490   5.639   0.113   4.687 -0.0954  0.4129 -0.1069
 6509TIP3    H119491   5.697   0.121   4.612 -0.5962 -0.2809 -0.5829
 6509TIP3    H219492   5.599   0.027   4.678 -1.5659  1.0511 -0.0670
 6510TIP3   OH219493   1.737   0.878   5.225  0.7419 -0.0148 -0.3827
 6510TIP3    H119494   1.792   0.863   5.302 -1.4687 -1.1074  1.0898
 6510TIP3    H219495   1.720   0.791   5.190  0.4110  0.3470 -1.1583
 6511TIP3   OH219496   1.614   4.761   2.427  0.0059 -0.0088  0.2044
 6511TIP3    H119497   1.565   4.843   2.418  1.2652  0.6966 -0.5463
 6511TIP3    H219498   1.631   4.734   2.337  1.2454 -0.0698  0.4465
 6512TIP3   OH219499   1.841   0.726   3.654  0.3559  0.3165 -0.6217
 6512TIP3    H119500   1.808   0.717   3.564 -0.2747  0.6675 -0.4305
 6512TIP3    H219501   1.764   0.749   3.706  1.0309  1.8823 -0.2802
 6513TIP3   OH219502   0.276   0.225   4.962  0.2692 -0.5198 -0.0141
 6513TIP3    H119503   0.183   0.242   4.946 -0.4851 -4.4575 -0.7800
 6513TIP3    H219504   0.279   0.196   5.053  0.2793 -2.6244 -0.6385
 6514TIP3   OH219505   5.681   1.588   2.963 -0.4864  0.2749  0.6544
 6514TIP3    H119506   5.742   1.526   3.003  0.8691  0.3142 -1.2451
 6514TIP3    H219507   5.719   1.608   2.878 -2.9177  0.6761 -0.4254
 6515TIP3   OH219508   1.747   5.828   5.719 -0.4347  1.3081  0.0654
 6515TIP3    H119509   1.682   5.890   5.686 -2.1837 -0.0099  0.8345
 6515TIP3    H219510   1.708   5.742   5.703  1.3323  0.4563  0.1878
 6516TIP3   OH219511   5.958   1.636   1.743  0.1487  0.3847 -0.2608
 6516TIP3    H119512   6.015   1.643   1.820 -1.2374  2.3756  0.7032
 6516TIP3    H219513   5.941   1.543   1.734  2.8499 -0.2014 -0.0999
 6517TIP3   OH219514   0.044   0.508   4.581  0.3252  0.1784 -0.5799
 6517TIP3    H119515   0.027   0.579   4.519  0.5526  2.3668  1.7156
 6517TIP3    H219516  -0.008   0.434   4.548 -0.6500  1.6592 -2.5623
 6518TIP3   OH219517   1.316   1.389   1.355  0.0270  0.4717 -0.0840
 6518TIP3    H119518   1.247   1.347   1.304 -1.6128  2.2753  0.5361
 6518TIP3    H219519   1.333   1.472   1.311 -0.4643  1.4513  1.4630
 6519TIP3   OH219520   0.299   1.511   4.934 -0.9035  0.5088 -0.6228
 6519TIP3    H119521   0.298   1.498   5.029 -2.2537 -0.2577 -0.7142
 6519TIP3    H219522   0.208   1.503   4.908 -0.5396  0.6227 -2.0101
 6520TIP3   OH219523   1.589   3.888   2.173  0.1669 -0.1015 -0.1893
 6520TIP3    H119524   1.617   3.968   2.129 -0.9942  0.3967 -0.0478
 6520TIP3    H219525   1.511   3.913   2.223  1.9683 -0.3591  3.0586
 6521TIP3   OH219526   7.151   6.411   4.619 -0.1673 -0.6340 -0.5130
 6521TIP3    H119527   7.191   6.487   4.664  0.5897 -0.9226 -0.6791
 6521TIP3    H219528   7.115   6.448   4.539 -0.2767 -0.3530 -0.3382
 6522TIP3   OH219529   0.488   4.939   0.639  0.3202 -0.3092  0.0008
 6522TIP3    H119530   0.460   5.026   0.668  1.7879  0.1314  0.1462
 6522TIP3    H219531   0.440   4.925   0.557  0.9103  1.1468 -0.6332
 6523TIP3   OH219532   7.168   6.038   3.627 -0.3849  0.1039  0.0006
 6523TIP3    H119533   7.073   6.049   3.621 -0.1967  1.5377 -0.9764
 6523TIP3    H219534   7.194   6.095   3.700  0.0980  3.0177 -2.2437
 6524TIP3   OH219535   2.582   2.265   5.187  0.3842 -0.3566  0.0204
 6524TIP3    H119536   2.630   2.187   5.217 -1.2496 -0.6137  2.1234
 6524TIP3    H219537   2.651   2.328   5.167  1.7266 -1.9815 -0.8143
 6525TIP3   OH219538   2.151   2.643   2.011  0.0335 -0.5356  0.3554
 6525TIP3    H119539   2.246   2.637   2.014  0.3588  1.2960 -2.4224
 6525TIP3    H219540   2.130   2.717   2.069  1.1084  3.1509 -3.4322
 6526TIP3   OH219541   1.084   3.881   2.889 -0.0028 -0.0234  0.1507
 6526TIP3    H119542   1.154   3.939   2.861  0.3038 -0.6109 -0.3163
 6526TIP3    H219543   1.013   3.940   2.916 -0.0848  0.5721 -1.2836
 6527TIP3   OH219544   1.027   0.843   2.417 -0.5171  0.1595  0.1441
 6527TIP3    H119545   1.026   0.918   2.477 -1.4198  0.3599 -0.1012
 6527TIP3    H219546   1.119   0.833   2.393  0.1911 -1.0194  2.9036
 6528TIP3   OH219547   3.069   5.294   4.925  0.0933  0.4600 -0.2458
 6528TIP3    H119548   2.985   5.261   4.893  1.2704 -0.7405 -2.3815
 6528TIP3    H219549   3.121   5.215   4.939  1.4503  1.2257 -0.7754
 6529TIP3   OH219550   2.858   2.507   0.357 -0.2684  0.4287 -0.3152
 6529TIP3    H119551   2.836   2.593   0.320 -2.5958 -1.2502 -3.4101
 6529TIP3    H219552   2.932   2.477   0.305  0.2914  0.3834  0.4965
 6530TIP3   OH219553   0.905   4.114   4.141 -0.0938 -0.3129  0.5496
 6530TIP3    H119554   0.975   4.099   4.205  0.7670  2.1244  0.2672
 6530TIP3    H219555   0.941   4.084   4.058 -0.0816 -0.7085  0.6935
 6531TIP3   OH219556   2.345   0.261   0.524  0.2904 -0.0823  0.2221
 6531TIP3    H119557   2.324   0.197   0.456  1.0081 -0.1226  0.0346
 6531TIP3    H219558   2.308   0.222   0.604 -0.0946 -0.2829 -0.0466
 6532TIP3   OH219559   4.295   0.166   0.556  1.1945  0.5088 -0.0034
 6532TIP3    H119560   4.200   0.150   0.560  1.3813 -0.4490  0.8805
 6532TIP3    H219561   4.309   0.198   0.467  0.5226 -2.7440 -1.4280
 6533TIP3   OH219562   0.903   1.076   1.672 -0.8260 -0.4841 -0.4516
 6533TIP3    H119563   0.917   1.116   1.586 -0.9535 -1.0802 -0.7535
 6533TIP3    H219564   0.904   1.150   1.733 -0.0733 -0.1201 -0.8840
 6534TIP3   OH219565   3.850   4.732   1.247 -0.2922 -0.1471 -0.3264
 6534TIP3    H119566   3.919   4.799   1.252  2.2917 -2.7000  1.2774
 6534TIP3    H219567   3.897   4.650   1.233 -3.1658 -1.8948 -0.4481
 6535TIP3   OH219568   0.270   1.581   5.447 -0.4868 -0.3201 -0.1108
 6535TIP3    H119569   0.364   1.593   5.455 -0.5533  4.5813 -2.6940
 6535TIP3    H219570   0.258   1.534   5.365 -0.0990  2.1689 -1.7165
 6536TIP3   OH219571   6.109   4.219   3.453 -0.2221 -0.2182  0.0681
 6536TIP3    H119572   6.073   4.300   3.415 -0.7541 -0.2192  0.5503
 6536TIP3    H219573   6.066   4.149   3.404 -0.6622 -0.2157  0.4415
 6537TIP3   OH219574   4.942   5.748   2.573  0.4377 -0.5486 -0.0188
 6537TIP3    H119575   4.999   5.693   2.626  0.9441  0.7838  0.8511
 6537TIP3    H219576   4.997   5.821   2.544 -0.3383 -0.2301 -0.7545
 6538TIP3   OH219577   3.694   5.072   0.701 -0.0646 -0.2624 -0.4616
 6538TIP3    H119578   3.709   5.003   0.636  1.0628  0.8531 -1.4480
 6538TIP3    H219579   3.688   5.152   0.649 -1.4903  0.3948  0.6464
 6539TIP3   OH219580   1.378   3.353   4.562 -0.1758 -0.1403  0.1160
 6539TIP3    H119581   1.408   3.343   4.471  0.6237 -1.0999  0.4636
 6539TIP3    H219582   1.284   3.368   4.554 -0.0372  0.3100 -0.8935
 6540TIP3   OH219583   0.573   3.614   2.272  0.4962  0.0559  0.4114
 6540TIP3    H119584   0.513   3.674   2.318  0.3890 -1.3079  2.1446
 6540TIP3    H219585   0.587   3.655   2.187 -1.6073  1.2490  0.5745
 6541TIP3   OH219586   4.358   2.978   0.781 -0.1982  0.1661  0.3094
 6541TIP3    H119587   4.397   2.891   0.776  0.6075  0.5160  0.3951
 6541TIP3    H219588   4.414   3.027   0.842  0.3067  1.2115 -0.9301
 6542TIP3   OH219589   2.386   5.434   3.214  0.0026 -0.3569 -0.6555
 6542TIP3    H119590   2.364   5.494   3.285  0.5775 -1.9582  0.9434
 6542TIP3    H219591   2.318   5.450   3.148 -0.2616  1.5256 -0.0031
 6543TIP3   OH219592   4.452   1.244   1.308  0.2362 -0.5123 -0.3447
 6543TIP3    H119593   4.539   1.204   1.319  0.6506  0.1330 -1.1619
 6543TIP3    H219594   4.402   1.212   1.382  1.8004  0.7902  1.3764
 6544TIP3   OH219595   3.325   0.460   0.787 -0.2863 -0.8400 -0.4325
 6544TIP3    H119596   3.302   0.413   0.707 -1.6616 -0.6176 -0.1952
 6544TIP3    H219597   3.406   0.505   0.767 -0.5326 -0.9211 -1.6506
 6545TIP3   OH219598   2.172   1.367   4.940  0.1449 -0.5166 -0.2992
 6545TIP3    H119599   2.230   1.383   5.015  0.1872  0.6706 -0.5644
 6545TIP3    H219600   2.088   1.347   4.980  0.4577 -1.1215  0.0763
 6546TIP3   OH219601   7.127   5.619   5.186 -0.1582  0.4977  0.6872
 6546TIP3    H119602   7.215   5.596   5.157 -0.5241 -0.4158  0.2866
 6546TIP3    H219603   7.138   5.705   5.228  1.0090  0.1646  1.1127
 6547TIP3   OH219604   5.708   3.694   2.273 -0.2069 -0.3648  0.6645
 6547TIP3    H119605   5.779   3.739   2.318  0.2263 -0.0910 -0.2632
 6547TIP3    H219606   5.629   3.743   2.298  0.3387  1.4944 -0.9655
 6548TIP3   OH219607   0.513   0.379   4.958  0.1508 -0.1407 -0.4421
 6548TIP3    H119608   0.594   0.327   4.962 -0.0353 -0.4050  2.5912
 6548TIP3    H219609   0.443   0.314   4.964 -0.1497  0.2634  0.6762
 6549TIP3   OH219610   0.992   2.204   1.691  0.2861 -0.0404  0.6675
 6549TIP3    H119611   1.018   2.295   1.704  1.3990  0.0272 -1.5312
 6549TIP3    H219612   1.074   2.155   1.693 -0.1475 -0.7832  0.4604
 6550TIP3   OH219613   7.127   5.190   3.356 -0.2445  0.7485  0.0498
 6550TIP3    H119614   7.196   5.256   3.354 -1.0935  1.7489  1.3717
 6550TIP3    H219615   7.061   5.222   3.294  0.7758 -0.6305 -1.8427
 6551TIP3   OH219616   2.154   6.704   4.104 -0.0212  0.3425  0.4805
 6551TIP3    H119617   2.187   6.755   4.031 -0.4648  1.4059  1.0037
 6551TIP3    H219618   2.204   6.622   4.101 -0.2129  0.2690 -1.1370
 6552TIP3   OH219619   3.984   2.806   4.192  0.1924  0.0150  0.2333
 6552TIP3    H119620   3.925   2.731   4.200  1.3449 -0.9740 -0.0801
 6552TIP3    H219621   3.971   2.856   4.272  1.2988 -1.9878  1.7842
 6553TIP3   OH219622   6.604   1.485   4.709  0.5437  1.0038 -0.0161
 6553TIP3    H119623   6.565   1.423   4.770  2.1355  1.0450  1.1002
 6553TIP3    H219624   6.543   1.488   4.635 -0.1873 -0.9443  0.4566
 6554TIP3   OH219625   0.519   1.111   1.287  0.9375  0.3718 -0.2848
 6554TIP3    H119626   0.427   1.140   1.289  1.0999  0.9129 -0.4789
 6554TIP3    H219627   0.525   1.057   1.208  0.7843  0.3253 -0.2661
 6555TIP3   OH219628   3.852   2.339   0.478 -0.0513 -0.2032 -0.4088
 6555TIP3    H119629   3.792   2.401   0.435 -1.6426 -0.9012  0.7081
 6555TIP3    H219630   3.807   2.255   0.472  1.3394 -0.9629 -0.4704
 6556TIP3   OH219631   3.758   6.299   2.852  0.0481 -0.3686  0.0275
 6556TIP3    H119632   3.712   6.221   2.885  0.6512 -0.7105  0.0675
 6556TIP3    H219633   3.845   6.294   2.892  0.4345 -0.2184 -0.7782
 6557TIP3   OH219634   1.841   4.880   2.976 -0.1232 -0.0222  0.2074
 6557TIP3    H119635   1.875   4.795   3.003  0.7115  0.2605  0.0853
 6557TIP3    H219636   1.746   4.871   2.979 -0.0991 -1.6367 -1.8405
 6558TIP3   OH219637   4.953   3.268   5.239  0.1456 -0.5523  0.3885
 6558TIP3    H119638   4.911   3.189   5.274  0.5918 -1.9126 -1.9678
 6558TIP3    H219639   5.041   3.240   5.216  0.8627  1.0824  0.9770
 6559TIP3   OH219640   5.087   4.648   1.509 -0.3715  0.4449  0.6865
 6559TIP3    H119641   5.177   4.623   1.533  0.1012  3.3735  2.3969
 6559TIP3    H219642   5.090   4.657   1.413  1.6287  1.9418  0.8218
 6560TIP3   OH219643   0.421   4.592   5.854 -0.0144 -0.1027 -0.0728
 6560TIP3    H119644   0.484   4.582   5.782 -0.7056 -2.1715 -0.4669
 6560TIP3    H219645   0.366   4.665   5.828  0.0446 -0.5175 -1.4551
 6561TIP3   OH219646   5.359   5.136   2.412  0.1484 -0.1327 -0.0641
 6561TIP3    H119647   5.322   5.048   2.406  0.8477 -0.4131 -0.3439
 6561TIP3    H219648   5.435   5.134   2.353  0.0106  0.7359 -0.2853
 6562TIP3   OH219649   2.132   3.896   0.103 -0.3113  0.4550 -0.6345
 6562TIP3    H119650   2.104   3.917   0.015 -0.2683  0.1026 -0.7340
 6562TIP3    H219651   2.093   3.811   0.122 -0.8592  0.8221 -0.0676
 6563TIP3   OH219652   3.173   2.853   4.083 -0.5334  0.0392  0.3315
 6563TIP3    H119653   3.231   2.877   4.154 -0.4301  1.3593 -0.1676
 6563TIP3    H219654   3.092   2.825   4.126 -0.9187  1.9964  0.9779
 6564TIP3   OH219655   0.284   5.267   4.280 -0.1853 -0.4265 -0.3013
 6564TIP3    H119656   0.291   5.339   4.342  1.0368 -0.1133 -0.7766
 6564TIP3    H219657   0.226   5.300   4.211 -1.0610 -0.5597  0.3545
 6565TIP3   OH219658   1.663   4.389   4.153  0.5969  0.4632 -0.6603
 6565TIP3    H119659   1.749   4.405   4.192  1.1643  1.0616 -2.0734
 6565TIP3    H219660   1.623   4.475   4.147 -0.2562  0.1439  0.2944
 6566TIP3   OH219661   5.567   0.642   4.989 -0.1712 -0.3038  0.3918
 6566TIP3    H119662   5.617   0.656   5.069  1.3374 -1.3959 -0.3243
 6566TIP3    H219663   5.561   0.547   4.980  1.0565 -0.2463 -1.5937
 6567TIP3   OH219664   2.142   0.925   5.453  0.3803 -0.0786 -0.1630
 6567TIP3    H119665   2.223   0.975   5.447  0.8777 -1.0068 -1.7620
 6567TIP3    H219666   2.073   0.991   5.448  1.0250  0.6179 -0.0598
 6568TIP3   OH219667   3.363   0.463   1.338  0.2347  0.4907 -0.1297
 6568TIP3    H119668   3.348   0.438   1.429 -1.2045  0.2987 -0.3897
 6568TIP3    H219669   3.337   0.555   1.334 -0.6925  0.2328 -0.5311
 6569TIP3   OH219670   5.630   6.527   5.166 -0.0086 -0.0336  0.3455
 6569TIP3    H119671   5.643   6.506   5.258  1.2093 -0.3742  0.1165
 6569TIP3    H219672   5.593   6.615   5.166  1.9281  0.8419  1.1261
 6570TIP3   OH219673   0.686   1.764   5.059  0.0407  0.4438 -0.4807
 6570TIP3    H119674   0.636   1.792   4.983 -1.2675  0.4941  0.3814
 6570TIP3    H219675   0.634   1.790   5.134  0.3421 -1.3517  0.4108
 6571TIP3   OH219676   3.966   4.126   5.533 -0.1385 -0.6144 -0.2534
 6571TIP3    H119677   3.991   4.038   5.504  0.4385 -0.1712 -1.1233
 6571TIP3    H219678   3.925   4.111   5.619 -1.0290 -1.8423 -0.8519
 6572TIP3   OH219679   2.445   6.589   1.895 -0.1300 -0.2470  0.3937
 6572TIP3    H119680   2.443   6.612   1.988  0.6481 -0.4373  0.4644
 6572TIP3    H219681   2.461   6.671   1.850 -0.0032 -0.2327  0.4641
 6573TIP3   OH219682   1.125   4.027   4.893  0.1520  0.0336  0.2149
 6573TIP3    H119683   1.201   3.969   4.886 -0.1923 -0.7126  2.1400
 6573TIP3    H219684   1.147   4.088   4.964 -0.2113  1.1609 -0.6099
 6574TIP3   OH219685   7.048   2.285   4.220 -0.4011 -0.2473  0.2180
 6574TIP3    H119686   7.015   2.360   4.270  0.0115  0.9599 -1.2141
 6574TIP3    H219687   7.142   2.286   4.236 -0.3521 -0.2456 -0.0722
 6575TIP3   OH219688   1.151   3.088   2.242 -0.1773 -0.5752  0.0976
 6575TIP3    H119689   1.205   3.112   2.167  1.3702 -2.0488  0.6580
 6575TIP3    H219690   1.123   3.171   2.280  1.5706  0.2744 -0.3505
 6576TIP3   OH219691   6.462   2.459   2.230  0.2764 -0.1405 -0.1042
 6576TIP3    H119692   6.496   2.371   2.219 -0.4967 -0.3978 -0.4630
 6576TIP3    H219693   6.464   2.497   2.142 -2.8252 -1.0788 -0.6970
 6577TIP3   OH219694   3.647   3.530   4.297 -0.2519  0.1341 -0.1476
 6577TIP3    H119695   3.583   3.480   4.347 -0.2703  0.5515  0.2500
 6577TIP3    H219696   3.727   3.478   4.302 -0.3824 -0.0596 -0.0832
 6578TIP3   OH219697   5.819   0.611   2.783  0.3455 -0.7440  0.1904
 6578TIP3    H119698   5.813   0.619   2.688 -0.3727 -0.4837  0.2532
 6578TIP3    H219699   5.802   0.518   2.800  3.0572 -1.3689 -0.1113
 6579TIP3   OH219700   4.715   5.956   4.080  0.3497  0.0946  0.1753
 6579TIP3    H119701   4.723   6.019   4.151  0.6904 -0.2819  0.4688
 6579TIP3    H219702   4.629   5.975   4.041  0.4997  0.8241  0.1756
 6580TIP3   OH219703   0.521   4.322   0.080  0.5717  0.2340  0.3339
 6580TIP3    H119704   0.510   4.227   0.081  0.2225  0.2333 -1.0754
 6580TIP3    H219705   0.589   4.339   0.145  1.2610 -1.0749 -0.0123
 6581TIP3   OH219706   4.686   2.257   4.159 -0.5766 -0.4132 -0.5713
 6581TIP3    H119707   4.778   2.235   4.172  0.0429  1.3372 -1.6327
 6581TIP3    H219708   4.651   2.266   4.247  0.5672 -0.0091 -0.1385
 6582TIP3   OH219709   5.778   4.161   3.893 -0.2147 -0.4562 -0.4185
 6582TIP3    H119710   5.872   4.175   3.884 -0.0797 -1.1196 -0.0766
 6582TIP3    H219711   5.769   4.072   3.925 -0.8740  0.2715  1.5859
 6583TIP3   OH219712   1.789   3.912   3.719 -0.4521 -0.5174  0.1269
 6583TIP3    H119713   1.833   3.997   3.708  0.2580 -1.0300 -1.1856
 6583TIP3    H219714   1.853   3.859   3.767  0.0458 -0.9874 -1.0143
 6584TIP3   OH219715   5.007   1.404   1.721 -0.2896 -0.4531 -0.4599
 6584TIP3    H119716   4.996   1.395   1.815  0.3412  0.5471 -0.2842
 6584TIP3    H219717   4.940   1.468   1.695  0.7992  0.7631 -0.3719
 6585TIP3   OH219718   7.111   6.054   2.171  0.0946  0.0313 -0.6479
 6585TIP3    H119719   7.175   6.100   2.224 -0.5342 -0.9592  1.0510
 6585TIP3    H219720   7.043   6.119   2.153 -0.0334  0.1912  0.3856
 6586TIP3   OH219721   2.667   3.094   3.114 -0.5971 -0.0907 -0.1283
 6586TIP3    H119722   2.621   3.020   3.074 -1.0655  0.5553 -0.8047
 6586TIP3    H219723   2.634   3.096   3.204 -0.2714 -0.9532  0.0190
 6587TIP3   OH219724   2.997   5.875  -0.011  0.9898 -0.0596  0.0240
 6587TIP3    H119725   2.946   5.953  -0.031  0.6925 -0.5586 -1.2813
 6587TIP3    H219726   2.968   5.849   0.076  0.3988  0.7414  0.0781
 6588TIP3   OH219727   4.527   0.515   5.856  0.0639 -0.0875 -0.0347
 6588TIP3    H119728   4.531   0.420   5.865 -3.5919 -0.2536  1.6433
 6588TIP3    H219729   4.500   0.529   5.766  0.9994 -0.6097 -0.4055
 6589TIP3   OH219730   0.019   3.022   3.749 -0.3981 -0.0063 -0.3389
 6589TIP3    H119731   0.000   2.928   3.741  0.5011 -0.3068  0.7951
 6589TIP3    H219732   0.099   3.035   3.699 -0.8220  0.2646 -0.9473
 6590TIP3   OH219733   6.499   5.663   1.789  0.3282 -0.5527 -0.0785
 6590TIP3    H119734   6.410   5.675   1.821 -0.1992  0.7275 -1.8621
 6590TIP3    H219735   6.554   5.669   1.867 -1.1438 -1.8933  1.1363
 6591TIP3   OH219736   1.281   2.104   1.489 -0.2113 -0.5141 -0.1964
 6591TIP3    H119737   1.277   2.194   1.457 -1.0394  0.2251  1.7900
 6591TIP3    H219738   1.374   2.089   1.509 -0.3322  0.7959  1.6403
 6592TIP3   OH219739   4.014   5.771   4.601  0.5818 -0.2649  0.2802
 6592TIP3    H119740   4.106   5.744   4.593  0.5565  0.2008 -3.0475
 6592TIP3    H219741   3.965   5.697   4.565 -0.0323  0.9110 -1.4265
 6593TIP3   OH219742   2.464   1.389   5.590 -0.3288  0.0156 -0.3610
 6593TIP3    H119743   2.441   1.337   5.513  1.3483 -3.1013  1.0829
 6593TIP3    H219744   2.395   1.371   5.653  0.5113 -0.9125  0.3163
 6594TIP3   OH219745   7.134   3.681   0.450  0.1720  0.3639 -0.2133
 6594TIP3    H119746   7.167   3.598   0.416 -0.1093 -0.0061  0.3965
 6594TIP3    H219747   7.128   3.668   0.545 -2.2325  0.2207 -0.3220
 6595TIP3   OH219748   3.560   3.948   2.127 -0.1881  0.0895  0.4070
 6595TIP3    H119749   3.559   4.027   2.181 -0.7816  1.1537 -1.0658
 6595TIP3    H219750   3.481   3.901   2.152  0.9245 -0.8151  2.3372
 6596TIP3   OH219751   6.848   3.372   5.130  0.1825 -0.2957  0.8169
 6596TIP3    H119752   6.791   3.354   5.204 -1.0436  1.1445  0.2783
 6596TIP3    H219753   6.875   3.463   5.142  0.0169 -0.0584 -0.4597
 6597TIP3   OH219754   1.152   0.100   5.171  0.1696 -0.4875  0.4101
 6597TIP3    H119755   1.230   0.111   5.226  0.4937  0.9494 -0.2892
 6597TIP3    H219756   1.186   0.104   5.081 -0.7048  0.2336  0.0986
 6598TIP3   OH219757   1.966   3.692   0.180  0.1262 -0.2760  0.4332
 6598TIP3    H119758   1.879   3.731   0.189 -0.1293 -0.1599 -1.9524
 6598TIP3    H219759   1.952   3.599   0.200 -0.3083 -0.0821  1.0820
 6599TIP3   OH219760   5.460   6.146   5.279  0.2691  0.0788  0.1594
 6599TIP3    H119761   5.431   6.166   5.367  1.2133  1.8884  0.1136
 6599TIP3    H219762   5.556   6.140   5.286  0.3472  0.1419 -0.7126
 6600TIP3   OH219763   3.820   3.138   0.923  0.6791 -0.2953  0.3688
 6600TIP3    H119764   3.883   3.210   0.922  0.1576  0.1695 -0.0998
 6600TIP3    H219765   3.858   3.071   0.866  0.4930  0.2160 -0.3708
 6601TIP3   OH219766   5.692   2.862   2.627 -0.2639  0.4143  0.9108
 6601TIP3    H119767   5.618   2.842   2.570 -2.4775 -1.4937  4.1216
 6601TIP3    H219768   5.661   2.934   2.682  1.1647  1.0810  0.8766
 6602TIP3   OH219769   5.779   6.609   1.609 -0.1893  0.4517  0.0833
 6602TIP3    H119770   5.709   6.579   1.551  0.0769 -0.1972  0.0938
 6602TIP3    H219771   5.798   6.698   1.580  1.8458 -0.7344 -2.6855
 6603TIP3   OH219772   0.589   2.495   2.966  0.0783  0.0335 -0.2431
 6603TIP3    H119773   0.517   2.556   2.981 -1.0022 -1.2896  0.2299
 6603TIP3    H219774   0.581   2.471   2.874  0.3417  0.4132 -0.3642
 6604TIP3   OH219775   6.892   3.092  -0.003 -0.0459 -0.9260 -0.0653
 6604TIP3    H119776   6.800   3.079   0.021 -0.2991  1.1353  0.2959
 6604TIP3    H219777   6.937   3.016   0.032 -1.1867 -0.5095  2.5713
 6605TIP3   OH219778   0.074   1.374   3.667  0.3165 -0.3605  0.1914
 6605TIP3    H119779   0.104   1.405   3.752 -1.1168 -1.2205  1.0548
 6605TIP3    H219780   0.125   1.424   3.603  0.9464  0.7811  1.5447
 6606TIP3   OH219781   2.841   3.434   2.654  0.4047 -0.4397  0.4379
 6606TIP3    H119782   2.888   3.351   2.667  0.6324 -0.3424  0.2402
 6606TIP3    H219783   2.751   3.408   2.635  0.3461 -0.6267  0.9349
 6607TIP3   OH219784   6.740   2.911   1.459  0.5405  0.0859 -0.0099
 6607TIP3    H119785   6.733   2.963   1.539 -0.3564 -0.3621  0.2176
 6607TIP3    H219786   6.778   2.828   1.487  1.7531  0.5076 -0.3347
 6608TIP3   OH219787   0.820   0.939   3.775  0.2323 -0.2818  0.6544
 6608TIP3    H119788   0.772   0.934   3.858  0.6751  1.7883  1.1069
 6608TIP3    H219789   0.911   0.919   3.800  0.4222  0.6669  0.7528
 6609TIP3   OH219790   0.932   5.288   5.468  0.2483  0.3997 -1.1184
 6609TIP3    H119791   0.841   5.257   5.468  0.0869  0.8075  0.1003
 6609TIP3    H219792   0.977   5.229   5.408 -0.5701 -0.6151 -0.7699
 6610TIP3   OH219793   0.207   3.716   4.416  0.1223 -0.1843  0.1980
 6610TIP3    H119794   0.125   3.759   4.441  1.1959  1.3209  1.2977
 6610TIP3    H219795   0.239   3.767   4.342  0.2307 -0.5835 -0.0330
 6611TIP3   OH219796   3.958   2.452   4.012 -0.1341 -0.4894 -0.0602
 6611TIP3    H119797   4.039   2.403   3.997  0.0694  0.3646 -1.9943
 6611TIP3    H219798   3.931   2.482   3.925 -2.0881 -0.0338  0.6413
 6612TIP3   OH219799   0.421   5.157   0.371  0.1392 -0.1049  0.3996
 6612TIP3    H119800   0.505   5.166   0.416  0.7171  0.8654 -0.8316
 6612TIP3    H219801   0.396   5.247   0.349 -0.0260 -0.5590 -1.3774
 6613TIP3   OH219802   4.197   4.297   4.664 -0.3174 -0.6268  0.3583
 6613TIP3    H119803   4.163   4.217   4.704  1.8427  0.0406  3.9015
 6613TIP3    H219804   4.292   4.291   4.675  0.1150  1.2446 -1.7448
 6614TIP3   OH219805   5.981   0.573   5.609  0.2227 -0.5950 -0.5427
 6614TIP3    H119806   5.906   0.571   5.669 -0.2545  0.2410 -1.0919
 6614TIP3    H219807   6.050   0.618   5.659  0.3022 -1.1722 -0.1157
 6615TIP3   OH219808   6.832   1.541   0.925 -0.7065 -0.1996 -0.0756
 6615TIP3    H119809   6.805   1.510   0.839 -1.8928  0.9933 -0.1572
 6615TIP3    H219810   6.791   1.627   0.934  1.1257  0.6398  0.8159
 6616TIP3   OH219811   1.834   3.679   5.195  0.2724 -0.4854  0.6363
 6616TIP3    H119812   1.815   3.685   5.288  0.0365  0.6040  0.5275
 6616TIP3    H219813   1.926   3.653   5.191 -0.2093 -2.4709  1.1529
 6617TIP3   OH219814   3.650   1.659   3.965  0.0667 -0.2077  0.3044
 6617TIP3    H119815   3.633   1.622   4.052  1.5582 -0.3377  0.5637
 6617TIP3    H219816   3.578   1.720   3.951 -1.7432 -2.1734  0.4426
 6618TIP3   OH219817   0.681   2.123   4.217  0.0925 -0.0884 -0.0880
 6618TIP3    H119818   0.735   2.088   4.288 -0.4682 -1.2979 -0.2202
 6618TIP3    H219819   0.704   2.069   4.141  0.1512  0.7091 -0.6480
 6619TIP3   OH219820   4.124   1.646   3.069 -0.1939 -0.3750  0.5978
 6619TIP3    H119821   4.195   1.663   3.131  0.5804 -0.3612 -0.2531
 6619TIP3    H219822   4.111   1.551   3.073 -0.0008 -0.4013  0.6335
 6620TIP3   OH219823   1.064   1.026   3.259  0.7915 -0.3203 -0.3305
 6620TIP3    H119824   1.020   0.940   3.262 -0.1589  0.1556  3.0684
 6620TIP3    H219825   1.155   1.007   3.279  0.1284 -0.4315  3.1058
 6621TIP3   OH219826   0.837   4.954   0.227 -0.1567 -0.1106 -0.1092
 6621TIP3    H119827   0.870   4.904   0.301 -2.6993 -2.1537 -0.2311
 6621TIP3    H219828   0.869   4.906   0.150  0.4570  0.6141 -0.3179
 6622TIP3   OH219829   3.982   4.694   1.785 -0.0652 -0.8051  0.3377
 6622TIP3    H119830   3.944   4.649   1.861 -2.0159 -1.7220 -1.0886
 6622TIP3    H219831   3.980   4.628   1.715 -1.1642  0.8583 -1.3013
 6623TIP3   OH219832   6.035   4.823   4.473 -0.1532  0.7254  0.5152
 6623TIP3    H119833   6.019   4.735   4.439 -1.0266  0.9290  0.3737
 6623TIP3    H219834   5.950   4.853   4.503  0.1828  1.4341  0.7830
 6624TIP3   OH219835   0.505   5.267   1.867 -0.2633  0.2957 -0.0669
 6624TIP3    H119836   0.583   5.291   1.918  1.0965  0.6715 -2.1877
 6624TIP3    H219837   0.475   5.349   1.829  0.3214 -0.2814 -1.8863
 6625TIP3   OH219838   2.440   1.908   0.920 -0.4271 -0.0225 -0.0595
 6625TIP3    H119839   2.403   1.849   0.854 -1.0058 -0.8931  1.0297
 6625TIP3    H219840   2.446   1.992   0.874  0.1469 -0.8295 -1.5488
 6626TIP3   OH219841   3.393   6.567   4.519 -0.3016  0.5163 -0.1611
 6626TIP3    H119842   3.425   6.545   4.606  2.1588 -0.6639 -1.2702
 6626TIP3    H219843   3.306   6.605   4.534 -0.4673 -0.7677  2.6715
 6627TIP3   OH219844   6.939   3.226   1.964 -0.6078 -0.2660 -0.0882
 6627TIP3    H119845   6.955   3.148   1.910 -1.3307 -2.1886  2.2945
 6627TIP3    H219846   7.026   3.256   1.989 -0.3169 -0.2440 -1.0582
 6628TIP3   OH219847   5.262   2.868   0.911 -0.3958  0.6341 -0.2856
 6628TIP3    H119848   5.266   2.774   0.891 -0.5162  0.4919  0.3431
 6628TIP3    H219849   5.353   2.896   0.913 -0.2535  0.1260  1.3702
 6629TIP3   OH219850   6.476   4.870   3.410  0.2165 -0.0451 -0.4709
 6629TIP3    H119851   6.384   4.849   3.423  0.0534  0.1236 -1.2654
 6629TIP3    H219852   6.513   4.873   3.498 -0.7655  0.9222 -0.0608
 6630TIP3   OH219853   2.222   3.053   5.520  0.0006 -0.4248  0.6395
 6630TIP3    H119854   2.232   2.975   5.575 -0.3043 -1.3748 -0.6052
 6630TIP3    H219855   2.185   3.020   5.438  0.2971  0.9744 -0.0874
 6631TIP3   OH219856   1.467   0.195   2.562 -0.2142 -0.4843  0.3423
 6631TIP3    H119857   1.454   0.286   2.534 -1.2609 -0.2793  1.4292
 6631TIP3    H219858   1.415   0.144   2.500  1.5845 -0.5290 -1.2329
 6632TIP3   OH219859   7.200   5.121   5.034  0.0542 -0.2570  0.9124
 6632TIP3    H119860   7.198   5.122   5.130 -1.7821  1.7915  0.9323
 6632TIP3    H219861   7.154   5.201   5.008  0.8697 -0.5368 -1.7005
 6633TIP3   OH219862   1.101   1.913   5.544  0.1535  0.1197  0.1944
 6633TIP3    H119863   1.037   1.852   5.581 -0.3167  1.6266  1.9800
 6633TIP3    H219864   1.139   1.957   5.620 -0.4001  2.9252 -1.0435
 6634TIP3   OH219865   4.495   6.745   1.444  0.0310  0.0735  0.0669
 6634TIP3    H119866   4.513   6.737   1.351  0.2040  1.6227 -0.0539
 6634TIP3    H219867   4.446   6.665   1.466  2.1869 -1.5635 -0.7587
 6635TIP3   OH219868   4.460   4.202   2.126  0.3391  0.4092 -0.4904
 6635TIP3    H119869   4.516   4.264   2.081 -0.2658  1.4258  0.1129
 6635TIP3    H219870   4.521   4.141   2.168  1.0577  1.9221  0.7706
 6636TIP3   OH219871   4.499   5.387   1.818 -0.4882 -0.1788 -0.0431
 6636TIP3    H119872   4.453   5.303   1.821 -2.3664  0.7615 -0.7307
 6636TIP3    H219873   4.504   5.407   1.725 -1.7163  1.2963  0.1744
 6637TIP3   OH219874   1.623   4.797   5.413 -0.0427  0.4588  0.2204
 6637TIP3    H119875   1.646   4.880   5.455  0.3573  1.9532 -2.6970
 6637TIP3    H219876   1.528   4.791   5.421  0.1516 -0.3708  2.9832
 6638TIP3   OH219877   4.784   0.417   0.596 -0.5997 -0.0147 -0.2724
 6638TIP3    H119878   4.857   0.462   0.640 -2.0391  1.2527  0.9652
 6638TIP3    H219879   4.751   0.355   0.661 -0.7466 -0.4489 -0.7544
 6639TIP3   OH219880   3.794   5.307   1.649 -0.1099  0.5129 -0.7323
 6639TIP3    H119881   3.780   5.233   1.708 -0.8085  1.5169  0.4168
 6639TIP3    H219882   3.817   5.268   1.565  1.9549 -0.9712  0.4245
 6640TIP3   OH219883   6.086   2.719   1.215  0.4573 -0.6079 -0.1771
 6640TIP3    H119884   6.136   2.680   1.144  1.1162  0.4228 -0.2881
 6640TIP3    H219885   6.021   2.775   1.172 -1.5803 -2.7339 -0.0928
 6641TIP3   OH219886   4.872   1.108   2.197  0.6440 -0.1884 -0.3653
 6641TIP3    H119887   4.960   1.084   2.167  0.9712 -1.6865  1.5387
 6641TIP3    H219888   4.884   1.195   2.236  0.9933  0.1749 -1.2714
 6642TIP3   OH219889   0.365   6.540   5.656 -0.1173 -0.1523  0.1659
 6642TIP3    H119890   0.390   6.610   5.716  0.8977 -0.7222  0.4312
 6642TIP3    H219891   0.269   6.543   5.654 -0.1272  0.5681  0.9640
 6643TIP3   OH219892   6.455   2.137   1.599 -0.2702 -0.0669 -0.4718
 6643TIP3    H119893   6.413   2.051   1.588  1.0607 -0.6618 -1.1355
 6643TIP3    H219894   6.392   2.198   1.561 -0.0703 -1.0670 -2.5947
 6644TIP3   OH219895   0.021   4.599   1.845 -0.4993 -0.2132  0.0858
 6644TIP3    H119896   0.036   4.506   1.828  3.8290  0.5617 -1.9588
 6644TIP3    H219897  -0.040   4.627   1.776  0.3758 -1.0840 -1.0788
 6645TIP3   OH219898   5.579   6.404   4.215 -0.0272  0.0901  0.8868
 6645TIP3    H119899   5.604   6.321   4.254  0.1097  0.0078  0.6263
 6645TIP3    H219900   5.490   6.420   4.246  0.0766  0.0200  1.2188
 6646TIP3   OH219901   5.878   0.039   1.727 -0.2615  0.3199  0.0042
 6646TIP3    H119902   5.813   0.047   1.657 -1.7617  1.0183  1.4304
 6646TIP3    H219903   5.912   0.128   1.738 -0.2981  0.2798  0.4232
 6647TIP3   OH219904   2.955   3.939   4.454 -0.4624  0.7199 -0.4443
 6647TIP3    H119905   2.931   3.895   4.536 -0.8561 -1.5463 -1.6844
 6647TIP3    H219906   2.880   3.995   4.435 -0.5572  0.9407  0.5202
 6648TIP3   OH219907   5.026   1.027   1.336  0.2419  0.4099 -0.1375
 6648TIP3    H119908   5.108   1.064   1.369 -0.3185  0.8595  0.7911
 6648TIP3    H219909   4.960   1.054   1.400 -0.4637 -0.8239 -0.3126
 6649TIP3   OH219910   5.952   1.701   2.857 -0.3196 -0.3760  0.7329
 6649TIP3    H119911   5.881   1.737   2.803  0.9732  1.2901  0.0689
 6649TIP3    H219912   5.970   1.615   2.819  1.7170  1.3940 -2.7752
 6650TIP3   OH219913   5.581   4.423   1.343 -0.2520  0.6363 -0.3679
 6650TIP3    H119914   5.674   4.430   1.364 -0.4357 -0.0658  0.7837
 6650TIP3    H219915   5.539   4.485   1.402 -0.3619  2.6336 -2.4347
 6651TIP3   OH219916   3.130   6.193   2.314  0.2795  0.1174  0.7266
 6651TIP3    H119917   3.111   6.165   2.225  2.0081 -0.0912  0.4059
 6651TIP3    H219918   3.062   6.151   2.367 -0.0531 -0.7260 -0.3391
 6652TIP3   OH219919   4.652   6.223   5.512 -0.0278  0.2038 -0.0902
 6652TIP3    H119920   4.690   6.145   5.472  1.3640  1.1946 -0.7771
 6652TIP3    H219921   4.631   6.196   5.602  0.1427 -1.0390 -0.4024
 6653TIP3   OH219922   1.245   4.309   2.607  0.1448 -0.5688 -0.2486
 6653TIP3    H119923   1.173   4.262   2.565  1.6888 -3.1023 -0.2967
 6653TIP3    H219924   1.273   4.250   2.677  2.3451  0.1902 -0.4296
 6654TIP3   OH219925   0.739   4.304   4.401 -0.1449 -0.1123  0.0969
 6654TIP3    H119926   0.748   4.377   4.462  0.8304 -0.5691  0.5198
 6654TIP3    H219927   0.749   4.344   4.314  0.0590  0.3013  0.3108
 6655TIP3   OH219928   5.337   1.915   0.673 -0.1064  0.1105  0.2228
 6655TIP3    H119929   5.418   1.928   0.722  1.4109 -1.4906 -1.6940
 6655TIP3    H219930   5.325   1.820   0.673  0.0596  0.0210 -2.5812
 6656TIP3   OH219931   5.908   3.789   1.058  0.6565 -0.2079  0.4530
 6656TIP3    H119932   5.957   3.781   0.976  1.6321 -0.3438  1.0273
 6656TIP3    H219933   5.828   3.834   1.034 -0.0785 -2.1359 -0.9621
 6657TIP3   OH219934   4.084   5.974   2.447  0.3165 -0.3376  0.6139
 6657TIP3    H119935   4.047   5.900   2.496  1.1836 -1.6261 -0.6110
 6657TIP3    H219936   4.145   6.015   2.509 -0.6242 -0.2586  1.5113
 6658TIP3   OH219937   1.270   0.274   4.586 -0.0801  0.4677  0.9323
 6658TIP3    H119938   1.207   0.281   4.514  2.0959  2.2651 -0.9764
 6658TIP3    H219939   1.326   0.200   4.561 -0.0956  0.2798  1.4476
 6659TIP3   OH219940   6.800   5.707   1.582 -0.6417 -0.0169  0.5652
 6659TIP3    H119941   6.815   5.650   1.657 -0.1167 -0.0628  0.4302
 6659TIP3    H219942   6.740   5.658   1.525  0.7823 -0.9930 -0.1464
 6660TIP3   OH219943   0.620   5.863   0.605 -0.0734 -0.4989  0.0148
 6660TIP3    H119944   0.635   5.877   0.698  1.4194 -0.9924 -0.1153
 6660TIP3    H219945   0.650   5.773   0.589  1.0886  0.0509 -1.1769
 6661TIP3   OH219946   7.000   0.892   1.097  0.2057  0.5273  0.7566
 6661TIP3    H119947   6.927   0.831   1.087 -0.1351  0.9337  0.7875
 6661TIP3    H219948   7.078   0.836   1.088 -0.0984 -0.0308  1.4531
 6662TIP3   OH219949   7.100   4.445   3.340  0.1824  0.1574 -0.3868
 6662TIP3    H119950   7.111   4.526   3.390  2.2691  0.6644 -1.5591
 6662TIP3    H219951   7.139   4.377   3.395  3.5207  0.8890 -1.6537
 6663TIP3   OH219952   2.902   0.314   0.195  0.0645  0.7379  0.1040
 6663TIP3    H119953   2.807   0.326   0.206 -0.1889 -2.2410  2.7277
 6663TIP3    H219954   2.910   0.251   0.123  0.0575  1.1577 -0.2628
 6664TIP3   OH219955   1.925   3.988   0.401  0.0832  0.1720 -0.1830
 6664TIP3    H119956   1.936   3.895   0.425 -1.3943  0.4562  1.9159
 6664TIP3    H219957   2.014   4.020   0.387  0.8681 -0.9393  1.8252
 6665TIP3   OH219958   5.004   4.757   4.475  0.1970  0.3405  0.1092
 6665TIP3    H119959   4.985   4.849   4.491  0.3495  0.3857  0.0275
 6665TIP3    H219960   5.085   4.740   4.523  0.3746  0.3448 -0.1884
 6666TIP3   OH219961   0.352   1.343   1.776 -0.5746  0.6303 -0.4386
 6666TIP3    H119962   0.428   1.362   1.831  0.3562 -1.0221 -1.0878
 6666TIP3    H219963   0.385   1.349   1.686 -1.1630 -0.3240 -0.7307
 6667TIP3   OH219964   0.460   2.759   1.923  0.3828  0.0383  0.8051
 6667TIP3    H119965   0.534   2.736   1.866  1.2245  2.4545  0.8199
 6667TIP3    H219966   0.500   2.784   2.006 -0.7437 -1.8887  2.0101
 6668TIP3   OH219967   5.909   1.463   2.729 -0.7577  0.0616 -0.0045
 6668TIP3    H119968   5.937   1.390   2.786 -1.3358 -0.0548  0.1335
 6668TIP3    H219969   5.880   1.421   2.648 -1.2567  0.1211  0.1396
 6669TIP3   OH219970   6.711   6.557   4.007  0.0098  0.0170  0.3107
 6669TIP3    H119971   6.779   6.597   4.062  0.4712  0.3293 -0.4515
 6669TIP3    H219972   6.761   6.509   3.940 -0.5253 -0.1056 -0.0027
 6670TIP3   OH219973   1.094   0.911   2.765 -0.1688 -0.5642  0.2405
 6670TIP3    H119974   1.020   0.864   2.803 -0.4163  0.0389  0.5123
 6670TIP3    H219975   1.087   1.000   2.799  0.4226 -0.3807 -0.0903
 6671TIP3   OH219976   1.117   0.818   3.528 -0.4747  0.1694 -0.1472
 6671TIP3    H119977   1.206   0.841   3.503  0.6819 -1.9728  1.5950
 6671TIP3    H219978   1.081   0.898   3.565  1.7007  0.4858  1.5248
 6672TIP3   OH219979   5.991   5.772   0.521  0.2724 -0.2898  0.6610
 6672TIP3    H119980   5.991   5.696   0.580 -0.5951 -0.4015  0.5312
 6672TIP3    H219981   6.058   5.753   0.456  0.1574 -0.8815  0.7124
 6673TIP3   OH219982   6.732   3.786   2.590 -0.0896  0.4096  1.0587
 6673TIP3    H119983   6.743   3.875   2.624  2.0423 -0.1338  1.9754
 6673TIP3    H219984   6.683   3.798   2.509  0.5838  2.4926  0.8761
 6674TIP3   OH219985   5.839   5.492   3.977 -0.4232  0.3391 -0.1242
 6674TIP3    H119986   5.827   5.567   4.035  0.1444  0.9139 -0.7218
 6674TIP3    H219987   5.827   5.528   3.889  1.2054  0.0407 -0.5071
 6675TIP3   OH219988   5.418   2.743   1.559 -0.7108  0.2098 -0.0280
 6675TIP3    H119989   5.420   2.803   1.484 -0.5051  0.5500  0.2421
 6675TIP3    H219990   5.347   2.682   1.539  1.2740 -1.6339 -1.9552
 6676TIP3   OH219991   3.367   0.989   2.028  0.5117 -0.3598 -0.4160
 6676TIP3    H119992   3.407   1.059   2.081  0.4188 -2.0325  2.0342
 6676TIP3    H219993   3.277   1.019   2.014  1.0433  0.9406 -1.2597
 6677TIP3   OH219994   7.018   4.170   5.069  0.3235  0.0445 -0.1740
 6677TIP3    H119995   6.954   4.132   5.130 -0.6454 -1.5688 -2.0797
 6677TIP3    H219996   7.094   4.190   5.124 -0.5301 -1.2520  1.5818
 6678TIP3   OH219997   2.322   4.467   1.207  0.6715 -0.0811  0.0973
 6678TIP3    H119998   2.229   4.470   1.186  0.8960 -1.5299 -1.3655
 6678TIP3    H219999   2.357   4.552   1.179 -0.1853  0.4386  0.5863
 6679TIP3   OH220000   0.985   3.644   1.307  0.3853 -0.4029  0.3238
 6679TIP3    H120001   1.034   3.679   1.233  0.1851 -2.0694 -0.6361
 6679TIP3    H220002   0.893   3.664   1.286  0.1801 -2.2677 -0.7054
 6680TIP3   OH220003   2.688   5.324   0.143 -0.2397 -0.0599  0.0015
 6680TIP3    H120004   2.759   5.358   0.197  1.4305 -2.5406 -0.4464
 6680TIP3    H220005   2.724   5.325   0.054 -0.8195 -1.1377 -0.2636
 6681TIP3   OH220006   7.047   5.620   2.051  0.0977 -0.3228  0.2971
 6681TIP3    H120007   7.047   5.585   2.140  0.3477  0.2788  0.5341
 6681TIP3    H220008   7.096   5.555   2.000  0.3946 -0.4192  0.6983
 6682TIP3   OH220009   2.562   0.558   4.988 -0.0004  0.4554 -0.1437
 6682TIP3    H120010   2.468   0.567   4.974 -0.6487 -3.6459  0.4641
 6682TIP3    H220011   2.592   0.502   4.917  2.2936  2.4480 -0.9001
 6683TIP3   OH220012   1.290   5.726   1.875  0.5735  0.2876  0.3490
 6683TIP3    H120013   1.301   5.684   1.790 -0.7695  1.0745 -0.2267
 6683TIP3    H220014   1.293   5.653   1.938 -0.7435 -0.5840 -0.5570
 6684TIP3   OH220015   4.192   2.821   3.758 -0.0426 -0.0531  0.6690
 6684TIP3    H120016   4.227   2.753   3.814 -0.6949 -1.1211 -0.1858
 6684TIP3    H220017   4.118   2.858   3.807  0.8253  0.6396  1.4906
 6685TIP3   OH220018   0.957   3.460   5.816 -0.0807  0.0761  0.0150
 6685TIP3    H120019   0.994   3.531   5.763  0.5122 -0.8220 -0.8137
 6685TIP3    H220020   0.894   3.419   5.757  0.9050 -1.2181 -0.1717
 6686TIP3   OH220021   6.323   3.015   4.365  0.3735 -0.2218 -0.1100
 6686TIP3    H120022   6.383   3.084   4.339 -0.7694  0.4689 -1.0476
 6686TIP3    H220023   6.314   2.960   4.287  1.9443 -2.0023  0.8703
 6687TIP3   OH220024   5.518   2.343   1.060  0.2290 -0.1131 -0.3416
 6687TIP3    H120025   5.459   2.396   1.114  1.6518  1.1591  0.0145
 6687TIP3    H220026   5.486   2.254   1.072 -0.7918  0.3781  0.9121
 6688TIP3   OH220027   3.783   2.293   5.842 -0.4933 -0.4666  0.2384
 6688TIP3    H120028   3.783   2.305   5.937  0.3930  1.2727  0.0640
 6688TIP3    H220029   3.873   2.271   5.821 -0.4629  0.1329 -0.2847
 6689TIP3   OH220030   0.818   2.659   2.467  0.0262 -0.6518  0.4071
 6689TIP3    H120031   0.832   2.749   2.439 -0.9455 -0.6802 -0.2336
 6689TIP3    H220032   0.815   2.664   2.563  1.2817 -0.2213  0.4437
 6690TIP3   OH220033   0.677   5.417   5.851 -0.1493 -0.7413  0.3271
 6690TIP3    H120034   0.668   5.500   5.803 -0.9217 -0.1109  1.5187
 6690TIP3    H220035   0.639   5.435   5.937  0.2600 -2.1563  0.8242
 6691TIP3   OH220036   7.031   1.083   5.682 -0.6161 -0.0281 -0.0020
 6691TIP3    H120037   7.004   1.008   5.736 -4.1639 -0.0926 -1.5978
 6691TIP3    H220038   7.079   1.044   5.609 -2.7980 -0.9215 -1.0445
 6692TIP3   OH220039   0.115   3.225   5.474 -0.1791  0.2706  0.9095
 6692TIP3    H120040   0.121   3.277   5.554 -0.9274 -0.5267  1.5019
 6692TIP3    H220041   0.187   3.257   5.419 -1.4081  2.8611  0.6767
 6693TIP3   OH220042   2.380   3.329   5.783 -0.0913 -0.5995 -0.4444
 6693TIP3    H120043   2.401   3.418   5.754  1.0007 -0.0736  1.7224
 6693TIP3    H220044   2.293   3.337   5.824  0.4954 -0.2418  0.7718
 6694TIP3   OH220045   6.557   2.798   2.837  0.1900  0.0878 -0.1963
 6694TIP3    H120046   6.646   2.794   2.803 -0.1188 -1.0303 -0.9336
 6694TIP3    H220047   6.562   2.859   2.911  1.1693  1.4705 -1.3489
 6695TIP3   OH220048   0.126   2.470   5.730 -0.4439  0.2259 -0.6111
 6695TIP3    H120049   0.148   2.392   5.781 -2.5942  1.1223  1.9015
 6695TIP3    H220050   0.082   2.436   5.652 -1.2213 -1.1124  0.3753
 6696TIP3   OH220051   6.263   5.798   1.617 -0.2745  0.2284  0.2904
 6696TIP3    H120052   6.276   5.867   1.682  0.1193  0.1157  0.3319
 6696TIP3    H220053   6.314   5.826   1.541  2.3326 -1.4064  1.3064
 6697TIP3   OH220054   4.843   0.609   0.026  0.3589 -0.2432  0.3062
 6697TIP3    H120055   4.838   0.554  -0.053 -1.9228 -0.1336  0.3057
 6697TIP3    H220056   4.770   0.580   0.080  0.7847  0.9370  1.5620
 6698TIP3   OH220057   1.783   1.695   3.131  0.2567  0.2398 -0.0416
 6698TIP3    H120058   1.731   1.767   3.167  1.1973  0.8170  0.1970
 6698TIP3    H220059   1.855   1.739   3.086 -0.6262 -0.4517 -2.2960
 6699TIP3   OH220060   2.136   4.098   2.068 -0.3648 -0.3340 -0.7957
 6699TIP3    H120061   2.179   4.094   1.983  0.0805  1.1362 -0.6661
 6699TIP3    H220062   2.202   4.068   2.131  1.1555  3.3176 -0.4094
 6700TIP3   OH220063   0.773   1.792   4.379 -0.0048 -0.1630  0.5314
 6700TIP3    H120064   0.814   1.877   4.394  0.7426 -0.6288  1.2819
 6700TIP3    H220065   0.679   1.810   4.375  0.1806  0.7522  0.2178
 6701TIP3   OH220066   0.676   4.083   2.805 -0.2619  0.2151  0.8822
 6701TIP3    H120067   0.746   4.031   2.766  0.1145  1.4683 -0.1920
 6701TIP3    H220068   0.601   4.023   2.809  0.5386 -0.7993  0.9530
 6702TIP3   OH220069   4.992   3.253   4.053  0.2246 -0.3599 -0.6403
 6702TIP3    H120070   5.009   3.159   4.063  0.4742 -0.1616  1.3468
 6702TIP3    H220071   4.932   3.274   4.125  0.0965  0.9869 -1.1062
 6703TIP3   OH220072   4.439   4.971   1.696  0.2932 -0.2358  0.2725
 6703TIP3    H120073   4.524   4.926   1.691 -0.1048 -0.8858 -2.1273
 6703TIP3    H220074   4.428   5.010   1.609 -1.9851 -0.3798  0.4385
 6704TIP3   OH220075   1.608   3.521   5.522  0.5669 -0.5957 -0.6746
 6704TIP3    H120076   1.686   3.473   5.549  0.9910  0.4090 -0.0392
 6704TIP3    H220077   1.552   3.521   5.600  0.1133 -0.9403 -0.9933
 6705TIP3   OH220078   1.292   1.031   4.047 -0.4364  0.0922  0.5968
 6705TIP3    H120079   1.264   1.003   3.959 -0.1817 -0.0364  0.5567
 6705TIP3    H220080   1.322   0.951   4.089 -1.5497 -0.0321  1.1790
 6706TIP3   OH220081   5.195   4.677   2.299 -0.3556 -0.1296  0.4001
 6706TIP3    H120082   5.229   4.613   2.361  2.3005 -0.6708 -1.4721
 6706TIP3    H220083   5.163   4.625   2.225  1.5111  0.5961 -0.9944
 6707TIP3   OH220084   4.648   5.008   4.367  0.1223  0.0768  0.2246
 6707TIP3    H120085   4.743   5.003   4.371  0.2222  0.5487 -1.1145
 6707TIP3    H220086   4.627   4.997   4.275 -1.1827 -0.7473  0.5820
 6708TIP3   OH220087   4.115   6.075   2.896  0.2583  0.2923 -0.0851
 6708TIP3    H120088   4.067   6.090   2.814  0.9753  2.0147 -0.2455
 6708TIP3    H220089   4.099   5.983   2.917  0.4151 -0.3415 -2.4085
 6709TIP3   OH220090   1.282   4.331   0.218  0.2832 -0.5949  0.1317
 6709TIP3    H120091   1.258   4.273   0.291  0.1426 -1.2650 -0.4427
 6709TIP3    H220092   1.200   4.373   0.193 -0.5618 -3.3499 -2.2457
 6710TIP3   OH220093   3.528   4.339   1.621  0.2444  0.4350  0.3395
 6710TIP3    H120094   3.541   4.349   1.716 -2.1180 -0.2066  0.7966
 6710TIP3    H220095   3.451   4.392   1.601 -0.5443 -1.0379 -0.8026
 6711TIP3   OH220096   1.203   6.604   2.049 -0.2451 -0.3621  0.0110
 6711TIP3    H120097   1.185   6.629   2.140 -0.4943  0.4554 -0.2506
 6711TIP3    H220098   1.200   6.508   2.050 -1.0202 -0.3531  0.7191
 6712TIP3   OH220099   0.757   6.404   1.948 -0.4428 -0.1289  0.3238
 6712TIP3    H120100   0.754   6.383   2.041 -0.3714  0.1615  0.3901
 6712TIP3    H220101   0.756   6.499   1.944  0.1623 -0.1243  0.0502
 6713TIP3   OH220102   2.970   6.029   0.295 -0.2339  0.3089 -0.7599
 6713TIP3    H120103   2.986   6.121   0.278  1.0109  0.0523 -1.0191
 6713TIP3    H220104   2.887   6.010   0.251 -0.5477  1.3216 -0.6143
 6714TIP3   OH220105   3.609   2.461   1.052 -0.3173 -0.1241  0.1298
 6714TIP3    H120106   3.517   2.466   1.025 -0.6330 -2.5144  0.6233
 6714TIP3    H220107   3.649   2.400   0.990  1.0754  1.2002 -0.3308
 6715TIP3   OH220108   5.030   1.510   0.765 -0.4108  0.2209  0.4120
 6715TIP3    H120109   5.085   1.434   0.784 -0.1112  0.7154  1.5782
 6715TIP3    H220110   4.948   1.472   0.733  0.6717 -0.5315 -1.7009
 6716TIP3   OH220111   3.761   0.631   4.347  0.3675 -0.4230  0.7273
 6716TIP3    H120112   3.806   0.715   4.341 -0.1567 -0.2360 -1.1987
 6716TIP3    H220113   3.668   0.654   4.349  0.1672 -0.9586 -1.0245
 6717TIP3   OH220114   4.442   6.579   1.966 -0.0175  0.0908 -0.2233
 6717TIP3    H120115   4.457   6.575   1.872  1.1191  0.5759 -0.0719
 6717TIP3    H220116   4.348   6.563   1.976 -0.0801 -0.3540 -1.4023
 6718TIP3   OH220117   4.094   5.584   2.039  0.0953  0.1895 -0.7841
 6718TIP3    H120118   4.095   5.511   1.978 -2.4930  0.3862 -1.1805
 6718TIP3    H220119   4.050   5.550   2.117  2.0215  0.3786  0.4579
 6719TIP3   OH220120   1.394   3.569   5.058 -0.4320 -0.4888  0.2191
 6719TIP3    H120121   1.386   3.575   4.962  2.7579  0.9068 -0.1171
 6719TIP3    H220122   1.389   3.476   5.077 -0.8989 -0.8145 -1.3469
 6720TIP3   OH220123   5.522   1.678   4.544 -0.2187  0.6907  0.2239
 6720TIP3    H120124   5.491   1.588   4.554 -0.2833  0.7240  0.3379
 6720TIP3    H220125   5.453   1.722   4.495 -0.2051  0.6875  0.2016
 6721TIP3   OH220126   6.467   4.706   0.025  0.1163 -0.0601  0.4719
 6721TIP3    H120127   6.427   4.669   0.104 -1.4143 -0.7392 -0.5855
 6721TIP3    H220128   6.402   4.769  -0.007  0.2183 -0.5974 -0.8460
 6722TIP3   OH220129   6.604   6.552   1.642  0.1882 -0.4219 -0.4268
 6722TIP3    H120130   6.547   6.544   1.718  2.7122  0.0747  1.7020
 6722TIP3    H220131   6.591   6.642   1.611 -0.3033 -0.3795 -0.1040
 6723TIP3   OH220132   5.721   1.562   5.502 -0.8783  0.7454  0.0855
 6723TIP3    H120133   5.687   1.495   5.443 -0.5883  0.7460 -0.0847
 6723TIP3    H220134   5.729   1.641   5.448 -0.7138  0.7759  0.1535
 6724TIP3   OH220135   3.871   0.626   0.418  0.5249 -0.5067  0.0513
 6724TIP3    H120136   3.858   0.638   0.512 -0.1615 -2.2533  0.2171
 6724TIP3    H220137   3.966   0.617   0.408  0.5937 -0.3918  0.5817
 6725TIP3   OH220138   3.590   1.758   1.649 -0.6525 -0.5350 -0.2285
 6725TIP3    H120139   3.622   1.789   1.734  0.8556 -0.8106 -0.6663
 6725TIP3    H220140   3.512   1.810   1.633  1.0355  2.1872 -0.3333
 6726TIP3   OH220141   1.549   1.641   4.514  0.2989  0.6226  0.6678
 6726TIP3    H120142   1.471   1.659   4.461  1.5147  0.0429 -1.4591
 6726TIP3    H220143   1.523   1.568   4.570 -0.1218 -1.0974 -1.5926
 6727TIP3   OH220144   4.974   2.106   4.197  0.3124  0.2297  0.5729
 6727TIP3    H120145   4.980   2.135   4.106 -0.6351 -0.4242  0.2856
 6727TIP3    H220146   5.021   2.023   4.198  0.6035  0.3962  0.7589
 6728TIP3   OH220147   1.551   4.631   4.185 -0.1686  0.1439  0.3466
 6728TIP3    H120148   1.493   4.596   4.252 -1.0554 -0.2507 -0.6046
 6728TIP3    H220149   1.493   4.665   4.117  0.6934 -0.7224 -0.8800
 6729TIP3   OH220150   3.749   0.606   4.995 -0.0430 -0.1983 -0.1605
 6729TIP3    H120151   3.703   0.537   4.947 -0.3392 -0.3908  0.3861
 6729TIP3    H220152   3.679   0.666   5.023  0.3256  1.0505 -1.7390
 6730TIP3   OH220153   3.643   4.076   0.454 -0.1193  0.5870 -0.1051
 6730TIP3    H120154   3.683   4.157   0.487 -0.1319  0.6594 -0.2642
 6730TIP3    H220155   3.551   4.082   0.482 -0.3975  1.1639 -1.0635
 6731TIP3   OH220156   6.452   0.524   3.730  0.1857  0.3072 -0.7816
 6731TIP3    H120157   6.465   0.570   3.813  0.1263 -0.1870 -0.4962
 6731TIP3    H220158   6.539   0.523   3.689  0.0398  1.3275 -1.1364
 6732TIP3   OH220159   4.636   5.998   3.190 -0.8624  0.3342 -0.0787
 6732TIP3    H120160   4.595   6.076   3.152  0.6127  1.8426  1.2641
 6732TIP3    H220161   4.709   6.033   3.243 -1.2792 -1.8037  2.0643
 6733TIP3   OH220162   7.170   4.832   1.007  0.9024 -0.6358  0.1597
 6733TIP3    H120163   7.154   4.784   0.926  1.0297 -1.0800  0.3922
 6733TIP3    H220164   7.224   4.773   1.059  1.1804 -0.1768  0.3944
 6734TIP3   OH220165   0.585   3.502   4.623  0.3266  0.0469 -0.1448
 6734TIP3    H120166   0.618   3.574   4.571 -0.6219  0.1665 -0.6074
 6734TIP3    H220167   0.491   3.520   4.632  0.2568 -0.6165  0.5537
 6735TIP3   OH220168   5.313   3.830   3.230 -0.1085 -0.5906 -0.2742
 6735TIP3    H120169   5.237   3.860   3.181  0.3830 -0.4342 -0.9489
 6735TIP3    H220170   5.291   3.848   3.322 -0.8400 -0.4634 -0.4726
 6736TIP3   OH220171   5.120   5.118   4.776  0.2679 -0.1917 -0.0898
 6736TIP3    H120172   5.096   5.092   4.687  0.7317 -2.0841  0.2898
 6736TIP3    H220173   5.185   5.053   4.803 -0.8844 -0.5200  2.1448
 6737TIP3   OH220174   4.670   2.861   3.841  0.5538  0.2738 -0.6261
 6737TIP3    H120175   4.591   2.899   3.879  0.4018  1.7284 -2.2666
 6737TIP3    H220176   4.706   2.930   3.785  1.9732 -0.9858 -1.3725
 6738TIP3   OH220177   0.752   3.086   3.613 -0.0676  0.0316 -0.4519
 6738TIP3    H120178   0.759   3.129   3.528 -1.1028  0.9014 -0.1243
 6738TIP3    H220179   0.824   3.022   3.614  1.2260  1.4115 -1.1586
 6739TIP3   OH220180   0.996   1.775   4.632  0.1637  0.5683  0.0395
 6739TIP3    H120181   1.045   1.707   4.678 -1.4780 -0.9081 -0.2897
 6739TIP3    H220182   0.904   1.753   4.648 -0.4570  3.4583  0.9649
 6740TIP3   OH220183   4.085   0.351   2.476  0.2007  0.0069 -0.1916
 6740TIP3    H120184   4.097   0.394   2.561  1.4875  1.1645 -0.9244
 6740TIP3    H220185   4.009   0.395   2.437  1.2406  1.3762 -0.7463
 6741TIP3   OH220186   3.924   1.396   3.303  0.1395 -0.4660 -0.2853
 6741TIP3    H120187   3.930   1.350   3.386 -0.3989 -1.4528 -0.7713
 6741TIP3    H220188   3.941   1.488   3.325 -0.1444 -0.6846  0.9329
 6742TIP3   OH220189   2.536   5.042   1.488 -0.3849  0.6675  0.3430
 6742TIP3    H120190   2.459   4.986   1.480 -0.3818  0.9079 -2.2179
 6742TIP3    H220191   2.524   5.110   1.421  1.2758  1.6887  1.0012
 6743TIP3   OH220192   3.194   3.155   5.347 -0.4847  0.5814 -0.3646
 6743TIP3    H120193   3.144   3.216   5.401 -0.5817  0.3384 -0.1796
 6743TIP3    H220194   3.210   3.080   5.404 -0.2659  0.4820 -0.5545
 6744TIP3   OH220195   1.232   0.538   0.511  0.5419  0.3225  0.3495
 6744TIP3    H120196   1.277   0.531   0.595  0.9730  0.8335  0.1647
 6744TIP3    H220197   1.300   0.524   0.446  0.3603  0.6924  0.0725
 6745TIP3   OH220198   4.425   1.252   5.169  0.3538 -0.1213  0.1354
 6745TIP3    H120199   4.413   1.318   5.101  1.6400  0.6622  0.6384
 6745TIP3    H220200   4.379   1.288   5.245  1.5325  0.4853  0.5764
 6746TIP3   OH220201   6.517   1.538   1.607 -0.0658 -0.2198  0.4120
 6746TIP3    H120202   6.494   1.561   1.517 -0.5434 -0.5209  0.4572
 6746TIP3    H220203   6.552   1.619   1.644 -0.0015 -0.0558  0.0041
 6747TIP3   OH220204   1.173   0.274   4.856 -0.3356  0.2383  0.7042
 6747TIP3    H120205   1.184   0.359   4.899  1.1762  1.4157 -1.8032
 6747TIP3    H220206   1.176   0.294   4.763  0.8893 -2.6652  0.0275
 6748TIP3   OH220207   5.591   0.040   5.573  0.2317  0.0777  0.6120
 6748TIP3    H120208   5.587   0.057   5.479 -1.6769  0.9202  0.7938
 6748TIP3    H220209   5.574   0.125   5.613  1.0497 -0.2628  1.7377
 6749TIP3   OH220210   3.319   0.506   4.973  0.3979  0.1652 -0.1854
 6749TIP3    H120211   3.396   0.451   4.963  0.0039 -0.1134 -2.0788
 6749TIP3    H220212   3.251   0.447   5.007  0.6334  0.0893  0.1569
 6750TIP3   OH220213   4.079   3.684   1.093 -0.2835  0.1800 -0.2102
 6750TIP3    H120214   4.025   3.751   1.137 -1.0878 -0.3534 -0.3657
 6750TIP3    H220215   4.084   3.613   1.157  0.0046  0.1129 -0.3105
 6751TIP3   OH220216   6.966   1.035   1.334  0.6718  0.4799 -0.1693
 6751TIP3    H120217   7.006   0.993   1.257  2.3628  2.8822 -0.7023
 6751TIP3    H220218   7.007   0.991   1.409  2.2696  0.9723 -0.7098
 6752TIP3   OH220219   1.927   1.117   2.461  0.0814 -0.2622 -0.3047
 6752TIP3    H120220   2.016   1.083   2.449  0.3144 -0.0143  0.6451
 6752TIP3    H220221   1.898   1.140   2.373  0.8314 -0.6569 -0.6656
 6753TIP3   OH220222   6.947   6.181   5.010  0.6457 -0.2519 -0.6472
 6753TIP3    H120223   6.916   6.194   4.921  0.2367 -1.3978 -0.6891
 6753TIP3    H220224   7.037   6.152   5.000  0.9036  0.5290 -0.6387
 6754TIP3   OH220225   3.681   5.754   5.396 -0.7768 -0.4351  0.8852
 6754TIP3    H120226   3.680   5.658   5.394  1.7387 -0.5328  1.0482
 6754TIP3    H220227   3.731   5.776   5.475 -0.0494  0.9508  0.0854
 6755TIP3   OH220228   2.260   2.233   2.692 -0.0038 -0.5212 -0.8984
 6755TIP3    H120229   2.215   2.318   2.693  0.1090 -0.4614  0.1360
 6755TIP3    H220230   2.352   2.255   2.682  0.3118 -0.3333  1.6479
 6756TIP3   OH220231   2.251   0.657   4.376 -0.0524  0.4530  0.5603
 6756TIP3    H120232   2.326   0.716   4.371  0.0455  0.2932  0.0109
 6756TIP3    H220233   2.188   0.702   4.431  1.0911 -0.1381  2.4579
 6757TIP3   OH220234   0.318   0.612   5.708 -0.0124  0.1022  0.2952
 6757TIP3    H120235   0.323   0.532   5.657 -0.9889  0.5195 -0.4873
 6757TIP3    H220236   0.350   0.681   5.649 -1.7667  0.6877 -0.0461
 6758TIP3   OH220237   0.275   1.149   4.115 -0.4898  0.6074  0.4552
 6758TIP3    H120238   0.206   1.120   4.054 -0.3782  1.2794 -0.0020
 6758TIP3    H220239   0.230   1.209   4.174  0.1221  2.9974 -1.3250
 6759TIP3   OH220240   5.686   5.950   1.807 -0.4603 -0.4453  0.2290
 6759TIP3    H120241   5.669   5.867   1.762  1.0947 -1.6238  1.6788
 6759TIP3    H220242   5.650   5.938   1.895  0.1198  0.2711  0.5754
 6760TIP3   OH220243   3.736   4.358   4.242 -0.3393 -0.0078 -0.4002
 6760TIP3    H120244   3.698   4.283   4.289 -0.5783  0.0992 -0.4240
 6760TIP3    H220245   3.714   4.434   4.296  1.9273 -0.1717  0.9063
 6761TIP3   OH220246   5.018   5.482   2.965  0.3466  0.2657  0.0103
 6761TIP3    H120247   5.061   5.480   3.050  0.5745  0.0641 -0.1075
 6761TIP3    H220248   5.003   5.389   2.944  0.4849  0.3033 -0.2640
 6762TIP3   OH220249   2.757   2.870   0.489  0.3930 -0.1423 -0.1575
 6762TIP3    H120250   2.698   2.945   0.487 -0.7056 -0.9906 -0.6860
 6762TIP3    H220251   2.770   2.847   0.397 -0.0480 -1.1700  0.0217
 6763TIP3   OH220252   0.207   0.610   5.324  0.2368 -0.8139 -0.5136
 6763TIP3    H120253   0.269   0.683   5.315 -1.3822  0.5955 -0.5649
 6763TIP3    H220254   0.149   0.636   5.396 -1.9175 -0.8681 -2.1444
 6764TIP3   OH220255   5.843   1.913   4.498  0.1732  0.1373  0.3299
 6764TIP3    H120256   5.923   1.933   4.548 -0.0618  1.4662  0.2131
 6764TIP3    H220257   5.822   1.995   4.453 -1.1174 -0.2693  0.1519
 6765TIP3   OH220258   4.658   1.190   5.374  0.3508  0.3455 -0.4352
 6765TIP3    H120259   4.566   1.176   5.395 -0.0623  0.2745 -2.1608
 6765TIP3    H220260   4.703   1.112   5.406 -0.0587  0.6833  1.0293
 6766TIP3   OH220261   0.502   0.694   0.258  0.1671  0.3547 -0.1570
 6766TIP3    H120262   0.497   0.784   0.290  0.5537 -0.2770  1.8578
 6766TIP3    H220263   0.487   0.700   0.164 -2.2149  2.2598  0.2594
 6767TIP3   OH220264   1.182   2.735   5.791 -0.2992 -0.0600  0.0171
 6767TIP3    H120265   1.207   2.645   5.771 -1.1541 -0.0819 -1.0316
 6767TIP3    H220266   1.165   2.775   5.706 -0.3312  0.9779  0.4942
 6768TIP3   OH220267   6.480   5.110   2.851  0.3355 -0.3904 -0.0415
 6768TIP3    H120268   6.505   5.183   2.907  1.8328 -1.9524  1.4461
 6768TIP3    H220269   6.533   5.037   2.881 -1.9435 -2.4509 -0.6583
 6769TIP3   OH220270   0.960   0.085   4.900  0.3867  0.4780 -0.0080
 6769TIP3    H120271   1.023   0.156   4.890  0.0145  0.8460  0.2261
 6769TIP3    H220272   0.973   0.054   4.990  1.4331 -0.6150 -0.5047
 6770TIP3   OH220273   0.177   2.442   0.015 -0.0115 -0.3062 -0.4886
 6770TIP3    H120274   0.183   2.484  -0.071 -1.7033  0.1422 -0.4061
 6770TIP3    H220275   0.114   2.494   0.064  1.4739 -0.1053  1.3403
 6771TIP3   OH220276   4.049   4.546   1.224  0.0573  0.4959  0.3510
 6771TIP3    H120277   4.044   4.491   1.145  0.2845 -1.7902  1.8297
 6771TIP3    H220278   4.143   4.557   1.240  0.0266  0.0156  0.8919
 6772TIP3   OH220279   4.300   3.434   1.339  0.1655 -0.3439 -0.1543
 6772TIP3    H120280   4.220   3.388   1.312 -0.1598  0.9868 -1.6359
 6772TIP3    H220281   4.370   3.370   1.327 -0.7715 -2.1229  2.8110
 6773TIP3   OH220282   0.915   2.738   1.393  0.4675 -0.0273 -0.7409
 6773TIP3    H120283   0.860   2.705   1.464  0.4097  0.1159 -0.7186
 6773TIP3    H220284   0.883   2.827   1.378 -0.5237 -0.5472 -1.9496
 6774TIP3   OH220285   2.689   4.762   0.042  0.0362 -0.1938 -0.5938
 6774TIP3    H120286   2.665   4.801   0.126  3.2082  0.6321  0.0584
 6774TIP3    H220287   2.642   4.815  -0.023 -1.2323  0.1443  0.5494
 6775TIP3   OH220288   0.268   5.023   4.481  0.0632 -0.2334  0.4548
 6775TIP3    H120289   0.218   5.102   4.461 -0.2426 -0.3300  0.8180
 6775TIP3    H220290   0.278   5.025   4.576 -1.2118 -1.3634  0.6579
 6776TIP3   OH220291   5.893   2.734   1.891 -0.1347  0.1981 -0.2401
 6776TIP3    H120292   5.841   2.760   1.967 -0.6539  0.5623 -0.7111
 6776TIP3    H220293   5.828   2.706   1.826  0.3374 -0.8278 -0.2934
 6777TIP3   OH220294   2.530   0.456   4.432  0.4579 -0.2553 -0.0160
 6777TIP3    H120295   2.500   0.541   4.464 -1.1210 -1.1994  1.2102
 6777TIP3    H220296   2.526   0.463   4.337  0.2094  0.9801  0.0656
 6778TIP3   OH220297   1.290   0.009   3.292  0.8526  0.5026 -0.7884
 6778TIP3    H120298   1.285   0.059   3.211  2.8895  2.4680  0.2014
 6778TIP3    H220299   1.209  -0.043   3.293 -1.3101  3.5671 -2.0216
 6779TIP3   OH220300   3.921   2.364   1.800 -0.1340 -0.7919  0.3095
 6779TIP3    H120301   3.912   2.455   1.830 -0.5952  0.1635 -2.4630
 6779TIP3    H220302   4.010   2.359   1.767 -0.5143 -0.9473 -0.7090
 6780TIP3   OH220303   3.820   6.079   3.316 -0.3434  0.3264  1.1906
 6780TIP3    H120304   3.914   6.092   3.304  0.0584 -1.7835  1.6435
 6780TIP3    H220305   3.780   6.156   3.275  1.5097  0.5987 -0.2740
 6781TIP3   OH220306   6.631   0.582   4.948 -0.1664  0.2218  0.0333
 6781TIP3    H120307   6.686   0.514   4.908  0.9018  0.8146  0.4383
 6781TIP3    H220308   6.682   0.612   5.023 -1.6930 -0.1731  1.2504
 6782TIP3   OH220309   4.643   6.225   2.204 -0.2517 -0.0719 -0.1698
 6782TIP3    H120310   4.630   6.244   2.297  1.4084  0.6095 -0.0396
 6782TIP3    H220311   4.676   6.135   2.203 -2.4260 -0.9231 -0.3182
 6783TIP3   OH220312   1.011   3.154   4.923  0.2440  0.1882  0.1554
 6783TIP3    H120313   1.082   3.140   4.859 -1.4874  0.6390 -1.9823
 6783TIP3    H220314   0.984   3.066   4.948 -1.4634 -0.2379 -2.6725
 6784TIP3   OH220315   3.507   4.098   0.793 -0.6524 -0.3931 -0.4572
 6784TIP3    H120316   3.445   4.097   0.719  0.1739  1.0444 -1.2169
 6784TIP3    H220317   3.522   4.191   0.810  0.6270 -0.7119  0.2753
 6785TIP3   OH220318   0.719   6.175   3.558  0.2479 -0.3327 -0.2590
 6785TIP3    H120319   0.647   6.148   3.615  0.2957 -0.9230 -0.4743
 6785TIP3    H220320   0.774   6.097   3.549  0.7650  0.0326 -0.3279
 6786TIP3   OH220321   0.581   0.666   4.648  0.4108 -0.4680 -0.3571
 6786TIP3    H120322   0.664   0.622   4.632  1.5763  1.2877  0.4994
 6786TIP3    H220323   0.589   0.750   4.602 -1.0366 -0.4017 -0.5404
 6787TIP3   OH220324   1.498   0.615   2.071 -0.2532  0.2790 -0.3022
 6787TIP3    H120325   1.485   0.634   1.978 -0.3619 -0.0802 -0.3627
 6787TIP3    H220326   1.417   0.572   2.098 -0.5125  1.0536  0.1418
 6788TIP3   OH220327   3.858   1.486   5.817 -0.3237  0.7228  0.1645
 6788TIP3    H120328   3.785   1.535   5.854  0.1442  0.4505  1.5190
 6788TIP3    H220329   3.820   1.438   5.743 -1.2587  1.4340  0.1669
 6789TIP3   OH220330   5.255   2.154   2.616 -0.3428 -0.6413  0.7666
 6789TIP3    H120331   5.173   2.124   2.576  0.1279 -0.2234 -0.5752
 6789TIP3    H220332   5.249   2.250   2.614  0.2813 -0.6046  0.4172
 6790TIP3   OH220333   5.283   1.886   1.396 -0.0583  0.0363  0.7035
 6790TIP3    H120334   5.322   1.923   1.476  0.6158 -1.6447  1.2110
 6790TIP3    H220335   5.358   1.867   1.340 -0.4660  0.3676  0.0377
 6791TIP3   OH220336   7.019   0.565   3.520  0.1392  0.2413 -0.0592
 6791TIP3    H120337   7.004   0.472   3.537  0.3536 -0.1418 -1.7680
 6791TIP3    H220338   6.945   0.592   3.466  0.4419  0.8976 -0.1566
 6792TIP3   OH220339   6.870   5.370   2.014  0.2696 -0.0149 -0.2332
 6792TIP3    H120340   6.851   5.303   2.080  0.1187  0.4674  0.2169
 6792TIP3    H220341   6.965   5.380   2.017  0.2971 -0.2328 -0.3309
 6793TIP3   OH220342   2.895   5.015   0.355 -0.5345 -0.1868  0.3595
 6793TIP3    H120343   2.897   4.988   0.263  0.2812  1.0679 -0.0331
 6793TIP3    H220344   2.835   4.955   0.397 -1.4248 -0.3916 -1.1341
 6794TIP3   OH220345   0.175   2.802   0.050 -0.4781 -0.2495 -0.5779
 6794TIP3    H120346   0.139   2.716   0.072  1.0287 -1.3459 -2.0503
 6794TIP3    H220347   0.114   2.839  -0.013 -0.0328 -1.2552 -1.6320
 6795TIP3   OH220348   3.587   1.490   1.697  0.4136  0.1410 -0.2615
 6795TIP3    H120349   3.603   1.502   1.791  1.6180  0.7598 -0.5246
 6795TIP3    H220350   3.599   1.577   1.659 -0.4158 -0.0310 -0.9607
 6796TIP3   OH220351   0.981   2.959   3.663 -0.5556  0.1311 -0.0382
 6796TIP3    H120352   1.004   3.010   3.741  0.7253  0.1390 -0.3919
 6796TIP3    H220353   1.048   2.890   3.660 -0.6905  0.0393 -1.0393
 6797TIP3   OH220354   0.331   4.096   2.183  0.7259  0.6945  0.4669
 6797TIP3    H120355   0.264   4.029   2.195  2.4316 -0.8048  2.4396
 6797TIP3    H220356   0.290   4.177   2.213 -0.5964  0.0736  0.3955
 6798TIP3   OH220357   3.402   4.509   4.880 -0.2916  0.4098 -0.3460
 6798TIP3    H120358   3.464   4.436   4.875 -0.9559 -0.2057  0.2672
 6798TIP3    H220359   3.442   4.570   4.943 -0.0316  0.2923 -0.3955
 6799TIP3   OH220360   5.485   1.633   5.618 -0.2200 -0.0744 -0.0546
 6799TIP3    H120361   5.549   1.584   5.567  0.9076 -0.2083  1.4209
 6799TIP3    H220362   5.456   1.572   5.686 -1.1211  0.3411 -0.0415
 6800TIP3   OH220363   0.565   2.918   5.569  0.2926 -0.3687  0.3731
 6800TIP3    H120364   0.560   2.857   5.496  0.7357 -0.5548  0.4931
 6800TIP3    H220365   0.486   2.972   5.562 -0.5795 -1.5609  0.7999
 6801TIP3   OH220366   0.115   6.096   0.672  0.0098  0.1514  0.2899
 6801TIP3    H120367   0.117   6.146   0.591  0.3663 -1.9017 -1.0258
 6801TIP3    H220368   0.026   6.060   0.676  0.5855 -1.4296 -0.3053
 6802TIP3   OH220369   1.694   6.631   2.182  0.3540 -0.6506 -0.1624
 6802TIP3    H120370   1.703   6.726   2.181 -1.0369 -0.4877  0.1194
 6802TIP3    H220371   1.708   6.607   2.274 -2.8241 -0.2532  0.5441
 6803TIP3   OH220372   1.371   3.124   5.252 -0.2748 -0.6866 -0.0432
 6803TIP3    H120373   1.443   3.169   5.297 -0.0976  0.2227 -1.2034
 6803TIP3    H220374   1.396   3.031   5.253  1.6704 -0.2491 -1.7086
 6804TIP3   OH220375   0.022   1.500   1.572  0.4139  0.1609 -0.5396
 6804TIP3    H120376   0.091   1.566   1.561 -0.5248  1.3663  0.4452
 6804TIP3    H220377   0.040   1.461   1.657 -0.0838  0.4451 -0.3016
 6805TIP3   OH220378   1.275   4.565   4.578 -0.3237  0.5836  0.0251
 6805TIP3    H120379   1.229   4.639   4.539  0.8833  0.9538 -0.7798
 6805TIP3    H220380   1.348   4.605   4.626  0.2882 -0.0654 -0.3439
 6806TIP3   OH220381   0.192   3.858   5.111  0.2087 -0.4885  1.1961
 6806TIP3    H120382   0.189   3.921   5.183 -0.1019  0.5902  0.2654
 6806TIP3    H220383   0.264   3.798   5.134  0.0725 -0.2030  2.4172
 6807TIP3   OH220384   6.263   3.530   2.154  0.0452 -0.6382  0.0947
 6807TIP3    H120385   6.301   3.471   2.090  1.1148 -0.4335  0.5155
 6807TIP3    H220386   6.169   3.521   2.142  0.1522 -2.6831  0.3735
 6808TIP3   OH220387   1.455   5.212   4.682  0.6092  0.1774  0.4369
 6808TIP3    H120388   1.539   5.196   4.640  0.0364 -0.0858 -0.6638
 6808TIP3    H220389   1.391   5.170   4.624 -0.2096 -0.4113  1.7079
 6809TIP3   OH220390   1.210   4.404   1.213  0.1542  0.1895 -0.3234
 6809TIP3    H120391   1.180   4.436   1.128  0.0388 -0.8306 -0.6742
 6809TIP3    H220392   1.237   4.314   1.197 -0.4832 -0.2311  0.8444
 6810TIP3   OH220393   0.937   1.404   2.818 -0.5953  0.0305  0.3434
 6810TIP3    H120394   0.923   1.491   2.856 -3.1741 -0.1590 -0.0086
 6810TIP3    H220395   1.006   1.417   2.753 -2.0928  2.2710 -0.9396
 6811TIP3   OH220396   0.761   3.860   1.469  0.6259 -0.2461  0.3381
 6811TIP3    H120397   0.714   3.916   1.530 -0.1599  0.0941 -0.5455
 6811TIP3    H220398   0.833   3.916   1.437  0.9527 -0.3775  0.8380
 6812TIP3   OH220399   4.830   5.778   3.361  0.3678 -0.2031 -0.3595
 6812TIP3    H120400   4.779   5.705   3.328  0.9013 -0.4848 -0.5675
 6812TIP3    H220401   4.912   5.775   3.312  1.6331 -1.2723  1.6616
 6813TIP3   OH220402   0.663   1.187   1.506  0.1487 -0.2664 -0.1038
 6813TIP3    H120403   0.742   1.198   1.453  1.2538 -2.2102  1.0604
 6813TIP3    H220404   0.607   1.129   1.454  0.6595 -1.0843  0.2462
 6814TIP3   OH220405   3.760   1.342   2.547 -0.2673  0.7444  0.2170
 6814TIP3    H120406   3.669   1.354   2.521 -0.2878  1.2178  0.4862
 6814TIP3    H220407   3.785   1.427   2.584  0.2868  0.6242  0.1261
 6815TIP3   OH220408   2.948   0.861   4.335 -0.0842 -0.0549  0.2082
 6815TIP3    H120409   2.974   0.929   4.397  1.0768 -0.8004  0.5698
 6815TIP3    H220410   2.958   0.779   4.384 -0.1793 -0.5853 -0.6399
 6816TIP3   OH220411   0.479   4.659   1.671 -0.3670 -0.2975  0.5867
 6816TIP3    H120412   0.543   4.638   1.739 -0.4697  0.4993  0.9402
 6816TIP3    H220413   0.420   4.583   1.668 -1.3127  0.3018  2.5037
 6817TIP3   OH220414   5.395   0.157   4.130 -0.1655 -0.1725  0.5216
 6817TIP3    H120415   5.357   0.155   4.217 -0.6699 -1.5965  0.3007
 6817TIP3    H220416   5.335   0.210   4.078 -1.8195 -2.1792  0.2396
 6818TIP3   OH220417   5.476   1.957   3.177  0.3907 -0.2942  0.4924
 6818TIP3    H120418   5.411   2.011   3.132  0.2546 -0.1759  0.8251
 6818TIP3    H220419   5.463   1.977   3.270 -0.0558 -1.3312  0.6655
 6819TIP3   OH220420   2.730   0.733   4.871 -0.1745  0.0295 -0.8212
 6819TIP3    H120421   2.667   0.687   4.927  0.2624  0.5388  0.1225
 6819TIP3    H220422   2.768   0.799   4.929  0.0545  0.7951 -1.8284
 6820TIP3   OH220423   0.334   1.295   1.056  0.1030  0.1796 -0.2453
 6820TIP3    H120424   0.273   1.345   1.003 -1.9400 -2.0463 -0.1552
 6820TIP3    H220425   0.314   1.320   1.146 -0.3815 -0.1945 -0.2436
 6821TIP3   OH220426   3.641   6.047   2.863 -1.1951 -0.1684 -0.0306
 6821TIP3    H120427   3.621   5.963   2.820 -1.4654  0.0277 -0.3010
 6821TIP3    H220428   3.730   6.037   2.895 -0.0164  0.5245 -2.7916
 6822TIP3   OH220429   1.459   2.278   1.341  0.0749 -0.7236 -0.5629
 6822TIP3    H120430   1.535   2.336   1.345  0.3498 -1.1425  0.8675
 6822TIP3    H220431   1.384   2.337   1.349  0.3381 -0.4973  0.3817
 6823TIP3   OH220432   4.289   0.133   3.079 -0.5480 -0.1291 -0.2086
 6823TIP3    H120433   4.347   0.164   3.010  1.0350  1.0815  1.5557
 6823TIP3    H220434   4.202   0.165   3.055 -0.2182 -0.5480 -2.0749
 6824TIP3   OH220435   1.768   0.473   1.420  0.1142  0.3132 -0.3087
 6824TIP3    H120436   1.765   0.460   1.515  0.9087 -0.1258 -0.3334
 6824TIP3    H220437   1.690   0.428   1.387 -0.2074  0.5369  0.1414
 6825TIP3   OH220438   1.029   5.259   0.255 -0.0934 -0.7952 -0.1919
 6825TIP3    H120439   0.945   5.285   0.219 -0.1125  0.9259  0.9704
 6825TIP3    H220440   1.008   5.193   0.321 -0.8508  1.2745  1.7515
 6826TIP3   OH220441   0.327   6.188   2.823  0.4812 -0.3287 -0.6786
 6826TIP3    H120442   0.376   6.211   2.903 -2.0540  1.3300  0.5248
 6826TIP3    H220443   0.305   6.096   2.835 -0.2689  0.0156  0.8236
 6827TIP3   OH220444   1.274   6.521   1.362  0.2023 -0.0864  0.4770
 6827TIP3    H120445   1.332   6.558   1.296  0.4414 -1.0566  0.1423
 6827TIP3    H220446   1.284   6.580   1.437  0.7383  0.4093  0.0273
 6828TIP3   OH220447   6.304   0.428   3.342  0.5071 -0.1469 -0.1067
 6828TIP3    H120448   6.350   0.366   3.284 -1.0111 -0.1481 -1.3765
 6828TIP3    H220449   6.276   0.499   3.284 -0.8947 -0.0537  0.6452
 6829TIP3   OH220450   3.504   5.396   2.141  0.3813 -0.2020 -0.2986
 6829TIP3    H120451   3.599   5.392   2.154  0.6084  2.0588 -0.8412
 6829TIP3    H220452   3.493   5.428   2.052 -0.8095  1.8944  0.5203
 6830TIP3   OH220453   1.536   2.462   5.832 -0.7793 -0.0117  0.6283
 6830TIP3    H120454   1.557   2.388   5.776 -1.2266  0.8452 -0.7307
 6830TIP3    H220455   1.442   2.476   5.818 -0.5720  1.1981  0.3577
 6831TIP3   OH220456   6.288   4.873   2.254 -0.0617 -0.0921  0.4676
 6831TIP3    H120457   6.196   4.876   2.279 -0.1312  1.3955  0.1156
 6831TIP3    H220458   6.304   4.781   2.233 -1.7273 -0.2131 -0.4504
 6832TIP3   OH220459   0.720   4.651   3.336  0.0966  0.7071 -0.0488
 6832TIP3    H120460   0.703   4.622   3.247  0.0012  0.9379 -0.1053
 6832TIP3    H220461   0.815   4.667   3.338  0.5133 -1.4627  0.5245
 6833TIP3   OH220462   6.823   5.155   1.751  0.6368 -0.1538  0.1859
 6833TIP3    H120463   6.908   5.179   1.787  0.9735  0.6323 -1.0461
 6833TIP3    H220464   6.760   5.183   1.817  1.3095 -0.5243  1.0024
 6834TIP3   OH220465   5.446   2.393   5.821 -1.0764 -0.0047  0.6755
 6834TIP3    H120466   5.530   2.356   5.846 -2.2519 -3.5419 -0.0901
 6834TIP3    H220467   5.389   2.375   5.896 -1.1796  2.7417  1.3765
 6835TIP3   OH220468   4.629   2.873   4.995  0.2566 -0.3136  0.2159
 6835TIP3    H120469   4.585   2.878   4.910 -0.7317  0.7508  0.7479
 6835TIP3    H220470   4.722   2.862   4.974 -0.1672 -1.9721 -0.9530
 6836TIP3   OH220471   3.077   6.617   1.707  0.0589 -0.3753  0.4269
 6836TIP3    H120472   3.122   6.533   1.712  0.4700 -0.1209  1.0580
 6836TIP3    H220473   3.110   6.667   1.781  1.3234  1.0862 -1.0437
 6837TIP3   OH220474   0.526   2.082   0.558 -0.1677  0.3861  0.1952
 6837TIP3    H120475   0.604   2.072   0.503 -1.1038  0.1790 -1.1599
 6837TIP3    H220476   0.453   2.078   0.496 -1.2759  0.1944  1.4672
 6838TIP3   OH220477   5.286   2.709   1.237 -0.2620  0.2487  0.2557
 6838TIP3    H120478   5.241   2.791   1.215 -0.4015 -0.1248 -0.9187
 6838TIP3    H220479   5.261   2.692   1.328 -1.6018  0.6471 -0.0102
 6839TIP3   OH220480   1.209   2.057   5.751 -0.2603  0.1244 -0.1081
 6839TIP3    H120481   1.258   2.024   5.827 -0.0662  0.7977  0.0614
 6839TIP3    H220482   1.275   2.102   5.698 -0.6933  1.0193  0.1112
 6840TIP3   OH220483   6.063   5.700   2.838  0.0892  0.0371  0.1059
 6840TIP3    H120484   5.988   5.734   2.789 -0.0852 -0.1196  0.2627
 6840TIP3    H220485   6.138   5.748   2.804 -0.1540  0.5620  0.3100
 6841TIP3   OH220486   5.864   4.145   4.583 -0.3799 -0.4570  0.0602
 6841TIP3    H120487   5.924   4.072   4.600 -0.2502 -0.3909 -0.1145
 6841TIP3    H220488   5.858   4.191   4.667  2.2618  1.3850 -0.6308
 6842TIP3   OH220489   1.603   3.094   5.803  0.0274  0.8879  0.2098
 6842TIP3    H120490   1.520   3.092   5.850 -0.3800  2.0648 -0.4378
 6842TIP3    H220491   1.579   3.098   5.711  0.8249 -0.9846 -0.1231
 6843TIP3   OH220492   0.775   2.525   0.383 -0.3423  0.0024  0.0404
 6843TIP3    H120493   0.683   2.546   0.365 -0.8335  0.2099  2.4478
 6843TIP3    H220494   0.823   2.605   0.362 -0.5628 -0.2900 -1.8114
 6844TIP3   OH220495   4.017   3.851   2.624 -0.0757 -0.1555  0.0379
 6844TIP3    H120496   4.109   3.874   2.611 -0.2998  0.1917 -1.0638
 6844TIP3    H220497   3.970   3.934   2.623 -0.4183 -0.3379  0.4743
 6845TIP3   OH220498   3.554   3.666   2.029  0.5815 -0.0369 -0.5462
 6845TIP3    H120499   3.609   3.742   2.011  1.7500 -1.2682 -2.6261
 6845TIP3    H220500   3.579   3.636   2.116  2.1588  0.3158 -0.8636
 6846TIP3   OH220501   2.219   0.682   5.488  0.2213  0.4000 -0.8439
 6846TIP3    H120502   2.180   0.769   5.483 -0.6392 -0.0028 -1.4477
 6846TIP3    H220503   2.222   0.651   5.398  0.1877 -0.3403 -0.6024
 6847TIP3   OH220504   7.083   0.002   5.346 -0.0775  0.2308  0.1894
 6847TIP3    H120505   7.065   0.061   5.419  0.4203  0.1210  0.4036
 6847TIP3    H220506   7.156  -0.051   5.376  1.8672  1.8947 -1.3680
 6848TIP3   OH220507   0.649   5.749   5.345  0.0491  0.3704 -0.1212
 6848TIP3    H120508   0.628   5.656   5.355  3.3639 -0.4882  0.1193
 6848TIP3    H220509   0.672   5.759   5.253  0.0750  0.8615 -0.0656
 6849TIP3   OH220510   4.176   5.473   0.824 -0.0355  0.3038 -0.0762
 6849TIP3    H120511   4.229   5.435   0.754  0.7114  1.7868 -0.3536
 6849TIP3    H220512   4.096   5.502   0.780  0.2026  0.7531 -0.2099
 6850TIP3   OH220513   1.734   2.109   0.193  0.4410  0.3592 -0.4906
 6850TIP3    H120514   1.803   2.163   0.232  1.7915 -1.2834 -0.4726
 6850TIP3    H220515   1.742   2.025   0.238 -1.8658  0.2253 -0.2189
 6851TIP3   OH220516   6.863   0.964   4.177 -0.4768 -0.3022  0.1520
 6851TIP3    H120517   6.812   0.902   4.228  0.7755 -0.8928  0.7466
 6851TIP3    H220518   6.942   0.979   4.230 -0.7847  1.8890  0.0841
 6852TIP3   OH220519   4.130   2.359   4.724 -0.3456 -0.4586  0.4987
 6852TIP3    H120520   4.189   2.387   4.794 -0.3384 -0.0030  0.3157
 6852TIP3    H220521   4.124   2.435   4.666 -1.0430 -0.5280  0.4686
 6853TIP3   OH220522   1.777   6.109   2.842  0.3967  0.5286  0.1606
 6853TIP3    H120523   1.839   6.063   2.787  1.6947  0.2802  1.7503
 6853TIP3    H220524   1.708   6.045   2.860 -0.1362  0.6744 -1.2679
 6854TIP3   OH220525   3.958   6.556   4.981  0.1094 -0.2277  0.0816
 6854TIP3    H120526   3.936   6.603   5.061 -1.3513 -1.8937  0.7418
 6854TIP3    H220527   4.053   6.553   4.980  0.1860  1.0699  0.9730
 6855TIP3   OH220528   1.385   4.995   3.295  0.0188  0.2255 -0.0080
 6855TIP3    H120529   1.447   4.924   3.310 -0.1995  0.0242 -0.0427
 6855TIP3    H220530   1.370   4.994   3.200 -0.1987  0.1361  0.0273
 6856TIP3   OH220531   4.592   5.560   5.707  0.2468 -0.5144  0.0161
 6856TIP3    H120532   4.592   5.634   5.646  1.4442  0.4334  1.1149
 6856TIP3    H220533   4.622   5.486   5.654 -0.4906 -0.1243 -0.9773
 6857TIP3   OH220534   2.345   1.120   5.077  0.2557  0.0495 -0.3109
 6857TIP3    H120535   2.312   1.067   5.004 -0.5245  0.8145 -0.5243
 6857TIP3    H220536   2.403   1.184   5.036  1.6833 -0.9782  0.0111
 6858TIP3   OH220537   4.132   0.344   4.630 -0.1123 -0.1386 -0.0617
 6858TIP3    H120538   4.172   0.318   4.548 -1.0667 -3.2848  0.3366
 6858TIP3    H220539   4.073   0.416   4.607 -1.7901 -2.1374 -2.5724
 6859TIP3   OH220540   5.859   0.594   2.474  0.1346  0.0624 -0.5017
 6859TIP3    H120541   5.920   0.622   2.406 -1.3241  1.3412 -1.3603
 6859TIP3    H220542   5.798   0.535   2.429  0.1872 -0.4889  0.1260
 6860TIP3   OH220543   3.660   5.301   2.358  0.0026  0.6490 -0.3646
 6860TIP3    H120544   3.676   5.207   2.371  0.1549  0.8073  0.6871
 6860TIP3    H220545   3.731   5.343   2.406 -0.7229  1.3129  0.1446
 6861TIP3   OH220546   5.835   6.186   1.790 -0.5355 -0.6781 -0.3279
 6861TIP3    H120547   5.782   6.113   1.822  0.1070 -0.8594  0.3541
 6861TIP3    H220548   5.912   6.186   1.846 -1.2670  1.5518  0.7997
 6862TIP3   OH220549   1.171   2.895   3.043  0.0454 -0.1876 -0.0691
 6862TIP3    H120550   1.241   2.851   2.996  1.5356  2.5674 -0.6334
 6862TIP3    H220551   1.195   2.889   3.135  0.3768 -0.2823 -0.1621
 6863TIP3   OH220552   1.041   5.131   5.273  0.0626  0.6775  0.5901
 6863TIP3    H120553   1.010   5.043   5.294  2.7245 -0.4948  0.0519
 6863TIP3    H220554   0.992   5.157   5.195 -1.7886  0.3407  1.5776
 6864TIP3   OH220555   2.970   3.817   3.713  0.3758  0.0142 -0.1914
 6864TIP3    H120556   2.980   3.784   3.803  1.4398  1.8522  0.4031
 6864TIP3    H220557   3.026   3.760   3.660  2.0272  0.6786  0.7783
 6865TIP3   OH220558   0.174   2.378   1.628 -0.4294 -0.1784  0.1397
 6865TIP3    H120559   0.105   2.329   1.583  0.7110 -2.1966  0.4270
 6865TIP3    H220560   0.153   2.370   1.721 -1.0295  1.2013  0.1436
 6866TIP3   OH220561   3.693   2.862   4.108  0.0744 -0.3365  0.1078
 6866TIP3    H120562   3.674   2.944   4.154  0.9553 -0.2528  0.3435
 6866TIP3    H220563   3.707   2.798   4.177  1.0918 -0.2819 -0.0242
 6867TIP3   OH220564   0.006   1.924   5.802  0.5748 -0.3364  0.1447
 6867TIP3    H120565   0.003   2.004   5.750  0.0720 -1.5114 -1.6923
 6867TIP3    H220566   0.031   1.855   5.741  1.1577 -1.5950  1.7171
 6868TIP3   OH220567   0.542   4.928   0.212 -0.4866  0.3019  0.2905
 6868TIP3    H120568   0.633   4.910   0.235 -0.5175  2.0098  2.0293
 6868TIP3    H220569   0.491   4.887   0.282 -1.1136 -0.8986 -0.8268
 6869TIP3   OH220570   1.516   6.070   1.596  0.3554  0.7160  0.4829
 6869TIP3    H120571   1.484   6.073   1.687  0.7181 -0.0714  0.6452
 6869TIP3    H220572   1.611   6.063   1.605  0.2789 -1.7364  0.1164
 6870TIP3   OH220573   1.964   3.291   4.237  0.3004 -0.1584 -0.5473
 6870TIP3    H120574   1.996   3.260   4.152 -1.5998  0.0125 -1.3760
 6870TIP3    H220575   1.869   3.299   4.225  0.2237  1.8897  0.9352
 6871TIP3   OH220576   6.539   2.402   0.155 -0.0359  0.0094 -0.6680
 6871TIP3    H120577   6.593   2.392   0.077  0.7952 -0.9820  0.0074
 6871TIP3    H220578   6.526   2.313   0.187 -0.9291  0.3474 -0.0533
 6872TIP3   OH220579   5.664   0.005   3.630  0.5121 -0.3315 -0.2120
 6872TIP3    H120580   5.590  -0.056   3.637  2.2404 -2.4388  0.5805
 6872TIP3    H220581   5.653   0.063   3.706 -0.4121 -0.5035 -0.1954
 6873TIP3   OH220582   2.019   1.246   0.898  0.5194  0.4003  0.1096
 6873TIP3    H120583   2.057   1.252   0.810  0.0451  2.0309 -0.0216
 6873TIP3    H220584   2.017   1.153   0.917  3.1409  0.1204 -0.5101
 6874TIP3   OH220585   0.182   6.537   2.376 -0.5595 -0.1025 -0.0764
 6874TIP3    H120586   0.248   6.529   2.445  0.8908  2.5434 -1.0211
 6874TIP3    H220587   0.100   6.548   2.424 -0.2581 -2.5327  1.1304
 6875TIP3   OH220588   6.868   5.057   4.468  0.0610  0.0349  0.3804
 6875TIP3    H120589   6.951   5.049   4.515  0.7417 -2.3608 -1.0659
 6875TIP3    H220590   6.825   4.972   4.482 -0.1751 -0.3757 -2.3611
 6876TIP3   OH220591   4.709   5.845   5.677 -0.4459 -0.0711  0.2243
 6876TIP3    H120592   4.666   5.915   5.728  2.1964  1.1332  0.9483
 6876TIP3    H220593   4.749   5.788   5.743 -0.0730 -0.5863 -0.4398
 6877TIP3   OH220594   2.477   0.642   1.181 -0.1840  0.2032  0.4709
 6877TIP3    H120595   2.414   0.704   1.219 -1.6251 -1.7057  1.3343
 6877TIP3    H220596   2.432   0.558   1.182  1.4348 -0.7743 -1.3616
 6878TIP3   OH220597   4.331   5.135   4.893  0.2269  0.4226  0.5179
 6878TIP3    H120598   4.307   5.113   4.983  0.8794  1.7466  1.0407
 6878TIP3    H220599   4.291   5.220   4.879 -0.0615  0.1217 -0.5424
 6879TIP3   OH220600   0.651   6.668   1.486 -0.1273 -0.3127 -0.8306
 6879TIP3    H120601   0.742   6.658   1.460  0.4065  2.4498 -0.2858
 6879TIP3    H220602   0.609   6.712   1.412 -0.7164 -0.4202 -0.5660
 6880TIP3   OH220603   4.704   1.576   3.763 -0.1326 -0.3220 -0.4337
 6880TIP3    H120604   4.795   1.588   3.788 -0.1102 -1.1986 -0.0327
 6880TIP3    H220605   4.702   1.490   3.719 -0.4271  0.5450 -2.2012
 6881TIP3   OH220606   0.458   2.643   4.085 -0.1535 -0.4643 -0.0268
 6881TIP3    H120607   0.532   2.583   4.090 -0.8851 -1.3877  0.0972
 6881TIP3    H220608   0.470   2.701   4.161  0.5510 -0.4597 -0.1324
 6882TIP3   OH220609   1.211   5.142   1.627 -0.2385 -0.2064  0.1214
 6882TIP3    H120610   1.159   5.171   1.702  0.7649  1.7489  0.1333
 6882TIP3    H220611   1.264   5.218   1.605  1.8948 -1.8035 -0.5175
 6883TIP3   OH220612   2.935   6.385   3.924 -0.1032  0.5291 -0.0851
 6883TIP3    H120613   2.980   6.336   3.855  0.8707  0.7335  0.3914
 6883TIP3    H220614   2.845   6.353   3.921  0.2070 -0.3254 -0.6609
 6884TIP3   OH220615   4.529   5.216   0.680 -0.0689 -0.0054  0.6143
 6884TIP3    H120616   4.501   5.152   0.615  0.4936 -1.3823  1.6671
 6884TIP3    H220617   4.529   5.300   0.633 -0.1279 -0.8696 -1.0148
 6885TIP3   OH220618   6.097   4.524   0.807  0.1677  0.3189  0.4311
 6885TIP3    H120619   6.089   4.610   0.850  2.7509  1.2058 -0.7036
 6885TIP3    H220620   6.191   4.510   0.798 -0.2274 -1.7491 -1.2064
 6886TIP3   OH220621   1.216   2.993   4.038  0.5810  0.4471 -0.1548
 6886TIP3    H120622   1.275   2.918   4.041  1.6811  1.3300  0.9640
 6886TIP3    H220623   1.221   3.031   4.125  0.0201  1.8167 -0.6998
 6887TIP3   OH220624   5.929   0.479   3.141 -0.0529 -0.2520  0.3398
 6887TIP3    H120625   5.835   0.498   3.147  0.2244  1.6149 -0.4424
 6887TIP3    H220626   5.934   0.384   3.141 -1.9792 -0.4013  0.0135
 6888TIP3   OH220627   4.839   2.943   2.069  0.0609 -0.2241 -0.4331
 6888TIP3    H120628   4.887   2.979   2.143 -1.2077  1.7788 -0.5259
 6888TIP3    H220629   4.749   2.973   2.081 -0.1499  0.2931 -2.8517
 6889TIP3   OH220630   5.422   4.489   2.224 -0.0738 -0.6721  0.0276
 6889TIP3    H120631   5.444   4.505   2.316 -0.8951  1.0991 -0.0541
 6889TIP3    H220632   5.487   4.537   2.174 -0.0987 -0.9927 -0.3231
 6890TIP3   OH220633   6.784   6.180   4.725  0.3524  0.2133  0.3565
 6890TIP3    H120634   6.710   6.210   4.672 -0.4271 -2.8290 -0.4295
 6890TIP3    H220635   6.843   6.137   4.663  2.4250  1.7226  1.1172
 6891TIP3   OH220636   6.630   1.463   5.551  0.2866  0.5094  0.1151
 6891TIP3    H120637   6.559   1.504   5.502  1.4605  0.0516 -2.1131
 6891TIP3    H220638   6.647   1.381   5.505  1.4101 -0.0155  1.3868
 6892TIP3   OH220639   0.169   4.793   5.062  0.7569 -0.4940 -0.6767
 6892TIP3    H120640   0.109   4.719   5.056 -0.3226  0.2304  0.5719
 6892TIP3    H220641   0.239   4.761   5.120  0.4404 -0.6361 -0.3649
 6893TIP3   OH220642   3.516   4.936   5.466 -0.1070 -1.1343  0.4577
 6893TIP3    H120643   3.439   4.974   5.424 -0.2579 -0.6968  1.1068
 6893TIP3    H220644   3.539   4.999   5.535  0.5112 -1.5212  0.6143
 6894TIP3   OH220645   3.119   4.235   4.496  0.0941 -0.1773 -0.0988
 6894TIP3    H120646   3.137   4.328   4.480 -0.3946 -0.3112 -1.6285
 6894TIP3    H220647   3.123   4.195   4.409 -0.2801 -1.4965  0.4635
 6895TIP3   OH220648   6.676   1.614   2.866 -0.1877 -0.1420  0.0317
 6895TIP3    H120649   6.643   1.677   2.930  0.0462 -1.6950  1.7775
 6895TIP3    H220650   6.603   1.556   2.848 -0.0540 -0.1221 -0.6192
 6896TIP3   OH220651   3.992   4.386   0.416 -0.3480 -0.6293 -0.0679
 6896TIP3    H120652   4.085   4.393   0.441 -0.3557 -0.3383 -0.1106
 6896TIP3    H220653   3.993   4.340   0.332 -0.3072 -1.4309  0.3652
 6897TIP3   OH220654   5.669   6.697   2.989 -0.3560 -0.0098  0.1829
 6897TIP3    H120655   5.591   6.685   2.935 -0.9534  0.1362  0.9894
 6897TIP3    H220656   5.704   6.609   3.001 -0.4934 -0.0960 -0.0483
 6898TIP3   OH220657   0.874   0.459   2.017 -0.0209  0.2806 -0.0784
 6898TIP3    H120658   0.782   0.477   1.996 -0.6839 -0.4174  1.9772
 6898TIP3    H220659   0.895   0.524   2.085 -0.1140 -1.6574  1.9272
 6899TIP3   OH220660   6.398   0.734   4.968 -0.6363  0.1289  0.3172
 6899TIP3    H120661   6.472   0.676   4.956  0.2854  0.4205  3.6687
 6899TIP3    H220662   6.332   0.681   5.013  0.1005  1.4265  3.1480
 6900TIP3   OH220663   1.195   1.289   5.173 -0.1782  0.0219 -0.1454
 6900TIP3    H120664   1.129   1.303   5.241  1.4104  0.1302  1.4080
 6900TIP3    H220665   1.199   1.194   5.163 -0.5408  0.0133 -0.2265
 6901TIP3   OH220666   5.039   4.760   3.468  0.0720 -0.2783 -0.4602
 6901TIP3    H120667   5.031   4.742   3.562 -2.1926  2.8182  0.0929
 6901TIP3    H220668   5.133   4.774   3.454  0.4802 -1.0390  1.2790
 6902TIP3   OH220669   0.896   4.515   2.168  0.3304  0.2311 -0.4182
 6902TIP3    H120670   0.913   4.549   2.080 -0.5495  0.8977 -0.3513
 6902TIP3    H220671   0.828   4.573   2.203  0.0997 -0.5092  0.4001
 6903TIP3   OH220672   2.552   4.183   0.685 -0.3155 -0.2926  0.0662
 6903TIP3    H120673   2.520   4.106   0.732  0.3890  0.7164  2.3166
 6903TIP3    H220674   2.632   4.208   0.731 -0.1618  1.4076 -1.0291
 6904TIP3   OH220675   4.181   5.377   5.015 -0.3664  0.3895 -0.0713
 6904TIP3    H120676   4.149   5.287   5.019  0.5809  0.0060 -0.5264
 6904TIP3    H220677   4.142   5.420   5.091 -0.8255 -0.4084  0.1631
 6905TIP3   OH220678   6.493   2.109   2.617  0.0169 -0.0461 -0.6133
 6905TIP3    H120679   6.525   2.114   2.707  0.4575 -0.2990 -0.7565
 6905TIP3    H220680   6.400   2.134   2.624 -0.2205 -1.0492  0.0539
 6906TIP3   OH220681   5.065   3.571   2.615 -0.3200 -0.3244  0.3494
 6906TIP3    H120682   5.152   3.539   2.636  0.4804  0.9220 -0.8724
 6906TIP3    H220683   5.080   3.645   2.557 -2.1304  1.1467  1.6257
 6907TIP3   OH220684   6.235   6.159   2.409  0.1931 -0.3192  0.1600
 6907TIP3    H120685   6.182   6.236   2.431 -0.6826 -0.2809 -1.8510
 6907TIP3    H220686   6.207   6.092   2.472 -0.2076  0.5305  0.9002
 6908TIP3   OH220687   2.185   1.522   1.383 -0.5662 -0.1122 -0.1786
 6908TIP3    H120688   2.234   1.509   1.302 -1.4976  2.3291 -1.2103
 6908TIP3    H220689   2.242   1.577   1.437  0.1075 -1.8327  0.9623
 6909TIP3   OH220690   1.050   5.394   5.810  0.5569 -0.0415  0.2271
 6909TIP3    H120691   1.110   5.444   5.866  0.2062 -0.1691  0.7145
 6909TIP3    H220692   1.039   5.310   5.854 -0.5235  0.2313  0.5039
 6910TIP3   OH220693   4.346   6.177   2.044 -0.0206 -0.3425 -0.3443
 6910TIP3    H120694   4.276   6.113   2.060  1.6235 -2.1017  0.1803
 6910TIP3    H220695   4.356   6.222   2.128 -0.9428  0.3766 -0.6096
 6911TIP3   OH220696   0.692   3.339   1.509  0.0833  0.3817 -0.0425
 6911TIP3    H120697   0.648   3.362   1.590  1.3090  0.9369  0.4946
 6911TIP3    H220698   0.627   3.357   1.440 -0.4314  1.4335  0.6883
 6912TIP3   OH220699   0.954   6.424   0.478  0.5250 -0.1456 -0.4077
 6912TIP3    H120700   0.959   6.477   0.558 -1.4955 -1.8256  0.9642
 6912TIP3    H220701   0.996   6.341   0.502  3.4465  0.5894 -2.4489
 6913TIP3   OH220702   6.628   0.087   4.837 -0.5565  0.4620 -0.1550
 6913TIP3    H120703   6.708   0.059   4.881 -1.2243 -0.9242  0.2382
 6913TIP3    H220704   6.559   0.075   4.902 -1.6538 -2.1115 -1.6368
 6914TIP3   OH220705   3.671   2.519   0.347 -0.5000 -0.2092 -0.2827
 6914TIP3    H120706   3.639   2.602   0.381 -1.1024 -1.3378  2.1284
 6914TIP3    H220707   3.596   2.481   0.302 -0.2734  0.4214 -1.2341
 6915TIP3   OH220708   4.880   5.661   1.844  0.2593 -0.1192  0.2030
 6915TIP3    H120709   4.842   5.581   1.881  0.7866 -0.3252  0.3112
 6915TIP3    H220710   4.967   5.667   1.884  0.1799  0.5710  0.2809
 6916TIP3   OH220711   0.663   1.074   2.087  0.1543  0.6856 -0.1061
 6916TIP3    H120712   0.753   1.069   2.122  0.3242  0.4907 -0.5719
 6916TIP3    H220713   0.607   1.059   2.163  0.5056  1.4551  0.3156
 6917TIP3   OH220714   5.119   2.980   0.578 -0.1196  0.1817 -0.1296
 6917TIP3    H120715   5.108   3.016   0.490 -0.8067  0.6657  0.1433
 6917TIP3    H220716   5.083   3.047   0.636 -2.1673 -1.2496  0.3447
 6918TIP3   OH220717   4.937   1.659   3.892 -0.1744  0.1959  0.1353
 6918TIP3    H120718   4.978   1.742   3.868  1.3456 -0.5006  0.1970
 6918TIP3    H220719   4.994   1.623   3.960 -0.5137 -1.1277 -0.2525
 6919TIP3   OH220720   6.668   1.218   0.610 -0.6399  0.2413 -0.4547
 6919TIP3    H120721   6.758   1.185   0.613 -0.0205  1.8163 -0.7424
 6919TIP3    H220722   6.629   1.175   0.534  0.3023  0.5706 -1.1367
 6920TIP3   OH220723   5.896   6.059   3.748  0.5428 -0.0865 -0.6735
 6920TIP3    H120724   5.959   6.089   3.682  1.1828  0.0546 -0.0068
 6920TIP3    H220725   5.842   6.135   3.767  0.9012  0.1079 -0.4221
 6921TIP3   OH220726   5.696   4.822   1.796  0.0567  0.0921  0.2966
 6921TIP3    H120727   5.788   4.798   1.784  0.3318 -0.0312  2.2701
 6921TIP3    H220728   5.655   4.805   1.711  1.5767 -1.1143 -0.2408
 6922TIP3   OH220729   0.153   5.625   5.014 -0.2095  0.2845 -0.1143
 6922TIP3    H120730   0.146   5.714   4.979 -2.9703  0.3628  0.4184
 6922TIP3    H220731   0.219   5.632   5.083  1.2843  1.3616 -1.5665
 6923TIP3   OH220732   2.068   0.619   1.969 -0.1026 -0.6109  0.6952
 6923TIP3    H120733   2.038   0.644   1.881  0.0703  0.5628  0.9517
 6923TIP3    H220734   2.151   0.666   1.980 -0.6194  0.0844  1.8691
 6924TIP3   OH220735   2.054   5.425   3.835  0.1378 -0.3516  0.0645
 6924TIP3    H120736   2.062   5.376   3.753  1.8159 -1.6751  0.9359
 6924TIP3    H220737   1.966   5.463   3.832  1.0201  1.9181 -3.5241
 6925TIP3   OH220738   2.409   2.904   2.290 -0.0514  0.1548  0.4974
 6925TIP3    H120739   2.315   2.911   2.309 -0.2456 -2.0451  0.6884
 6925TIP3    H220740   2.419   2.938   2.201 -1.3350 -1.0486 -0.1425
 6926TIP3   OH220741   2.626   2.824   3.644 -0.4364  0.0470 -0.1875
 6926TIP3    H120742   2.680   2.873   3.706 -2.1031 -0.1316  1.5004
 6926TIP3    H220743   2.678   2.746   3.623 -0.9223 -1.4715  3.4594
 6927TIP3   OH220744   5.845   6.454   2.961  0.9331  0.0441 -0.0574
 6927TIP3    H120745   5.790   6.396   3.013  0.9085 -0.0926 -0.2347
 6927TIP3    H220746   5.900   6.396   2.909  0.9528  0.1795 -0.1893
 6928TIP3   OH220747   5.512   5.646   2.197  0.0296 -0.0641  0.3877
 6928TIP3    H120748   5.477   5.579   2.255 -2.0892  1.3788  0.8946
 6928TIP3    H220749   5.550   5.712   2.255  1.0392 -0.2255 -0.0544
 6929TIP3   OH220750   0.347   2.613   4.714  0.5615  0.2054  0.0614
 6929TIP3    H120751   0.286   2.653   4.776  0.3538  0.4103 -0.2762
 6929TIP3    H220752   0.358   2.523   4.746 -1.2805 -0.3970 -0.8448
 6930TIP3   OH220753   4.082   6.507   5.776  0.1007 -0.2489  0.2400
 6930TIP3    H120754   4.030   6.432   5.807  0.3600 -1.3611 -1.8369
 6930TIP3    H220755   4.018   6.577   5.764 -0.4737 -0.7359  0.3799
 6931TIP3   OH220756   3.804   0.688   1.787  0.0078 -0.6662 -0.1353
 6931TIP3    H120757   3.798   0.695   1.882  1.0956 -1.5021  0.0127
 6931TIP3    H220758   3.897   0.697   1.768 -0.3595  1.2731 -1.3100
 6932TIP3   OH220759   6.300   1.480   3.351  0.3358 -0.2272 -0.4378
 6932TIP3    H120760   6.392   1.475   3.324  0.8300  2.1966  0.6182
 6932TIP3    H220761   6.252   1.465   3.270  1.6703 -0.0205 -1.3120
 6933TIP3   OH220762   1.889   6.246   5.551  0.4606  0.1856 -0.4962
 6933TIP3    H120763   1.972   6.293   5.538  0.7941 -0.6321 -1.4503
 6933TIP3    H220764   1.835   6.307   5.602  1.1314  1.3112 -1.0877
 6934TIP3   OH220765   6.771   0.335   3.344  0.8097 -0.2231  0.3551
 6934TIP3    H120766   6.738   0.249   3.318 -1.1540  0.2911  1.0179
 6934TIP3    H220767   6.734   0.396   3.281  0.5346  0.3682  1.0692
 6935TIP3   OH220768   7.180   1.608   4.346 -0.1587 -0.1297  0.3303
 6935TIP3    H120769   7.142   1.555   4.416 -0.7976 -0.5915 -0.3586
 6935TIP3    H220770   7.247   1.662   4.390 -0.3148 -0.6597  1.2278
 6936TIP3   OH220771   1.574   6.189   0.526 -0.1591  0.7942 -0.3390
 6936TIP3    H120772   1.664   6.174   0.497  0.2839  1.5255  0.6424
 6936TIP3    H220773   1.559   6.282   0.510 -0.0468  1.1266  1.3487
 6937TIP3   OH220774   3.378   0.763   1.532 -0.2811  0.4464 -0.7946
 6937TIP3    H120775   3.450   0.715   1.574 -1.5025 -2.0120 -1.3552
 6937TIP3    H220776   3.313   0.774   1.602 -0.3980  0.4393 -0.9019
 6938TIP3   OH220777   5.507   1.703   1.830  0.0965  0.6943 -0.2304
 6938TIP3    H120778   5.537   1.645   1.901  1.3015  0.5386 -0.8373
 6938TIP3    H220779   5.424   1.738   1.861  0.4821  0.4452  1.1625
 6939TIP3   OH220780   5.223   4.352   2.137 -0.3078  0.1365  0.9729
 6939TIP3    H120781   5.303   4.377   2.183 -1.4963  2.7177  1.8090
 6939TIP3    H220782   5.212   4.418   2.069 -2.0690  0.2877  1.3391
 6940TIP3   OH220783   2.501   4.479   1.965  0.1469 -0.1435  0.3466
 6940TIP3    H120784   2.506   4.434   2.050 -0.7033  0.8808  0.9613
 6940TIP3    H220785   2.411   4.464   1.936 -0.2078  1.2914  0.6552
 6941TIP3   OH220786   3.430   0.352   2.135 -0.4184  0.5873 -0.1634
 6941TIP3    H120787   3.428   0.263   2.099  0.9996  0.1681  0.7473
 6941TIP3    H220788   3.480   0.403   2.070 -1.6999  0.8833 -0.9607
 6942TIP3   OH220789   5.138   0.755   0.231  0.1978  0.4597 -0.0005
 6942TIP3    H120790   5.073   0.782   0.166  0.9107 -1.0773 -1.4106
 6942TIP3    H220791   5.221   0.755   0.184  0.4015 -3.0983  0.0778
 6943TIP3   OH220792   0.153   5.552   2.084 -0.2930  0.0087  0.1614
 6943TIP3    H120793   0.135   5.543   2.178 -0.5344  0.5625  0.1699
 6943TIP3    H220794   0.215   5.482   2.065 -1.6150 -1.2624  0.3570
 6944TIP3   OH220795   3.528   6.466   2.663 -0.1715  0.1591 -0.1322
 6944TIP3    H120796   3.513   6.463   2.569  1.0400  1.3013 -0.3931
 6944TIP3    H220797   3.470   6.399   2.699 -3.1426  1.8723 -1.3402
 6945TIP3   OH220798   1.849   4.935   4.099 -0.0808 -0.1115  0.3618
 6945TIP3    H120799   1.826   4.903   4.012 -0.3448 -1.2468  0.8304
 6945TIP3    H220800   1.926   4.991   4.085 -0.6118  0.3843 -0.6927
 6946TIP3   OH220801   4.600   0.176   1.367 -0.2008  0.2248 -0.4125
 6946TIP3    H120802   4.695   0.176   1.360  0.0788 -1.9801  2.0193
 6946TIP3    H220803   4.570   0.128   1.289  0.8030 -0.6951 -0.2538
 6947TIP3   OH220804   6.079   6.006   1.436 -0.3103  0.3694  0.4310
 6947TIP3    H120805   6.131   5.989   1.515 -0.2995  0.4334  0.4382
 6947TIP3    H220806   6.088   6.100   1.421 -0.8284  0.4649  0.7119
 6948TIP3   OH220807   1.655   2.792   5.284  0.2739  0.1413 -0.1341
 6948TIP3    H120808   1.660   2.824   5.374  0.6837 -1.3768  0.4245
 6948TIP3    H220809   1.745   2.796   5.252  0.7722 -2.3932  0.7149
 6949TIP3   OH220810   1.374   3.376   3.843  0.0449  0.4298 -0.1717
 6949TIP3    H120811   1.450   3.432   3.856  0.3183  0.7646 -2.6548
 6949TIP3    H220812   1.304   3.436   3.816 -0.4968 -0.1123 -0.0066
 6950TIP3   OH220813   6.818   0.648   0.242  0.6523 -0.1073  0.4212
 6950TIP3    H120814   6.814   0.567   0.192  1.8275 -0.0823  0.2728
 6950TIP3    H220815   6.854   0.712   0.181 -0.5599  0.6271  0.4333
 6951TIP3   OH220816   4.034   2.367   5.064  0.5345  0.4542 -0.3412
 6951TIP3    H120817   4.086   2.447   5.068 -0.7614  1.2568  1.0145
 6951TIP3    H220818   4.037   2.331   5.152  1.1136 -1.0438 -0.9297
 6952TIP3   OH220819   4.923   6.705   2.848  0.4542 -0.4190  0.0292
 6952TIP3    H120820   4.913   6.720   2.754  0.0017 -2.6026 -0.3272
 6952TIP3    H220821   5.015   6.682   2.860  0.4378 -0.4654  0.0689
 6953TIP3   OH220822   6.443   3.924   3.596  0.1756 -0.2159  0.0554
 6953TIP3    H120823   6.354   3.889   3.602 -0.6942  1.8776  0.0892
 6953TIP3    H220824   6.448   3.989   3.666  1.2956  0.6240 -0.7757
 6954TIP3   OH220825   6.950   2.377   3.966  0.0588  0.2065 -0.3446
 6954TIP3    H120826   6.997   2.347   4.044 -0.1747  1.9112  0.4941
 6954TIP3    H220827   6.868   2.413   3.999 -0.7577 -0.4907 -1.5517
 6955TIP3   OH220828   4.866   2.673   5.700 -0.0484  0.1502 -0.0685
 6955TIP3    H120829   4.817   2.714   5.629  0.4338 -0.0657 -0.5327
 6955TIP3    H220830   4.805   2.609   5.737 -0.1829  0.0038 -0.5339
 6956TIP3   OH220831   3.852   3.864   0.529  0.2403 -0.6442 -0.4298
 6956TIP3    H120832   3.774   3.912   0.559  0.3408 -0.5023 -0.3914
 6956TIP3    H220833   3.891   3.921   0.462  1.2873  0.1304  0.7895
 6957TIP3   OH220834   4.457   4.435   1.377 -0.1990 -0.1982  0.2358
 6957TIP3    H120835   4.430   4.501   1.441  1.1549  0.8630 -0.2437
 6957TIP3    H220836   4.518   4.379   1.425 -0.5349 -0.4797  0.3436
 6958TIP3   OH220837   4.667   6.078   4.632 -0.2738  0.1736  0.4403
 6958TIP3    H120838   4.597   6.139   4.654 -1.2140 -1.7122  3.1737
 6958TIP3    H220839   4.742   6.108   4.684 -0.1646  0.0784  0.3385
 6959TIP3   OH220840   1.183   3.519   2.202  0.1245 -0.0578 -0.4062
 6959TIP3    H120841   1.213   3.598   2.157 -0.6669  0.6821  0.3529
 6959TIP3    H220842   1.115   3.484   2.145  0.0325  0.1520 -0.4252
 6960TIP3   OH220843   5.379   0.881   1.244 -0.1021 -0.4003 -0.0200
 6960TIP3    H120844   5.360   0.857   1.335 -0.0915  0.5282  0.2352
 6960TIP3    H220845   5.294   0.907   1.208  0.1285  0.6362  0.1628
 6961TIP3   OH220846   5.549   6.743   2.630 -0.1386 -0.1767 -0.4595
 6961TIP3    H120847   5.610   6.787   2.688 -2.9352  0.6106  2.1238
 6961TIP3    H220848   5.574   6.650   2.636  1.1812  0.1784 -0.0316
 6962TIP3   OH220849   3.037   4.941   4.838 -0.4596 -0.1474 -0.1356
 6962TIP3    H120850   3.112   4.914   4.785 -1.1373 -0.8905 -0.7333
 6962TIP3    H220851   2.961   4.901   4.795 -1.1378  0.1109  0.7933
 6963TIP3   OH220852   4.292   2.199   0.260  0.2092 -0.1556  0.0854
 6963TIP3    H120853   4.301   2.293   0.245 -0.0348 -0.4028 -1.8343
 6963TIP3    H220854   4.211   2.175   0.216  0.3331 -1.2982  0.4363
 6964TIP3   OH220855   1.559   2.470   0.445  0.2177 -0.2341  0.1484
 6964TIP3    H120856   1.641   2.487   0.399 -0.6834  0.0235 -1.4359
 6964TIP3    H220857   1.584   2.417   0.521  1.6286 -1.7151 -1.2818
 6965TIP3   OH220858   5.645   6.745   3.285 -0.2761 -0.4262 -0.5265
 6965TIP3    H120859   5.562   6.745   3.332 -0.8834  2.1936 -1.4188
 6965TIP3    H220860   5.622   6.774   3.197  1.5064 -0.1484 -0.9310
 6966TIP3   OH220861   0.081   0.462   2.986  0.1217  0.4802  0.7428
 6966TIP3    H120862   0.153   0.523   2.972 -0.1777  0.5805 -0.4591
 6966TIP3    H220863   0.106   0.383   2.938  0.9085 -0.7323  2.9652
 6967TIP3   OH220864   1.605   3.892   1.375  0.0434  0.5451 -0.3647
 6967TIP3    H120865   1.643   3.854   1.296  0.1227 -1.0302  0.3948
 6967TIP3    H220866   1.670   3.955   1.405  1.8731 -1.6624  0.5783
 6968TIP3   OH220867   1.969   4.271   1.536  0.0459  0.2382 -0.3983
 6968TIP3    H120868   1.965   4.366   1.542 -0.8686  0.1627  0.3004
 6968TIP3    H220869   2.038   4.254   1.471  0.4654  1.3596 -0.2670
 6969TIP3   OH220870   0.329   2.630   3.012 -0.3883  0.3210 -0.2779
 6969TIP3    H120871   0.281   2.693   3.066 -0.7329  0.7229 -1.0347
 6969TIP3    H220872   0.262   2.588   2.958 -0.1279 -0.5251  0.0370
 6970TIP3   OH220873   5.024   1.036   3.881 -0.0307 -0.8383  0.0478
 6970TIP3    H120874   5.082   0.960   3.870  1.7357  0.2064  1.5115
 6970TIP3    H220875   5.082   1.106   3.911 -1.4289  1.3632 -1.9438
 6971TIP3   OH220876   5.443   2.940   1.359  0.1345  0.8405  0.6786
 6971TIP3    H120877   5.441   3.016   1.300 -0.8605  0.9055  0.7854
 6971TIP3    H220878   5.535   2.934   1.385  0.2702  1.8935  0.5150
 6972TIP3   OH220879   2.380   1.565   2.148  0.5651  0.0485  0.3506
 6972TIP3    H120880   2.473   1.588   2.148  0.5074  0.3570 -0.9714
 6972TIP3    H220881   2.374   1.490   2.206  1.0620  2.1372  3.3233
 6973TIP3   OH220882   6.344   1.753   5.247  0.2736 -0.1714  0.3148
 6973TIP3    H120883   6.274   1.807   5.283  1.1327 -0.1260  2.0032
 6973TIP3    H220884   6.420   1.811   5.244  0.9299 -0.9646  1.1395
 6974TIP3   OH220885   7.045   5.696   2.499 -0.0307  0.3332 -0.1468
 6974TIP3    H120886   7.011   5.760   2.437 -1.3586 -0.7403 -0.5901
 6974TIP3    H220887   7.090   5.748   2.565  0.1627  1.6063 -1.2297
 6975TIP3   OH220888   5.974   3.347   5.037  0.6837 -0.5055  0.0014
 6975TIP3    H120889   5.972   3.271   4.978  3.8231 -0.4783 -0.3267
 6975TIP3    H220890   5.994   3.309   5.123 -1.0009 -0.2805  0.5237
 6976TIP3   OH220891   4.381   1.147   2.009 -0.3624 -0.5382 -0.2008
 6976TIP3    H120892   4.336   1.165   1.927 -0.7705  1.9941  0.4828
 6976TIP3    H220893   4.440   1.074   1.989 -0.2730  0.1594 -2.8069
 6977TIP3   OH220894   6.366   6.417   4.799  0.3971  0.6050  0.1897
 6977TIP3    H120895   6.423   6.406   4.875 -0.0662 -0.8764  0.3665
 6977TIP3    H220896   6.376   6.509   4.774  2.4591  0.5205  0.5165
 6978TIP3   OH220897   5.201   1.669   2.702  0.2336 -0.2805  0.1204
 6978TIP3    H120898   5.106   1.657   2.706 -0.1896  2.1052 -1.0681
 6978TIP3    H220899   5.218   1.749   2.752  2.0636 -2.1305  2.7629
 6979TIP3   OH220900   1.013   4.231   0.515 -0.7464 -0.0149  0.2424
 6979TIP3    H120901   0.934   4.267   0.475 -0.8895 -0.8215 -0.2147
 6979TIP3    H220902   1.049   4.172   0.449  0.7979  1.0781  0.0552
 6980TIP3   OH220903   5.384   3.901   5.217  0.3134  0.7967 -0.1944
 6980TIP3    H120904   5.340   3.868   5.139  0.2560  0.9126 -0.2122
 6980TIP3    H220905   5.315   3.946   5.266 -0.5991 -2.4821  1.8233
 6981TIP3   OH220906   2.875   5.678   3.156 -0.4192 -0.1439 -1.2678
 6981TIP3    H120907   2.830   5.759   3.178  1.1712  0.4570  0.0099
 6981TIP3    H220908   2.890   5.635   3.240  2.9870  0.6285 -1.3242
 6982TIP3   OH220909   3.017   2.260   0.683 -0.0658  0.1105 -0.6756
 6982TIP3    H120910   2.969   2.343   0.676 -1.1584 -0.3864  0.5809
 6982TIP3    H220911   3.037   2.251   0.776 -0.0343 -1.0737 -0.7829
 6983TIP3   OH220912   0.872   3.805   4.240  0.6284 -0.2026 -0.3779
 6983TIP3    H120913   0.826   3.888   4.239  1.2156  0.1524  1.0298
 6983TIP3    H220914   0.924   3.805   4.159  0.4685  0.7006 -0.4793
 6984TIP3   OH220915   6.580   0.211   1.854 -0.1422  0.4668 -0.5083
 6984TIP3    H120916   6.530   0.132   1.875 -0.4303  0.2155 -2.0014
 6984TIP3    H220917   6.665   0.198   1.895 -0.6748  0.0600  0.5047
 6985TIP3   OH220918   6.009   2.375   5.588  0.3320  0.1312  0.0136
 6985TIP3    H120919   6.026   2.325   5.668  0.9063 -0.8887 -0.7284
 6985TIP3    H220920   5.966   2.455   5.619 -1.2507 -1.1018  1.1850
 6986TIP3   OH220921   3.902   0.564   4.603 -0.3884 -0.0327  0.1067
 6986TIP3    H120922   3.849   0.598   4.531  1.3503  0.7236 -0.8824
 6986TIP3    H220923   3.868   0.476   4.619 -0.3847 -0.4955 -2.1253
 6987TIP3   OH220924   0.191   2.119   4.853 -0.3045 -0.5708  0.4916
 6987TIP3    H120925   0.254   2.065   4.805 -1.6965 -1.4320 -0.4388
 6987TIP3    H220926   0.184   2.077   4.939  1.3764  0.3335  1.1086
 6988TIP3   OH220927   0.658   4.070   1.110 -0.0882  0.2951  0.3791
 6988TIP3    H120928   0.597   4.063   1.037 -1.0441 -2.2805  1.3226
 6988TIP3    H220929   0.626   4.007   1.175  3.6077 -1.3565  0.8576
 6989TIP3   OH220930   5.746   3.772   5.846  0.2445 -0.2553  0.0925
 6989TIP3    H120931   5.716   3.684   5.869  1.4751 -0.7963 -0.3291
 6989TIP3    H220932   5.667   3.826   5.855 -0.3168 -1.2142  1.2787
 6990TIP3   OH220933   6.122   1.475   1.469  0.1138 -0.1397 -0.6952
 6990TIP3    H120934   6.074   1.434   1.541 -0.3237 -0.3688 -1.1061
 6990TIP3    H220935   6.201   1.423   1.460 -0.2336 -0.6377 -0.9303
 6991TIP3   OH220936   2.534   6.517   2.906 -0.4918 -0.6228 -0.0727
 6991TIP3    H120937   2.530   6.455   2.833 -0.8577  0.5058 -1.0286
 6991TIP3    H220938   2.445   6.548   2.917 -0.1932  0.2598 -0.0614
 6992TIP3   OH220939   7.061   0.482   3.167  0.0113 -0.0150  0.4278
 6992TIP3    H120940   7.069   0.388   3.185 -1.9383 -0.4691 -0.7823
 6992TIP3    H220941   7.092   0.492   3.078  0.3630  0.5349  0.6100
 6993TIP3   OH220942   5.741   5.762   0.434  0.5444 -0.8176  0.0709
 6993TIP3    H120943   5.827   5.781   0.470 -0.4259 -0.4507  2.3907
 6993TIP3    H220944   5.696   5.714   0.504 -1.0862 -1.1263 -1.1294
 6994TIP3   OH220945   0.925   4.469   5.457  0.4029  0.0638 -0.5289
 6994TIP3    H120946   0.896   4.495   5.369 -0.6863 -0.1330 -0.2464
 6994TIP3    H220947   0.923   4.550   5.507  3.3465  0.6805 -1.2252
 6995TIP3   OH220948   5.646   0.012   2.875  0.1713 -0.2322  0.8000
 6995TIP3    H120949   5.644   0.047   2.964 -0.0288 -1.0540  1.1294
 6995TIP3    H220950   5.567  -0.042   2.869  0.0489  0.0138  0.0346
 6996TIP3   OH220951   2.028   0.872   0.373  0.1017 -0.3432  0.1802
 6996TIP3    H120952   2.123   0.870   0.360  0.1786  1.6358  0.1367
 6996TIP3    H220953   2.011   0.958   0.412 -1.7996 -0.0872 -1.0856
 6997TIP3   OH220954   1.888   6.354   2.822  0.0930  0.1654  0.1968
 6997TIP3    H120955   1.956   6.364   2.888 -0.2993  0.3565  0.5813
 6997TIP3    H220956   1.839   6.276   2.849  1.7427 -1.5617 -1.5304
 6998TIP3   OH220957   3.902   2.408   0.139 -0.2396 -0.0848 -0.4445
 6998TIP3    H120958   3.990   2.444   0.145  0.1930 -1.2788  1.2584
 6998TIP3    H220959   3.862   2.428   0.224 -1.3176 -0.2940 -0.8827
 6999TIP3   OH220960   3.354   4.330   2.488 -0.0114  0.4464  0.1571
 6999TIP3    H120961   3.362   4.234   2.492  0.7343  0.5243  0.8428
 6999TIP3    H220962   3.267   4.348   2.524 -0.4021 -0.0056 -0.5434
 7000TIP3   OH220963   0.682   5.381   3.499  0.5060  0.2433  0.2664
 7000TIP3    H120964   0.641   5.375   3.413  2.0272  0.3606 -0.5009
 7000TIP3    H220965   0.630   5.324   3.555 -1.3279  1.2154 -0.3834
 7001TIP3   OH220966   6.826   5.831   4.197 -0.1631  0.2746 -0.4336
 7001TIP3    H120967   6.796   5.755   4.148  0.2618 -0.2557  0.1189
 7001TIP3    H220968   6.842   5.798   4.285 -1.1015  1.2582  0.1285
 7002TIP3   OH220969   6.737   4.649   3.095 -0.3222  0.5968 -0.3852
 7002TIP3    H120970   6.799   4.611   3.157 -1.0000  2.0362  1.2403
 7002TIP3    H220971   6.714   4.576   3.037 -0.8814 -1.2950  2.0395
 7003TIP3   OH220972   5.774   6.317   3.701  0.6950 -0.2758  0.3435
 7003TIP3    H120973   5.861   6.348   3.678  0.2966  0.7359  0.1701
 7003TIP3    H220974   5.745   6.374   3.773 -0.0578 -0.2037 -0.0023
 7004TIP3   OH220975   5.347   0.611   4.496  0.6332 -0.3093 -0.1658
 7004TIP3    H120976   5.423   0.612   4.554 -0.5171 -0.0786  1.4220
 7004TIP3    H220977   5.272   0.604   4.556 -0.5879 -0.6617 -1.6771
 7005TIP3   OH220978   2.739   4.929   5.705  0.2434  0.0939 -0.6693
 7005TIP3    H120979   2.664   4.893   5.657 -0.6587  0.9801  0.0455
 7005TIP3    H220980   2.703   5.001   5.757  1.4750  0.1163  0.2037
 7006TIP3   OH220981   4.999   2.891   0.998 -0.0924  0.0132 -0.2514
 7006TIP3    H120982   5.092   2.888   0.974  0.0601 -1.2450  0.4119
 7006TIP3    H220983   4.984   2.981   1.024  1.6241 -0.3004  2.1297
 7007TIP3   OH220984   0.935   3.420   0.680 -0.0047 -0.4323  0.2754
 7007TIP3    H120985   0.984   3.368   0.616  0.6537  0.6393 -0.1254
 7007TIP3    H220986   1.002   3.473   0.724 -0.6899  0.3852  0.3625
 7008TIP3   OH220987   7.195   0.874   3.013 -0.2254 -0.2398  0.5570
 7008TIP3    H120988   7.123   0.813   3.030 -0.6689  0.8421  3.0753
 7008TIP3    H220989   7.196   0.931   3.090  0.1269  3.0052 -1.6566
 7009TIP3   OH220990   4.704   3.395   5.669  0.5086  0.5385 -1.0223
 7009TIP3    H120991   4.628   3.446   5.641  0.0984  0.0331 -0.8409
 7009TIP3    H220992   4.725   3.430   5.755  1.5820  1.8831 -1.7925
 7010TIP3   OH220993   1.466   4.430   2.458  0.4925  0.1995  0.2144
 7010TIP3    H120994   1.393   4.397   2.511  0.8511 -0.4036  0.3349
 7010TIP3    H220995   1.535   4.449   2.521  0.7769 -0.1371  0.0121
 7011TIP3   OH220996   5.186   2.636   2.206 -0.7070 -0.2869  0.3510
 7011TIP3    H120997   5.254   2.596   2.152 -0.6973 -2.5879  1.9402
 7011TIP3    H220998   5.117   2.659   2.143  0.7136  0.3645 -1.0377
 7012TIP3   OH220999   1.689   0.682   1.615 -0.6459  0.4225 -0.1766
 7012TIP3    H121000   1.679   0.682   1.520 -0.7951  1.0510 -0.1644
 7012TIP3    H221001   1.622   0.622   1.646  1.5933 -2.5522 -0.6586
 7013TIP3   OH221002   6.900   1.119   2.599  0.0879  0.3184  0.3320
 7013TIP3    H121003   6.926   1.202   2.640  0.3331  0.7300 -0.6248
 7013TIP3    H221004   6.979   1.065   2.603  0.2561  0.5317 -0.0111
 7014TIP3   OH221005   3.584   1.925   4.221 -0.2202 -0.2742 -0.3049
 7014TIP3    H121006   3.512   1.987   4.206 -1.0128 -1.2024 -0.4402
 7014TIP3    H221007   3.546   1.839   4.202  0.8482 -0.8115 -0.0872
 7015TIP3   OH221008   1.031   4.236   5.509  0.1353  0.3399  0.1984
 7015TIP3    H121009   0.954   4.216   5.561 -1.5467  1.3135 -1.7915
 7015TIP3    H221010   1.017   4.325   5.477  0.6417 -0.4624 -2.5558
 7016TIP3   OH221011   6.182   6.540   2.852 -0.2518 -0.1568 -0.0315
 7016TIP3    H121012   6.238   6.473   2.891  1.3705  0.2979 -1.4261
 7016TIP3    H221013   6.238   6.618   2.846 -0.3474 -0.1869 -3.1202
 7017TIP3   OH221014   1.615   3.340   4.849  0.0002 -0.6699  0.6537
 7017TIP3    H121015   1.546   3.330   4.914  0.4556 -1.6376  1.0129
 7017TIP3    H221016   1.664   3.418   4.877 -1.0095  0.1081  0.3152
 7018TIP3   OH221017   1.891   4.564   2.048  0.6418  0.1258 -0.7603
 7018TIP3    H121018   1.870   4.473   2.068  0.2222  0.3688 -0.0553
 7018TIP3    H221019   1.908   4.604   2.133 -0.7247  1.0800 -0.8891
 7019TIP3   OH221020   4.063   2.550   4.491  0.0214  0.3251  0.1628
 7019TIP3    H121021   4.016   2.604   4.555  0.2792  0.8364 -0.0738
 7019TIP3    H221022   4.001   2.537   4.419 -0.9777 -1.8776  1.3254
 7020TIP3   OH221023   3.832   2.837   3.421 -0.3094 -0.1526  0.6056
 7020TIP3    H121024   3.826   2.911   3.480 -1.8395  0.5354 -0.3522
 7020TIP3    H221025   3.919   2.800   3.437  0.6502  2.0864  0.8038
 7021TIP3   OH221026   5.603   1.540   4.997 -0.2032 -0.0868 -0.3925
 7021TIP3    H121027   5.520   1.583   5.020 -0.2609 -1.0830  1.5193
 7021TIP3    H221028   5.580   1.482   4.925 -0.8049  0.7672 -0.9186
 7022TIP3   OH221029   2.256   5.588   3.696  0.4469  0.1871 -0.2022
 7022TIP3    H121030   2.330   5.639   3.728  2.8609 -1.7609 -2.2371
 7022TIP3    H221031   2.235   5.527   3.766  1.1277  0.4179  0.2044
 7023TIP3   OH221032   3.293   5.444   5.585 -0.1083 -0.2106  0.3649
 7023TIP3    H121033   3.382   5.468   5.559 -0.4949  1.1430  0.2041
 7023TIP3    H221034   3.276   5.496   5.664 -0.9334 -0.0721  0.1053
 7024TIP3   OH221035   4.233   1.979   2.940 -0.8462 -0.1477  0.1301
 7024TIP3    H121036   4.269   2.065   2.962 -0.5781 -0.4233  0.8098
 7024TIP3    H221037   4.281   1.952   2.862 -0.1101 -0.1736  0.5810
 7025TIP3   OH221038   5.622   5.341   4.058 -0.7782  0.2726 -0.3072
 7025TIP3    H121039   5.607   5.405   4.127  0.3672 -0.3004  0.5032
 7025TIP3    H221040   5.701   5.370   4.014  1.0005 -1.6072  1.4033
 7026TIP3   OH221041   1.688   4.512   3.559 -0.0576 -0.4168  0.5769
 7026TIP3    H121042   1.743   4.433   3.558  1.5408  0.6445 -1.1220
 7026TIP3    H221043   1.616   4.492   3.499  0.3604 -0.5707  0.1253
 7027TIP3   OH221044   0.641   0.969   4.000  0.0473 -0.1010  0.0712
 7027TIP3    H121045   0.579   1.014   4.056 -0.0506  1.6387 -1.3431
 7027TIP3    H221046   0.587   0.917   3.940  0.0782 -0.5167  0.3979
 7028TIP3   OH221047   2.861   1.072   3.199 -0.4158  0.5706  0.1063
 7028TIP3    H121048   2.880   1.164   3.184  1.6602  0.2142  0.1681
 7028TIP3    H221049   2.766   1.067   3.207 -0.5870  2.6372 -0.2348
 7029TIP3   OH221050   2.124   2.981   0.221 -0.2318  0.2459 -0.1499
 7029TIP3    H121051   2.164   2.953   0.303  0.7853 -0.7912 -0.9703
 7029TIP3    H221052   2.192   3.032   0.177 -0.7508  0.7451 -0.3926
 7030TIP3   OH221053   1.401   3.404   1.949  0.8065 -0.0803 -0.2116
 7030TIP3    H121054   1.429   3.468   2.014  1.0815 -0.3331 -0.0772
 7030TIP3    H221055   1.456   3.421   1.872  1.0446 -0.3085 -0.0926
 7031TIP3   OH221056   3.497   1.535   5.789  0.5436  0.0062 -0.3953
 7031TIP3    H121057   3.497   1.440   5.774 -0.3761 -0.2644  1.0637
 7031TIP3    H221058   3.454   1.571   5.711 -0.1222 -0.8855 -0.4608
 7032TIP3   OH221059   3.402   5.689   4.474  0.3127  0.6263 -0.8851
 7032TIP3    H121060   3.488   5.724   4.496 -0.4950  1.3051  1.5159
 7032TIP3    H221061   3.358   5.761   4.428 -0.5064  2.0847  1.9513
 7033TIP3   OH221062   4.790   1.871   5.563  0.4404 -0.6663 -0.5927
 7033TIP3    H121063   4.817   1.791   5.517 -0.1640 -1.6233  0.6658
 7033TIP3    H221064   4.836   1.866   5.647  1.1745  0.8310 -0.8767
 7034TIP3   OH221065   5.444   6.576   2.851 -0.4533  0.0801 -0.2426
 7034TIP3    H121066   5.374   6.641   2.845 -0.2546  0.5386  1.5441
 7034TIP3    H221067   5.399   6.497   2.881 -0.1615  0.6090  1.7584
 7035TIP3   OH221068   0.173   5.580   1.499  0.5290 -0.4451  0.1543
 7035TIP3    H121069   0.108   5.546   1.437  1.2991 -0.5615 -0.6131
 7035TIP3    H221070   0.124   5.595   1.579 -0.7976  0.9523 -0.8468
 7036TIP3   OH221071   4.662   5.194   2.240  0.2824 -0.4930  0.0198
 7036TIP3    H121072   4.632   5.131   2.306  1.0169 -0.0952  0.7567
 7036TIP3    H221073   4.585   5.245   2.218  0.3251  0.3164  1.6472
 7037TIP3   OH221074   5.251   4.867   4.504  0.0007 -0.4758 -0.1187
 7037TIP3    H121075   5.252   4.804   4.576  1.0316 -0.7319 -0.3409
 7037TIP3    H221076   5.319   4.931   4.527 -0.8451  0.4139 -0.0273
 7038TIP3   OH221077   1.918   6.730   4.411  0.1226 -0.1387  0.4520
 7038TIP3    H121078   1.861   6.786   4.359  0.6456 -0.1517 -0.1441
 7038TIP3    H221079   1.948   6.662   4.350 -0.8771 -1.3696  1.2622
 7039TIP3   OH221080   4.957   1.187   1.056  0.0199 -0.6515  0.3632
 7039TIP3    H121081   4.950   1.129   1.131 -0.4785 -0.0418  0.8005
 7039TIP3    H221082   4.883   1.162   1.000 -0.4256 -0.1880  0.7360
 7040TIP3   OH221083   2.718   0.202   3.252 -0.4747 -0.6151 -0.2445
 7040TIP3    H121084   2.780   0.248   3.195 -0.6920 -0.7361 -0.5831
 7040TIP3    H221085   2.632   0.218   3.211 -0.8935  0.9590  1.1240
 7041TIP3   OH221086   2.052   1.889   2.447 -0.1561 -0.4696  0.4771
 7041TIP3    H121087   2.095   1.905   2.530 -0.9362  0.3519  0.7437
 7041TIP3    H221088   2.029   1.977   2.414 -0.7880 -0.8283 -0.0845
 7042TIP3   OH221089   2.064   1.283   1.477  0.3707 -0.7697  0.6346
 7042TIP3    H121090   2.060   1.219   1.406  0.8623 -0.0887 -0.0194
 7042TIP3    H221091   2.095   1.363   1.436  0.7113 -0.3710  1.6337
 7043TIP3   OH221092   0.310   5.932   2.996 -0.0373  0.2223  0.2666
 7043TIP3    H121093   0.386   5.960   3.048  0.2995  0.0033 -0.0988
 7043TIP3    H221094   0.339   5.851   2.954  0.1985  1.1592 -1.4155
 7044TIP3   OH221095   0.375   2.706   1.448 -0.1802  0.2315  0.2539
 7044TIP3    H121096   0.311   2.757   1.398  0.4091  1.9077  1.1328
 7044TIP3    H221097   0.354   2.726   1.540 -0.9531 -2.4115  0.7158
 7045TIP3   OH221098   6.280   5.354   2.902 -0.7324 -0.3881  0.1832
 7045TIP3    H121099   6.263   5.282   2.842  2.1935 -0.6687 -0.4716
 7045TIP3    H221100   6.265   5.317   2.989 -0.1722 -1.5297 -0.1846
 7046TIP3   OH221101   6.917   1.911   0.518 -0.2953  0.1608 -0.4473
 7046TIP3    H121102   6.913   1.925   0.423  1.8138  0.6040 -0.5176
 7046TIP3    H221103   7.009   1.926   0.540 -0.5372 -1.0111  1.5159
 7047TIP3   OH221104   2.348   5.756   0.824 -0.5221 -0.3220 -0.1974
 7047TIP3    H121105   2.393   5.832   0.860 -0.1007 -0.8811  0.4863
 7047TIP3    H221106   2.375   5.753   0.732 -1.8746  1.3272 -0.7084
 7048TIP3   OH221107   4.564   4.895   3.648 -0.1111 -0.4334  0.5776
 7048TIP3    H121108   4.648   4.898   3.602  0.3495 -0.9455  1.3655
 7048TIP3    H221109   4.525   4.813   3.621 -1.1248  0.5466 -1.0688
 7049TIP3   OH221110   2.153   5.640   1.749  0.1985  0.4651 -0.1333
 7049TIP3    H121111   2.072   5.691   1.749  0.6992  1.2872 -0.7072
 7049TIP3    H221112   2.131   5.560   1.702  0.1074  1.3633 -1.6992
 7050TIP3   OH221113   4.228   6.386   4.277 -0.0207  0.4649 -0.3214
 7050TIP3    H121114   4.263   6.335   4.350  1.0701  0.3652 -0.8873
 7050TIP3    H221115   4.303   6.397   4.218 -0.8842  0.5104 -1.4358
 7051TIP3   OH221116  -0.027   0.349   2.668  0.4675  0.4802 -0.7328
 7051TIP3    H121117   0.030   0.417   2.634  1.4406 -1.2283 -2.7371
 7051TIP3    H221118   0.029   0.295   2.723  0.0787  0.4332 -0.3775
 7052TIP3   OH221119   5.683   3.924   1.310  0.1977  0.3400 -0.3192
 7052TIP3    H121120   5.597   3.916   1.353  0.2699 -1.2408 -0.3885
 7052TIP3    H221121   5.665   3.905   1.218  0.6175 -0.0258 -0.3277
 7053TIP3   OH221122   3.177   4.799   0.173  0.3881  0.1822 -0.1438
 7053TIP3    H121123   3.209   4.767   0.258 -0.6369  0.6587  0.4423
 7053TIP3    H221124   3.251   4.785   0.113  1.5516  0.8680  1.0670
 7054TIP3   OH221125   5.691   4.722   1.261 -0.0563 -0.0285  0.2267
 7054TIP3    H121126   5.761   4.658   1.263  1.0930  1.0301 -2.0115
 7054TIP3    H221127   5.621   4.681   1.210  0.0421 -0.0690  0.1263
 7055TIP3   OH221128   6.773   5.555   3.324  0.2911  0.4278 -0.6819
 7055TIP3    H121129   6.705   5.532   3.387  0.5694  0.8696 -0.2137
 7055TIP3    H221130   6.855   5.532   3.368  0.4579  0.0326 -1.1851
 7056TIP3   OH221131   2.238   4.683   0.936 -0.1308  0.2945  0.5736
 7056TIP3    H121132   2.225   4.711   1.027 -1.1412 -3.0578  1.6212
 7056TIP3    H221133   2.163   4.718   0.889  0.1677  1.7037  1.1056
 7057TIP3   OH221134   2.401   0.260   4.059 -0.3588 -0.9376  0.0078
 7057TIP3    H121135   2.335   0.240   4.126  0.6629  0.0883  1.3675
 7057TIP3    H221136   2.381   0.198   3.988 -1.4222 -2.1391  1.2743
 7058TIP3   OH221137  -0.001   2.304   0.343 -0.3455  0.2080 -0.2015
 7058TIP3    H121138   0.040   2.233   0.392  1.5509  0.9174 -0.6695
 7058TIP3    H221139   0.010   2.381   0.398  0.6813  0.7648 -1.1439
 7059TIP3   OH221140   1.658   4.528   5.719 -0.3112 -0.4788 -0.4952
 7059TIP3    H121141   1.730   4.553   5.661  1.6920 -1.0524  1.6183
 7059TIP3    H221142   1.668   4.586   5.795 -2.2650 -0.4116 -0.2411
 7060TIP3   OH221143   1.329   3.822   2.307 -0.4565 -0.5384 -0.3702
 7060TIP3    H121144   1.268   3.844   2.378 -1.4345  1.5683 -1.7621
 7060TIP3    H221145   1.284   3.850   2.227  0.7435 -2.5540 -1.8377
 7061TIP3   OH221146   1.958   1.050   5.009 -0.3435  0.3024 -0.5410
 7061TIP3    H121147   1.981   1.139   5.035  0.5829  0.2046 -0.9886
 7061TIP3    H221148   1.892   1.062   4.940  0.7021  0.7011 -1.5154
 7062TIP3   OH221149   0.087   3.360   3.447 -0.3888 -0.4032  0.0817
 7062TIP3    H121150   0.044   3.338   3.530  1.6491  0.7009  1.5146
 7062TIP3    H221151   0.054   3.447   3.425 -1.0826 -0.7790 -0.4061
 7063TIP3   OH221152   0.064   3.629   1.577  0.2478 -0.2367  0.2578
 7063TIP3    H121153  -0.009   3.568   1.574  1.3484 -1.5544 -0.8134
 7063TIP3    H221154   0.129   3.588   1.634  0.7085  0.2853  0.1254
 7064TIP3   OH221155   2.809   5.589   5.599 -0.2412  0.4383 -0.2929
 7064TIP3    H121156   2.806   5.654   5.528  0.8510  0.6065 -0.2115
 7064TIP3    H221157   2.865   5.519   5.565 -0.5559  0.0343  0.0176
 7065TIP3   OH221158   6.626   5.555   0.588 -0.5482  0.0969  0.8286
 7065TIP3    H121159   6.582   5.639   0.601  1.9452  1.4326  1.2935
 7065TIP3    H221160   6.640   5.521   0.676  0.0925  0.1268  0.7440
 7066TIP3   OH221161   3.652   3.324   1.050  0.2907 -0.6123 -0.4272
 7066TIP3    H121162   3.714   3.394   1.069  0.7890 -0.6227 -1.9077
 7066TIP3    H221163   3.703   3.259   1.001 -0.4586 -1.4583 -0.1179
 7067TIP3   OH221164   1.522   6.531   3.888  0.5070 -0.5964 -0.5121
 7067TIP3    H121165   1.439   6.577   3.871  0.0507 -0.8275  0.9385
 7067TIP3    H221166   1.580   6.560   3.818 -0.4662  0.4215 -0.9323
 7068TIP3   OH221167   6.700   5.992   5.262  0.2046 -0.2530  0.1458
 7068TIP3    H121168   6.666   5.953   5.182 -1.3822 -0.8119  1.0400
 7068TIP3    H221169   6.666   6.081   5.262  1.3062  0.1859 -0.4179
 7069TIP3   OH221170   5.702   2.699   1.708  0.2440  0.0040 -0.3809
 7069TIP3    H121171   5.686   2.784   1.667  0.8007  0.1012 -0.3998
 7069TIP3    H221172   5.673   2.635   1.643 -1.0442  0.1811 -0.0068
 7070TIP3   OH221173   5.722   0.650   0.966  0.6231  0.2346 -0.1663
 7070TIP3    H121174   5.656   0.672   1.032  0.3174 -2.2412  0.4630
 7070TIP3    H221175   5.777   0.584   1.008  1.6756  0.0828 -1.7090
 7071TIP3   OH221176   1.254   1.048   1.089  0.3267  0.1495 -0.4895
 7071TIP3    H121177   1.163   1.058   1.114  0.8041  0.9468  1.0504
 7071TIP3    H221178   1.255   1.062   0.994 -1.0682  0.5847 -0.4566
 7072TIP3   OH221179   2.784   6.755   3.866 -0.2002  0.0853 -0.2253
 7072TIP3    H121180   2.756   6.847   3.875  1.9904  0.6699  1.4743
 7072TIP3    H221181   2.760   6.715   3.950 -0.8829 -0.8751 -0.8518
 7073TIP3   OH221182   1.403   4.168   3.359  0.7684  0.1320  0.2172
 7073TIP3    H121183   1.415   4.085   3.314  0.1381  0.8942 -1.4365
 7073TIP3    H221184   1.312   4.166   3.390  0.9438 -0.0370  0.7398
 7074TIP3   OH221185   2.693   3.219   2.855  0.0815 -0.4910 -0.0232
 7074TIP3    H121186   2.678   3.179   2.941  4.8537  0.3297  1.4849
 7074TIP3    H221187   2.712   3.311   2.874  2.3599 -0.5333 -1.7397
 7075TIP3   OH221188   1.757   1.904   2.359  0.3210  0.1206 -0.3080
 7075TIP3    H121189   1.825   1.969   2.341  0.0950  0.7741  1.0045
 7075TIP3    H221190   1.801   1.835   2.408 -0.0935  1.0290  1.4484
 7076TIP3   OH221191   5.559   5.137   0.606  0.6546 -0.6036 -0.5373
 7076TIP3    H121192   5.493   5.095   0.551  2.1065 -0.0240 -2.8782
 7076TIP3    H221193   5.617   5.182   0.544  1.4043  1.6219  1.5933
 7077TIP3   OH221194   4.008   1.685   2.442  0.5048 -0.1664 -0.0866
 7077TIP3    H121195   4.019   1.596   2.476 -0.0130  0.2081  1.1583
 7077TIP3    H221196   3.999   1.675   2.348  1.1788 -1.3607 -0.0358
 7078TIP3   OH221197   0.722   6.224   2.519 -0.0012 -0.0240  0.2477
 7078TIP3    H121198   0.813   6.240   2.544  0.5444 -2.5980  0.2228
 7078TIP3    H221199   0.688   6.169   2.589 -0.6925 -1.2940 -1.0374
 7079TIP3   OH221200   5.562   3.517   3.964 -0.3141 -0.0387 -0.6568
 7079TIP3    H121201   5.604   3.594   3.926  0.5448  0.7222  1.6444
 7079TIP3    H221202   5.476   3.548   3.992  0.1598  0.2250  0.5765
 7080TIP3   OH221203   0.402   3.953   2.552 -0.8375 -0.4110 -0.1951
 7080TIP3    H121204   0.432   3.954   2.643  2.4827  1.7489 -1.1312
 7080TIP3    H221205   0.328   4.015   2.551  0.1281  0.8039  0.7735
 7081TIP3   OH221206   0.587   3.843   1.250 -0.0062  0.3382  0.0618
 7081TIP3    H121207   0.621   3.843   1.339  0.8072  1.6872 -0.2287
 7081TIP3    H221208   0.660   3.811   1.197 -0.3972 -0.2013 -0.1635
 7082TIP3   OH221209   1.177   4.746   3.635  0.1772  0.4638 -0.2989
 7082TIP3    H121210   1.105   4.712   3.689  1.0822  1.3849  1.5988
 7082TIP3    H221211   1.255   4.702   3.669  0.8064  1.2756 -0.6717
 7083TIP3   OH221212   6.597   5.437   3.507  0.0054 -0.1922 -0.0038
 7083TIP3    H121213   6.686   5.426   3.540 -0.2075  1.4849  1.2571
 7083TIP3    H221214   6.550   5.360   3.538  0.9351 -0.9656 -0.4561
 7084TIP3   OH221215   3.023   6.600   0.696 -0.5526 -0.0120  0.0197
 7084TIP3    H121216   2.986   6.684   0.669 -0.6376 -0.2097 -0.4973
 7084TIP3    H221217   2.984   6.536   0.636  1.0431 -0.1627 -0.9454
 7085TIP3   OH221218   5.315   4.773   0.687 -0.3108 -0.0773  0.0811
 7085TIP3    H121219   5.302   4.736   0.774 -1.6272 -1.1921 -0.5381
 7085TIP3    H221220   5.230   4.812   0.665 -0.7171 -1.7053 -1.5120
 7086TIP3   OH221221   3.683   2.294  -0.003  0.7250  0.4222  0.3220
 7086TIP3    H121222   3.615   2.326   0.056 -0.5725 -4.3415  1.8837
 7086TIP3    H221223   3.765   2.330   0.032 -0.4666  1.5285  2.1105
 7087TIP3   OH221224   6.665   0.851   3.177 -0.9282  0.3317  0.7865
 7087TIP3    H121225   6.607   0.782   3.143 -1.2456  1.1195 -0.3304
 7087TIP3    H221226   6.671   0.914   3.106 -0.4470  1.3475  1.7039
 7088TIP3   OH221227   6.615   5.255   0.985 -0.2970 -0.6992  0.3408
 7088TIP3    H121228   6.534   5.268   0.935 -0.5100  0.4155  0.9420
 7088TIP3    H221229   6.666   5.194   0.932 -1.6829 -1.7459  0.1243
 7089TIP3   OH221230   5.000   2.699   2.040 -0.0328  0.1555  0.8034
 7089TIP3    H121231   4.967   2.633   1.978  1.3069  1.2199 -1.1784
 7089TIP3    H221232   4.924   2.755   2.057 -0.1676  0.5923 -0.9804
 7090TIP3   OH221233   5.109   1.954   3.811  0.3993  0.2114  0.4264
 7090TIP3    H121234   5.090   2.002   3.730  1.2391 -1.2344 -0.6983
 7090TIP3    H221235   5.173   1.888   3.784  2.3774  1.0275  2.7322
 7091TIP3   OH221236   5.220   0.087   0.475 -0.2529 -0.3745 -0.0220
 7091TIP3    H121237   5.151   0.029   0.442  1.1283 -1.7394 -0.6190
 7091TIP3    H221238   5.301   0.038   0.461  0.9047  1.4407  0.1012
 7092TIP3   OH221239   6.597   5.849   1.131  0.5322 -0.2082  0.2901
 7092TIP3    H121240   6.645   5.932   1.135 -2.0562  1.3347  2.2889
 7092TIP3    H221241   6.540   5.858   1.054  0.4957 -0.2919  0.3070
 7093TIP3   OH221242   4.578   5.638   1.728  0.5044 -1.0490 -0.8593
 7093TIP3    H121243   4.592   5.709   1.791  2.4043  0.5282 -2.9069
 7093TIP3    H221244   4.559   5.561   1.783  1.5062  0.3422  1.6111
 7094TIP3   OH221245   6.641   3.010   0.353  0.3583 -0.2918 -0.0447
 7094TIP3    H121246   6.549   2.987   0.363  0.0807  0.3695 -0.9563
 7094TIP3    H221247   6.640   3.100   0.322  1.2809 -0.5364 -0.8510
 7095TIP3   OH221248   3.085   2.093   4.489  0.1016  0.1883 -0.3511
 7095TIP3    H121249   3.049   2.149   4.420 -0.6902  0.5579  0.3522
 7095TIP3    H221250   3.178   2.116   4.492  0.2999 -0.3481 -1.7737
 7096TIP3   OH221251   4.800   2.726   0.698  0.0010 -0.0864 -0.0445
 7096TIP3    H121252   4.705   2.722   0.709  0.2606 -1.9494  2.2959
 7096TIP3    H221253   4.818   2.664   0.627 -0.6561  2.2448 -2.3891
 7097TIP3   OH221254   1.108   4.953   3.177  0.2997  0.1113 -0.1405
 7097TIP3    H121255   1.094   5.031   3.231 -2.0360  0.8340 -1.5966
 7097TIP3    H221256   1.192   4.968   3.135  0.5582  1.1701  0.7038
 7098TIP3   OH221257   3.306   4.134   5.809 -0.0347  0.7340 -0.1819
 7098TIP3    H121258   3.333   4.056   5.761 -1.7181  1.5535 -2.6720
 7098TIP3    H221259   3.214   4.146   5.786 -0.2164  2.6539  1.2563
 7099TIP3   OH221260   0.692   1.414   2.119  0.0547  0.5450  0.0538
 7099TIP3    H121261   0.720   1.355   2.189 -1.1067 -0.6951 -0.4752
 7099TIP3    H221262   0.665   1.494   2.165 -2.5975 -0.9295  1.3351
 7100TIP3   OH221263   0.742   0.485   3.203  0.2090  0.4102 -0.2901
 7100TIP3    H121264   0.806   0.481   3.132  1.0186 -0.3796  0.4613
 7100TIP3    H221265   0.795   0.478   3.283 -0.9051 -1.5322  0.3318
 7101TIP3   OH221266   6.079   1.278   5.062  0.3534 -0.2627 -0.2008
 7101TIP3    H121267   6.131   1.358   5.054 -0.4472  0.4564  1.2069
 7101TIP3    H221268   6.144   1.208   5.067  1.1454  0.4573  0.0087
 7102TIP3   OH221269   0.234   3.113   0.120 -0.6115 -0.4547 -0.0579
 7102TIP3    H121270   0.257   3.157   0.038 -2.3258 -0.0872 -0.3872
 7102TIP3    H221271   0.290   3.036   0.123  0.7633  0.4886 -0.6599
 7103TIP3   OH221272   1.327   0.237   3.530  0.2638 -0.1406 -0.0444
 7103TIP3    H121273   1.401   0.240   3.470 -1.2748  0.5337 -2.0299
 7103TIP3    H221274   1.361   0.272   3.612  2.2300 -0.2737 -0.7553
 7104TIP3   OH221275   5.877   2.766   2.360  0.3187 -0.1323  0.4135
 7104TIP3    H121276   5.926   2.703   2.413  3.0328 -0.1395 -1.8699
 7104TIP3    H221277   5.897   2.851   2.399  2.8579 -0.0692 -0.8246
 7105TIP3   OH221278   4.699   6.543   0.783  0.0224 -0.1261  0.0660
 7105TIP3    H121279   4.761   6.493   0.836 -1.1317 -1.6556  0.0380
 7105TIP3    H221280   4.753   6.584   0.716  1.0721 -1.0321  0.3287
 7106TIP3   OH221281   1.575   0.098   4.925  0.4400  0.2864 -0.2084
 7106TIP3    H121282   1.624   0.148   4.990  0.0758  1.1509 -0.5752
 7106TIP3    H221283   1.486   0.094   4.961 -0.5215  3.2320 -1.8483
 7107TIP3   OH221284   5.722   2.510   1.496 -0.2242  0.0972  0.4603
 7107TIP3    H121285   5.804   2.475   1.532 -0.4910 -0.3537  0.6334
 7107TIP3    H221286   5.750   2.565   1.423  0.1180 -1.5883 -0.7171
 7108TIP3   OH221287   1.563   0.573   5.706  0.1601  0.1363 -0.0613
 7108TIP3    H121288   1.540   0.665   5.720 -1.5817 -0.4800  1.5167
 7108TIP3    H221289   1.555   0.533   5.792 -2.9759 -2.2807 -1.2735
 7109TIP3   OH221290   3.844   1.068   4.552  0.0521  0.3174  0.5043
 7109TIP3    H121291   3.937   1.058   4.528 -0.2465  1.2257 -1.1927
 7109TIP3    H221292   3.835   1.160   4.576 -0.4717  0.3091  0.3536
 7110TIP3   OH221293   4.498   6.291   5.278 -0.4918 -0.0835  0.3085
 7110TIP3    H121294   4.536   6.374   5.250 -0.4069 -0.8877 -2.2266
 7110TIP3    H221295   4.534   6.277   5.366 -0.5873  2.5560  0.8488
 7111TIP3   OH221296   4.050   5.004   5.367  0.0603 -0.2005  0.0703
 7111TIP3    H121297   4.057   5.066   5.440 -0.2221 -0.4897  0.3486
 7111TIP3    H221298   3.971   4.954   5.386 -0.5522  0.3582 -0.9432
 7112TIP3   OH221299   6.909   4.102   5.860 -0.4552 -0.0917 -0.6514
 7112TIP3    H121300   6.822   4.125   5.892 -0.0114  0.4316  0.1945
 7112TIP3    H221301   6.905   4.007   5.847 -1.3915  0.0228 -1.4024
 7113TIP3   OH221302   6.057   2.109   3.455  0.2530  0.0288 -0.1101
 7113TIP3    H121303   6.051   2.021   3.416  1.7157 -0.3138  0.4040
 7113TIP3    H221304   6.005   2.164   3.396  1.2809 -0.7407 -1.7996
 7114TIP3   OH221305   3.544   3.949   3.713 -0.1803 -0.1160 -0.1505
 7114TIP3    H121306   3.598   3.920   3.786 -0.6193  0.4610  0.4191
 7114TIP3    H221307   3.596   3.930   3.635  0.8224  0.4029  0.3780
 7115TIP3   OH221308   4.762   2.380   3.417 -0.1699  0.0029  0.0993
 7115TIP3    H121309   4.848   2.344   3.398  0.4810  1.0469  0.9182
 7115TIP3    H221310   4.755   2.376   3.513 -1.0537 -0.1245  0.0380
 7116TIP3   OH221311   3.566   3.272   2.078 -0.5771  0.0325  0.2338
 7116TIP3    H121312   3.478   3.250   2.049 -0.3120  0.5090 -0.9805
 7116TIP3    H221313   3.614   3.292   1.998  0.6435 -0.2078  0.8722
 7117TIP3   OH221314   2.140   1.223   1.209 -0.1736  0.3208  0.2893
 7117TIP3    H121315   2.104   1.239   1.122 -0.3882 -0.0183  0.3136
 7117TIP3    H221316   2.226   1.264   1.207  1.4101 -2.7132 -1.3227
 7118TIP3   OH221317   0.422   2.113   0.228 -0.4222 -0.5071 -0.0727
 7118TIP3    H121318   0.451   2.177   0.163 -1.2991 -1.0017 -0.9929
 7118TIP3    H221319   0.428   2.028   0.183  2.2405 -1.3344  1.6198
 7119TIP3   OH221320   4.042   4.944   1.266  0.3059  0.2494  0.0565
 7119TIP3    H121321   4.027   5.036   1.246  0.6543 -0.0703 -1.8976
 7119TIP3    H221322   4.118   4.919   1.214  0.5392 -1.0322  0.9386
 7120TIP3   OH221323   6.265   2.132   2.940  0.2460 -0.6151 -0.3136
 7120TIP3    H121324   6.294   2.197   2.876  2.2221 -1.1432 -0.0349
 7120TIP3    H221325   6.251   2.053   2.889  0.5499 -0.6909 -0.2824
 7121TIP3   OH221326   4.390   0.619   1.695  0.0609 -0.3418 -0.3208
 7121TIP3    H121327   4.463   0.589   1.749 -0.0179 -1.0490 -0.5947
 7121TIP3    H221328   4.389   0.714   1.707  0.3870 -0.4272  0.4845
 7122TIP3   OH221329   4.324   1.524   0.287 -0.3196 -0.4472  0.3547
 7122TIP3    H121330   4.341   1.586   0.357  0.9193  0.5948 -0.7941
 7122TIP3    H221331   4.237   1.548   0.254 -0.6001 -0.4817  1.0519
 7123TIP3   OH221332   1.833   1.580   2.011 -0.1678 -0.1502  0.0333
 7123TIP3    H121333   1.837   1.664   2.057 -1.2162  0.2507 -0.5713
 7123TIP3    H221334   1.894   1.524   2.059  1.3451  1.2400 -0.1850
 7124TIP3   OH221335   5.612   6.084   0.746 -0.1320  0.4477 -0.5806
 7124TIP3    H121336   5.643   5.994   0.752 -1.6203 -0.1294 -1.0574
 7124TIP3    H221337   5.654   6.129   0.820  0.7186 -0.5944 -0.4054
 7125TIP3   OH221338   3.770   3.336   5.764 -0.5119 -0.0196 -0.1929
 7125TIP3    H121339   3.727   3.415   5.798  2.2901  2.8017 -2.6537
 7125TIP3    H221340   3.825   3.307   5.837 -1.5924  0.2040  0.7602
 7126TIP3   OH221341   0.690   0.788   3.582 -0.1514 -0.0640  0.5725
 7126TIP3    H121342   0.615   0.828   3.539 -0.1275 -0.1439  0.4535
 7126TIP3    H221343   0.729   0.858   3.634  0.5561  0.3792 -0.5238
 7127TIP3   OH221344   4.622   0.989   0.388 -0.4483 -0.1597  0.7739
 7127TIP3    H121345   4.690   0.958   0.328 -2.3294 -2.1929 -0.4643
 7127TIP3    H221346   4.573   1.054   0.336  0.1852  0.9344  1.4949
 7128TIP3   OH221347   2.220   4.756   1.783 -0.1436  0.8154 -0.2074
 7128TIP3    H121348   2.281   4.749   1.856  0.2635 -0.0034 -0.6191
 7128TIP3    H221349   2.275   4.765   1.706 -0.5557  3.4684 -0.3040
 7129TIP3   OH221350   0.754   4.231   3.938 -0.6680 -0.8304  0.0524
 7129TIP3    H121351   0.818   4.191   3.998  0.3818 -0.1163 -0.5523
 7129TIP3    H221352   0.675   4.178   3.948 -0.1977 -1.3388  1.3220
 7130TIP3   OH221353   0.928   3.788   2.374  0.8694 -0.0885  0.0321
 7130TIP3    H121354   0.917   3.864   2.316  0.5591  1.3408  1.8716
 7130TIP3    H221355   1.023   3.776   2.379  0.9592  0.7097  0.3695
 7131TIP3   OH221356   3.281   0.350   0.537  0.0266  0.0889  0.0576
 7131TIP3    H121357   3.305   0.266   0.498  0.8208  0.4274 -0.1995
 7131TIP3    H221358   3.195   0.370   0.500 -0.0164 -0.4414 -0.1442
 7132TIP3   OH221359   0.366   4.528   2.665  0.1086 -0.8622 -0.3740
 7132TIP3    H121360   0.378   4.455   2.603  0.5711  0.3304 -1.7426
 7132TIP3    H221361   0.283   4.568   2.638  0.6521  0.0851 -0.6894
 7133TIP3   OH221362   0.436   1.874   3.467 -0.0499 -0.0216  0.5192
 7133TIP3    H121363   0.370   1.812   3.498 -1.6047  1.0810 -0.4153
 7133TIP3    H221364   0.456   1.844   3.378  0.0051  0.2023  0.4571
 7134TIP3   OH221365   2.739   2.670   5.332 -0.2524 -0.1136 -0.1754
 7134TIP3    H121366   2.692   2.753   5.327  1.1047  0.6036 -2.2076
 7134TIP3    H221367   2.697   2.615   5.265  0.6165 -0.0744 -0.7701
 7135TIP3   OH221368   5.954   4.533   3.146 -0.4300 -0.2474 -0.2630
 7135TIP3    H121369   5.961   4.607   3.086 -1.1850 -1.2537 -1.6611
 7135TIP3    H221370   5.928   4.572   3.229 -0.1681  1.1092 -0.7848
 7136TIP3   OH221371   4.093   5.557   2.490 -0.2061  0.1754  0.0514
 7136TIP3    H121372   4.111   5.629   2.550  0.1759  0.5969 -0.5620
 7136TIP3    H221373   4.180   5.524   2.467 -0.3534 -2.4144  2.6042
 7137TIP3   OH221374   2.816   1.111   1.216  0.6461 -0.5514  0.1766
 7137TIP3    H121375   2.863   1.189   1.186 -3.0016  1.3710 -1.1874
 7137TIP3    H221376   2.780   1.073   1.136 -4.7807  1.5547  1.1956
 7138TIP3   OH221377   0.657   0.570   5.559 -0.6569 -0.1760 -0.2281
 7138TIP3    H121378   0.732   0.583   5.501 -0.1495  2.8594  0.9332
 7138TIP3    H221379   0.583   0.610   5.512 -1.0661 -1.0129 -0.3227
 7139TIP3   OH221380   2.469   2.903   5.829  0.6054 -0.4883 -1.1794
 7139TIP3    H121381   2.459   2.948   5.745  1.6529 -0.8502 -1.5074
 7139TIP3    H221382   2.502   2.970   5.889 -1.3242  0.0963 -0.7043
 7140TIP3   OH221383   6.073   0.807   5.827 -0.6660 -0.6133 -0.1487
 7140TIP3    H121384   6.058   0.843   5.914  1.0820 -3.1765  1.3456
 7140TIP3    H221385   6.030   0.869   5.768  1.4049  3.4134  2.1507
 7141TIP3   OH221386   6.912   2.943   5.076 -0.1195  0.0845  0.2947
 7141TIP3    H121387   6.899   2.915   5.167  0.2751 -0.9185  0.0623
 7141TIP3    H221388   6.843   2.898   5.028 -0.8379  1.2542  0.1918
 7142TIP3   OH221389   3.690   3.300   4.918 -0.6991  0.0839  0.2449
 7142TIP3    H121390   3.677   3.207   4.938 -0.5428  0.6652  3.4190
 7142TIP3    H221391   3.779   3.319   4.948 -1.2866  1.5916  1.1341
 7143TIP3   OH221392   6.703   0.601   0.498 -0.0063 -0.1945  0.4618
 7143TIP3    H121393   6.663   0.687   0.514  0.2589  0.0188 -0.0211
 7143TIP3    H221394   6.754   0.612   0.419  1.8150 -0.1851  1.5783
 7144TIP3   OH221395   0.490   6.119   3.713 -0.1625  0.2190 -0.2582
 7144TIP3    H121396   0.405   6.132   3.754 -0.1983  1.5940 -0.7291
 7144TIP3    H221397   0.532   6.050   3.765 -1.8786 -1.0948 -0.5421
 7145TIP3   OH221398   6.762   2.848   0.542  0.1367 -0.0900  0.3306
 7145TIP3    H121399   6.855   2.864   0.560  0.0433  0.0663  0.6814
 7145TIP3    H221400   6.742   2.904   0.468  0.5169 -0.7057 -0.2528
 7146TIP3   OH221401   7.147   1.199   1.490  0.5505 -0.0643  0.1274
 7146TIP3    H121402   7.119   1.219   1.401  1.2668 -0.3130 -0.1609
 7146TIP3    H221403   7.179   1.282   1.525 -2.0580  0.6455  1.0710
 7147TIP3   OH221404   4.736   1.829   1.117 -0.0676 -0.0888 -0.2555
 7147TIP3    H121405   4.791   1.778   1.057  0.5272  0.8885 -0.5780
 7147TIP3    H221406   4.679   1.879   1.059  0.4705  0.8227 -0.0170
 7148TIP3   OH221407   6.799   4.322   4.040  0.4290 -0.2172  0.1900
 7148TIP3    H121408   6.821   4.333   3.947 -0.7523 -2.9084 -0.5160
 7148TIP3    H221409   6.883   4.320   4.085  1.1375 -0.9951 -1.1205
 7149TIP3   OH221410   6.104   1.605   0.801 -0.1565 -0.5529  0.3504
 7149TIP3    H121411   6.091   1.612   0.706 -0.7338 -2.0047  0.2939
 7149TIP3    H221412   6.199   1.610   0.813 -0.1470  0.8436 -0.1713
 7150TIP3   OH221413   4.610   3.362   2.937 -0.1150 -0.2559 -0.7390
 7150TIP3    H121414   4.650   3.377   3.022  0.2146 -1.7371 -0.6071
 7150TIP3    H221415   4.669   3.404   2.874 -0.1388  0.4737 -0.2826
 7151TIP3   OH221416   5.808   6.436   4.926  0.3576 -0.0702  0.7087
 7151TIP3    H121417   5.779   6.463   5.014  1.0166  1.1313  0.5797
 7151TIP3    H221418   5.762   6.496   4.867 -0.3812 -1.1203  0.1834
 7152TIP3   OH221419   0.822   1.647   5.455 -0.7519 -0.0024 -0.1126
 7152TIP3    H121420   0.889   1.669   5.521 -1.0776 -0.2512  0.3016
 7152TIP3    H221421   0.861   1.675   5.372  0.0422 -0.5186  0.0749
 7153TIP3   OH221422   6.556   1.514   4.435 -0.1827 -0.1074 -0.3955
 7153TIP3    H121423   6.589   1.586   4.382 -0.5502 -0.4429 -1.0977
 7153TIP3    H221424   6.472   1.491   4.395 -0.3887 -0.4874  0.2301
 7154TIP3   OH221425   5.478   5.856   0.640  0.0784  0.1487  0.5163
 7154TIP3    H121426   5.505   5.945   0.666 -0.0654  0.0699  0.9505
 7154TIP3    H221427   5.560   5.807   0.636  0.1720  0.3333  0.1512
 7155TIP3   OH221428   1.600   5.184   2.587  0.5959 -0.2201 -0.1375
 7155TIP3    H121429   1.517   5.160   2.628  0.8682 -1.7324 -0.4043
 7155TIP3    H221430   1.577   5.253   2.525 -0.1946  0.4632  0.8818
 7156TIP3   OH221431   2.998   4.317   3.755 -0.2106 -0.0996 -0.0496
 7156TIP3    H121432   2.946   4.321   3.835 -1.6355  0.6892 -0.9641
 7156TIP3    H221433   3.032   4.228   3.752 -0.9065 -0.4091  0.9551
 7157TIP3   OH221434   2.362   6.742   2.921  0.0962 -0.2391  0.2866
 7157TIP3    H121435   2.340   6.820   2.972 -0.2874 -0.2067  0.0747
 7157TIP3    H221436   2.278   6.699   2.904  0.0226  0.5109 -1.5424
 7158TIP3   OH221437   1.839   4.022   0.144  0.2939  0.4135  0.3934
 7158TIP3    H121438   1.805   4.015   0.232 -2.1723  0.8571 -0.4550
 7158TIP3    H221439   1.890   3.942   0.131 -1.5708 -1.0027  1.3032
 7159TIP3   OH221440   5.739   3.417   2.363 -0.0171 -0.2909 -0.5505
 7159TIP3    H121441   5.739   3.477   2.289 -2.3996  0.2968 -0.1552
 7159TIP3    H221442   5.729   3.330   2.324 -0.4089 -0.0584 -0.9800
 7160TIP3   OH221443   0.037   5.394   4.212 -0.3494  0.1144  0.1743
 7160TIP3    H121444   0.015   5.360   4.125  0.6470  1.7512 -0.7683
 7160TIP3    H221445  -0.048   5.411   4.253 -0.8409  0.2268 -0.8510
 7161TIP3   OH221446   0.379   2.183   1.017 -0.7296 -0.2017 -0.0196
 7161TIP3    H121447   0.417   2.220   0.937  1.2414  1.0223  1.3962
 7161TIP3    H221448   0.387   2.088   1.005  1.3442 -0.0287 -0.5148
 7162TIP3   OH221449   2.230   4.799   4.109 -0.3008 -0.0211  0.3880
 7162TIP3    H121450   2.320   4.810   4.080 -0.7508 -0.6407 -1.3933
 7162TIP3    H221451   2.180   4.790   4.028 -1.9504  0.1786  1.3379
 7163TIP3   OH221452   5.688   1.362   1.176  0.0792 -0.1714 -0.0138
 7163TIP3    H121453   5.664   1.319   1.094 -1.8873 -0.6215  0.7540
 7163TIP3    H221454   5.647   1.309   1.244  0.8323  0.7705  1.2110
 7164TIP3   OH221455   6.445   5.820   4.847 -0.0510 -0.8571 -0.8660
 7164TIP3    H121456   6.376   5.879   4.876  0.3861 -0.6227 -0.2898
 7164TIP3    H221457   6.398   5.750   4.801 -0.6876 -0.7981 -0.3281
 7165TIP3   OH221458   2.187   3.737   2.384  0.3619  0.1963 -0.9317
 7165TIP3    H121459   2.157   3.825   2.406 -0.6758 -0.6217  1.1511
 7165TIP3    H221460   2.237   3.748   2.303 -0.3181  2.5766 -1.0839
 7166TIP3   OH221461   4.000   5.056   2.460 -0.3564 -0.3995  0.2505
 7166TIP3    H121462   4.061   5.122   2.492 -0.2950  0.4396 -1.4915
 7166TIP3    H221463   3.914   5.087   2.489 -0.3009  0.3438 -0.3292
 7167TIP3   OH221464   6.718   2.699   0.774  0.0413 -0.0358  0.0457
 7167TIP3    H121465   6.725   2.740   0.688  0.6898 -1.1568 -0.4621
 7167TIP3    H221466   6.809   2.689   0.803 -0.1639  0.1482  0.7796
 7168TIP3   OH221467   5.637   5.449   5.153 -0.2817  0.2131 -0.1613
 7168TIP3    H121468   5.574   5.521   5.153 -0.0356  0.4554 -1.6387
 7168TIP3    H221469   5.583   5.370   5.162 -0.5870  0.5330  0.9832
 7169TIP3   OH221470   5.925   6.528   4.028  0.3356 -0.1063 -0.3417
 7169TIP3    H121471   5.971   6.444   4.034 -0.2598 -0.5330 -1.5219
 7169TIP3    H221472   5.977   6.579   3.966  0.2000  0.0705 -0.3096
 7170TIP3   OH221473   4.370   1.006   2.245  0.3124 -1.1201  0.1845
 7170TIP3    H121474   4.336   0.925   2.208 -0.1230 -0.7893 -0.1449
 7170TIP3    H221475   4.384   1.063   2.169 -1.0000 -0.2829  0.5419
 7171TIP3   OH221476   4.522   6.212   0.334  0.2324 -0.3508 -0.6213
 7171TIP3    H121477   4.480   6.166   0.407  0.8804 -1.1149 -0.7198
 7171TIP3    H221478   4.482   6.298   0.335 -0.0867 -0.4904  0.3687
 7172TIP3   OH221479   2.068   0.335   2.505 -0.1696  0.7490 -0.0406
 7172TIP3    H121480   2.043   0.424   2.529  0.2488  0.5471  1.1711
 7172TIP3    H221481   2.113   0.345   2.420 -2.0500  1.4084 -1.0130
 7173TIP3   OH221482   2.695   2.990   4.936  0.2338  0.8179  0.1310
 7173TIP3    H121483   2.700   3.061   5.000  0.2709  0.0366  0.9997
 7173TIP3    H221484   2.673   3.034   4.854  0.7537  1.8930  0.5533
 7174TIP3   OH221485   6.475   4.288   0.197  0.2957  0.2135  0.1920
 7174TIP3    H121486   6.392   4.289   0.150 -0.9867  0.2487  2.3182
 7174TIP3    H221487   6.537   4.330   0.137 -0.8002 -1.2496 -2.0855
 7175TIP3   OH221488   6.187   0.311   4.094  0.1095  0.0742 -0.3040
 7175TIP3    H121489   6.219   0.222   4.077  0.3612 -0.0249  0.6572
 7175TIP3    H221490   6.108   0.298   4.148 -0.8824  0.3689 -1.6328
 7176TIP3   OH221491   1.664   4.485   2.664  0.6996 -0.4287  0.3564
 7176TIP3    H121492   1.627   4.528   2.741  1.6228  2.2654 -0.5828
 7176TIP3    H221493   1.721   4.551   2.624  1.2978 -2.1652 -1.9094
 7177TIP3   OH221494   6.826   3.500   1.382  0.2709  0.0524  0.4555
 7177TIP3    H121495   6.780   3.418   1.360 -0.3168 -0.3291  2.8672
 7177TIP3    H221496   6.908   3.494   1.334 -0.4537 -1.1774 -0.7240
 7178TIP3   OH221497   0.146   6.212   4.366  0.1781  0.0240  0.2008
 7178TIP3    H121498   0.184   6.231   4.280 -1.9608 -0.2977 -0.8917
 7178TIP3    H221499   0.212   6.158   4.410  1.7060  0.9495 -0.8619
 7179TIP3   OH221500   0.300   1.474   0.187  0.2376  0.6474 -0.1737
 7179TIP3    H121501   0.214   1.436   0.167  0.3529  0.5117 -0.4254
 7179TIP3    H221502   0.292   1.506   0.277 -0.1314  0.7935 -0.2549
 7180TIP3   OH221503   1.284   5.666   4.863  0.1486 -0.1411 -0.4095
 7180TIP3    H121504   1.368   5.658   4.908 -0.0402 -1.5266 -0.2501
 7180TIP3    H221505   1.242   5.742   4.902 -0.3614 -1.7292  2.4039
 7181TIP3   OH221506   5.690   3.545   2.818  0.3492  0.0649 -0.4480
 7181TIP3    H121507   5.747   3.557   2.894 -4.1360  2.1237  3.1436
 7181TIP3    H221508   5.703   3.624   2.766  0.7100  0.6028  0.4225
 7182TIP3   OH221509   0.279   6.022   4.520 -0.5186 -0.0165  0.2007
 7182TIP3    H121510   0.257   6.000   4.611  1.3837 -1.5046  0.3710
 7182TIP3    H221511   0.349   6.087   4.528  0.5893 -1.1307 -0.1342
 7183TIP3   OH221512   6.658   2.222   4.750  0.1369 -0.0906  0.2217
 7183TIP3    H121513   6.753   2.226   4.758  0.0971 -1.0179  1.3694
 7183TIP3    H221514   6.625   2.250   4.835 -0.6237  0.0943 -0.1209
 7184TIP3   OH221515   1.748   0.418   1.729  0.2952 -0.6163  0.1371
 7184TIP3    H121516   1.764   0.470   1.807  1.2107  0.0431 -0.4614
 7184TIP3    H221517   1.656   0.393   1.735  0.6421 -1.6349  2.0230
 7185TIP3   OH221518   4.471   2.026   3.215  0.0327  0.1062 -0.2620
 7185TIP3    H121519   4.425   2.078   3.149  0.7998 -0.3148 -1.1650
 7185TIP3    H221520   4.404   1.967   3.250 -0.9346  1.8898  1.0448
 7186TIP3   OH221521   4.446   3.126   5.731 -0.2171 -0.1220 -0.1059
 7186TIP3    H121522   4.489   3.132   5.646  2.0908  0.0110  1.0134
 7186TIP3    H221523   4.516   3.104   5.792 -1.7341  0.2213  1.8503
 7187TIP3   OH221524   3.328   4.466   3.647 -0.6593  0.3573  0.0832
 7187TIP3    H121525   3.343   4.522   3.571 -2.7145 -0.4129 -0.9580
 7187TIP3    H221526   3.404   4.407   3.649  0.7125  2.0548  0.2425
 7188TIP3   OH221527   0.469   6.174   4.969 -0.2269 -0.0490  0.6171
 7188TIP3    H121528   0.518   6.249   5.003  0.4057 -0.1510 -0.0459
 7188TIP3    H221529   0.400   6.213   4.915 -0.4137  0.0747  0.9414
 7189TIP3   OH221530   0.116   5.850   0.841 -0.1065  0.4580  0.1734
 7189TIP3    H121531   0.031   5.856   0.884 -0.8261  1.6038 -1.3082
 7189TIP3    H221532   0.127   5.935   0.798  1.8189  0.3437  0.3518
 7190TIP3   OH221533   4.419   5.104   5.408 -0.3386  0.3789  0.1346
 7190TIP3    H121534   4.333   5.075   5.377 -0.5823  0.6370  0.5608
 7190TIP3    H221535   4.480   5.036   5.378 -0.6424  0.3636 -0.4524
 7191TIP3   OH221536   0.447   3.354   2.277 -0.0787 -0.7957 -0.3303
 7191TIP3    H121537   0.440   3.438   2.231 -1.9133 -1.5275 -1.5421
 7191TIP3    H221538   0.458   3.378   2.369 -0.1318  0.7675 -0.6884
 7192TIP3   OH221539   0.346   1.895   4.756  0.3217 -0.2029  0.0695
 7192TIP3    H121540   0.377   1.935   4.675  1.1380 -2.6876 -0.9504
 7192TIP3    H221541   0.372   1.803   4.749 -0.9145 -0.8330  2.4955
 7193TIP3   OH221542   3.870   3.245   1.584 -0.2421  0.4686 -0.0657
 7193TIP3    H121543   3.942   3.300   1.617  1.7234 -0.3480 -2.6285
 7193TIP3    H221544   3.897   3.156   1.606 -1.2026  0.2311  0.1623
 7194TIP3   OH221545   4.311   6.347   2.260 -0.1525  0.4990  0.2508
 7194TIP3    H121546   4.367   6.425   2.264 -0.5942  0.9043 -1.0400
 7194TIP3    H221547   4.222   6.381   2.264 -0.3352 -0.0040  0.4799
 7195TIP3   OH221548   1.044   2.150   4.801  0.2094  0.3176  0.3195
 7195TIP3    H121549   1.028   2.100   4.881  0.3182  0.5624  0.4979
 7195TIP3    H221550   0.961   2.149   4.755 -0.1913  1.1522  0.9962
 7196TIP3   OH221551   3.546   3.870   1.425  0.1624 -0.1327  0.2994
 7196TIP3    H121552   3.555   3.961   1.451  0.0354 -0.2740  0.8756
 7196TIP3    H221553   3.633   3.844   1.397  0.5162 -0.2069  1.4298
 7197TIP3   OH221554   3.981   1.926   5.358  0.3075  0.3655  0.2813
 7197TIP3    H121555   4.040   1.855   5.383  0.4560 -0.1941 -1.5050
 7197TIP3    H221556   3.923   1.888   5.292 -1.1201  1.2978  0.9444
 7198TIP3   OH221557   5.613   2.479   4.331 -0.3507  0.0378  0.4036
 7198TIP3    H121558   5.610   2.499   4.424  0.6290  2.2563  0.0296
 7198TIP3    H221559   5.561   2.547   4.289  1.2498  0.5982 -0.8135
 7199TIP3   OH221560   2.556   3.756   3.782 -0.0256  0.4400 -0.1830
 7199TIP3    H121561   2.596   3.843   3.782  0.6590  0.1393  0.4388
 7199TIP3    H221562   2.596   3.711   3.857 -2.2692  0.4439  1.1169
 7200TIP3   OH221563   5.572   0.377   3.652 -0.0171  0.1726 -0.3783
 7200TIP3    H121564   5.634   0.433   3.698  0.6314 -0.0381 -0.9702
 7200TIP3    H221565   5.542   0.314   3.717 -2.2427  2.3204  0.8504
 7201TIP3   OH221566   0.886   2.767   0.301  0.1825  0.2986  0.3959
 7201TIP3    H121567   0.908   2.801   0.214 -0.4206 -0.9538 -0.2598
 7201TIP3    H221568   0.930   2.828   0.361  1.9505  0.2782 -0.7920
 7202TIP3   OH221569   7.193   0.598   1.854  0.2795 -0.1180 -0.0687
 7202TIP3    H121570   7.229   0.513   1.880 -0.2810 -0.5004 -0.5070
 7202TIP3    H221571   7.103   0.598   1.888  0.0832  0.0497 -0.5689
 7203TIP3   OH221572   4.023   3.710   2.288 -0.1050  0.4622  0.3741
 7203TIP3    H121573   3.939   3.713   2.242  0.3884 -1.4936 -0.7552
 7203TIP3    H221574   4.018   3.631   2.342  1.0967  0.1654  0.0902
 7204TIP3   OH221575   4.348   3.042   3.406  0.0995  0.0396 -0.2317
 7204TIP3    H121576   4.336   2.966   3.350 -1.0312  0.3205 -0.3875
 7204TIP3    H221577   4.395   3.009   3.483  0.8867 -0.5171 -0.9468
 7205TIP3   OH221578   4.301   3.100   2.297 -0.1671  0.3963  0.6422
 7205TIP3    H121579   4.364   3.079   2.366 -1.4793 -0.3843  1.6531
 7205TIP3    H221580   4.304   3.196   2.291  3.1219  0.3184 -1.3612
 7206TIP3   OH221581   3.529   0.379   3.641 -0.4121 -0.0198  0.0081
 7206TIP3    H121582   3.439   0.409   3.655 -0.9877  0.0772 -3.0412
 7206TIP3    H221583   3.566   0.444   3.582  1.3213 -0.6106  0.4102
 7207TIP3   OH221584   6.139   5.730   4.714 -0.4374  0.5806 -0.0234
 7207TIP3    H121585   6.204   5.666   4.684 -2.1489 -2.0709  1.4215
 7207TIP3    H221586   6.134   5.716   4.808 -1.0593  2.7779  0.3129
 7208TIP3   OH221587   1.215   0.994   5.203 -0.3518 -0.1583 -0.7804
 7208TIP3    H121588   1.153   0.937   5.249 -0.3914 -1.4904 -2.4183
 7208TIP3    H221589   1.300   0.952   5.215 -0.2143  0.0312 -1.0927
 7209TIP3   OH221590   2.455   6.544   5.391  0.3521  0.4664 -0.3908
 7209TIP3    H121591   2.389   6.530   5.324  1.9932  0.4989 -2.0997
 7209TIP3    H221592   2.478   6.637   5.383  0.7781  0.3981 -0.0136
 7210TIP3   OH221593   1.726   0.065   2.672 -0.0749 -0.0304  0.7457
 7210TIP3    H121594   1.758   0.155   2.658 -2.4270  1.0951  2.1516
 7210TIP3    H221595   1.689   0.040   2.587  0.1401  0.4904  0.4892
 7211TIP3   OH221596   0.417   4.252   4.746 -0.2706 -0.1249  0.4944
 7211TIP3    H121597   0.370   4.335   4.750 -0.4695 -0.2373  0.5341
 7211TIP3    H221598   0.436   4.240   4.653 -1.3756 -0.6529  0.3233
 7212TIP3   OH221599   3.774   3.572   1.011  0.0999  0.1601 -0.2328
 7212TIP3    H121600   3.816   3.642   0.962 -1.6037  1.0207 -0.5210
 7212TIP3    H221601   3.692   3.555   0.965 -0.3768 -0.7501  0.8846
 7213TIP3   OH221602   5.641   3.882   1.050  0.7703  0.8650  0.7129
 7213TIP3    H121603   5.546   3.885   1.059  0.7414 -0.4246  1.0395
 7213TIP3    H221604   5.662   3.958   0.996 -0.5143  0.7800  0.0405
 7214TIP3   OH221605   3.025   1.567   0.400  0.1160  0.2853  0.3422
 7214TIP3    H121606   3.090   1.607   0.458 -1.5129  2.0703  1.0530
 7214TIP3    H221607   2.957   1.535   0.460  0.4721 -1.9205 -0.3505
 7215TIP3   OH221608   5.804   4.752   4.824 -0.7695  0.3109 -0.0580
 7215TIP3    H121609   5.875   4.718   4.879 -0.3719  0.5921 -0.3948
 7215TIP3    H221610   5.839   4.833   4.786 -1.3122  0.5113 -0.1356
 7216TIP3   OH221611   7.024   3.034   4.288 -0.8197 -0.2721 -0.4442
 7216TIP3    H121612   6.996   3.050   4.378  1.2098 -1.0483  0.3703
 7216TIP3    H221613   7.102   3.088   4.276  1.6370 -3.4683 -0.1457
 7217TIP3   OH221614   5.719   6.555   2.467 -0.4368  0.0523 -0.3870
 7217TIP3    H121615   5.665   6.492   2.514 -2.0040  1.4547 -0.2542
 7217TIP3    H221616   5.661   6.593   2.401  1.2209 -0.5589 -2.3135
 7218TIP3   OH221617   0.057   3.662   2.249  0.1146  0.0121  0.0572
 7218TIP3    H121618   0.056   3.584   2.305 -2.2531  1.0091  1.5308
 7218TIP3    H221619   0.017   3.632   2.167 -0.2329 -0.4710  0.3963
 7219TIP3   OH221620   5.282   4.612   2.829  0.0254 -0.1870 -0.0995
 7219TIP3    H121621   5.311   4.595   2.919  0.6361 -1.3860 -0.5020
 7219TIP3    H221622   5.256   4.704   2.830  0.1379 -0.1430  1.2734
 7220TIP3   OH221623   6.120   2.108   3.159  0.1161 -0.4427  0.3454
 7220TIP3    H121624   6.169   2.041   3.207 -0.5524 -0.5709  0.8710
 7220TIP3    H221625   6.171   2.123   3.080  2.1236  0.9526  1.8025
 7221TIP3   OH221626   3.084   4.071   3.832 -0.2049  0.5183  0.0775
 7221TIP3    H121627   3.023   4.051   3.902 -2.0453  0.3569 -1.4937
 7221TIP3    H221628   3.074   3.998   3.770  1.2688  0.7139 -0.4376
 7222TIP3   OH221629   2.064   3.068   4.990 -0.4994 -0.2582  0.0759
 7222TIP3    H121630   2.070   3.163   5.000 -0.5296 -0.2921  0.4042
 7222TIP3    H221631   2.117   3.050   4.912 -0.1794 -0.0136  0.2334
 7223TIP3   OH221632   4.239   2.496   5.392 -0.2943  0.3856  0.2997
 7223TIP3    H121633   4.173   2.445   5.438 -2.9278  1.2218 -2.2334
 7223TIP3    H221634   4.190   2.545   5.326  2.7130  2.2724 -0.7510
 7224TIP3   OH221635   4.092   4.844   3.076  0.5497  0.2052 -0.6221
 7224TIP3    H121636   4.051   4.872   2.994  0.9815  0.7752 -0.6503
 7224TIP3    H221637   4.184   4.868   3.066  1.3062 -2.6113 -1.2755
 7225TIP3   OH221638   4.169   6.528   1.992 -0.0851 -0.6359 -0.3259
 7225TIP3    H121639   4.120   6.467   1.937  2.2688 -2.7499 -0.2497
 7225TIP3    H221640   4.128   6.521   2.078 -2.3165  0.9534 -1.1609
 7226TIP3   OH221641   3.084   2.298   2.121 -0.3948  0.2994 -0.1619
 7226TIP3    H121642   3.096   2.300   2.026 -1.7390 -1.0841 -0.3980
 7226TIP3    H221643   2.989   2.293   2.133 -0.2191 -3.9761  1.0573
 7227TIP3   OH221644   4.113   0.895   3.080  0.3240 -0.9277  0.3825
 7227TIP3    H121645   4.110   0.804   3.050  1.9667 -0.9087  0.0795
 7227TIP3    H221646   4.124   0.888   3.175 -0.2199 -1.0195  0.4456
 7228TIP3   OH221647   3.890   6.503   3.164  0.7048 -0.2197 -0.2409
 7228TIP3    H121648   3.846   6.548   3.092  1.7490 -0.6167 -1.1520
 7228TIP3    H221649   3.943   6.435   3.121  1.3909 -0.4232  0.8907
 7229TIP3   OH221650   0.992   3.439   5.343  0.5559  0.5446 -0.0872
 7229TIP3    H121651   1.006   3.410   5.253  0.9696  1.4195 -0.3092
 7229TIP3    H221652   0.919   3.384   5.374 -0.1062  0.7608 -1.2057
 7230TIP3   OH221653   6.064   4.497   4.468  0.0923  0.1985  0.3346
 7230TIP3    H121654   6.153   4.478   4.498  0.7863  2.4153 -0.1629
 7230TIP3    H221655   6.008   4.478   4.544  0.6445 -3.1614  0.0676
 7231TIP3   OH221656   2.792   1.967   2.562  0.2030  0.2636 -0.2308
 7231TIP3    H121657   2.805   2.032   2.493 -0.2040  2.2638  1.4740
 7231TIP3    H221658   2.729   1.905   2.526  1.2268  0.3096 -2.2222
 7232TIP3   OH221659   6.982   3.894   3.449  0.4415 -0.0146 -0.4349
 7232TIP3    H121660   6.905   3.944   3.422  2.5721  2.2212 -2.8751
 7232TIP3    H221661   6.946   3.810   3.480 -2.9813  1.2790 -0.4752
 7233TIP3   OH221662   1.476   0.036   0.743  0.1949 -0.0258 -0.0587
 7233TIP3    H121663   1.477   0.005   0.833 -1.1145  0.4159  0.1318
 7233TIP3    H221664   1.534   0.112   0.743 -0.7892  0.7709  0.7546
 7234TIP3   OH221665   1.581   0.968   2.667  0.7406 -0.1960  0.1107
 7234TIP3    H121666   1.566   0.921   2.749 -0.2872 -1.1092 -0.5562
 7234TIP3    H221667   1.606   0.899   2.605 -1.2465  0.0251 -1.0055
 7235TIP3   OH221668   5.931   3.788   2.453  0.0198  0.0322  0.3825
 7235TIP3    H121669   5.949   3.879   2.431  0.4405 -0.0799  0.2659
 7235TIP3    H221670   6.015   3.743   2.447  0.0265 -0.1485  1.5395
 7236TIP3   OH221671   3.450   4.735   0.009  0.6744  0.4940  0.2103
 7236TIP3    H121672   3.491   4.710   0.092  1.5656 -0.8533 -0.6060
 7236TIP3    H221673   3.377   4.675  -0.001  0.1554  1.0906  0.3129
 7237TIP3   OH221674   6.358  -0.009   1.034 -0.2547 -0.1225 -0.2647
 7237TIP3    H121675   6.332   0.083   1.027  1.0421  0.2530 -0.3974
 7237TIP3    H221676   6.428  -0.009   1.100 -1.4217 -1.2866  1.0346
 7238TIP3   OH221677   4.048   3.994   5.120 -0.1734  0.3147  0.1576
 7238TIP3    H121678   4.093   3.950   5.192 -2.7717 -0.8419  1.2033
 7238TIP3    H221679   3.955   3.984   5.140 -0.9697  1.6225 -2.4126
 7239TIP3   OH221680   5.312   6.563   3.299 -0.2990  0.1857 -0.2043
 7239TIP3    H121681   5.254   6.496   3.263 -0.5339  0.8871 -1.1942
 7239TIP3    H221682   5.375   6.515   3.353 -0.6187 -0.8000 -0.6900
 7240TIP3   OH221683   1.819   0.357   2.313 -0.8982 -0.4797  0.4809
 7240TIP3    H121684   1.746   0.396   2.363 -1.2870 -2.2967  1.4463
 7240TIP3    H221685   1.796   0.264   2.308  0.9284 -0.9315  0.0020
 7241TIP3   OH221686   3.875   2.977   3.160 -0.0920 -0.0906 -0.1912
 7241TIP3    H121687   3.782   2.984   3.180 -0.3247  0.5923 -1.4007
 7241TIP3    H221688   3.916   2.957   3.244 -1.2641  0.1393  0.4605
 7242TIP3   OH221689   3.329   3.475   2.153 -0.0462 -0.3937  0.2374
 7242TIP3    H121690   3.419   3.468   2.123 -0.1669  0.1355 -0.2707
 7242TIP3    H221691   3.328   3.431   2.238  0.3772 -1.6007 -0.3734
 7243TIP3   OH221692   1.959   0.926   5.870  0.3935 -0.3525 -0.7233
 7243TIP3    H121693   1.991   1.014   5.890 -0.0216 -0.1726 -0.8433
 7243TIP3    H221694   1.910   0.936   5.788  0.6599 -0.7660 -0.9360
 7244TIP3   OH221695   4.295   1.454   2.443  0.0965  0.1487 -0.3327
 7244TIP3    H121696   4.205   1.444   2.476 -0.4578 -0.8529 -2.0235
 7244TIP3    H221697   4.293   1.536   2.393  0.5651  0.9255  0.8680
 7245TIP3   OH221698   1.062   3.388   3.819 -0.0777  0.0744  0.0982
 7245TIP3    H121699   0.970   3.411   3.806  0.5640  1.1782 -3.6665
 7245TIP3    H221700   1.105   3.472   3.834  0.5936 -0.1810 -0.3755
 7246TIP3   OH221701   4.733   6.118   5.876 -0.0148 -0.0111 -0.0391
 7246TIP3    H121702   4.681   6.061   5.933 -0.1261 -1.7330 -1.7456
 7246TIP3    H221703   4.669   6.160   5.819  0.1844  0.8545  0.3536
 7247TIP3   OH221704   2.403   1.091   0.963 -0.2438  0.1507 -0.0999
 7247TIP3    H121705   2.496   1.108   0.949 -0.2116  0.1200  0.0844
 7247TIP3    H221706   2.373   1.163   1.018 -0.8240  1.4137 -1.9479
 7248TIP3   OH221707   5.840   0.692   0.141  0.1323 -0.2631  0.2293
 7248TIP3    H121708   5.901   0.759   0.173 -0.9886  2.5270 -2.9171
 7248TIP3    H221709   5.853   0.691   0.046 -3.3234 -0.9660 -0.3734
 7249TIP3   OH221710   6.003   1.097   1.778  0.8634  0.6241  0.1338
 7249TIP3    H121711   6.072   1.055   1.728 -0.5334 -0.8790 -0.6224
 7249TIP3    H221712   5.996   1.046   1.858  0.3485  0.5100  0.0181
 7250TIP3   OH221713   0.328   2.095   3.566  0.0037 -0.2369 -0.4780
 7250TIP3    H121714   0.339   2.009   3.525 -0.1434 -0.6112  0.2427
 7250TIP3    H221715   0.250   2.132   3.524  0.2008 -0.3568 -0.9533
 7251TIP3   OH221716   0.714   3.377   0.870  0.6161  0.5182 -0.6621
 7251TIP3    H121717   0.697   3.464   0.906  1.4673 -0.0160  1.1270
 7251TIP3    H221718   0.772   3.393   0.795  0.4321  1.5160 -0.6021
 7252TIP3   OH221719   2.506   1.232   4.718  0.3465 -0.1104  0.5671
 7252TIP3    H121720   2.531   1.256   4.808  0.3760 -1.4723  0.9471
 7252TIP3    H221721   2.412   1.214   4.724  0.4112 -0.5175  0.4114
 7253TIP3   OH221722   1.384   4.564   3.726 -0.8564 -0.3725 -0.5178
 7253TIP3    H121723   1.450   4.574   3.657 -1.3269  1.7341 -0.7250
 7253TIP3    H221724   1.368   4.469   3.731  2.5202 -1.0458 -0.0993
 7254TIP3   OH221725   6.877   3.963   0.524  0.4609  0.3018 -0.4860
 7254TIP3    H121726   6.808   3.918   0.476 -0.4957 -0.5419  1.5839
 7254TIP3    H221727   6.912   3.898   0.585  0.9382  1.5642  0.6632
 7255TIP3   OH221728   1.190   3.904   2.072 -0.3849 -0.2229  0.3431
 7255TIP3    H121729   1.132   3.920   1.997 -0.4416  0.8398  0.5900
 7255TIP3    H221730   1.214   3.992   2.102  0.3160 -0.6456  1.0472
 7256TIP3   OH221731   4.091   6.060   3.337 -0.3926 -0.4134  0.0668
 7256TIP3    H121732   4.130   6.018   3.260 -1.0454 -1.5552  0.3295
 7256TIP3    H221733   4.151   6.131   3.359  1.8598 -2.3958  0.7722
 7257TIP3   OH221734   3.509   6.649   2.851  0.5452 -0.6569 -0.3394
 7257TIP3    H121735   3.508   6.582   2.783 -1.1252 -2.1653  1.0937
 7257TIP3    H221736   3.422   6.688   2.848  1.4983  1.6208 -1.2050
 7258TIP3   OH221737   1.314   6.158   1.034  0.1517  0.2103 -0.1258
 7258TIP3    H121738   1.274   6.235   1.074  0.2435 -0.0112  0.4142
 7258TIP3    H221739   1.382   6.192   0.976  0.8180  0.5154  0.8124
 7259TIP3   OH221740   6.078   4.060   0.520  0.7698  0.1667 -0.0424
 7259TIP3    H121741   6.114   4.092   0.603  2.5586 -1.2783 -0.1960
 7259TIP3    H221742   6.103   4.127   0.456 -0.5488  1.2480  0.5219
 7260TIP3   OH221743   0.118   2.915   4.657  0.0544 -0.3097  0.5092
 7260TIP3    H121744   0.068   2.840   4.690  1.1211 -0.8701  0.8935
 7260TIP3    H221745   0.130   2.970   4.735  0.0332 -0.1744  0.4161
 7261TIP3   OH221746   0.920   4.315   0.797  0.1224  0.9538  0.4171
 7261TIP3    H121747   0.961   4.327   0.711 -0.4590  2.3258  0.2968
 7261TIP3    H221748   0.826   4.317   0.779 -0.0079 -0.4522  0.8928
 7262TIP3   OH221749   0.738   6.138   5.155 -0.1574 -0.3202  0.0626
 7262TIP3    H121750   0.765   6.183   5.075  1.5805  0.6632  1.1251
 7262TIP3    H221751   0.742   6.205   5.223  1.6238 -1.7934  1.5408
 7263TIP3   OH221752   6.921   1.816   3.749 -0.6374  0.1953  0.2704
 7263TIP3    H121753   6.978   1.740   3.736  0.0238  0.7321 -0.0411
 7263TIP3    H221754   6.979   1.881   3.788 -1.2206  0.5174  0.6052
 7264TIP3   OH221755   4.703   3.439   3.181  0.0664 -0.1092 -0.6228
 7264TIP3    H121756   4.654   3.457   3.262 -0.1465 -0.3380 -0.7013
 7264TIP3    H221757   4.789   3.409   3.212  0.0473 -0.0177 -0.4812
 7265TIP3   OH221758   1.246  -0.009   0.528  0.1875 -0.1105 -0.7571
 7265TIP3    H121759   1.271   0.057   0.464 -1.0025 -0.5286 -1.6914
 7265TIP3    H221760   1.151   0.000   0.538  0.2108 -0.7066  0.2068
 7266TIP3   OH221761   0.243   0.889   5.749 -0.4114 -0.0213 -0.1567
 7266TIP3    H121762   0.199   0.831   5.811  0.5160 -1.2963 -0.6456
 7266TIP3    H221763   0.230   0.976   5.785 -3.2788 -0.3034 -0.2767
 7267TIP3   OH221764   4.633   4.231   2.953  0.5498  0.0032 -0.5813
 7267TIP3    H121765   4.617   4.149   2.998 -0.2805 -0.9144 -2.4216
 7267TIP3    H221766   4.638   4.297   3.023  0.7352 -1.5187  0.8881
 7268TIP3   OH221767   1.022   1.802   2.666 -0.3597  0.3739  0.7529
 7268TIP3    H121768   0.986   1.890   2.655 -0.9075  0.0906  0.2680
 7268TIP3    H221769   1.116   1.816   2.679  0.1368  0.8794 -2.5311
 7269TIP3   OH221770   6.675   5.932   2.045 -0.1650 -0.1214  0.0760
 7269TIP3    H121771   6.718   5.967   2.123  1.1375  1.7164 -1.3766
 7269TIP3    H221772   6.607   5.996   2.024  0.7671  0.4736 -1.3443
 7270TIP3   OH221773   4.732   0.052   3.344  0.0209  0.0795  0.3959
 7270TIP3    H121774   4.638   0.038   3.340 -0.1928  1.3032  0.5610
 7270TIP3    H221775   4.770  -0.022   3.296 -1.0393 -0.1955 -0.0430
 7271TIP3   OH221776   0.007   3.515   4.480  0.0473 -0.4846 -0.6419
 7271TIP3    H121777   0.076   3.549   4.423  0.4449 -0.3430 -0.0816
 7271TIP3    H221778  -0.048   3.462   4.422  0.6095 -0.5769 -1.0985
 7272TIP3   OH221779   5.026   3.224   1.097 -0.5303  0.5584 -0.0897
 7272TIP3    H121780   5.056   3.289   1.160 -0.7628  1.0186 -0.4473
 7272TIP3    H221781   4.976   3.274   1.033 -2.0883 -0.1820  0.4960
 7273TIP3   OH221782   2.428   5.783   1.900  0.4404  0.8295 -0.4677
 7273TIP3    H121783   2.370   5.724   1.948 -0.2880  2.2821  0.4951
 7273TIP3    H221784   2.395   5.781   1.810 -1.6954  2.2521  0.2165
 7274TIP3   OH221785   0.602   6.230   2.964 -0.4074  0.2460 -0.1281
 7274TIP3    H121786   0.608   6.306   3.022  0.8703  1.0334 -1.2432
 7274TIP3    H221787   0.634   6.157   3.017 -0.9642  0.5939  0.7153
 7275TIP3   OH221788   3.005   0.781   3.254  0.3827  0.2347 -0.2950
 7275TIP3    H121789   2.997   0.850   3.320  0.5252  0.3654 -0.4117
 7275TIP3    H221790   2.940   0.803   3.187 -0.1848 -0.2368  0.0959
 7276TIP3   OH221791   5.237   2.814   3.288  0.0452  0.2626  0.3395
 7276TIP3    H121792   5.329   2.840   3.293  0.1187 -0.1427  1.2665
 7276TIP3    H221793   5.189   2.889   3.322 -0.0465  0.8146 -0.9375
 7277TIP3   OH221794   7.142   0.663   1.222 -0.0354 -0.0458 -0.2226
 7277TIP3    H121795   7.200   0.736   1.242 -0.3123  0.1454 -0.1052
 7277TIP3    H221796   7.172   0.629   1.138 -0.0864  0.3867 -0.4144
 7278TIP3   OH221797   6.715   2.204   5.202 -0.3563  0.1255  0.0388
 7278TIP3    H121798   6.766   2.164   5.273  0.7385 -0.8746 -1.2525
 7278TIP3    H221799   6.780   2.238   5.141 -1.2448  0.0933 -0.9677
 7279TIP3   OH221800   1.834   3.495   2.487  0.7741 -0.0930  0.0654
 7279TIP3    H121801   1.834   3.447   2.404 -1.6289  0.2536 -0.2163
 7279TIP3    H221802   1.742   3.497   2.512  0.9090  3.3139  0.6991
 7280TIP3   OH221803   1.738   4.314   1.184 -0.3602 -0.8744 -0.0105
 7280TIP3    H121804   1.739   4.389   1.125  0.2445 -0.0254  1.0381
 7280TIP3    H221805   1.659   4.265   1.161  0.4879 -1.2655 -2.3439
 7281TIP3   OH221806   0.057   1.192   2.581  0.0071  0.0140 -0.0564
 7281TIP3    H121807   0.019   1.155   2.661 -0.6218 -0.9569 -0.7820
 7281TIP3    H221808   0.048   1.287   2.592  0.5064 -0.0770  1.2931
 7282TIP3   OH221809   3.837   3.534   1.934  0.0783 -0.5841 -0.0830
 7282TIP3    H121810   3.822   3.624   1.903  0.0464 -1.0574 -1.5235
 7282TIP3    H221811   3.756   3.488   1.912 -1.0043 -0.3925  3.1054
 7283TIP3   OH221812   4.369   3.171   4.418  0.2775  0.3775 -0.1561
 7283TIP3    H121813   4.333   3.164   4.507  2.8088 -0.1527  0.9154
 7283TIP3    H221814   4.372   3.265   4.401 -1.1961  0.4504 -0.1506
 7284TIP3   OH221815   5.627   1.297   4.180 -1.0340 -0.0101 -0.8695
 7284TIP3    H121816   5.660   1.278   4.268 -1.2262  1.9720 -0.3349
 7284TIP3    H221817   5.706   1.314   4.128 -1.0116  1.6906 -0.3373
 7285TIP3   OH221818   3.113   0.617   3.673 -0.6185 -0.1636 -0.1798
 7285TIP3    H121819   3.144   0.562   3.602  0.1943  0.0221  0.0249
 7285TIP3    H221820   3.191   0.635   3.726 -1.0633  0.3397  0.3213
 7286TIP3   OH221821   2.819   1.600   1.300  0.5073 -0.0812  0.0636
 7286TIP3    H121822   2.807   1.596   1.395 -0.6600 -0.5447 -0.0841
 7286TIP3    H221823   2.842   1.692   1.283  0.8286 -0.0178  0.7971
 7287TIP3   OH221824   3.642   4.209   3.891  0.8757 -0.4662  0.5076
 7287TIP3    H121825   3.645   4.293   3.845  1.7178  0.4616  2.1701
 7287TIP3    H221826   3.548   4.190   3.899  0.6576  0.5077  0.4285
 7288TIP3   OH221827   6.305   2.493   0.265  0.1029  0.3785 -0.6593
 7288TIP3    H121828   6.396   2.476   0.238  0.7847  1.0580  1.1134
 7288TIP3    H221829   6.288   2.582   0.236 -0.0595  0.1988 -1.1249
 7289TIP3   OH221830   6.562   1.446   3.300 -0.3816 -0.0775 -0.0509
 7289TIP3    H121831   6.615   1.369   3.321  1.0653  1.0845  0.7909
 7289TIP3    H221832   6.554   1.445   3.205 -2.3518 -2.4754  0.0513
 7290TIP3   OH221833   4.351   6.124   2.471 -0.2689  0.4325 -0.5061
 7290TIP3    H121834   4.427   6.106   2.528 -1.1763 -1.7652  0.1051
 7290TIP3    H221835   4.383   6.189   2.409  1.9582 -0.0046  0.0908
 7291TIP3   OH221836   4.988   3.101   2.784 -0.5243 -0.3154 -0.1686
 7291TIP3    H121837   5.039   3.144   2.716  0.3251 -0.4125  0.3921
 7291TIP3    H221838   4.898   3.106   2.753 -0.6811  2.9501  0.3717
 7292TIP3   OH221839   1.509   2.662   5.610  0.2617 -0.1277 -0.2453
 7292TIP3    H121840   1.586   2.706   5.573 -0.3552 -0.8281 -2.5005
 7292TIP3    H221841   1.537   2.636   5.698  1.9469  1.2877 -0.3030
 7293TIP3   OH221842   1.168   2.031   1.795 -0.6074  0.9009 -0.2546
 7293TIP3    H121843   1.085   1.990   1.768 -0.1859 -0.0840 -0.1164
 7293TIP3    H221844   1.176   2.010   1.888  0.5876 -0.5110 -0.6214
 7294TIP3   OH221845   3.597   0.550   5.423 -0.5604  0.8384  0.4406
 7294TIP3    H121846   3.525   0.515   5.370  0.1317 -0.0186  0.0342
 7294TIP3    H221847   3.671   0.555   5.362  0.1783  0.0809  1.2454
 7295TIP3   OH221848   5.318   3.615   4.001  0.4253 -0.2604  0.6929
 7295TIP3    H121849   5.308   3.706   4.030  0.9708 -0.6359  2.1830
 7295TIP3    H221850   5.229   3.583   3.991  0.1827 -0.1119  2.1086
 7296TIP3   OH221851   6.745   0.106   5.805 -0.2147  0.6752 -0.1853
 7296TIP3    H121852   6.760   0.023   5.760 -1.8736 -0.5962  1.4106
 7296TIP3    H221853   6.750   0.172   5.737  2.1813 -0.5792 -1.3520
 7297TIP3   OH221854   2.917   4.109   5.418 -0.4547  0.0126  0.3109
 7297TIP3    H121855   2.862   4.132   5.493 -1.9884  0.5505 -0.9458
 7297TIP3    H221856   3.006   4.127   5.448 -1.0680  0.6689  1.8450
 7298TIP3   OH221857   6.443   3.453   1.215  0.2598  0.2120  0.5497
 7298TIP3    H121858   6.493   3.524   1.175 -0.7295 -0.0870 -1.3099
 7298TIP3    H221859   6.490   3.374   1.192  0.8258  0.1611  1.7967
 7299TIP3   OH221860   2.188   0.194   2.977  0.2845 -0.2883 -0.0687
 7299TIP3    H121861   2.117   0.134   2.955 -0.8591  1.3433 -1.1073
 7299TIP3    H221862   2.222   0.224   2.893  0.5233  0.8463  0.4106
 7300TIP3   OH221863   2.802   3.924   0.534  0.3278  0.0850 -0.2395
 7300TIP3    H121864   2.783   3.947   0.443  0.5439  0.7573 -0.1229
 7300TIP3    H221865   2.898   3.919   0.537  0.3764  1.1494  0.1977
 7301TIP3   OH221866   2.474   6.368   0.710  0.8478  0.0589 -0.2821
 7301TIP3    H121867   2.557   6.342   0.670  0.9008 -1.0152  0.4949
 7301TIP3    H221868   2.450   6.448   0.663  1.2651 -0.7454 -1.9605
 7302TIP3   OH221869   5.755   4.444   5.097 -0.2833  0.0696  0.3607
 7302TIP3    H121870   5.832   4.390   5.083 -1.1148 -1.1261  0.2640
 7302TIP3    H221871   5.778   4.499   5.172  0.9951  0.4152 -0.2537
 7303TIP3   OH221872   2.484   0.356   3.727 -0.3370  0.0707 -0.0412
 7303TIP3    H121873   2.487   0.265   3.756  0.6139 -0.7636 -2.5118
 7303TIP3    H221874   2.398   0.387   3.756 -1.3154 -2.0810 -0.4487
 7304TIP3   OH221875   3.754   5.421   0.633 -0.0293  0.1081  0.0974
 7304TIP3    H121876   3.841   5.415   0.593  0.4078  2.8360  0.4422
 7304TIP3    H221877   3.767   5.395   0.724  0.4918  0.6679  0.1892
 7305TIP3   OH221878   3.763   0.175   3.841 -0.1417 -0.1303 -0.2777
 7305TIP3    H121879   3.767   0.243   3.774 -2.0844  0.3615  0.0448
 7305TIP3    H221880   3.843   0.123   3.828 -0.6687 -0.3463 -3.2721
 7306TIP3   OH221881   3.070   6.535   1.249  0.1539  0.4843  0.5570
 7306TIP3    H121882   3.072   6.604   1.315 -0.1397  0.0160  1.0630
 7306TIP3    H221883   3.156   6.493   1.256 -0.0235  0.1791  0.9183
 7307TIP3   OH221884   3.418   2.127   1.026 -0.0594 -0.1541 -0.3895
 7307TIP3    H121885   3.508   2.155   1.010  0.4193 -0.2589  1.8265
 7307TIP3    H221886   3.417   2.034   1.003 -0.3546  0.4179 -2.9664
 7308TIP3   OH221887   0.363   4.663   1.064  0.0730 -0.0919  0.2810
 7308TIP3    H121888   0.336   4.669   0.972 -0.5101 -0.3946  0.4298
 7308TIP3    H221889   0.450   4.703   1.066 -1.0156  2.4719  0.0898
 7309TIP3   OH221890   1.093   3.740   0.326  0.1375  0.0832  0.1597
 7309TIP3    H121891   1.168   3.789   0.292  0.1566  0.0818  0.1994
 7309TIP3    H221892   1.128   3.693   0.402 -0.5382  2.2012  1.8794
 7310TIP3   OH221893   3.197   2.690   5.140 -0.0368  0.2888 -0.1019
 7310TIP3    H121894   3.255   2.765   5.156  1.0683  0.1308 -2.7828
 7310TIP3    H221895   3.110   2.728   5.127  0.6464  1.3108 -2.2345
 7311TIP3   OH221896   2.455   0.457   2.023  0.3512  0.1646  0.0089
 7311TIP3    H121897   2.439   0.512   2.099 -1.4816  1.0126 -0.9199
 7311TIP3    H221898   2.437   0.368   2.053  1.7688  0.1902  1.0893
 7312TIP3   OH221899   6.268   3.356   2.577 -0.0048 -0.1603 -0.0544
 7312TIP3    H121900   6.183   3.329   2.544 -0.0119  2.1160 -2.2428
 7312TIP3    H221901   6.249   3.433   2.631  0.5695 -0.0750  0.0326
 7313TIP3   OH221902   0.857   5.798   1.273  0.0457 -0.1189 -0.3015
 7313TIP3    H121903   0.768   5.769   1.289  0.0079  0.0920 -0.1166
 7313TIP3    H221904   0.853   5.847   1.191  0.1267 -0.7058 -0.6581
 7314TIP3   OH221905   5.102   1.660   0.574 -0.2879  0.4167  0.1487
 7314TIP3    H121906   5.090   1.599   0.647 -0.9471 -0.4240 -0.6527
 7314TIP3    H221907   5.197   1.666   0.563 -0.1913  0.3750  0.9227
 7315TIP3   OH221908   4.674   0.470   2.698 -0.2585  0.3455  0.3410
 7315TIP3    H121909   4.661   0.516   2.781  1.2539 -1.0743  1.4267
 7315TIP3    H221910   4.592   0.423   2.683 -0.3571  0.1936  1.3009
 7316TIP3   OH221911   4.001   4.018   2.075  0.2630  0.0560 -0.0780
 7316TIP3    H121912   4.051   4.099   2.078 -0.9024  0.7781  0.6574
 7316TIP3    H221913   3.954   4.015   2.158 -0.3804 -0.9430 -0.4551
 7317TIP3   OH221914   2.963   4.759   1.233 -0.2172  0.0511  0.4618
 7317TIP3    H121915   2.920   4.812   1.301 -0.5784 -0.3186  0.5246
 7317TIP3    H221916   2.891   4.725   1.180 -0.2373 -2.6121  2.0256
 7318TIP3   OH221917   0.026   5.900   5.102  0.6791 -0.4662 -0.0610
 7318TIP3    H121918   0.077   5.932   5.177 -1.1069  0.2495  0.9205
 7318TIP3    H221919   0.025   5.974   5.041  1.2567 -0.6767 -0.3320
 7319TIP3   OH221920   4.635   5.191   0.929 -0.2593  0.3541 -0.0105
 7319TIP3    H121921   4.598   5.261   0.983  3.1931  1.8459  0.7285
 7319TIP3    H221922   4.613   5.215   0.839 -0.1519  1.7939  0.3268
 7320TIP3   OH221923   5.509   3.854   2.317  0.3732  0.5559 -0.4294
 7320TIP3    H121924   5.437   3.836   2.378  0.5327  0.9782 -0.1056
 7320TIP3    H221925   5.466   3.877   2.235  0.1577 -1.7444 -1.0364
 7321TIP3   OH221926   4.928   6.680   0.269  0.1128 -0.1789 -0.3100
 7321TIP3    H121927   4.985   6.718   0.336 -0.1094 -0.5668  0.1047
 7321TIP3    H221928   4.905   6.753   0.212  1.9987 -0.2176 -1.1971
 7322TIP3   OH221929   4.539   0.353   2.120 -0.2102 -0.0903  0.9532
 7322TIP3    H121930   4.595   0.278   2.101 -0.4891  0.0916 -0.8492
 7322TIP3    H221931   4.450   0.319   2.115 -0.3592  0.4175 -0.4454
 7323TIP3   OH221932   6.725   0.605   4.518  0.3012  0.0716 -0.2723
 7323TIP3    H121933   6.741   0.520   4.558 -2.8926 -0.4487  0.1111
 7323TIP3    H221934   6.668   0.651   4.580  0.8691  1.9901 -1.0838
 7324TIP3   OH221935   3.666   6.163   4.044 -0.3198  0.7854 -0.1546
 7324TIP3    H121936   3.613   6.197   3.971 -1.8396  1.9571  1.4138
 7324TIP3    H221937   3.603   6.144   4.113  1.0300 -0.7676  0.7193
 7325TIP3   OH221938   2.830   1.706   3.503  0.5222 -0.1649  0.0183
 7325TIP3    H121939   2.779   1.740   3.576  0.1700  2.0917 -1.1858
 7325TIP3    H221940   2.802   1.615   3.493 -1.4536  0.3058  0.9290
 7326TIP3   OH221941   0.979   0.275   3.137 -0.1927  0.2987 -0.3363
 7326TIP3    H121942   0.995   0.288   3.230  0.6265  0.4439 -0.4898
 7326TIP3    H221943   1.027   0.194   3.116  0.6013  0.8897 -0.8641
 7327TIP3   OH221944   2.867   6.690   1.068 -0.3753 -0.4693  0.6670
 7327TIP3    H121945   2.864   6.757   0.999 -1.2429  1.9802  2.9043
 7327TIP3    H221946   2.939   6.633   1.043 -1.0392 -0.1192 -2.5553
 7328TIP3   OH221947   3.194   3.237   1.109 -0.5844  1.4948 -0.2069
 7328TIP3    H121948   3.219   3.329   1.110 -0.1297  1.4139 -1.8794
 7328TIP3    H221949   3.274   3.190   1.132 -1.2744  1.5359  2.6536
 7329TIP3   OH221950   1.865   6.075   3.606  0.2931  0.3799 -0.2538
 7329TIP3    H121951   1.939   6.041   3.556  0.0046 -0.5626 -0.0507
 7329TIP3    H221952   1.790   6.064   3.548 -0.2625 -1.8510  0.7664
 7330TIP3   OH221953   7.061   4.544  -0.021 -1.1285 -0.4985 -0.1535
 7330TIP3    H121954   7.097   4.630  -0.040  1.7480 -1.6264 -0.3691
 7330TIP3    H221955   7.051   4.542   0.074 -0.3305 -0.1839 -0.0517
 7331TIP3   OH221956   4.970   5.288   1.603 -0.1219 -0.0959 -0.2074
 7331TIP3    H121957   4.953   5.252   1.691  0.5033  0.0717 -0.0119
 7331TIP3    H221958   4.930   5.375   1.604 -1.1764 -0.5673 -0.5021
 7332TIP3   OH221959   7.116   0.980   4.560  0.0475 -0.4028 -0.1476
 7332TIP3    H121960   7.103   0.903   4.616  1.9038 -1.3330 -0.9153
 7332TIP3    H221961   7.133   0.944   4.473 -0.2732  0.9391 -0.7943
 7333TIP3   OH221962   4.750   2.487   4.424 -0.0490  0.4745  0.0613
 7333TIP3    H121963   4.797   2.436   4.491  0.4933  0.4453 -0.3280
 7333TIP3    H221964   4.718   2.564   4.470  0.1867  0.3770  0.3926
 7334TIP3   OH221965   1.446   0.088   4.378  0.0618  0.4705  0.1456
 7334TIP3    H121966   1.380   0.020   4.368 -0.4521  1.0898 -0.8357
 7334TIP3    H221967   1.433   0.146   4.303  1.2140  1.0358  0.3511
 7335TIP3   OH221968   0.275   2.339   3.091  0.1272  0.0259  0.1584
 7335TIP3    H121969   0.203   2.400   3.105 -0.4879  0.1573 -2.7682
 7335TIP3    H221970   0.343   2.392   3.048  0.5293 -0.8205 -0.2809
 7336TIP3   OH221971   2.950   1.380   4.858  0.0066  0.5189  0.2835
 7336TIP3    H121972   2.910   1.413   4.939 -2.0475  2.1637 -1.2967
 7336TIP3    H221973   2.952   1.455   4.800 -0.5877 -1.0872 -1.9408
 7337TIP3   OH221974   0.860   1.087   0.247 -0.0399  0.3253  0.9559
 7337TIP3    H121975   0.892   1.003   0.215  0.1262  0.8032 -0.2027
 7337TIP3    H221976   0.927   1.150   0.220 -0.5094  0.9238  1.1563
 7338TIP3   OH221977   4.017   0.684   3.918  0.7570  0.2424  0.4458
 7338TIP3    H121978   4.059   0.682   3.832 -0.4515 -1.1162 -0.1647
 7338TIP3    H221979   3.934   0.729   3.903  0.5078 -0.0641  0.8717
 7339TIP3   OH221980   2.160   1.413   3.482  0.2248 -0.3804  0.1937
 7339TIP3    H121981   2.067   1.429   3.467  0.4700 -0.6530 -2.0111
 7339TIP3    H221982   2.190   1.491   3.530 -0.5553  1.2463 -1.7839
 7340TIP3   OH221983   4.170   6.021   0.398 -0.6065  0.0127  0.3944
 7340TIP3    H121984   4.152   6.114   0.387  0.5928  0.0223 -2.1441
 7340TIP3    H221985   4.125   5.979   0.325  2.6601 -0.8013 -1.3273
 7341TIP3   OH221986   2.405   2.647   2.570  0.1493 -0.1859 -0.1280
 7341TIP3    H121987   2.415   2.606   2.655  0.6891  0.2218  0.0089
 7341TIP3    H221988   2.379   2.737   2.589  0.5576 -0.0105 -0.3822
 7342TIP3   OH221989   6.679   2.921   0.966 -0.7358  0.2466 -0.5073
 7342TIP3    H121990   6.668   2.977   0.889  0.9077 -0.4918 -1.3341
 7342TIP3    H221991   6.676   2.832   0.931 -0.4896 -0.1110  0.3639
 7343TIP3   OH221992   3.267   6.153   1.678 -0.4558 -0.0896  0.2264
 7343TIP3    H121993   3.360   6.131   1.668 -0.6599 -0.3311 -1.4871
 7343TIP3    H221994   3.267   6.243   1.711  0.4086  0.1147 -0.2774
 7344TIP3   OH221995   5.167   4.759   4.217  0.1188  0.1221 -0.1568
 7344TIP3    H121996   5.121   4.740   4.299 -0.3409 -0.3016 -0.5052
 7344TIP3    H221997   5.179   4.673   4.176 -1.6644  0.4776 -1.5947
 7345TIP3   OH221998   7.104   2.132   2.164 -0.4625  0.0857  0.1880
 7345TIP3    H121999   7.173   2.198   2.173 -0.9787  0.7529 -0.6436
 7345TIP3    H222000   7.031   2.166   2.215 -0.2797 -0.5225  0.8913
 7346TIP3   OH222001   5.636   3.267   5.841 -0.2233  0.2868  0.3832
 7346TIP3    H122002   5.591   3.250   5.758  0.2460 -0.5874  0.2909
 7346TIP3    H222003   5.580   3.228   5.907 -1.2836  2.1684  0.6514
 7347TIP3   OH222004   3.222   1.816   0.111  0.1192 -0.0080 -0.1313
 7347TIP3    H122005   3.251   1.725   0.110 -0.8469 -0.3307 -0.9534
 7347TIP3    H222006   3.188   1.830   0.022 -0.0129  1.0590  0.0819
 7348TIP3   OH222007   2.618   1.305   0.899  0.7358 -0.0931  0.3792
 7348TIP3    H122008   2.709   1.281   0.913  0.2939 -0.7310  2.5490
 7348TIP3    H222009   2.613   1.397   0.923  1.3183  0.8350 -2.6038
 7349TIP3   OH222010   1.641   0.056   4.008 -0.4721  0.0485  0.3519
 7349TIP3    H122011   1.595  -0.025   4.031  0.7560 -0.7238  0.2191
 7349TIP3    H222012   1.625   0.067   3.914 -1.4315  0.5047  0.5569
 7350TIP3   OH222013   6.920   6.117   0.491 -0.2762  0.2294 -0.1661
 7350TIP3    H122014   6.974   6.194   0.477 -0.0792  0.8222  3.0791
 7350TIP3    H222015   6.830   6.147   0.477 -0.1653  0.9612  0.6365
 7351TIP3   OH222016   6.952   6.549   5.050  0.2833 -0.2566  0.1658
 7351TIP3    H122017   6.952   6.640   5.022  0.8304 -0.6696 -1.2126
 7351TIP3    H222018   6.888   6.506   4.994  0.7067 -0.9127  0.1711
 7352TIP3   OH222019   4.027   1.585   3.685 -0.2110 -0.2493  0.2057
 7352TIP3    H122020   4.110   1.538   3.678  0.4269  0.8389  0.1575
 7352TIP3    H222021   3.972   1.530   3.740  0.1714 -1.4950 -0.6150
 7353TIP3   OH222022   3.861   3.394   5.504  0.4804 -0.1782 -0.0501
 7353TIP3    H122023   3.818   3.352   5.578 -0.2431  1.0809  0.2760
 7353TIP3    H222024   3.799   3.460   5.474  1.0511 -0.1988 -1.3457
 7354TIP3   OH222025   5.872   2.324   3.822 -0.1029  0.0944  0.6447
 7354TIP3    H122026   5.872   2.293   3.732 -2.5825 -0.9374  0.9070
 7354TIP3    H222027   5.872   2.419   3.815 -2.8202  0.0930 -0.6283
 7355TIP3   OH222028   5.960   0.146   1.135 -0.5184 -0.2480 -0.9779
 7355TIP3    H122029   5.970   0.105   1.048  0.1265 -0.8669 -0.6300
 7355TIP3    H222030   6.027   0.103   1.188 -1.1576 -0.1459 -0.0731
 7356TIP3   OH222031   5.262   1.297   1.666  0.0288  0.0607 -0.0103
 7356TIP3    H122032   5.318   1.355   1.615  0.1792  2.6270  2.8119
 7356TIP3    H222033   5.182   1.346   1.680 -0.0318 -0.5274  2.0888
 7357TIP3   OH222034   6.704   3.805   3.565 -0.6575  0.0746 -0.1565
 7357TIP3    H122035   6.735   3.854   3.641 -0.2009  0.3201 -0.5016
 7357TIP3    H222036   6.618   3.843   3.546 -1.0532 -0.3979  0.6050
 7358TIP3   OH222037   7.011   0.393   0.468  0.0774  0.1365 -0.1713
 7358TIP3    H122038   6.934   0.384   0.523 -0.1422 -0.1221 -0.5123
 7358TIP3    H222039   7.031   0.303   0.441  0.4360  0.2140 -0.1687
 7359TIP3   OH222040   1.401   4.051   2.595 -0.2455 -0.2458  0.3961
 7359TIP3    H122041   1.405   4.050   2.690  0.6731 -0.2157  0.3618
 7359TIP3    H222042   1.323   4.000   2.574 -0.6102 -0.0302  1.1646
 7360TIP3   OH222043   5.008   5.602   4.075 -0.4966  0.1150 -0.0314
 7360TIP3    H122044   5.036   5.670   4.013  0.1989  0.7488  0.9554
 7360TIP3    H222045   5.043   5.521   4.037  2.1477  0.7777  0.7254
 7361TIP3   OH222046   2.932   6.097   4.039  0.6399  0.4252 -0.2912
 7361TIP3    H122047   2.987   6.159   4.087  0.4877 -0.6055  1.2830
 7361TIP3    H222048   2.854   6.086   4.094  1.9075 -3.3708  1.0985
 7362TIP3   OH222049   1.206   1.882   5.273 -0.0024 -0.1661  0.6929
 7362TIP3    H122050   1.280   1.844   5.322  0.7134  0.6705  0.2914
 7362TIP3    H222051   1.145   1.911   5.341 -0.5172 -1.8897  1.0108
 7363TIP3   OH222052   2.580   0.975   4.659 -0.2064 -0.1639 -0.1786
 7363TIP3    H122053   2.529   0.972   4.578  1.7326  0.9259 -1.5282
 7363TIP3    H222054   2.595   1.068   4.675  2.4641 -0.4156 -0.6452
 7364TIP3   OH222055   4.858   6.263   1.790  0.1095  0.3849 -0.2475
 7364TIP3    H122056   4.894   6.182   1.754 -1.2793 -0.8583  1.0255
 7364TIP3    H222057   4.924   6.294   1.852  0.5065  0.0758 -0.5107
 7365TIP3   OH222058   5.560   3.246   5.578 -0.1640 -0.0375 -0.3215
 7365TIP3    H122059   5.631   3.296   5.538  0.4373 -1.6372 -1.3768
 7365TIP3    H222060   5.481   3.291   5.549  0.3345  2.6866  2.1187
 7366TIP3   OH222061   6.368   1.913   0.503  0.0836 -0.0527  0.0527
 7366TIP3    H122062   6.452   1.891   0.545  0.5360 -1.4511 -1.4555
 7366TIP3    H222063   6.389   1.914   0.410 -1.4157  0.4530 -0.2910
 7367TIP3   OH222064   1.997   1.083   0.064  0.3359  0.4960  0.1197
 7367TIP3    H122065   1.924   1.021   0.070 -0.2599  1.3088  2.1733
 7367TIP3    H222066   1.992   1.134   0.145 -0.4812  4.7019 -2.3152
 7368TIP3   OH222067   4.229   3.213   4.680  0.1139 -0.5277 -0.3338
 7368TIP3    H122068   4.285   3.194   4.755 -1.1157  0.2845  0.8432
 7368TIP3    H222069   4.188   3.297   4.701 -1.2744 -0.9210 -1.2989
 7369TIP3   OH222070   6.847   1.364   4.652 -0.4796 -0.3622 -0.1084
 7369TIP3    H122071   6.761   1.406   4.651 -1.0521 -1.5353 -0.9703
 7369TIP3    H222072   6.846   1.303   4.579  1.1497 -0.2973 -0.2297
 7370TIP3   OH222073   1.734   6.139   1.282  0.4714  0.0583 -0.8318
 7370TIP3    H122074   1.830   6.136   1.287  0.5103 -3.1966 -1.4431
 7370TIP3    H222075   1.715   6.140   1.188 -0.0857 -0.5664 -0.7290
 7371TIP3   OH222076   2.208   3.541   0.022 -0.6205  0.2585  0.1427
 7371TIP3    H122077   2.207   3.479   0.095 -0.3509  0.0071 -0.0626
 7371TIP3    H222078   2.118   3.540  -0.013 -0.9666  1.0046  0.9853
 7372TIP3   OH222079   2.757   3.314   1.420  0.2269 -0.2592  0.0135
 7372TIP3    H122080   2.847   3.310   1.389 -0.2726  1.0233 -1.7428
 7372TIP3    H222081   2.760   3.371   1.498  0.7781  0.7902 -0.7573
 7373TIP3   OH222082   3.360   4.154   3.897 -0.5159 -0.3969  0.6356
 7373TIP3    H122083   3.326   4.243   3.903  1.1192  0.4137 -0.8937
 7373TIP3    H222084   3.294   4.106   3.847  0.1014  0.9385 -1.6482
 7374TIP3   OH222085   1.797   4.960   0.783  0.1732  0.0283 -0.0982
 7374TIP3    H122086   1.756   5.031   0.832 -2.0731 -0.1829 -1.4891
 7374TIP3    H222087   1.817   4.999   0.698  1.3218 -0.3559 -0.0128
 7375TIP3   OH222088   4.223   1.779   0.200  0.2598 -0.3562 -0.1476
 7375TIP3    H122089   4.150   1.757   0.143 -0.5583 -0.8272  1.0507
 7375TIP3    H222090   4.182   1.813   0.280  1.3529 -0.2492  0.3850
 7376TIP3   OH222091   4.135   0.087   2.460  0.7213 -0.2868 -0.4138
 7376TIP3    H122092   4.116   0.179   2.481  0.2103 -0.5782  0.4564
 7376TIP3    H222093   4.206   0.064   2.520 -2.9617 -2.1264  3.7940
 7377TIP3   OH222094   5.515   3.555   2.471  0.5298 -0.0936  0.2770
 7377TIP3    H122095   5.556   3.522   2.392 -1.1447 -0.2535 -0.5745
 7377TIP3    H222096   5.586   3.597   2.520  1.8861 -1.3405 -0.5625
 7378TIP3   OH222097   1.661   1.737   5.425  0.3636 -0.1466  0.0928
 7378TIP3    H122098   1.731   1.712   5.486  1.8174  1.7280 -0.6745
 7378TIP3    H222099   1.683   1.692   5.343 -0.7857 -1.5486  0.5393
 7379TIP3   OH222100   6.045   2.033   4.655  0.4292 -0.4130  0.3398
 7379TIP3    H122101   6.117   2.044   4.716  0.5015 -0.8336  0.3280
 7379TIP3    H222102   6.087   2.029   4.569  0.3410  0.0107  0.2742
 7380TIP3   OH222103   6.206   4.704   5.539 -0.3489  0.3874  0.1917
 7380TIP3    H122104   6.267   4.634   5.560  0.4459  0.3001 -2.1920
 7380TIP3    H222105   6.119   4.666   5.554  0.0742 -0.9973 -0.7156
 7381TIP3   OH222106   4.859   6.535   5.761 -0.2333 -0.3511 -0.6200
 7381TIP3    H122107   4.794   6.539   5.690 -1.2045  0.0181  0.2623
 7381TIP3    H222108   4.809   6.555   5.840  0.9945  0.1017  0.0688
 7382TIP3   OH222109   4.743   1.068   3.614  0.1912 -0.1615 -0.1906
 7382TIP3    H122110   4.688   1.092   3.540 -0.4274  0.7289  0.5261
 7382TIP3    H222111   4.812   1.134   3.615 -0.2454  0.3059  0.4648
 7383TIP3   OH222112   3.940   0.775   5.564  0.0148  0.2496  0.2042
 7383TIP3    H122113   3.864   0.736   5.607  0.5976 -0.8879  0.2488
 7383TIP3    H222114   4.015   0.726   5.599  0.6862  0.7490 -0.5014
 7384TIP3   OH222115   1.480   6.685   2.022  0.5352  0.0753  0.1000
 7384TIP3    H122116   1.387   6.674   2.041  0.1428  0.9025 -1.2027
 7384TIP3    H222117   1.524   6.638   2.092 -0.8751 -1.1887  0.1990
 7385TIP3   OH222118   2.607   6.026   2.927  0.0093  0.6425 -0.4533
 7385TIP3    H122119   2.621   5.969   2.852  1.3052  1.4973 -0.8937
 7385TIP3    H222120   2.523   6.070   2.909 -1.6108 -1.8711  0.4415
 7386TIP3   OH222121   2.825   4.447   5.037  0.3710 -0.2691  0.1637
 7386TIP3    H122122   2.919   4.430   5.041  0.6834  1.3954  1.3814
 7386TIP3    H222123   2.788   4.390   5.105  0.6240 -0.2490  0.3210
 7387TIP3   OH222124   6.677   3.834   1.600  0.5142 -0.2495  0.4218
 7387TIP3    H122125   6.723   3.838   1.516 -0.0102 -1.0419  0.0873
 7387TIP3    H222126   6.735   3.781   1.655  0.3888 -0.5649  0.2520
 7388TIP3   OH222127   1.751   6.124   3.301  0.7467 -0.5011  0.1637
 7388TIP3    H122128   1.672   6.174   3.315  1.2925  0.6875 -0.7748
 7388TIP3    H222129   1.813   6.187   3.263  2.4629 -1.1442  1.7281
 7389TIP3   OH222130   3.423   3.451   4.966 -0.0810 -0.0018  0.0411
 7389TIP3    H122131   3.425   3.429   5.059 -1.0311  1.4995  0.4557
 7389TIP3    H222132   3.472   3.381   4.924 -0.0270 -0.9631  1.6150
 7390TIP3   OH222133   0.696   2.809   4.817  0.4562  0.0980  0.1374
 7390TIP3    H122134   0.670   2.893   4.855 -0.7819 -0.3342  0.2674
 7390TIP3    H222135   0.635   2.746   4.855 -0.1383 -0.5072 -1.7432
 7391TIP3   OH222136   1.756   1.422   4.934 -0.2107  0.0916 -0.5468
 7391TIP3    H122137   1.742   1.340   4.888 -0.0116  0.1259 -0.6661
 7391TIP3    H222138   1.849   1.442   4.922 -0.2553  0.3286 -0.5102
 7392TIP3   OH222139   6.662   0.314   2.488 -0.1972  0.7569  0.4881
 7392TIP3    H122140   6.753   0.341   2.476 -0.2804 -0.0311 -3.5475
 7392TIP3    H222141   6.667   0.235   2.541  1.2567  1.6225  1.7086
 7393TIP3   OH222142   5.800   2.186   1.339 -0.5687  0.1781 -0.3696
 7393TIP3    H122143   5.876   2.131   1.320 -0.5855  0.1114 -0.2448
 7393TIP3    H222144   5.829   2.275   1.318  0.2424  0.4243  1.6461
 7394TIP3   OH222145   3.031   4.986   5.397  0.6498  0.4640 -0.4883
 7394TIP3    H122146   3.042   5.042   5.473 -1.5920 -0.0527  0.3092
 7394TIP3    H222147   2.943   5.006   5.365  0.5505 -1.1827 -1.3632
 7395TIP3   OH222148   6.523   0.982   2.337  0.4783 -0.3764 -0.2372
 7395TIP3    H122149   6.549   0.988   2.429  0.8073 -0.5196 -0.3211
 7395TIP3    H222150   6.605   0.989   2.288  0.4669 -1.5984 -0.4794
 7396TIP3   OH222151   5.565   4.146   0.957  0.2418 -0.3450 -0.4131
 7396TIP3    H122152   5.518   4.102   0.887  0.5527 -1.3718  0.0097
 7396TIP3    H222153   5.541   4.098   1.036 -0.4441  1.0494  0.2711
 7397TIP3   OH222154   4.066   3.438   4.807  0.2795 -0.2973  0.3002
 7397TIP3    H122155   4.008   3.427   4.731  0.3838  1.2613 -0.0404
 7397TIP3    H222156   4.132   3.500   4.777  2.3719 -2.2698  0.5708
 7398TIP3   OH222157   5.357   2.144   4.007 -0.2367 -0.5621  0.1347
 7398TIP3    H122158   5.294   2.188   3.951 -0.5653 -1.8742 -0.5831
 7398TIP3    H222159   5.436   2.136   3.953 -0.2769 -1.0829  0.1452
 7399TIP3   OH222160   4.263   4.393   0.505 -0.2147  0.2391  0.5915
 7399TIP3    H122161   4.344   4.399   0.555 -0.4533 -3.4020  1.7097
 7399TIP3    H222162   4.284   4.335   0.431 -1.4686  0.2593  0.1982
 7400TIP3   OH222163   6.324   0.101   4.729 -0.0220 -0.2537 -0.1669
 7400TIP3    H122164   6.389   0.110   4.799  0.0424 -0.4301 -0.2005
 7400TIP3    H222165   6.364   0.037   4.669 -0.6927 -1.1798  0.3547
 7401TIP3   OH222166   3.367   4.937   4.955  0.1536 -0.6783  0.2637
 7401TIP3    H122167   3.295   4.962   5.013  0.6561 -2.9349  2.0059
 7401TIP3    H222168   3.324   4.910   4.874 -0.7837 -0.0336  0.5234
 7402TIP3   OH222169   1.618   4.489   4.488 -0.5263 -0.4952 -0.3577
 7402TIP3    H122170   1.701   4.513   4.449 -0.3179 -0.3928  0.1382
 7402TIP3    H222171   1.600   4.558   4.551 -0.2863 -1.2298  0.5451
 7403TIP3   OH222172   1.624   1.463   2.550  0.3003  0.4812 -0.3166
 7403TIP3    H122173   1.690   1.525   2.581 -0.0443  0.4833  0.4443
 7403TIP3    H222174   1.632   1.388   2.609 -1.2049  0.9990  0.6030
 7404TIP3   OH222175   4.251   1.229   4.242 -0.5566 -0.1616  0.3878
 7404TIP3    H122176   4.252   1.295   4.172  0.5199 -0.5572 -0.0028
 7404TIP3    H222177   4.344   1.211   4.258 -0.8146 -2.3584 -0.2945
 7405TIP3   OH222178   2.132   4.012   2.412 -0.4585  0.0429 -0.1166
 7405TIP3    H122179   2.057   4.036   2.358 -1.7086  0.8670  1.8648
 7405TIP3    H222180   2.137   4.081   2.478  0.6474 -1.1952  1.1541
 7406TIP3   OH222181   0.578   0.425   2.886  0.4849  0.8081 -0.2149
 7406TIP3    H122182   0.584   0.331   2.901 -1.1135  0.8173  0.7253
 7406TIP3    H222183   0.669   0.455   2.888  1.0855 -0.7848 -1.2194
 7407TIP3   OH222184   6.650   1.256   2.571  0.3755  0.5724  0.2217
 7407TIP3    H122185   6.683   1.334   2.527  0.5460 -0.8944 -2.5159
 7407TIP3    H222186   6.726   1.220   2.617  1.0891  0.4465 -1.0099
 7408TIP3   OH222187   0.877   5.173   3.010  0.2199 -0.0561 -0.2966
 7408TIP3    H122188   0.866   5.202   3.100  0.4589  0.7592 -0.5172
 7408TIP3    H222189   0.888   5.078   3.016  2.5763  0.2180  0.7441
 7409TIP3   OH222190   3.910   4.070   4.696 -0.3455 -0.4517 -0.4992
 7409TIP3    H122191   3.868   3.985   4.702 -0.3165 -0.4802 -0.6758
 7409TIP3    H222192   3.987   4.064   4.752 -1.5038  0.1714  1.2263
 7410TIP3   OH222193   2.086   3.896   5.117 -0.5973 -0.3981  0.0575
 7410TIP3    H122194   2.127   3.907   5.031  1.1240 -0.3868  0.8384
 7410TIP3    H222195   2.009   3.952   5.115 -1.2699 -1.3222 -1.9006
 7411TIP3   OH222196   3.198   0.146   0.024  0.2541  0.6312  0.2280
 7411TIP3    H122197   3.219   0.054   0.011 -0.0633  0.4426  1.0171
 7411TIP3    H222198   3.113   0.157  -0.019 -0.0938  0.3600  0.8386
 7412TIP3   OH222199   3.771   3.805   2.236 -0.1940  0.3345  0.1443
 7412TIP3    H122200   3.757   3.830   2.328  2.3413  3.0049 -0.0321
 7412TIP3    H222201   3.714   3.863   2.187 -0.5889 -0.1881 -0.0146
 7413TIP3   OH222202   5.312   5.215   2.670  0.2738  0.5442 -0.4957
 7413TIP3    H122203   5.234   5.161   2.664  0.0113  1.0112 -1.4140
 7413TIP3    H222204   5.339   5.230   2.579  2.5828 -1.2315 -0.1935
 7414TIP3   OH222205   4.079   4.736   0.981  0.6247  0.0422 -0.2653
 7414TIP3    H122206   4.073   4.641   0.974 -2.8598  0.1602 -0.8567
 7414TIP3    H222207   4.146   4.752   1.047  0.8939 -2.8198  0.2561
 7415TIP3   OH222208   6.036   3.036   2.203 -0.1044  0.8113 -0.3722
 7415TIP3    H122209   6.124   3.016   2.172  0.1870  0.1931  0.7748
 7415TIP3    H222210   6.039   3.017   2.297 -1.5471  0.4879 -0.3676
 7416TIP3   OH222211   3.252   0.654   3.353 -0.1176 -0.0453 -0.2346
 7416TIP3    H122212   3.200   0.732   3.370  0.4493  0.5682 -1.2091
 7416TIP3    H222213   3.233   0.632   3.261  1.0169 -0.0437 -0.4878
 7417TIP3   OH222214   6.306   6.494   3.660 -0.6903 -0.7587  0.0142
 7417TIP3    H122215   6.299   6.401   3.683  0.1940 -0.4538  1.6478
 7417TIP3    H222216   6.365   6.530   3.725  0.0876  0.6935 -1.4360
 7418TIP3   OH222217   5.160   4.256   5.676  0.1802  0.1116  0.4665
 7418TIP3    H122218   5.119   4.343   5.674 -1.5084 -0.5524  2.5110
 7418TIP3    H222219   5.161   4.229   5.584 -2.2974  1.0136  0.0722
 7419TIP3   OH222220   0.653   1.558   4.009 -0.2581 -0.2467 -0.2096
 7419TIP3    H122221   0.612   1.637   3.974 -2.4929 -1.1347  0.2486
 7419TIP3    H222222   0.599   1.486   3.976  0.6586 -1.4602  0.8378
 7420TIP3   OH222223   0.033   0.361   4.835  0.2183  0.0770  0.8172
 7420TIP3    H122224   0.027   0.408   4.751  1.9925 -0.2845  0.4360
 7420TIP3    H222225   0.021   0.269   4.811  1.1363 -0.0688  0.8714
 7421TIP3   OH222226   1.864   6.174   0.484 -0.6598 -0.3516  0.1347
 7421TIP3    H122227   1.869   6.244   0.549 -1.7745  0.8870 -1.0601
 7421TIP3    H222228   1.921   6.105   0.519 -0.6266  0.5716  2.0260
 7422TIP3   OH222229   2.363   3.426   5.493  0.9322 -0.5130 -0.2200
 7422TIP3    H122230   2.297   3.408   5.426  0.8998 -2.4444  0.2867
 7422TIP3    H222231   2.333   3.506   5.535 -1.5918 -1.7842  0.5563
 7423TIP3   OH222232   0.577   5.493   1.730  0.1819  0.1856 -0.2187
 7423TIP3    H122233   0.625   5.566   1.769  0.0539  1.6061 -2.4807
 7423TIP3    H222234   0.571   5.516   1.637 -1.1244 -2.0456 -0.7632
 7424TIP3   OH222235   6.173   1.868   2.738  0.2700  0.4379 -0.3089
 7424TIP3    H122236   6.229   1.810   2.789  1.0101  0.9075 -0.5804
 7424TIP3    H222237   6.084   1.835   2.754  0.4834  0.5302  1.2097
 7425TIP3   OH222238   5.381   0.265   4.398 -0.7299 -0.0849  0.3070
 7425TIP3    H122239   5.329   0.345   4.406 -1.3302 -0.5464  1.1750
 7425TIP3    H222240   5.372   0.222   4.483 -0.1002 -0.8927 -0.0218
 7426TIP3   OH222241   0.987   2.832   4.285  0.1449 -1.0188 -0.1987
 7426TIP3    H122242   1.047   2.901   4.312 -2.7645  1.0927  1.5478
 7426TIP3    H222243   0.998   2.826   4.190  2.0821  0.2199 -0.1029
 7427TIP3   OH222244   6.315   1.025   5.565  0.2970  1.1182 -0.5328
 7427TIP3    H122245   6.362   0.963   5.621  0.2553  0.0437 -1.6460
 7427TIP3    H222246   6.260   1.075   5.625  0.5774  0.2979  0.4356
 7428TIP3   OH222247   5.415   1.304   2.297 -0.5205  0.0402  0.1362
 7428TIP3    H122248   5.500   1.300   2.340 -0.2959  0.9410 -0.1914
 7428TIP3    H222249   5.357   1.254   2.353  0.2446 -0.6676  0.3133
 7429TIP3   OH222250   2.315   3.067   0.434  0.1326 -0.0027  0.5334
 7429TIP3    H122251   2.328   3.008   0.509 -2.0769  2.0143  2.7051
 7429TIP3    H222252   2.313   3.155   0.473 -2.7586  1.0205 -1.5830
 7430TIP3   OH222253   2.760   0.485   3.119 -0.2024 -0.4165  0.5436
 7430TIP3    H122254   2.798   0.421   3.058 -1.3508 -0.5901 -0.0190
 7430TIP3    H222255   2.674   0.449   3.140 -0.4475  0.4429  1.0280
 7431TIP3   OH222256   6.459   4.065   3.911 -0.0908  0.2413 -0.2879
 7431TIP3    H122257   6.394   4.087   3.844 -0.8358  1.1901  0.7255
 7431TIP3    H222258   6.473   4.146   3.959  0.2216 -0.4880  0.8886
 7432TIP3   OH222259   5.816   3.820   1.516  0.1347  0.1390 -0.1105
 7432TIP3    H122260   5.898   3.869   1.518 -0.7240  1.6872 -1.0059
 7432TIP3    H222261   5.765   3.862   1.447 -1.9646  0.1384  1.3648
 7433TIP3   OH222262   5.078   5.560   0.958  0.0549 -0.1058  0.0581
 7433TIP3    H122263   5.071   5.650   0.990 -1.0623  0.6031 -1.9829
 7433TIP3    H222264   5.111   5.569   0.868  0.2324 -1.7662 -0.0719
 7434TIP3   OH222265   2.459   0.596   5.617 -0.0818  0.0790 -0.2949
 7434TIP3    H122266   2.488   0.671   5.564  1.4773  0.2552  0.7588
 7434TIP3    H222267   2.372   0.575   5.583 -0.2842  1.9646 -1.0480
 7435TIP3   OH222268   7.189   1.612   2.972  0.4114  0.5174 -0.0096
 7435TIP3    H122269   7.130   1.683   2.998  0.7590  1.4568 -1.6384
 7435TIP3    H222270   7.240   1.648   2.900  2.1799 -0.6673  0.5691
 7436TIP3   OH222271   6.351   3.532   5.683 -0.0059 -0.3535  0.3320
 7436TIP3    H122272   6.288   3.600   5.709 -0.1706 -0.2754 -0.2720
 7436TIP3    H222273   6.297   3.454   5.670 -0.1517  0.0011 -1.3368
 7437TIP3   OH222274   5.651   1.378   3.413  0.4720 -0.2872 -0.3989
 7437TIP3    H122275   5.675   1.288   3.391 -0.5713 -0.9677  1.0379
 7437TIP3    H222276   5.732   1.417   3.445  1.1793 -0.3493 -2.0136
 7438TIP3   OH222277   4.291   4.895   4.703  0.0997  0.2876  0.1606
 7438TIP3    H122278   4.288   4.801   4.723  0.1404  0.1879 -0.3015
 7438TIP3    H222279   4.372   4.925   4.744  0.2704  0.0492 -0.0014
 7439TIP3   OH222280   4.877   0.526   3.637  0.3093  0.0920  0.0478
 7439TIP3    H122281   4.812   0.593   3.656 -0.5199 -0.8491  0.5760
 7439TIP3    H222282   4.848   0.486   3.555  0.2538 -0.2816  0.2468
 7440TIP3   OH222283   1.943   2.778   1.440  0.1065  0.2515  0.1284
 7440TIP3    H122284   1.891   2.792   1.361  2.5943  2.3694 -1.3007
 7440TIP3    H222285   1.978   2.690   1.430  3.0833  1.5515 -3.0716
 7441TIP3   OH222286   3.630   4.495   3.993  0.4872 -0.5408  0.3781
 7441TIP3    H122287   3.555   4.530   4.040  0.6072  0.3015 -0.0326
 7441TIP3    H222288   3.669   4.433   4.054 -0.9655 -1.5669  0.3068
 7442TIP3   OH222289   2.123   2.410   4.786 -0.6365 -0.2817  0.1155
 7442TIP3    H122290   2.033   2.391   4.760 -0.7942 -1.2463  1.2524
 7442TIP3    H222291   2.134   2.363   4.868  0.8424  0.0062  0.1080
 7443TIP3   OH222292   3.052   5.326   4.004 -0.4174 -0.0605  0.2411
 7443TIP3    H122293   3.047   5.296   4.095  0.3270  0.4867  0.4720
 7443TIP3    H222294   3.019   5.416   4.007 -1.0077 -0.2587 -0.1485
 7444TIP3   OH222295   6.422   1.140   0.292  0.0285  0.4550  0.3387
 7444TIP3    H122296   6.443   1.061   0.243  0.6416  1.9863 -2.0384
 7444TIP3    H222297   6.328   1.151   0.280  0.3717  1.6032 -1.9420
 7445TIP3   OH222298   5.152   5.590   0.676  0.3711  0.5243 -0.0544
 7445TIP3    H122299   5.227   5.595   0.617 -0.7185 -0.4298 -1.6178
 7445TIP3    H222300   5.086   5.646   0.636  0.0497  0.9543  1.0317
 7446TIP3   OH222301   3.304   0.079   2.431 -0.2943  0.1845 -0.4097
 7446TIP3    H122302   3.313   0.035   2.516 -0.3624 -0.0434 -0.5187
 7446TIP3    H222303   3.262   0.162   2.452 -1.8219 -0.5502 -0.3941
 7447TIP3   OH222304   1.072   6.258   2.339  0.3187  0.7869  0.2272
 7447TIP3    H122305   1.106   6.196   2.404  0.1516  0.7530  0.2819
 7447TIP3    H222306   0.989   6.220   2.311 -0.4347  1.6638  1.2303
 7448TIP3   OH222307   1.696   4.891   4.675 -0.2326  0.3823  0.0308
 7448TIP3    H122308   1.792   4.890   4.677 -0.2053  1.3911 -0.6259
 7448TIP3    H222309   1.673   4.970   4.627 -1.3736 -1.1358 -2.0448
 7449TIP3   OH222310   1.697   0.543   1.007 -0.1284 -0.1067 -0.1348
 7449TIP3    H122311   1.673   0.453   1.033 -0.5287  0.2807  0.8946
 7449TIP3    H222312   1.714   0.588   1.090 -0.9348  1.0521 -0.5727
 7450TIP3   OH222313   0.946   2.639   0.699 -0.4274 -0.1551 -0.5937
 7450TIP3    H122314   1.007   2.587   0.752  0.7294 -0.1758 -1.8740
 7450TIP3    H222315   1.002   2.682   0.634 -1.7301  0.3171 -1.4398
 7451TIP3   OH222316   0.049   6.266   1.026  0.1891 -0.2376 -0.0717
 7451TIP3    H122317   0.122   6.263   0.964  0.8954  1.1160  0.6439
 7451TIP3    H222318   0.081   6.219   1.103 -0.5994 -1.7124 -0.6139
 7452TIP3   OH222319   1.907   2.490   5.022  0.3063 -0.2221 -0.0837
 7452TIP3    H122320   1.950   2.532   4.948 -0.2094 -0.0376 -0.2833
 7452TIP3    H222321   1.947   2.403   5.028  1.2428  0.2129  0.2085
 7453TIP3   OH222322   5.659   6.457   3.946 -0.3354  0.3740  0.3194
 7453TIP3    H122323   5.610   6.439   4.026 -1.9215  0.1695 -0.6544
 7453TIP3    H222324   5.749   6.474   3.976 -0.5311 -1.2178  1.9873
 7454TIP3   OH222325   6.720   0.339   2.155  0.4556 -0.4407 -0.3736
 7454TIP3    H122326   6.807   0.349   2.193  1.0003 -2.2323 -1.0221
 7454TIP3    H222327   6.736   0.304   2.068 -0.8557  1.4121 -1.4331
 7455TIP3   OH222328   4.022   5.184   1.153 -0.5523  0.3247  0.0174
 7455TIP3    H122329   4.004   5.149   1.066 -0.3430 -0.4317  0.2717
 7455TIP3    H222330   4.046   5.276   1.138  0.9992 -0.1998 -0.8754
 7456TIP3   OH222331   3.927   6.752   5.762 -0.3853 -0.2051  0.1470
 7456TIP3    H122332   3.840   6.779   5.792 -0.7578 -0.7592 -0.3968
 7456TIP3    H222333   3.984   6.824   5.786 -0.8868 -0.0872  1.0550
 7457TIP3   OH222334   6.148   1.381   3.870  0.6293  0.5279  0.6932
 7457TIP3    H122335   6.085   1.323   3.911  1.8462 -0.2926  1.4661
 7457TIP3    H222336   6.185   1.431   3.943  1.3835  0.4766  0.3540
 7458TIP3   OH222337   5.737   2.791   2.117  0.0506 -0.1195  1.0848
 7458TIP3    H122338   5.654   2.743   2.123 -0.7769  1.3141  1.5402
 7458TIP3    H222339   5.779   2.777   2.201  0.5933 -1.3740  0.6269
 7459TIP3   OH222340   4.325   4.351   3.845 -0.0541  0.1129  0.3606
 7459TIP3    H122341   4.248   4.296   3.837  0.4504 -0.3506 -2.0416
 7459TIP3    H222342   4.335   4.365   3.940 -2.1411 -1.0821  0.8153
 7460TIP3   OH222343   4.995   5.619   2.303  0.7225  0.1835 -0.0728
 7460TIP3    H122344   5.022   5.552   2.365 -0.6105 -1.3623 -1.0634
 7460TIP3    H222345   4.972   5.695   2.357 -0.3016 -1.0783  1.3290
 7461TIP3   OH222346   6.029   4.702   1.555 -0.4634 -0.1107 -0.0356
 7461TIP3    H122347   6.088   4.748   1.496 -0.4599 -0.6664 -0.4717
 7461TIP3    H222348   6.060   4.611   1.556  0.2462  0.1071  1.7307
 7462TIP3   OH222349   4.441   5.271   3.009 -0.0474  0.2654 -0.0305
 7462TIP3    H122350   4.418   5.194   3.061  3.2312 -0.5057  0.4988
 7462TIP3    H222351   4.482   5.330   3.071  2.7184 -0.0987 -1.3545
 7463TIP3   OH222352   2.750   3.498   4.972  0.2768 -0.4166  0.0729
 7463TIP3    H122353   2.835   3.511   5.013  0.3652  1.1691 -0.5565
 7463TIP3    H222354   2.763   3.526   4.881 -0.3065 -2.4045 -0.6754
 7464TIP3   OH222355   4.189   2.177   3.683  0.1933 -0.6093  0.2569
 7464TIP3    H122356   4.170   2.192   3.776 -0.9670 -0.9496  0.0955
 7464TIP3    H222357   4.250   2.103   3.683  1.0568  0.0796  0.7770
 7465TIP3   OH222358   4.745   6.516   1.311 -0.5126 -0.2732 -0.2032
 7465TIP3    H122359   4.732   6.611   1.317  0.6249 -0.0955 -0.3325
 7465TIP3    H222360   4.808   6.496   1.380 -1.8127 -1.1747  0.7749
 7466TIP3   OH222361   2.002   0.745   4.536  0.0000  0.7821  0.3544
 7466TIP3    H122362   1.975   0.658   4.566  0.0708 -0.1207 -1.9678
 7466TIP3    H222363   1.928   0.777   4.484  0.6726  1.2935 -0.3153
 7467TIP3   OH222364   2.161   2.397   0.404  0.3803  0.4622 -0.3527
 7467TIP3    H122365   2.130   2.483   0.375 -2.5713  0.3254  1.9539
 7467TIP3    H222366   2.227   2.417   0.471 -1.5993  1.1291  1.5316
 7468TIP3   OH222367   4.937   4.278   3.300  0.5633  0.1035  0.4682
 7468TIP3    H122368   4.876   4.333   3.251 -0.1617 -1.0558  0.0115
 7468TIP3    H222369   4.897   4.269   3.387 -0.1845 -1.0023  0.0406
 7469TIP3   OH222370   6.028   2.982   1.827 -0.7530  0.1014  0.0580
 7469TIP3    H122371   6.115   2.971   1.865 -0.3467  0.7329 -0.6563
 7469TIP3    H222372   5.974   2.915   1.869 -0.2586  0.6114  1.5282
 7470TIP3   OH222373   0.097   5.250   2.674 -0.3400  0.0309  0.5456
 7470TIP3    H122374   0.167   5.204   2.627 -0.2491  1.5083 -0.8695
 7470TIP3    H222375   0.017   5.224   2.628 -0.2808  1.2730 -0.3044
 7471TIP3   OH222376   1.010   4.731   3.413  0.0792  0.0751 -0.3690
 7471TIP3    H122377   1.058   4.745   3.495  0.7527 -0.2750 -0.7029
 7471TIP3    H222378   1.062   4.667   3.365  0.2108  1.0297 -1.5235
 7472TIP3   OH222379   0.987   2.469   2.313  0.0212 -0.2736 -0.4150
 7472TIP3    H122380   0.962   2.495   2.224 -1.7045 -1.6662 -0.4065
 7472TIP3    H222381   0.941   2.532   2.369 -0.3272 -0.4606 -0.4855
 7473TIP3   OH222382   7.067   5.090   2.629  0.4861 -0.1952 -0.1644
 7473TIP3    H122383   7.028   5.082   2.717  1.5175  1.5559  0.4947
 7473TIP3    H222384   7.089   5.000   2.605 -0.5932 -0.8093  1.0012
 7474TIP3   OH222385   6.708   5.431   3.905  0.0394 -0.4880  0.2973
 7474TIP3    H122386   6.740   5.444   3.816 -1.5671  1.1192 -0.0985
 7474TIP3    H222387   6.751   5.351   3.934  1.2540 -0.5912 -1.6078
 7475TIP3   OH222388   2.402   0.533   2.276  0.2868  0.6301  0.2904
 7475TIP3    H122389   2.411   0.626   2.296  0.9901  0.4823  0.7064
 7475TIP3    H222390   2.395   0.491   2.362  1.0704  0.2007  0.1603
 7476TIP3   OH222391   4.621   0.791   3.942 -0.0844  0.1957 -0.1890
 7476TIP3    H122392   4.528   0.802   3.921  0.4834  0.8101 -2.7242
 7476TIP3    H222393   4.631   0.698   3.962 -0.9756 -0.2046 -1.5045
 7477TIP3   OH222394   6.797   1.256   5.866  0.0952 -0.1996 -0.9344
 7477TIP3    H122395   6.793   1.351   5.854  0.8504 -0.2620 -1.7967
 7477TIP3    H222396   6.733   1.221   5.805  1.1081 -0.3137 -1.9811
 7478TIP3   OH222397   1.341   4.758   5.450 -0.0052 -0.0532  0.4728
 7478TIP3    H122398   1.276   4.826   5.435 -0.5420 -0.8777 -1.1126
 7478TIP3    H222399   1.319   4.723   5.537 -1.3485  0.0408  0.1937
 7479TIP3   OH222400   4.775   5.130   5.435  0.3906  0.1892  0.7637
 7479TIP3    H122401   4.804   5.140   5.345 -0.7050  0.1870  0.3971
 7479TIP3    H222402   4.680   5.119   5.429  0.6443 -4.0077  1.5653
 7480TIP3   OH222403   4.918   6.502   4.717 -0.5098 -0.3714 -0.2788
 7480TIP3    H122404   4.899   6.548   4.799 -1.9465  0.6289 -1.1311
 7480TIP3    H222405   4.988   6.553   4.677  0.8695 -1.4067  0.7273
 7481TIP3   OH222406   5.964   0.465   4.977 -0.0184 -0.1818  0.4597
 7481TIP3    H122407   5.887   0.419   4.942 -0.7895 -1.4365  3.4637
 7481TIP3    H222408   5.942   0.557   4.968 -1.6204 -0.5045  0.6890
 7482TIP3   OH222409   6.687   0.788   4.296 -0.2690 -0.0860 -0.0503
 7482TIP3    H122410   6.598   0.794   4.333 -0.5682 -0.3478 -0.7270
 7482TIP3    H222411   6.723   0.708   4.334 -0.0146  0.4438  0.8694
 7483TIP3   OH222412   1.750   4.310   5.547 -0.5893  0.0574  0.7502
 7483TIP3    H122413   1.785   4.375   5.486 -0.9799 -0.0567  0.4042
 7483TIP3    H222414   1.713   4.362   5.619 -2.9052  0.3601 -0.5530
 7484TIP3   OH222415   6.821   2.142   4.462  0.3935 -0.4583 -0.2870
 7484TIP3    H122416   6.781   2.097   4.537 -0.3934  0.6842 -0.0028
 7484TIP3    H222417   6.901   2.091   4.444 -0.6417 -2.1985 -0.2377
 7485TIP3   OH222418   0.345   2.463   1.314 -0.3236 -0.2738  0.3826
 7485TIP3    H122419   0.435   2.483   1.290 -0.0907  0.0925  1.4944
 7485TIP3    H222420   0.312   2.544   1.352 -0.6028 -0.8766  1.4548
 7486TIP3   OH222421   3.952   5.752   4.085 -0.2927 -0.3873  0.2007
 7486TIP3    H122422   4.044   5.730   4.102 -0.4546 -0.2985  1.2274
 7486TIP3    H222423   3.954   5.844   4.061 -0.1889 -0.1762  0.9892
 7487TIP3   OH222424   4.413   2.030   2.442 -0.4885 -0.3170  0.1468
 7487TIP3    H122425   4.397   2.121   2.466 -1.7651 -0.9490  1.9870
 7487TIP3    H222426   4.416   2.030   2.347  0.7904  1.8055  0.1347
 7488TIP3   OH222427   6.263   1.467   2.553  0.2496  0.2375 -0.1631
 7488TIP3    H122428   6.307   1.395   2.509  0.9187  0.3071  0.3780
 7488TIP3    H222429   6.311   1.545   2.525 -0.7672  0.5357 -1.1250
 7489TIP3   OH222430   2.493   1.504   1.717  0.5847 -0.4242 -0.0000
 7489TIP3    H122431   2.558   1.462   1.773  1.4603 -0.0734 -0.7243
 7489TIP3    H222432   2.441   1.558   1.777  1.7980  0.3119  0.4355
 7490TIP3   OH222433   4.104   0.120   4.782 -0.2518  0.2035 -0.3677
 7490TIP3    H122434   4.145   0.191   4.733 -1.5887 -0.0882 -1.9788
 7490TIP3    H222435   4.057   0.163   4.854 -0.3770  0.8710 -0.8491
 7491TIP3   OH222436   6.207   4.896   4.923  0.4425 -0.0623 -0.0228
 7491TIP3    H122437   6.122   4.941   4.921  0.7152  0.4982  0.6582
 7491TIP3    H222438   6.259   4.941   4.856  1.2574  1.7860  1.7607
 7492TIP3   OH222439   5.191   6.572   5.217 -0.2303  0.1169  0.4878
 7492TIP3    H122440   5.208   6.520   5.138 -0.5964 -2.1441  1.8126
 7492TIP3    H222441   5.198   6.510   5.289 -1.4514  1.7669  2.1374
 7493TIP3   OH222442   1.421   1.535   3.888 -0.2165 -0.3481  0.3615
 7493TIP3    H122443   1.355   1.587   3.935 -1.3130  0.5525 -2.0334
 7493TIP3    H222444   1.390   1.445   3.895 -0.3240 -0.2468  1.3722
 7494TIP3   OH222445   7.094   1.907   3.290  0.1201 -0.3854 -0.0209
 7494TIP3    H122446   7.065   1.874   3.205 -0.1125 -0.0457 -0.0732
 7494TIP3    H222447   7.081   2.001   3.286 -1.8351 -0.5348  1.1040
 7495TIP3   OH222448   2.006   3.435   4.716 -0.5467 -0.1327 -0.6919
 7495TIP3    H122449   2.001   3.501   4.648  0.1168  0.6570  0.0047
 7495TIP3    H222450   1.992   3.352   4.671 -2.5407  0.5474 -1.4138
 7496TIP3   OH222451   2.766   1.437   3.991  0.3317 -0.5233  0.3546
 7496TIP3    H122452   2.718   1.508   3.948 -0.9537 -2.4768 -1.6542
 7496TIP3    H222453   2.751   1.452   4.084 -0.5966  1.3631 -0.0299
 7497TIP3   OH222454   0.042   1.409   0.490 -0.3628  0.1014  0.0905
 7497TIP3    H122455   0.080   1.333   0.446 -0.5052 -0.2804  0.6168
 7497TIP3    H222456   0.025   1.379   0.580  0.5943  1.0791  0.6278
 7498TIP3   OH222457   0.601   0.262   3.498 -0.2373 -0.1454  0.0739
 7498TIP3    H122458   0.668   0.261   3.567 -0.4726 -1.6907  0.3397
 7498TIP3    H222459   0.554   0.344   3.511  0.5636  0.1995  0.9197
 7499TIP3   OH222460   3.361   2.899   3.252 -0.3934 -0.0770 -0.2951
 7499TIP3    H122461   3.382   2.989   3.229  0.7133 -0.1146  0.4903
 7499TIP3    H222462   3.446   2.857   3.264 -0.8418 -0.3649  2.5863
 7500TIP3   OH222463   2.128   5.095   2.078  0.8803  0.3396 -0.0798
 7500TIP3    H122464   2.221   5.107   2.057  0.6618  0.8829 -0.7777
 7500TIP3    H222465   2.120   5.125   2.168  1.6404 -1.0126  0.4687
 7501TIP3   OH222466   2.427   6.617   3.228  0.2157  0.1283  0.3153
 7501TIP3    H122467   2.339   6.598   3.194  0.9931  0.8340 -2.3385
 7501TIP3    H222468   2.466   6.531   3.243  0.1643 -0.3170 -1.7235
 7502TIP3   OH222469   1.994   5.623   0.528 -0.1467  0.1085 -0.2167
 7502TIP3    H122470   2.060   5.642   0.463  1.1521 -0.7614  0.7983
 7502TIP3    H222471   2.040   5.627   0.612 -1.6769  0.8243  0.6394
 7503TIP3   OH222472   2.553   4.652   1.587  0.5433  0.2275  0.0333
 7503TIP3    H122473   2.590   4.688   1.506  1.5105 -0.0136  0.3562
 7503TIP3    H222474   2.461   4.635   1.565  1.4038 -2.5831 -1.9717
 7504TIP3   OH222475   6.442   0.811   2.007 -0.1612 -0.0013  0.1483
 7504TIP3    H122476   6.387   0.756   1.951 -0.2673  2.5137 -2.5096
 7504TIP3    H222477   6.521   0.760   2.020 -1.0028 -1.5532 -0.5245
 7505TIP3   OH222478   1.400   0.307   0.535  0.1727 -0.0176  0.0946
 7505TIP3    H122479   1.334   0.279   0.471 -0.2530  4.0673 -1.5280
 7505TIP3    H222480   1.349   0.330   0.613 -0.1296  1.2616 -0.4650
 7506TIP3   OH222481   3.645   6.433   1.263  0.1192  0.4472  0.1764
 7506TIP3    H122482   3.701   6.394   1.330  0.3086 -0.5344 -0.5225
 7506TIP3    H222483   3.679   6.397   1.181 -1.3827  0.0181 -0.2749
 7507TIP3   OH222484   0.297   6.206   3.885  0.0283 -0.2141 -0.1421
 7507TIP3    H122485   0.298   6.280   3.945  0.2859  0.6492 -1.1760
 7507TIP3    H222486   0.205   6.194   3.863  0.0902  0.6360 -0.9400
 7508TIP3   OH222487   5.939   5.988   2.780  0.0487  0.1294 -0.7194
 7508TIP3    H122488   5.930   5.974   2.874  1.3232 -0.1647 -0.6330
 7508TIP3    H222489   5.852   5.966   2.745 -0.7949  1.3733  0.4947
 7509TIP3   OH222490   1.312   5.970   5.740 -0.2010 -0.1399  0.3472
 7509TIP3    H122491   1.370   5.916   5.686  0.2711 -0.6187  1.2979
 7509TIP3    H222492   1.331   6.059   5.713  0.6467 -0.3204  0.3041
 7510TIP3   OH222493   1.638   2.684   2.466 -0.6415 -0.3042 -0.1681
 7510TIP3    H122494   1.680   2.657   2.547 -1.2547 -2.3853 -0.4807
 7510TIP3    H222495   1.705   2.735   2.419 -0.7450  2.2611  2.1917
 7511TIP3   OH222496   3.351   1.367   1.424  0.2742 -0.0561  0.7119
 7511TIP3    H122497   3.365   1.422   1.502 -0.0597 -1.3104  1.6936
 7511TIP3    H222498   3.297   1.420   1.366  0.7468  1.0071  1.2201
 7512TIP3   OH222499   1.455   4.791   5.831 -0.7433 -0.5644 -0.4471
 7512TIP3    H122500   1.432   4.710   5.786 -0.2316 -1.4662  0.8565
 7512TIP3    H222501   1.532   4.768   5.883 -0.0489  1.0015 -0.7291
 7513TIP3   OH222502   1.719   0.133   4.429  0.2322  0.2253 -0.2628
 7513TIP3    H122503   1.635   0.113   4.388 -0.6004 -0.7521  1.7981
 7513TIP3    H222504   1.698   0.191   4.502  1.3882  0.2955  0.0326
 7514TIP3   OH222505   2.712   2.376   2.482 -0.2608  0.7101 -0.1847
 7514TIP3    H122506   2.742   2.423   2.560 -0.6173  1.6377 -0.5927
 7514TIP3    H222507   2.759   2.417   2.409  0.7506 -0.7420 -0.3913
 7515TIP3   OH222508   3.115   1.097   0.729  0.4689 -0.3892  0.1345
 7515TIP3    H122509   3.125   1.006   0.757 -1.5699 -0.0052  2.4095
 7515TIP3    H222510   3.154   1.148   0.799  1.3482  0.5563 -0.9977
 7516TIP3   OH222511   1.020   1.097   5.026 -0.4638  0.2021  0.0888
 7516TIP3    H122512   0.959   1.076   5.097  0.9456  0.5788  1.4621
 7516TIP3    H222513   1.101   1.052   5.050 -0.0110  0.1633 -1.4083
 7517TIP3   OH222514   4.589   1.674   4.454 -0.1911  0.3846  0.3785
 7517TIP3    H122515   4.524   1.661   4.522 -1.4971 -0.2698 -0.9380
 7517TIP3    H222516   4.539   1.679   4.373  1.4021 -0.2118 -0.7051
 7518TIP3   OH222517   4.723   5.679   2.713  0.2188  0.4021 -0.2387
 7518TIP3    H122518   4.765   5.709   2.794 -0.8841  1.7420 -0.1119
 7518TIP3    H222519   4.781   5.708   2.643 -1.1423  3.7922 -0.1807
 7519TIP3   OH222520   3.279   5.451   0.451  0.1121  0.3844  0.0881
 7519TIP3    H122521   3.300   5.535   0.492 -0.6258  1.0845 -0.9173
 7519TIP3    H222522   3.209   5.414   0.505  0.7863  0.1573  0.8289
 7520TIP3   OH222523   6.308   0.471   1.662  0.2145  0.1661  0.3352
 7520TIP3    H122524   6.328   0.382   1.691  0.0683 -0.0112 -0.0917
 7520TIP3    H222525   6.342   0.475   1.573 -0.0673  0.4353  0.2359
 7521TIP3   OH222526   3.819   4.816   0.188 -0.1358 -0.0699  0.2624
 7521TIP3    H122527   3.811   4.762   0.267  0.9478 -1.2527 -0.4097
 7521TIP3    H222528   3.822   4.754   0.116 -0.4159  0.9698 -0.6697
 7522TIP3   OH222529   6.463   0.998   4.906  0.0531 -0.2460 -0.3402
 7522TIP3    H122530   6.433   0.909   4.891  0.3257 -0.1184 -1.7184
 7522TIP3    H222531   6.545   1.005   4.859  1.3251  0.0191  1.7721
 7523TIP3   OH222532   4.900   3.112   4.503 -0.2913  0.7290  0.3257
 7523TIP3    H122533   4.867   3.127   4.592  1.2375 -2.4128  1.5766
 7523TIP3    H222534   4.829   3.065   4.459 -0.9081  1.9751 -0.0729
 7524TIP3   OH222535   2.387   4.268   4.727  0.0643  0.7622 -0.1755
 7524TIP3    H122536   2.363   4.175   4.722  0.6383  0.6722 -1.7022
 7524TIP3    H222537   2.482   4.269   4.726  0.0617  1.3726 -0.2576
 7525TIP3   OH222538   2.556   5.476   4.200  0.2819  0.0596 -0.8687
 7525TIP3    H122539   2.537   5.448   4.290  2.5674  1.0073 -0.0159
 7525TIP3    H222540   2.565   5.395   4.151  0.7696 -0.5326  0.1750
 7526TIP3   OH222541   0.530   2.584   0.283 -0.3011  0.3344  0.0335
 7526TIP3    H122542   0.441   2.550   0.286 -0.7457  1.3699 -0.8853
 7526TIP3    H222543   0.520   2.678   0.269  0.9392  0.4933  0.0651
 7527TIP3   OH222544   5.924   0.005   4.199 -0.2812 -0.0723 -0.4690
 7527TIP3    H122545   5.944   0.096   4.223  0.0594 -0.4489  0.7640
 7527TIP3    H222546   6.008  -0.041   4.206 -0.8349 -0.9370  1.2558
 7528TIP3   OH222547   0.066   1.160   1.054 -0.0756 -0.1991  0.6336
 7528TIP3    H122548   0.089   1.067   1.057 -0.4874 -0.3032  0.6089
 7528TIP3    H222549   0.149   1.205   1.040  0.5248 -0.3977  3.1341
 7529TIP3   OH222550   0.367   3.027   3.010 -0.0835 -0.0801  0.2077
 7529TIP3    H122551   0.360   3.104   2.954  0.7759 -0.9535 -1.1722
 7529TIP3    H222552   0.342   2.954   2.953  1.0913 -1.0317  0.8607
 7530TIP3   OH222553   3.204   0.640   4.340  0.0102 -0.4364  0.8088
 7530TIP3    H122554   3.251   0.566   4.378  3.1965 -0.7013 -3.0113
 7530TIP3    H222555   3.151   0.601   4.271 -1.5759  0.5163  1.4354
 7531TIP3   OH222556   4.412   5.046   3.447  0.5610 -0.1328 -0.0162
 7531TIP3    H122557   4.437   4.966   3.494 -1.2487 -0.6142  0.1957
 7531TIP3    H222558   4.333   5.077   3.492  1.4601  2.0455  0.1719
 7532TIP3   OH222559   3.586   0.335   3.292 -0.1271  0.4672 -0.5469
 7532TIP3    H122560   3.563   0.411   3.347 -0.8859  0.5111 -0.9083
 7532TIP3    H222561   3.513   0.328   3.230 -0.2514 -0.7982 -0.2742
 7533TIP3   OH222562   1.216   0.650   1.717  0.1421 -0.0954  0.5156
 7533TIP3    H122563   1.193   0.743   1.708  2.0467  0.3010 -0.7781
 7533TIP3    H222564   1.138   0.603   1.686 -0.3984  1.1055 -0.0009
 7534TIP3   OH222565   5.137   3.254   2.570  0.1710 -0.0232  0.5423
 7534TIP3    H122566   5.184   3.336   2.584 -1.1599  1.4818 -2.6612
 7534TIP3    H222567   5.072   3.276   2.502 -1.4270 -3.3174  0.8420
 7535TIP3   OH222568   3.974   1.449   1.072 -0.8399 -0.3379 -0.2934
 7535TIP3    H122569   4.012   1.363   1.090  0.4747  0.4866  1.1463
 7535TIP3    H222570   3.882   1.431   1.053 -0.4712 -2.1005 -0.6459
 7536TIP3   OH222571   0.730   4.525   4.197 -0.1280  0.1924  0.2085
 7536TIP3    H122572   0.644   4.549   4.232  0.3507  3.0753 -0.3472
 7536TIP3    H222573   0.713   4.495   4.108 -0.6167  0.0418  0.3524
 7537TIP3   OH222574   1.303   1.104   0.811 -0.2787  0.2670  0.0246
 7537TIP3    H122575   1.287   1.194   0.838  1.3982  0.3832  0.7479
 7537TIP3    H222576   1.233   1.085   0.748 -3.1559  0.6480  2.8739
 7538TIP3   OH222577   6.978   5.930   0.285  0.4136 -0.4922 -0.2844
 7538TIP3    H122578   6.970   6.002   0.349  0.0791  0.0292 -0.8979
 7538TIP3    H222579   6.942   5.854   0.330 -3.7261  0.7003 -1.2049
 7539TIP3   OH222580   2.488   0.038   0.785  0.0832  0.0206 -0.4084
 7539TIP3    H122581   2.530   0.072   0.864  1.0035  0.6417 -1.1488
 7539TIP3    H222582   2.495  -0.057   0.793  1.6723  0.1123 -0.5212
 7540TIP3   OH222583   3.745   0.146   1.145  0.2976 -0.0841  0.1575
 7540TIP3    H122584   3.765   0.181   1.232 -2.9681  0.7966  0.7003
 7540TIP3    H222585   3.668   0.196   1.116 -0.1870 -1.9887 -2.1944
 7541TIP3   OH222586   0.514   2.821   3.877  0.0956 -0.2096  0.0739
 7541TIP3    H122587   0.590   2.807   3.822  0.0028 -1.7999  0.3161
 7541TIP3    H222588   0.518   2.752   3.943 -1.6383 -0.4418 -0.0073
 7542TIP3   OH222589   1.807   3.822   2.803  0.1441 -0.0291  0.1062
 7542TIP3    H122590   1.770   3.777   2.728 -1.5438  3.1812 -1.1848
 7542TIP3    H222591   1.888   3.775   2.822 -0.5632 -2.3862 -2.1721
 7543TIP3   OH222592   5.088   6.064   5.487  0.1916  0.1727 -0.0101
 7543TIP3    H122593   5.080   5.984   5.538  0.5868  0.7522  0.9872
 7543TIP3    H222594   5.068   6.134   5.549  1.1870  0.9261 -0.5134
 7544TIP3   OH222595   2.303   3.005   4.405 -0.4791  0.3103 -0.3258
 7544TIP3    H122596   2.276   3.054   4.483  0.3586 -0.4037  0.4329
 7544TIP3    H222597   2.221   2.980   4.362 -0.9728  0.1135  0.7034
 7545TIP3   OH222598   0.789   2.259   5.805 -0.3244 -0.3120 -0.4006
 7545TIP3    H122599   0.707   2.302   5.830 -0.6921  0.0940 -2.1289
 7545TIP3    H222600   0.774   2.166   5.824  0.4355  0.1938  3.2651
 7546TIP3   OH222601   4.354   0.525   0.367  0.0061 -0.6306 -0.2396
 7546TIP3    H122602   4.364   0.432   0.385 -0.8027 -0.5096  0.9827
 7546TIP3    H222603   4.429   0.566   0.410  0.7232 -0.7590 -1.3383
 7547TIP3   OH222604   6.340   4.286   1.001 -0.7614 -0.4010  0.4558
 7547TIP3    H122605   6.320   4.198   1.032 -0.8029 -0.3626  0.5378
 7547TIP3    H222606   6.262   4.337   1.022 -0.5618 -0.2430  0.8116
 7548TIP3   OH222607   5.976   3.413   4.744  0.0304  0.6202 -0.7195
 7548TIP3    H122608   6.009   3.441   4.830 -0.2895 -0.3368 -0.2732
 7548TIP3    H222609   5.928   3.490   4.711  0.9865  1.3353 -0.4930
 7549TIP3   OH222610   2.644   0.311   5.222  0.5554 -0.2954  0.2172
 7549TIP3    H122611   2.629   0.385   5.280 -1.5866  1.1154 -1.9740
 7549TIP3    H222612   2.560   0.266   5.217  1.2186 -1.5444 -0.2667
 7550TIP3   OH222613   3.218   6.501   3.220  0.2381 -0.2885  0.9759
 7550TIP3    H122614   3.267   6.452   3.285  1.3705 -0.3794  0.0810
 7550TIP3    H222615   3.189   6.580   3.266  1.1241 -0.2897  1.5542
 7551TIP3   OH222616   1.872   4.290   2.104  0.3552  0.2028  0.0350
 7551TIP3    H122617   1.905   4.293   2.194 -1.5537  0.9567  0.7794
 7551TIP3    H222618   1.860   4.196   2.087  0.3346  0.0642  0.7497
 7552TIP3   OH222619   4.877   0.109   5.048 -0.1997 -0.0779  0.3768
 7552TIP3    H122620   4.848   0.019   5.060  1.4390 -0.9775 -1.6369
 7552TIP3    H222621   4.902   0.114   4.955  1.6056  1.8655  0.8770
 7553TIP3   OH222622   2.258   4.485   4.282  0.6660 -0.0843 -0.5956
 7553TIP3    H122623   2.279   4.566   4.330 -0.1127  0.3934 -1.0443
 7553TIP3    H222624   2.231   4.424   4.350 -2.4452  1.2208 -0.5051
 7554TIP3   OH222625   3.842   1.829   1.780  0.3771  0.0146  0.5859
 7554TIP3    H122626   3.852   1.811   1.687  1.7877  1.0245  0.5123
 7554TIP3    H222627   3.811   1.920   1.784 -2.0900 -0.7736  1.0690
 7555TIP3   OH222628   2.939   1.966   0.937 -0.0255  0.6211  0.0496
 7555TIP3    H122629   3.003   2.037   0.937  0.2110  0.5048  2.5513
 7555TIP3    H222630   2.879   1.987   0.865  1.4452  2.0035 -0.8309
 7556TIP3   OH222631   6.436   0.244   3.206 -1.1768  0.3641 -0.0590
 7556TIP3    H122632   6.441   0.212   3.116  0.3062 -0.1520  0.1866
 7556TIP3    H222633   6.420   0.166   3.259  0.4886  0.2717  0.3494
 7557TIP3   OH222634   4.943   1.135   5.191 -0.6082 -0.1495 -0.0279
 7557TIP3    H122635   4.992   1.099   5.118 -1.2680  0.3529 -0.7366
 7557TIP3    H222636   4.955   1.072   5.262 -1.7032 -1.7530 -1.2068
 7558TIP3   OH222637   0.559   1.326   3.840 -0.1001  0.1693 -0.7168
 7558TIP3    H122638   0.470   1.294   3.858  1.0493 -1.9973  1.6432
 7558TIP3    H222639   0.552   1.367   3.753 -3.2558 -0.3958 -0.8563
 7559TIP3   OH222640   3.269   6.366   3.628  0.4361 -0.4937  0.1958
 7559TIP3    H122641   3.243   6.422   3.701 -0.8691 -1.4522  0.5073
 7559TIP3    H222642   3.322   6.422   3.572 -0.8707  1.0661  0.4677
 7560TIP3   OH222643   6.905   6.497   1.866  0.4637  0.4700 -0.0598
 7560TIP3    H122644   6.872   6.521   1.779  0.8462  2.4178  0.2838
 7560TIP3    H222645   7.000   6.488   1.854  0.4593  0.2409  0.0623
 7561TIP3   OH222646   3.337   0.458   3.832 -0.4735  0.1855 -0.0082
 7561TIP3    H122647   3.402   0.414   3.887  1.4963  3.4517  0.5431
 7561TIP3    H222648   3.272   0.491   3.893 -1.1765 -0.7158 -0.2588
 7562TIP3   OH222649   3.906   3.159   2.363  0.5322  0.0715  0.2561
 7562TIP3    H122650   3.821   3.115   2.372  0.8628 -0.5749  0.3019
 7562TIP3    H222651   3.886   3.241   2.318 -0.2715  0.4500  1.2397
 7563TIP3   OH222652   2.945   4.736   5.743  1.0636 -0.0935  0.0858
 7563TIP3    H122653   2.887   4.812   5.741  1.8691  0.5319 -1.6775
 7563TIP3    H222654   3.020   4.761   5.689  1.0533 -2.3443 -1.1169
 7564TIP3   OH222655   3.024   3.594   0.142  0.4592 -0.0659  0.7213
 7564TIP3    H122656   2.971   3.532   0.092  1.2278 -1.5445  1.6701
 7564TIP3    H222657   3.045   3.663   0.080  0.0675 -1.0433 -0.5445
 7565TIP3   OH222658   0.017   5.821   4.041  1.1683 -0.0213 -0.6119
 7565TIP3    H122659   0.066   5.747   4.076  1.0673  0.0033 -0.4229
 7565TIP3    H222660   0.083   5.873   3.995  0.8739 -1.4845 -2.8885
 7566TIP3   OH222661   0.515   3.718   4.270 -0.7222 -0.7751  0.5112
 7566TIP3    H122662   0.585   3.746   4.329 -0.1490 -0.3084 -0.3660
 7566TIP3    H222663   0.491   3.631   4.300 -1.3801 -0.0259  2.2709
 7567TIP3   OH222664   0.706   1.757   2.588  0.4989 -0.3692 -0.5611
 7567TIP3    H122665   0.755   1.813   2.528  2.2394 -1.2086  0.0198
 7567TIP3    H222666   0.755   1.675   2.590 -0.3420 -0.8776  0.8737
 7568TIP3   OH222667   2.846   0.794   2.004  0.1113 -0.0035 -0.8620
 7568TIP3    H122668   2.899   0.766   2.080 -1.1618 -0.7786 -0.2308
 7568TIP3    H222669   2.787   0.721   1.988  0.8725 -0.1849 -3.1337
 7569TIP3   OH222670   4.177   5.239   5.497 -0.1551  0.0032  0.5477
 7569TIP3    H122671   4.272   5.246   5.498 -0.0876 -0.9535  1.4014
 7569TIP3    H222672   4.147   5.328   5.474  0.9315  0.2267 -0.0650
 7570TIP3   OH222673   0.302   3.051   5.630 -0.1443  0.2425  0.3270
 7570TIP3    H122674   0.314   3.146   5.626  1.0935  0.2165  2.2142
 7570TIP3    H222675   0.214   3.037   5.595  0.5561  1.7749 -2.4394
 7571TIP3   OH222676   3.467   4.976   1.896  0.1946  0.5372  0.5169
 7571TIP3    H122677   3.542   5.035   1.902  0.1886  0.8532 -1.6817
 7571TIP3    H222678   3.469   4.943   1.806 -1.8925 -0.0143  0.6076
 7572TIP3   OH222679   4.711   0.357   3.845  0.1399  0.0231  0.2444
 7572TIP3    H122680   4.777   0.379   3.780  0.3445 -0.5591  0.2452
 7572TIP3    H222681   4.750   0.384   3.929 -0.2300  1.0084  0.1136
 7573TIP3   OH222682   3.758   6.292   0.049  0.0444 -0.6406  0.6032
 7573TIP3    H122683   3.720   6.374   0.015  1.5971 -1.0357 -2.4582
 7573TIP3    H222684   3.698   6.224   0.019  0.3495 -0.8413  0.4420
 7574TIP3   OH222685   2.631   5.094   2.820 -0.2697 -0.3983 -0.0465
 7574TIP3    H122686   2.551   5.074   2.772  0.0529 -0.3492 -0.6166
 7574TIP3    H222687   2.603   5.105   2.911 -1.0421  0.5357 -0.3874
 7575TIP3   OH222688   0.786   6.370   5.746  1.0187 -0.7887  0.2166
 7575TIP3    H122689   0.736   6.440   5.789  1.1636 -1.4587  1.5251
 7575TIP3    H222690   0.730   6.340   5.675 -0.0276 -0.8638  1.0516
 7576TIP3   OH222691   1.642   2.703   1.604  0.2182  0.3627  0.1559
 7576TIP3    H122692   1.673   2.778   1.554 -1.2277 -0.2000 -1.7210
 7576TIP3    H222693   1.579   2.660   1.546  2.1791 -3.2763  0.4297
 7577TIP3   OH222694   1.961   5.009   1.766  0.3127 -0.0140  0.2626
 7577TIP3    H122695   2.030   4.984   1.828  1.3855  1.1082 -0.4187
 7577TIP3    H222696   2.005   5.068   1.705 -0.9561 -0.2989 -0.9767
 7578TIP3   OH222697   1.425   2.381   4.124  0.2124  0.0085 -0.2389
 7578TIP3    H122698   1.363   2.454   4.120 -0.3334 -0.3987  0.4607
 7578TIP3    H222699   1.412   2.344   4.212  0.9634 -0.5058 -0.3389
 7579TIP3   OH222700   3.896   1.758   1.518 -0.2721  0.0999 -0.3304
 7579TIP3    H122701   3.966   1.741   1.455 -0.2137 -0.2654 -0.1704
 7579TIP3    H222702   3.847   1.831   1.481 -1.2808 -1.2149 -1.6572
 7580TIP3   OH222703   1.361  -0.009   5.621  0.0952 -0.2510  0.2737
 7580TIP3    H122704   1.333   0.077   5.652 -1.8883 -1.2249  1.4326
 7580TIP3    H222705   1.408  -0.047   5.695 -0.6679 -0.8554  0.4595
 7581TIP3   OH222706   0.661   5.785   2.906  0.3656  0.0361 -0.1638
 7581TIP3    H122707   0.740   5.736   2.886  1.3131  0.9445  1.1756
 7581TIP3    H222708   0.589   5.728   2.878  1.4683 -0.9464 -1.0836
 7582TIP3   OH222709   1.579   3.637   1.463  0.1391  0.0442 -0.0193
 7582TIP3    H122710   1.618   3.723   1.450  2.2419 -0.5652  1.5849
 7582TIP3    H222711   1.620   3.582   1.397 -0.9105  0.1640 -0.7903
 7583TIP3   OH222712   2.318   0.848   0.301 -0.1519 -0.0503 -0.4588
 7583TIP3    H122713   2.336   0.764   0.258 -1.1361 -0.8780  0.6650
 7583TIP3    H222714   2.405   0.884   0.319  0.3286 -1.3762  0.0293
 7584TIP3   OH222715   1.170   0.342   5.756 -0.1529 -0.2783  0.3222
 7584TIP3    H122716   1.198   0.273   5.816 -1.1954 -0.2735  0.8490
 7584TIP3    H222717   1.237   0.345   5.688  1.3553  0.0679  1.7671
 7585TIP3   OH222718   4.693   2.658   2.140  0.9237 -0.0328  0.2884
 7585TIP3    H122719   4.636   2.583   2.155 -0.8353  0.6163 -2.3947
 7585TIP3    H222720   4.712   2.655   2.046  1.4308  2.4137  0.2516
 7586TIP3   OH222721   4.164   5.333   4.598  0.1493 -0.5394 -0.6446
 7586TIP3    H122722   4.084   5.328   4.544 -0.1681 -1.0739 -0.1333
 7586TIP3    H222723   4.196   5.423   4.585 -1.7875  0.4467  0.9157
 7587TIP3   OH222724   3.525   0.308   5.655 -0.8554  0.5922 -0.0209
 7587TIP3    H122725   3.597   0.248   5.672 -2.7179 -1.5534  0.8925
 7587TIP3    H222726   3.507   0.298   5.561 -2.5794 -2.2352  0.4646
 7588TIP3   OH222727   5.097   0.217   1.722  0.0206 -0.3134  0.8117
 7588TIP3    H122728   5.161   0.232   1.792 -0.1747 -0.1233  0.9535
 7588TIP3    H222729   5.082   0.305   1.686 -1.3175 -0.1018  1.8012
 7589TIP3   OH222730   0.525   2.185   3.166  0.3015 -0.3095 -0.1412
 7589TIP3    H122731   0.499   2.244   3.095  2.2496  0.3121 -0.3871
 7589TIP3    H222732   0.511   2.235   3.246 -0.8960 -0.6314 -0.1290
 7590TIP3   OH222733   3.757   3.997   0.800 -0.4496 -0.0559  0.1470
 7590TIP3    H122734   3.818   4.070   0.789 -1.0269  0.2496 -1.1126
 7590TIP3    H222735   3.670   4.036   0.791 -0.7586 -0.9719 -1.1343
 7591TIP3   OH222736   1.334   1.780   2.145  0.3337  0.1942  0.1190
 7591TIP3    H122737   1.390   1.812   2.216  0.9205 -0.8522  0.1476
 7591TIP3    H222738   1.394   1.768   2.071  1.1091 -4.5319  1.1525
 7592TIP3   OH222739   4.409   5.859   0.334 -0.7702  0.1229  0.0328
 7592TIP3    H122740   4.326   5.898   0.359 -1.8948 -1.9964 -0.1649
 7592TIP3    H222741   4.392   5.764   0.333  1.3739 -0.3178 -0.9685
 7593TIP3   OH222742   5.592   2.978   2.976 -0.2522 -0.1817 -0.1919
 7593TIP3    H122743   5.579   3.068   2.945 -0.2444 -0.2642 -0.4364
 7593TIP3    H222744   5.534   2.925   2.921  0.3763 -0.4322 -0.6283
 7594TIP3   OH222745   5.735   3.222   4.091  0.2239  0.2773 -0.3708
 7594TIP3    H122746   5.714   3.162   4.163  2.9503 -0.5175 -0.1096
 7594TIP3    H222747   5.676   3.195   4.020 -2.0933  0.6709  1.2976
 7595TIP3   OH222748   3.714   2.724   1.179 -0.3495 -0.4061 -0.5561
 7595TIP3    H122749   3.693   2.637   1.145  0.6017 -0.5085 -0.9304
 7595TIP3    H222750   3.810   2.729   1.173 -0.4049  0.7350 -0.7050
 7596TIP3   OH222751   3.012   0.436   4.191 -0.0715  0.3612  0.2378
 7596TIP3    H122752   2.994   0.512   4.247 -1.0330  0.2694  0.0574
 7596TIP3    H222753   2.926   0.406   4.162  0.3744 -0.0682 -0.6686
 7597TIP3   OH222754   4.804   5.991   2.111 -0.0641 -0.3927  0.4699
 7597TIP3    H122755   4.890   5.982   2.069 -0.1963  1.7477 -0.3904
 7597TIP3    H222756   4.742   5.969   2.042 -0.2179 -0.1105  0.5151
 7598TIP3   OH222757   1.163   5.029   1.290 -0.1850 -0.5373 -0.4682
 7598TIP3    H122758   1.211   5.105   1.323  0.8656 -1.0383 -0.7973
 7598TIP3    H222759   1.128   4.986   1.368  0.3258 -0.4380 -0.1839
 7599TIP3   OH222760   4.245   3.807   5.204  0.5581 -0.0031 -0.0550
 7599TIP3    H122761   4.286   3.731   5.246  0.4944 -0.5769 -0.9880
 7599TIP3    H222762   4.309   3.836   5.139  0.2371  0.2264 -0.2726
 7600TIP3   OH222763   6.091   5.618   5.484 -0.1449  0.2585 -0.1132
 7600TIP3    H122764   6.041   5.596   5.562 -0.1069  1.4986  0.2730
 7600TIP3    H222765   6.053   5.700   5.453  0.4478  0.2624 -0.8675
 7601TIP3   OH222766   2.105   5.632   0.264  0.0652 -0.2326  0.0732
 7601TIP3    H122767   2.155   5.591   0.194 -0.5469  1.6602 -1.5610
 7601TIP3    H222768   2.031   5.674   0.220 -1.0130  0.0422  2.0040
 7602TIP3   OH222769  -0.012   2.818   1.464 -0.0665 -0.3104 -0.4748
 7602TIP3    H122770   0.045   2.794   1.392  0.2493 -0.5817 -0.1407
 7602TIP3    H222771  -0.015   2.740   1.520 -1.2325 -0.5044 -0.7834
 7603TIP3   OH222772   2.087   4.082   1.747  0.0307 -0.4096  0.1916
 7603TIP3    H122773   2.042   4.055   1.667 -1.9657  0.2989  0.9896
 7603TIP3    H222774   2.042   4.162   1.773  2.0417  0.5486  0.9098
 7604TIP3   OH222775   3.220   5.581   3.900 -0.0310  0.4790  0.0167
 7604TIP3    H122776   3.264   5.655   3.857 -0.7448  1.1957  0.4960
 7604TIP3    H222777   3.156   5.622   3.958 -0.5280 -0.5265  0.1931
 7605TIP3   OH222778   4.259   4.951   0.017 -0.4979 -0.6958  0.4425
 7605TIP3    H122779   4.296   4.862   0.023 -0.1423 -0.5017  1.4337
 7605TIP3    H222780   4.258   4.981   0.108  0.6775  0.8303 -0.0100
 7606TIP3   OH222781   4.764   1.633   1.924  0.5306 -0.7321 -0.2584
 7606TIP3    H122782   4.703   1.561   1.940  0.7881 -0.6894  0.9548
 7606TIP3    H222783   4.851   1.593   1.928  0.6542 -0.4447 -0.0501
 7607TIP3   OH222784   5.464   6.023   3.432  0.0170  0.4878 -0.5251
 7607TIP3    H122785   5.370   6.028   3.412  0.1377  1.5014 -0.9181
 7607TIP3    H222786   5.506   6.019   3.346  0.3024 -0.8241 -0.3331
 7608TIP3   OH222787   2.842   1.234   4.627  0.4767 -0.3879 -0.2950
 7608TIP3    H122788   2.874   1.277   4.706 -0.8058  0.5722 -0.2705
 7608TIP3    H222789   2.851   1.140   4.645 -0.1068 -0.1895  1.1223
 7609TIP3   OH222790   6.895   5.946   1.648 -0.3940 -0.0899  0.0275
 7609TIP3    H122791   6.920   5.923   1.737  0.2386 -1.9822 -0.5870
 7609TIP3    H222792   6.881   5.862   1.604 -2.2478  0.8096 -1.2472
 7610TIP3   OH222793   1.965   5.383   4.479  0.3639 -0.1536  0.0316
 7610TIP3    H122794   2.035   5.446   4.498  0.4596  0.0545 -0.9617
 7610TIP3    H222795   1.952   5.336   4.562  0.1142  1.3315  0.8816
 7611TIP3   OH222796   1.983   1.416   0.475  0.2243 -0.1026 -0.2804
 7611TIP3    H122797   1.978   1.501   0.431  1.9702 -0.0352 -0.3830
 7611TIP3    H222798   1.906   1.415   0.532 -0.2811  1.1837 -0.8897
 7612TIP3   OH222799   2.259   3.527   1.638 -0.1762  0.1371 -0.5816
 7612TIP3    H122800   2.197   3.529   1.711  1.0764  0.7293  0.5047
 7612TIP3    H222801   2.205   3.507   1.562 -1.3941 -1.4851  0.6233
 7613TIP3   OH222802   2.439   4.171   2.870 -0.1722  0.6601  0.2718
 7613TIP3    H122803   2.515   4.217   2.906  1.3378 -1.6678  0.2199
 7613TIP3    H222804   2.475   4.110   2.807 -1.8380 -1.9238  1.6450
 7614TIP3   OH222805   3.616   5.601   1.393 -0.6310  0.0386  0.4835
 7614TIP3    H122806   3.688   5.558   1.346 -0.6911  0.6475 -0.1968
 7614TIP3    H222807   3.545   5.606   1.329 -0.4753  1.5145  0.3840
 7615TIP3   OH222808   2.985   5.828   4.004  0.2072  0.0347  0.5208
 7615TIP3    H122809   2.920   5.789   3.946  1.1197 -1.2650  0.3205
 7615TIP3    H222810   2.961   5.921   4.009 -0.2772  0.0560 -1.4195
 7616TIP3   OH222811   0.460   0.032   3.212  0.2074 -0.1823  0.0749
 7616TIP3    H122812   0.475  -0.057   3.244  0.8740  0.2996  1.1605
 7616TIP3    H222813   0.434   0.081   3.289  1.4672  0.9367 -0.1637
 7617TIP3   OH222814   7.131   3.132   1.443  0.1007  0.3786  0.8549
 7617TIP3    H122815   7.150   3.070   1.372  0.3300  1.3981  0.0078
 7617TIP3    H222816   7.166   3.090   1.521  0.7548 -0.3144  0.2089
 7618TIP3   OH222817   0.284   1.300   0.697 -0.0183  0.5779 -0.4145
 7618TIP3    H122818   0.265   1.380   0.747  1.7867  0.6056  0.2976
 7618TIP3    H222819   0.204   1.248   0.703 -0.2581  1.1049  1.5457
 7619TIP3   OH222820   3.644   3.101   2.296 -0.3819 -0.1369 -0.1066
 7619TIP3    H122821   3.592   3.053   2.360 -0.1697 -1.8339 -1.1483
 7619TIP3    H222822   3.582   3.130   2.230 -0.2621 -0.5594 -0.4064
 7620TIP3   OH222823   6.563   0.587   2.700 -0.1551 -0.8360  0.2065
 7620TIP3    H122824   6.484   0.635   2.678  0.5098  0.3744  0.4044
 7620TIP3    H222825   6.606   0.570   2.616  0.5532  0.5979  0.2510
 7621TIP3   OH222826   2.272   3.851   5.755  0.0312  0.0106 -0.2072
 7621TIP3    H122827   2.190   3.897   5.737 -0.6081 -0.4761  1.3063
 7621TIP3    H222828   2.259   3.812   5.841  1.4447 -1.0168 -0.4257
 7622TIP3   OH222829   5.761   5.334   3.257  0.1624 -0.3901  0.3285
 7622TIP3    H122830   5.761   5.429   3.246  0.6113 -0.3973  0.2325
 7622TIP3    H222831   5.757   5.321   3.352 -4.2834 -0.3282  0.3509
 7623TIP3   OH222832   1.708   6.523   3.376  0.5422  0.1438  0.2367
 7623TIP3    H122833   1.697   6.513   3.282 -1.1477 -0.8271  0.5020
 7623TIP3    H222834   1.773   6.593   3.385 -0.7859  1.7598 -1.6595
 7624TIP3   OH222835   1.908   2.766   5.171  0.3189 -0.3968  0.1514
 7624TIP3    H122836   1.922   2.792   5.080  0.5457  1.2752  0.6341
 7624TIP3    H222837   1.915   2.670   5.170  1.4285 -0.3333 -1.3936
 7625TIP3   OH222838   1.612   1.934   5.081  0.0002  0.0551 -0.1396
 7625TIP3    H122839   1.524   1.955   5.050  0.8380  0.1516 -2.6840
 7625TIP3    H222840   1.633   1.850   5.040  1.0415 -0.0484  0.5588
 7626TIP3   OH222841   3.162   6.013   2.116 -0.3273 -0.1366  0.9082
 7626TIP3    H122842   3.125   5.925   2.106 -0.6713  0.2393 -1.5479
 7626TIP3    H222843   3.113   6.068   2.055  2.4353  0.9286 -0.5249
 7627TIP3   OH222844   0.837   2.655   5.374 -0.1187  0.3373 -0.0614
 7627TIP3    H122845   0.761   2.714   5.376 -0.5319 -0.2119  0.4729
 7627TIP3    H222846   0.897   2.696   5.311 -1.5338 -0.0662 -1.7382
 7628TIP3   OH222847   6.050   1.784   4.960  0.5839  0.1750  1.3962
 7628TIP3    H122848   6.091   1.870   4.966 -0.2202  0.6974 -0.1388
 7628TIP3    H222849   6.043   1.767   4.866 -0.0478 -1.2018  1.6600
 7629TIP3   OH222850   5.566   4.538   1.069  0.0966  0.5515 -0.4617
 7629TIP3    H122851   5.555   4.480   1.144  0.0875  2.3407  0.9792
 7629TIP3    H222852   5.639   4.499   1.020  1.2749  0.2379  1.4129
 7630TIP3   OH222853   1.613   5.827   2.960  0.4047  0.5135  0.1329
 7630TIP3    H122854   1.673   5.809   2.888  0.0946  0.4597 -0.1136
 7630TIP3    H222855   1.558   5.749   2.966  1.4422 -0.1599  1.4565
 7631TIP3   OH222856   4.116   2.089   1.538  0.1891  0.5574  0.3924
 7631TIP3    H122857   4.171   2.017   1.507 -2.3917 -1.5202  0.2977
 7631TIP3    H222858   4.069   2.118   1.460  0.7539  1.9835  0.5542
 7632TIP3   OH222859   4.675   0.966   2.338 -0.1023  0.0252  0.0872
 7632TIP3    H122860   4.637   1.031   2.398 -1.4831  0.3330 -1.0798
 7632TIP3    H222861   4.745   1.013   2.293 -1.5069  0.9656 -1.2135
 7633TIP3   OH222862   0.018   3.210   5.853 -0.1594 -0.5425 -0.0534
 7633TIP3    H122863  -0.060   3.256   5.886  1.0181  2.1422 -0.7310
 7633TIP3    H222864   0.046   3.261   5.777  2.9628 -0.6299  0.8992
 7634TIP3   OH222865   2.948   6.197   1.429 -0.0912 -0.3521  0.3162
 7634TIP3    H122866   2.891   6.266   1.395  0.2761  0.5708  1.4812
 7634TIP3    H222867   3.036   6.234   1.425  0.1400 -0.8277  0.7721
 7635TIP3   OH222868   4.650   4.072   3.236  0.1899  0.0149 -0.2282
 7635TIP3    H122869   4.704   4.065   3.315  0.1689 -1.9472 -0.3316
 7635TIP3    H222870   4.589   3.998   3.243  0.6916 -0.6673 -2.4460
 7636TIP3   OH222871   0.776   4.999   4.305  0.0602 -0.3964 -0.1614
 7636TIP3    H122872   0.687   5.028   4.325  0.3213  0.1931  0.1571
 7636TIP3    H222873   0.799   4.940   4.377 -0.3321 -1.1098 -0.6140
 7637TIP3   OH222874   1.015   4.143   3.829 -0.3752 -0.2044 -0.1606
 7637TIP3    H122875   1.035   4.191   3.748 -0.6676  0.1921 -0.0023
 7637TIP3    H222876   1.099   4.135   3.874 -0.3803  0.4906 -0.0136
 7638TIP3   OH222877   3.005   3.203   1.337  0.3396  0.3075 -0.6639
 7638TIP3    H122878   3.018   3.275   1.275  0.2824  0.0540 -0.9747
 7638TIP3    H222879   3.080   3.146   1.324  0.1384  0.0618 -0.7708
 7639TIP3   OH222880   6.789   0.030   5.058 -0.8481  0.1346 -0.4709
 7639TIP3    H122881   6.760   0.055   5.146 -2.7169 -0.6783 -0.8023
 7639TIP3    H222882   6.767  -0.062   5.051  1.6204 -0.4774 -0.9400
 7640TIP3   OH222883   1.207   6.359   3.652 -0.0431  0.2024 -0.2511
 7640TIP3    H122884   1.112   6.366   3.660 -0.2940 -1.5443 -1.3237
 7640TIP3    H222885   1.232   6.434   3.598 -0.8717  0.4245 -0.3406
 7641TIP3   OH222886   1.881   6.252   3.840 -0.5849  0.8355  0.0090
 7641TIP3    H122887   1.847   6.223   3.755  0.3867  1.1429 -0.4970
 7641TIP3    H222888   1.813   6.311   3.874 -1.8194 -0.6851  0.3006
 7642TIP3   OH222889   5.539   3.164   3.901 -0.5481 -0.1843  0.0542
 7642TIP3    H122890   5.472   3.198   3.961 -0.9037  0.8436 -0.8868
 7642TIP3    H222891   5.547   3.232   3.834  0.6924 -0.7750 -0.4219
 7643TIP3   OH222892   2.486   4.433   3.217 -0.6289 -0.2236 -0.0834
 7643TIP3    H122893   2.444   4.348   3.205 -2.6286  0.1166  3.1983
 7643TIP3    H222894   2.541   4.422   3.295 -0.6832  1.3644  0.2150
 7644TIP3   OH222895   5.411   1.188   2.024  0.4987  0.8158  0.3025
 7644TIP3    H122896   5.386   1.222   2.110 -3.2728  0.7298 -0.5630
 7644TIP3    H222897   5.476   1.250   1.992  0.5175  1.9843  2.4019
 7645TIP3   OH222898   4.162   4.038   1.078 -0.3563  0.2125 -0.2114
 7645TIP3    H122899   4.097   4.025   1.148 -0.8034  0.6792 -0.5292
 7645TIP3    H222900   4.127   4.111   1.026  1.1025  1.4230  0.4182
 7646TIP3   OH222901   6.650   5.177   4.325  0.1663  0.3287  0.3610
 7646TIP3    H122902   6.707   5.138   4.392  0.6989  2.0538  0.9680
 7646TIP3    H222903   6.579   5.114   4.313  1.7297 -1.4923  0.2146
 7647TIP3   OH222904   3.430   5.985   4.756  0.1278 -0.1778  0.6121
 7647TIP3    H122905   3.407   5.979   4.848  0.7720 -0.3109  0.7651
 7647TIP3    H222906   3.472   6.070   4.747  1.4755 -0.8073  0.7629
 7648TIP3   OH222907   2.250   6.149   3.046  0.0043 -0.3933  0.1054
 7648TIP3    H122908   2.195   6.084   3.090 -0.2706 -0.5290 -0.4324
 7648TIP3    H222909   2.253   6.120   2.955 -1.5297  1.2399 -0.5371
 7649TIP3   OH222910   6.145   2.789   1.651  0.3334 -0.4129 -0.6507
 7649TIP3    H122911   6.087   2.864   1.639  0.6349  0.3856  2.1402
 7649TIP3    H222912   6.231   2.827   1.668  0.7857 -1.4338 -0.5470
 7650TIP3   OH222913   4.101   0.602   3.377  0.0608  0.1046  0.0839
 7650TIP3    H122914   4.105   0.597   3.281  0.8885 -1.8949  0.1772
 7650TIP3    H222915   4.023   0.551   3.400 -0.3571  0.9070  0.4755
 7651TIP3   OH222916   6.101   2.541   1.742  0.1896 -0.0270  0.5375
 7651TIP3    H122917   6.078   2.628   1.707 -0.7052 -0.0435  1.0547
 7651TIP3    H222918   6.071   2.480   1.674 -1.9936 -0.0873  1.4699
 7652TIP3   OH222919   0.170   0.108   1.864  0.2859 -0.1128  0.0515
 7652TIP3    H122920   0.185   0.165   1.940  1.5757 -1.1347  0.5931
 7652TIP3    H222921   0.145   0.168   1.794 -1.9088  0.7936  1.4893
 7653TIP3   OH222922   4.354   5.994   4.247 -0.3800  0.6970 -0.2210
 7653TIP3    H122923   4.424   5.943   4.206 -0.9346 -1.3127  1.2141
 7653TIP3    H222924   4.393   6.080   4.262  0.6302  0.7449 -2.5912
 7654TIP3   OH222925   4.159   2.319   2.163 -0.3755 -0.2915 -0.6202
 7654TIP3    H122926   4.203   2.336   2.079  1.2620  1.1138  0.4412
 7654TIP3    H222927   4.087   2.261   2.141 -0.1587  0.2391 -3.0457
 7655TIP3   OH222928   5.180   5.370   4.828  0.7038 -0.0353  0.2023
 7655TIP3    H122929   5.127   5.374   4.748  0.1570 -0.6707  0.5261
 7655TIP3    H222930   5.183   5.277   4.850  0.6253  0.1647  1.0747
 7656TIP3   OH222931   6.516   0.760   1.637 -0.7485 -0.1760  0.1362
 7656TIP3    H122932   6.610   0.745   1.628 -0.9679 -0.7215 -2.1223
 7656TIP3    H222933   6.477   0.705   1.569 -2.3660  3.2936 -2.0609
 7657TIP3   OH222934   3.036   6.719   1.461 -0.6073 -0.5646  0.3867
 7657TIP3    H122935   2.972   6.790   1.466  0.4208  0.3226  1.9771
 7657TIP3    H222936   3.048   6.691   1.552 -0.2036 -2.0765 -0.1068
 7658TIP3   OH222937   3.184   2.822   0.324  0.1526 -0.4628 -0.4035
 7658TIP3    H122938   3.203   2.901   0.375 -0.5265 -0.0210 -0.8061
 7658TIP3    H222939   3.166   2.755   0.390 -0.0076 -0.0833 -0.0516
 7659TIP3   OH222940   1.295   6.322   3.911 -0.1493 -0.0557  0.2196
 7659TIP3    H122941   1.367   6.260   3.923  0.2099 -0.0202 -1.4521
 7659TIP3    H222942   1.293   6.338   3.816 -0.8536  1.7481  0.4965
 7660TIP3   OH222943   6.254   4.555   3.935  0.5803 -0.1351  0.4006
 7660TIP3    H122944   6.336   4.603   3.940  0.5132 -0.0656  0.8653
 7660TIP3    H222945   6.244   4.515   4.021 -0.5331  0.9550  0.8039
 7661TIP3   OH222946   4.256   0.202   2.165  0.2262  0.0889  0.3301
 7661TIP3    H122947   4.177   0.149   2.174 -0.2137  0.7040  0.1669
 7661TIP3    H222948   4.239   0.260   2.091  0.5657  0.6728  0.6944
 7662TIP3   OH222949   3.661   3.808   2.494  0.0757 -0.5079 -0.3131
 7662TIP3    H122950   3.688   3.789   2.583  0.2375 -0.5674 -0.3744
 7662TIP3    H222951   3.612   3.891   2.500 -0.4161 -0.8076 -0.0816
 7663TIP3   OH222952   0.685   1.134   3.362 -0.6424  0.0544 -0.6684
 7663TIP3    H122953   0.704   1.145   3.455  0.0907 -1.1384 -0.6599
 7663TIP3    H222954   0.681   1.039   3.349 -1.3128  0.2065 -1.7479
 7664TIP3   OH222955   6.731   1.211   3.861  0.2916 -0.1488 -0.2634
 7664TIP3    H122956   6.727   1.140   3.797  0.4063  0.4984 -0.9922
 7664TIP3    H222957   6.672   1.278   3.827  0.0846  0.0600  0.4872
 7665TIP3   OH222958   2.959   3.213   2.430 -0.0759 -0.0035 -0.1442
 7665TIP3    H122959   2.964   3.299   2.388 -1.4309 -0.0293 -0.4007
 7665TIP3    H222960   2.879   3.216   2.482  0.3254 -0.8116  0.5382
 7666TIP3   OH222961   4.835   5.305   5.679  0.2243 -0.4521  0.2432
 7666TIP3    H122962   4.762   5.269   5.730 -0.5678  0.2350 -0.3774
 7666TIP3    H222963   4.836   5.254   5.599  1.8631 -1.9439  1.1575
 7667TIP3   OH222964   2.818   2.111   5.025 -0.0831  0.2350 -0.3281
 7667TIP3    H122965   2.725   2.097   5.039 -0.4462  1.2199 -1.6331
 7667TIP3    H222966   2.838   2.065   4.943  0.7480 -0.5395  0.2761
 7668TIP3   OH222967   4.301   2.665   2.264  0.1679  0.3833  0.0471
 7668TIP3    H122968   4.283   2.730   2.332  0.3329  0.4208  0.0534
 7668TIP3    H222969   4.255   2.698   2.187  0.7673  0.8305 -0.1266
 7669TIP3   OH222970   5.781   6.142   4.892 -0.1701  0.3214  0.4251
 7669TIP3    H122971   5.795   6.237   4.896  0.8012  0.2675 -0.9102
 7669TIP3    H222972   5.688   6.131   4.908 -0.9637  1.8051 -2.5475
 7670TIP3   OH222973   3.020   2.404   0.175  0.1779  0.3522 -0.5436
 7670TIP3    H122974   3.036   2.331   0.234 -1.4719  0.7835  0.4974
 7670TIP3    H222975   3.088   2.396   0.108  0.0771 -2.0930 -0.4382
 7671TIP3   OH222976   0.492   1.219   4.938 -0.5268 -0.1224  0.2628
 7671TIP3    H122977   0.504   1.229   5.033 -0.0067 -0.0638  0.1901
 7671TIP3    H222978   0.573   1.251   4.900  0.1369 -2.1546 -0.1191
 7672TIP3   OH222979   1.725   5.939   4.146 -0.3673 -0.1968 -0.1198
 7672TIP3    H122980   1.736   5.919   4.053 -0.2633 -1.1969  0.0919
 7672TIP3    H222981   1.795   5.891   4.189 -1.3548 -1.0361  0.6055
 7673TIP3   OH222982   4.934   2.056   1.068 -0.6082 -0.1483 -0.7687
 7673TIP3    H122983   4.849   2.098   1.077 -0.5221 -0.1768  0.3389
 7673TIP3    H222984   4.922   1.968   1.105  0.0622  0.0961  0.0784
 7674TIP3   OH222985   1.484   2.387   4.665 -0.0974 -0.3422  0.3951
 7674TIP3    H122986   1.520   2.320   4.723  0.1898  0.2123  0.8636
 7674TIP3    H222987   1.396   2.404   4.700 -0.1401 -0.4116  0.3234
 7675TIP3   OH222988   3.550   3.097   5.461 -0.2331 -0.5017 -0.2290
 7675TIP3    H122989   3.640   3.065   5.459  0.5338  1.2633  1.6721
 7675TIP3    H222990   3.525   3.092   5.554 -1.0552  1.5555 -0.2782
 7676TIP3   OH222991   6.914   4.815   2.865 -0.2636 -0.4381 -0.3212
 7676TIP3    H122992   6.917   4.726   2.830  0.5903 -0.5338 -0.0272
 7676TIP3    H222993   7.005   4.846   2.861 -0.5936  0.5290 -0.6856
 7677TIP3   OH222994   6.370   5.613   4.259 -0.1199 -0.5621 -0.1706
 7677TIP3    H122995   6.401   5.684   4.203  0.0415 -1.7785 -1.6806
 7677TIP3    H222996   6.449   5.563   4.281 -0.2009 -0.1814  1.0669
 7678TIP3   OH222997   6.936   4.526   4.853  0.4774 -0.1424 -0.0548
 7678TIP3    H122998   6.912   4.455   4.913 -0.4637  0.6566  0.5431
 7678TIP3    H222999   6.881   4.511   4.776 -0.9976  0.8851  0.7554
 7679TIP3   OH223000   3.194   5.822   0.879  0.8104 -0.2532  0.1126
 7679TIP3    H123001   3.141   5.881   0.933 -0.8957 -0.6206 -1.0840
 7679TIP3    H223002   3.240   5.879   0.818  0.7071 -0.0285  0.2455
 7680TIP3   OH223003   0.952   5.427   2.558 -0.4898 -0.1366  0.3829
 7680TIP3    H123004   0.940   5.490   2.487 -0.3705 -1.1033 -0.5041
 7680TIP3    H223005   0.931   5.342   2.520 -0.8068 -0.6328  1.6093
 7681TIP3   OH223006   0.359   5.562   0.100  0.3585  0.3594 -0.5356
 7681TIP3    H123007   0.331   5.653   0.096  1.3449  0.8162  1.4622
 7681TIP3    H223008   0.398   5.545   0.014 -0.8759  1.4322 -1.3470
 7682TIP3   OH223009   1.082   2.737   3.291  0.2595 -0.0154  0.3913
 7682TIP3    H123010   1.099   2.666   3.230 -0.6315 -2.0373  2.3501
 7682TIP3    H223011   1.164   2.748   3.340  1.0126  1.6865 -1.1623
 7683TIP3   OH223012   6.405   1.438   0.275  0.9020  0.2458  0.2663
 7683TIP3    H123013   6.463   1.362   0.274 -1.0734 -1.3482 -0.5449
 7683TIP3    H223014   6.441   1.497   0.208  2.4292  0.0145  0.8699
 7684TIP3   OH223015   1.083   0.474   2.350 -0.1536 -0.1573 -0.0534
 7684TIP3    H123016   1.028   0.521   2.287 -0.1057 -1.5317 -1.1654
 7684TIP3    H223017   1.109   0.541   2.413  1.4530  1.7563 -2.5711
 7685TIP3   OH223018   2.052   0.708   2.327  0.2713 -0.3485  0.4297
 7685TIP3    H123019   2.128   0.763   2.343  0.4560 -1.1190  2.4510
 7685TIP3    H223020   2.086   0.630   2.284  0.0007  1.0036 -2.5151
 7686TIP3   OH223021   5.291   0.270   0.690  0.5635 -0.7020 -0.1967
 7686TIP3    H123022   5.334   0.210   0.629 -1.9511 -0.7167 -2.1507
 7686TIP3    H223023   5.237   0.327   0.634 -1.2712 -0.1609  1.9528
 7687TIP3   OH223024   4.957   2.821   4.681 -0.1790 -0.9271  0.1127
 7687TIP3    H123025   4.972   2.851   4.591 -1.7471  1.8663  0.6910
 7687TIP3    H223026   4.973   2.898   4.735 -0.7245 -2.1531  2.1098
 7688TIP3   OH223027   4.262   2.485   5.775 -0.6226  0.1816 -0.0352
 7688TIP3    H123028   4.345   2.495   5.729 -0.5093  0.1800  0.1701
 7688TIP3    H223029   4.285   2.447   5.859 -0.9724 -1.2481 -0.5479
 7689TIP3   OH223030   1.822   2.686   5.743 -0.3475 -0.0646 -0.0637
 7689TIP3    H123031   1.752   2.710   5.804 -0.7813 -0.4308 -0.4134
 7689TIP3    H223032   1.888   2.643   5.797 -0.2557  0.5406  0.3167
 7690TIP3   OH223033   6.596   2.192   1.354 -0.2605  0.5351  0.2942
 7690TIP3    H123034   6.520   2.216   1.408 -0.9055  0.7091 -0.6460
 7690TIP3    H223035   6.609   2.268   1.297  1.4104  1.0143  1.2462
 7691TIP3   OH223036   2.967   0.511   1.964  0.0904 -0.0670 -0.3241
 7691TIP3    H123037   2.888   0.458   1.977  0.7121 -0.9243 -0.0116
 7691TIP3    H223038   3.015   0.505   2.046 -0.5797  2.3118  0.3153
 7692TIP3   OH223039   6.459   4.846   4.774 -0.5530  0.6671 -0.3373
 7692TIP3    H123040   6.465   4.938   4.748 -1.4136  0.5519 -0.9742
 7692TIP3    H223041   6.370   4.820   4.749 -0.2244 -0.4111 -0.4197
 7693TIP3   OH223042   4.285   1.388   1.787 -0.1351  0.2931 -0.2506
 7693TIP3    H123043   4.252   1.426   1.706 -1.0484  1.7482  0.7356
 7693TIP3    H223044   4.372   1.426   1.799 -1.0080  2.1355  0.6830
 7694TIP3   OH223045   7.204   3.094   1.143 -0.0313 -0.5411 -0.1549
 7694TIP3    H123046   7.209   3.021   1.082 -1.5761 -0.3488 -0.5420
 7694TIP3    H223047   7.174   3.168   1.091 -0.3827 -0.1205  0.6216
 7695TIP3   OH223048   6.009   3.315   1.850 -0.0530 -0.0413 -0.2275
 7695TIP3    H123049   6.094   3.314   1.805 -0.8649 -0.3023 -1.8218
 7695TIP3    H223050   5.998   3.225   1.881  0.1187 -0.0837 -0.2865
 7696TIP3   OH223051   2.625   2.709   1.022  0.2051 -0.1884 -0.2617
 7696TIP3    H123052   2.642   2.800   1.048  0.6035 -1.2042  3.6155
 7696TIP3    H223053   2.713   2.671   1.012  0.2321  0.5040 -5.6305
 7697TIP3   OH223054   6.101   6.585   0.828  0.0540 -0.2636  0.1594
 7697TIP3    H123055   6.139   6.513   0.878 -0.6449 -0.2439  0.7431
 7697TIP3    H223056   6.070   6.647   0.895  0.4079  0.4522 -0.3327
 7698TIP3   OH223057   6.844   3.926   1.084 -0.4656  0.1577 -0.4694
 7698TIP3    H123058   6.898   4.001   1.060 -1.3642  1.5179  1.4233
 7698TIP3    H223059   6.767   3.932   1.027  0.3927 -0.6075 -1.7664
 7699TIP3   OH223060   6.359   2.630   5.576 -0.1869  0.0524 -0.3134
 7699TIP3    H123061   6.332   2.677   5.655  0.7080  0.5371 -0.2733
 7699TIP3    H223062   6.328   2.686   5.504 -0.4588 -0.0718 -0.2922
 7700TIP3   OH223063   3.236   1.572   2.329  0.2447 -0.2625 -0.1457
 7700TIP3    H123064   3.310   1.526   2.290 -1.6012 -0.3757 -3.9467
 7700TIP3    H223065   3.206   1.633   2.261 -2.3251  0.7839  1.7210
 7701TIP3   OH223066   1.597   1.499   3.050  0.0275  0.3931 -0.0910
 7701TIP3    H123067   1.653   1.568   3.085 -1.7068  1.2794  1.0806
 7701TIP3    H223068   1.565   1.452   3.127  0.7436 -1.4095 -0.8418
 7702TIP3   OH223069   6.775   3.287   2.755  0.7042 -0.3083  0.2902
 7702TIP3    H123070   6.734   3.372   2.742  1.6468  0.1445  0.1783
 7702TIP3    H223071   6.784   3.250   2.667 -1.6204 -1.4897  0.4739
 7703TIP3   OH223072   4.511   2.725   4.372  0.2243  0.0884 -0.7513
 7703TIP3    H123073   4.419   2.721   4.400 -0.0099  1.8492 -1.1132
 7703TIP3    H223074   4.507   2.732   4.277  0.6322  1.5281 -0.6938
 7704TIP3   OH223075   3.543   2.772   5.182  0.8924 -0.0751  0.4999
 7704TIP3    H123076   3.581   2.855   5.151  1.0965 -0.4182 -0.1899
 7704TIP3    H223077   3.619   2.715   5.197  0.7057 -0.4335  0.0885
 7705TIP3   OH223078   5.090   5.599   2.746 -0.0812 -1.2283 -0.0724
 7705TIP3    H123079   5.072   5.542   2.820  0.4044  0.3003  1.2657
 7705TIP3    H223080   5.185   5.596   2.735 -0.1444 -1.4200 -0.6304
 7706TIP3   OH223081   5.343   5.293   4.410  0.1016  0.0861 -0.1926
 7706TIP3    H123082   5.390   5.210   4.401 -1.5181 -1.0097  1.0445
 7706TIP3    H223083   5.330   5.323   4.320  1.9833 -0.2193 -0.6082
 7707TIP3   OH223084   4.143   2.873   0.979  0.9530  0.0829 -0.9525
 7707TIP3    H123085   4.085   2.866   0.903  0.0491  2.2945 -0.5521
 7707TIP3    H223086   4.155   2.967   0.991  1.3607 -0.1991  1.4205
 7708TIP3   OH223087   2.432   4.960   3.855 -0.3608  0.4052  0.0288
 7708TIP3    H123088   2.435   5.030   3.921  0.2793 -0.2915  0.7593
 7708TIP3    H223089   2.364   4.988   3.793  0.0640  1.8083  0.1529
 7709TIP3   OH223090   3.754   4.689   2.767 -0.0751  0.0208 -0.5264
 7709TIP3    H123091   3.695   4.752   2.809 -0.8924 -0.0110 -1.5632
 7709TIP3    H223092   3.737   4.606   2.811 -0.0315  0.2362 -0.1048
 7710TIP3   OH223093   2.765   6.391   0.868 -0.0205 -0.0179  0.7061
 7710TIP3    H123094   2.849   6.408   0.909  0.9803 -1.0412 -0.8256
 7710TIP3    H223095   2.752   6.297   0.877 -0.7028  0.0383  0.3884
 7711TIP3   OH223096   2.414   1.241   0.025 -0.3205  0.2664 -0.1888
 7711TIP3    H123097   2.383   1.174   0.085  0.7125 -1.0548 -1.0798
 7711TIP3    H223098   2.421   1.197  -0.060  1.6882  1.1060 -0.5149
 7712TIP3   OH223099   3.497   4.915   3.651  0.4845 -0.5390  0.1441
 7712TIP3    H123100   3.492   4.832   3.699 -1.3010 -0.5002  0.0726
 7712TIP3    H223101   3.526   4.978   3.717  1.4216 -1.1153  0.3064
 7713TIP3   OH223102   5.132   3.056   5.453  0.1347 -0.4761 -0.0769
 7713TIP3    H123103   5.180   3.081   5.532  0.6725  1.2583 -0.9099
 7713TIP3    H223104   5.199   3.033   5.390 -0.1431  0.6931 -0.8318
 7714TIP3   OH223105   4.505   1.876   5.573  0.4618 -0.2516 -0.0357
 7714TIP3    H123106   4.600   1.866   5.569  0.5117  0.5752 -1.3340
 7714TIP3    H223107   4.489   1.923   5.654  1.4125  1.9617 -1.0441
 7715TIP3   OH223108   2.915   6.484   4.465  0.1483 -0.0457 -0.0963
 7715TIP3    H123109   2.994   6.513   4.512  0.2724  1.4812 -1.1700
 7715TIP3    H223110   2.912   6.540   4.387 -1.7615 -0.3751 -0.3006
 7716TIP3   OH223111   4.003   1.938   3.206 -0.9905 -0.4451  0.2774
 7716TIP3    H123112   4.032   1.990   3.281 -1.4123  0.4250 -0.1498
 7716TIP3    H223113   3.940   1.876   3.244  0.9605 -2.0217  1.1243
 7717TIP3   OH223114   7.023   5.286   4.950  0.0396 -0.0780 -0.5748
 7717TIP3    H123115   7.028   5.374   4.911 -1.1284 -0.2460 -1.1457
 7717TIP3    H223116   6.967   5.297   5.026  1.1606 -0.0423  0.2817
 7718TIP3   OH223117   3.815   6.498   0.287  0.3916  0.5300  0.5560
 7718TIP3    H123118   3.737   6.520   0.338 -0.3021  0.5144 -0.4611
 7718TIP3    H223119   3.788   6.424   0.232  1.4403 -0.1461  0.9233
 7719TIP3   OH223120   3.425   2.348   4.031 -0.1862 -0.2544  0.1097
 7719TIP3    H123121   3.520   2.336   4.024  0.0594  1.0539  0.8050
 7719TIP3    H223122   3.415   2.419   4.095 -1.7105 -1.6576  1.4985
 7720TIP3   OH223123   3.049   5.672   4.879  0.2822 -0.0629  0.1924
 7720TIP3    H123124   3.026   5.600   4.938  0.8966 -0.7742 -0.4122
 7720TIP3    H223125   3.143   5.682   4.889 -0.0077  1.7442  1.4449
 7721TIP3   OH223126   1.121   4.541   0.602  0.2893  0.1266  0.3936
 7721TIP3    H123127   1.036   4.498   0.592  1.4940 -2.1569 -0.7777
 7721TIP3    H223128   1.135   4.587   0.519  0.3832  0.1538  0.4237
 7722TIP3   OH223129   6.371   4.803   1.053  0.5277  0.3349 -0.0793
 7722TIP3    H123130   6.409   4.724   1.090  0.9875  0.6606  0.1598
 7722TIP3    H223131   6.328   4.846   1.128  0.6761  0.5419 -0.1134
 7723TIP3   OH223132   3.375   2.306   0.708  0.2763  0.1393 -0.1073
 7723TIP3    H123133   3.402   2.300   0.617 -0.1106  1.7235 -0.3439
 7723TIP3    H223134   3.332   2.222   0.726 -2.2016  0.8403 -2.2374
 7724TIP3   OH223135   1.697   3.953   4.266 -0.0443  0.0432 -0.7221
 7724TIP3    H123136   1.749   4.033   4.270  0.8471 -0.5704  1.2806
 7724TIP3    H223137   1.752   3.891   4.218 -0.1995  0.2440 -1.1672
 7725TIP3   OH223138   4.122   5.808   0.165 -0.0374 -0.7040  0.3790
 7725TIP3    H123139   4.165   5.724   0.147  1.6006  0.3938 -1.0491
 7725TIP3    H223140   4.071   5.826   0.086  0.6764  0.2604  0.1222
 7726TIP3   OH223141   6.607   5.328   2.955  0.2230 -0.0131  0.3273
 7726TIP3    H123142   6.583   5.317   3.047  1.2730 -1.0447  0.5082
 7726TIP3    H223143   6.643   5.417   2.950 -1.6077  0.7734  0.4729
 7727TIP3   OH223144   5.270   6.779   3.741 -0.2518 -0.5325  0.1474
 7727TIP3    H123145   5.226   6.855   3.778  1.0001  0.7247 -0.8586
 7727TIP3    H223146   5.227   6.704   3.783 -2.1933  0.6653  0.4347
 7728TIP3   OH223147   2.467   4.315   4.195 -0.1875  0.2609  0.2356
 7728TIP3    H123148   2.381   4.357   4.196  0.6969  2.2614 -1.1841
 7728TIP3    H223149   2.523   4.375   4.244  0.6569 -0.4299  0.1497
 7729TIP3   OH223150   2.259   2.055   0.079  0.1656  0.2595  0.3589
 7729TIP3    H123151   2.243   2.077  -0.013  1.4343  0.2039  0.1039
 7729TIP3    H223152   2.188   1.996   0.103  1.0464 -1.5636 -1.2735
 7730TIP3   OH223153   4.623   3.686   5.698 -0.0727 -0.1570 -0.0383
 7730TIP3    H123154   4.603   3.646   5.613  0.8588 -2.0705  0.5668
 7730TIP3    H223155   4.538   3.702   5.738 -0.5062 -1.1614 -0.5287
 7731TIP3   OH223156   3.040   0.361   0.428  0.3336  0.3436 -0.3422
 7731TIP3    H123157   3.042   0.457   0.435 -0.5954  0.3143  0.5820
 7731TIP3    H223158   2.983   0.344   0.353 -0.8232  0.5094  0.4774
 7732TIP3   OH223159   1.151   1.477   2.467  0.3339 -0.3865  0.4702
 7732TIP3    H123160   1.215   1.549   2.474  0.7445 -0.3174 -2.5986
 7732TIP3    H223161   1.197   1.410   2.416 -0.8791 -1.8434  1.2423
 7733TIP3   OH223162   2.659   0.616   1.886 -0.4731  0.0409  0.0306
 7733TIP3    H123163   2.598   0.554   1.926 -0.3784 -0.8420 -1.1407
 7733TIP3    H223164   2.678   0.578   1.800  0.5102  1.1052 -0.2362
 7734TIP3   OH223165   5.181   2.359   3.858 -0.8683 -0.2165  0.0232
 7734TIP3    H123166   5.197   2.443   3.903 -0.3068 -0.0933 -0.3905
 7734TIP3    H223167   5.097   2.329   3.893 -2.4642  1.8244 -1.7540
 7735TIP3   OH223168   1.117   3.972   1.554  0.0448  1.0889  0.3516
 7735TIP3    H123169   1.114   3.876   1.554  1.4272  0.9945 -1.5248
 7735TIP3    H223170   1.051   3.998   1.489  0.2883  1.3673  0.2155
 7736TIP3   OH223171   4.772   6.189   0.681 -0.0864  0.0813  0.2094
 7736TIP3    H123172   4.816   6.250   0.622 -0.0816 -0.2918 -0.1857
 7736TIP3    H223173   4.843   6.134   0.716 -0.4299 -2.4637 -2.6849
 7737TIP3   OH223174   2.231   5.831   0.392  0.1127 -0.5085  0.0632
 7737TIP3    H123175   2.202   5.765   0.329 -0.6164 -0.7840  0.6705
 7737TIP3    H223176   2.295   5.884   0.344  0.0836 -1.1381 -0.6879
 7738TIP3   OH223177   0.405   2.785   3.269  0.0110 -0.2414  0.2099
 7738TIP3    H123178   0.467   2.758   3.201  0.2869  1.5194 -0.2988
 7738TIP3    H223179   0.371   2.869   3.238 -0.4006  0.2617  1.9166
 7739TIP3   OH223180   2.221   4.655   0.148  0.0885  0.4261 -0.2174
 7739TIP3    H123181   2.143   4.645   0.092 -0.3003  0.8570  0.2392
 7739TIP3    H223182   2.253   4.565   0.159 -1.5669 -0.0359  1.2893
 7740TIP3   OH223183   7.002   6.233   1.586  0.0839  0.2821 -0.4565
 7740TIP3    H123184   7.020   6.163   1.649 -0.9878 -2.1302 -2.6797
 7740TIP3    H223185   6.907   6.241   1.586  0.0460  0.0039 -1.9823
 7741TIP3   OH223186   1.138   2.942   1.553 -0.2084  0.5317  0.5139
 7741TIP3    H123187   1.179   2.990   1.481 -1.3849 -1.3615 -1.5426
 7741TIP3    H223188   1.062   2.996   1.577 -0.3707  0.7133 -0.3643
 7742TIP3   OH223189   0.177   0.547   0.928  0.8844  0.4140 -0.1177
 7742TIP3    H123190   0.136   0.500   0.855 -0.2147 -0.4969  1.0439
 7742TIP3    H223191   0.143   0.636   0.922 -1.7923 -0.4171  1.0894
 7743TIP3   OH223192   3.243   1.084   4.118  0.4689 -0.3333 -0.7742
 7743TIP3    H123193   3.311   1.128   4.168  0.7284  0.1956 -1.5617
 7743TIP3    H223194   3.164   1.091   4.172  0.8600 -0.2401 -0.2116
 7744TIP3   OH223195   5.969   4.647   5.027 -0.1961 -0.7930  1.0434
 7744TIP3    H123196   5.995   4.555   5.026  0.6055 -0.5903  1.7175
 7744TIP3    H223197   6.043   4.692   5.067 -0.8842  0.0469  1.4049
 7745TIP3   OH223198   1.918   1.723   4.622  0.1007  0.7203  0.0181
 7745TIP3    H123199   1.853   1.788   4.596 -0.2281 -0.1429 -1.4273
 7745TIP3    H223200   1.999   1.752   4.582 -0.1903 -0.0807 -1.2004
 7746TIP3   OH223201   2.666   5.345   2.001  0.2383  0.1966 -0.2642
 7746TIP3    H123202   2.585   5.369   1.957 -0.9438 -1.0300  1.1744
 7746TIP3    H223203   2.661   5.386   2.087  1.7989  1.2498 -0.6252
 7747TIP3   OH223204   6.199   0.914   3.573 -0.0356  0.2492  0.2920
 7747TIP3    H123205   6.256   0.890   3.647 -0.5341  0.0402  0.6156
 7747TIP3    H223206   6.154   0.993   3.602  0.6545  0.8602 -0.2701
 7748TIP3   OH223207   0.219   1.155   3.771 -0.0250  0.7015 -0.2781
 7748TIP3    H123208   0.178   1.230   3.728  0.2242  1.0952  0.1559
 7748TIP3    H223209   0.163   1.135   3.845 -0.8692 -0.4633 -1.1962
 7749TIP3   OH223210   0.263   1.956   5.380  0.0504  0.1068 -0.1900
 7749TIP3    H123211   0.354   1.941   5.406  0.8106  1.2711 -1.9807
 7749TIP3    H223212   0.243   1.883   5.321 -0.3827 -0.4498  0.6312
 7750TIP3   OH223213   0.440   5.220   5.151 -0.1992  0.2575 -0.6750
 7750TIP3    H123214   0.380   5.150   5.127 -0.3162 -0.4028  1.3175
 7750TIP3    H223215   0.401   5.299   5.114 -1.4107 -0.3914 -0.8282
 7751TIP3   OH223216   2.272   0.354   2.746 -0.6136  0.1132 -0.3222
 7751TIP3    H123217   2.214   0.418   2.787 -1.7649 -1.0876 -0.0335
 7751TIP3    H223218   2.255   0.364   2.652 -1.9529 -0.8303 -0.1957
 7752TIP3   OH223219   1.687   3.800   1.142  0.2058 -0.5430  0.1377
 7752TIP3    H123220   1.710   3.871   1.081  0.7460  0.2264  1.1980
 7752TIP3    H223221   1.660   3.728   1.086 -0.3178  0.4905 -0.9857
 7753TIP3   OH223222   6.401   6.468   1.154  0.0851 -0.4584 -0.3762
 7753TIP3    H123223   6.484   6.433   1.120  1.4502 -0.6291  2.7581
 7753TIP3    H223224   6.343   6.392   1.158  1.3270 -1.3813  1.5506
 7754TIP3   OH223225   5.040   5.120   1.141  0.7441  0.3478  0.0171
 7754TIP3    H123226   5.039   5.104   1.235 -0.2827 -1.9525 -0.3166
 7754TIP3    H223227   5.131   5.141   1.121  0.7134  2.3290  1.6847
 7755TIP3   OH223228   1.456   4.016   1.004 -0.4567  0.9768  0.6779
 7755TIP3    H123229   1.399   3.939   1.008  0.1647  0.5259  0.9461
 7755TIP3    H223230   1.545   3.981   1.012 -0.2092  1.8000  1.8361
 7756TIP3   OH223231   5.755   4.263   4.356  0.1215 -0.2721  0.2118
 7756TIP3    H123232   5.818   4.227   4.419  1.2414  0.7349 -0.2955
 7756TIP3    H223233   5.714   4.186   4.317 -0.5679 -0.9323  2.0958
 7757TIP3   OH223234   2.376   4.179   2.542  0.1040 -0.4092  0.5210
 7757TIP3    H123235   2.308   4.245   2.555 -0.9082 -1.4546  0.7040
 7757TIP3    H223236   2.330   4.095   2.551  1.2198 -1.1469 -0.3671
 7758TIP3   OH223237   0.423   0.337   3.737  0.2386 -0.1441  0.2029
 7758TIP3    H123238   0.495   0.340   3.800 -0.3233  1.2080  0.8125
 7758TIP3    H223239   0.454   0.389   3.663  0.6836 -1.2902 -0.4591
 7759TIP3   OH223240   2.395   5.619   5.273 -0.8045  0.3416 -0.0487
 7759TIP3    H123241   2.453   5.629   5.348 -0.8335 -1.2781  0.2396
 7759TIP3    H223242   2.450   5.638   5.197  0.1990 -1.2550  0.2101
 7760TIP3   OH223243   4.222   0.774   3.675 -0.0001  0.4844 -0.1512
 7760TIP3    H123244   4.278   0.737   3.607  1.0113  2.0217 -0.2036
 7760TIP3    H223245   4.157   0.826   3.627 -0.5975 -0.1182 -0.0163
 7761TIP3   OH223246   2.797   1.712   5.710 -0.1252 -0.0438  0.3488
 7761TIP3    H123247   2.705   1.684   5.708  0.6961 -3.0336 -0.4344
 7761TIP3    H223248   2.834   1.678   5.629  1.4098  2.3874 -0.0689
 7762TIP3   OH223249   4.970   5.299   0.882 -0.3838 -0.0109  0.0077
 7762TIP3    H123250   4.992   5.379   0.929 -1.7508 -0.3453  1.3024
 7762TIP3    H223251   5.037   5.291   0.814  1.3324  0.8103  1.5200
 7763TIP3   OH223252   6.447   1.597   0.049  0.5342  0.0905  0.2040
 7763TIP3    H123253   6.507   1.661   0.011 -0.1144 -0.3004 -1.5689
 7763TIP3    H223254   6.385   1.578  -0.021  1.8954 -4.0333 -0.1111
 7764TIP3   OH223255   5.708   3.356   2.628 -0.2314 -0.4077 -0.0791
 7764TIP3    H123256   5.707   3.418   2.556 -0.8243 -0.6579 -0.2840
 7764TIP3    H223257   5.704   3.411   2.707  1.8495 -0.0495 -0.1627
 7765TIP3   OH223258   0.902   5.217   2.370 -0.3855  0.6967  0.3111
 7765TIP3    H123259   0.914   5.156   2.443 -1.4043  1.6839  1.3583
 7765TIP3    H223260   0.891   5.161   2.293 -0.7482 -0.4243  1.1456
 7766TIP3   OH223261   1.323   3.666   0.157  0.9077 -0.0123 -0.1441
 7766TIP3    H123262   1.279   3.628   0.081  0.3918 -0.8498  0.5510
 7766TIP3    H223263   1.389   3.601   0.181  0.0194 -0.5170  1.0556
 7767TIP3   OH223264   5.710   2.651   0.558 -0.0743 -0.1129  0.2658
 7767TIP3    H123265   5.669   2.699   0.630 -1.4909  1.2574 -1.3777
 7767TIP3    H223266   5.687   2.700   0.480  2.1542 -1.0683 -1.0868
 7768TIP3   OH223267   2.702   2.096   2.125  0.3853 -0.5783 -0.1973
 7768TIP3    H123268   2.658   2.154   2.063 -0.2841  0.1276  0.9172
 7768TIP3    H223269   2.632   2.046   2.166  0.4345  1.1106  2.1679
 7769TIP3   OH223270   2.151   5.020   3.769  0.1067 -0.0540  0.1565
 7769TIP3    H123271   2.141   5.037   3.863 -0.3922 -4.7781  1.1819
 7769TIP3    H223272   2.065   4.988   3.741  0.3080  1.0473 -1.9211
 7770TIP3   OH223273   2.444   5.735   5.524  0.1243  0.2924 -0.0078
 7770TIP3    H123274   2.348   5.726   5.528 -0.0132  1.4029 -0.4132
 7770TIP3    H223275   2.463   5.809   5.582  0.5743  1.0552 -1.1133
 7771TIP3   OH223276   3.961   0.046   1.398 -0.1187 -0.0245 -0.2571
 7771TIP3    H123277   3.979   0.085   1.483 -1.9206 -0.3414  0.3210
 7771TIP3    H223278   3.976  -0.048   1.411 -0.2475 -0.0556 -0.3255
 7772TIP3   OH223279   3.918   4.618   5.737  0.0543 -0.1179  0.3944
 7772TIP3    H123280   3.968   4.540   5.762  0.2684 -0.1713 -0.1974
 7772TIP3    H223281   3.882   4.650   5.820  0.5502 -0.4369  0.7425
 7773TIP3   OH223282   6.298   6.183   3.612  0.1362 -0.3821  0.5082
 7773TIP3    H123283   6.390   6.198   3.634  0.6164 -0.7829 -1.0891
 7773TIP3    H223284   6.266   6.126   3.683  1.1137 -0.2608  1.0735
 7774TIP3   OH223285   0.938   5.117   1.455 -0.3448  0.4489 -0.2728
 7774TIP3    H123286   0.901   5.160   1.532 -0.4212  0.4849 -0.3302
 7774TIP3    H223287   0.903   5.027   1.459 -0.0267  0.3330 -0.0439
 7775TIP3   OH223288   6.877   4.782   3.883  0.1189 -0.6672  0.1999
 7775TIP3    H123289   6.867   4.702   3.933 -0.1628 -0.2166  0.8858
 7775TIP3    H223290   6.858   4.852   3.946  0.1054 -0.0768 -0.4468
 7776TIP3   OH223291   6.562   2.571   1.393 -0.1714  0.4310 -0.2077
 7776TIP3    H123292   6.471   2.546   1.411  0.5448 -1.9446  0.5385
 7776TIP3    H223293   6.581   2.534   1.307  0.8698 -1.6989  0.8527
 7777TIP3   OH223294   4.996   5.032   2.678 -0.0068 -0.6491 -0.3162
 7777TIP3    H123295   5.015   4.953   2.628 -1.6886 -1.8199  0.7645
 7777TIP3    H223296   4.904   5.050   2.660 -0.3585 -0.4770  1.4419
 7778TIP3   OH223297   5.446   2.122   0.322  0.1545  0.0789  0.3250
 7778TIP3    H123298   5.438   2.202   0.270  0.1424  0.5156  0.9931
 7778TIP3    H223299   5.541   2.110   0.333  0.1953 -0.5464 -0.6011
 7779TIP3   OH223300   5.669   5.663   4.585 -0.3969  0.8331  0.7783
 7779TIP3    H123301   5.596   5.614   4.547  0.5542  0.9079 -1.2439
 7779TIP3    H223302   5.735   5.596   4.605  0.6619  1.1397 -1.4285
 7780TIP3   OH223303   5.429   2.683   4.271 -0.1131  0.2263 -0.0618
 7780TIP3    H123304   5.433   2.697   4.177 -1.1793 -0.9622 -0.3052
 7780TIP3    H223305   5.419   2.771   4.308 -1.3892  0.5921 -1.1864
 7781TIP3   OH223306   6.658   5.743   5.361  0.2729 -0.2064 -0.0678
 7781TIP3    H123307   6.691   5.833   5.355  2.0623 -0.8485 -0.2654
 7781TIP3    H223308   6.672   5.719   5.453  1.5267 -0.9011 -0.4282
 7782TIP3   OH223309   3.794   2.264   1.514  0.3065 -0.4882 -1.2749
 7782TIP3    H123310   3.846   2.334   1.553 -0.9631 -0.5753  0.7204
 7782TIP3    H223311   3.784   2.290   1.422 -0.3197  2.0931 -0.5565
 7783TIP3   OH223312   0.886   2.336   5.545 -0.6462  0.2080 -0.6922
 7783TIP3    H123313   0.848   2.417   5.579  2.3818  1.1194  0.9195
 7783TIP3    H223314   0.839   2.267   5.592 -3.1592  0.9367 -1.9482
 7784TIP3   OH223315   1.655   3.155   5.107 -0.2416 -0.0512 -0.0399
 7784TIP3    H123316   1.701   3.119   5.183  0.5340 -0.1649 -0.5555
 7784TIP3    H223317   1.667   3.250   5.115 -1.1850  0.0282  0.6164
 7785TIP3   OH223318   2.945   2.592   1.763 -0.2225 -0.3292 -0.2871
 7785TIP3    H123319   2.929   2.658   1.695  0.4377 -0.4865 -0.6085
 7785TIP3    H223320   2.884   2.614   1.833 -0.9988 -0.2239 -0.9717
 7786TIP3   OH223321   5.737   0.511   4.127 -0.1684  0.1572  0.0133
 7786TIP3    H123322   5.704   0.550   4.046  1.6475  0.3921 -0.6478
 7786TIP3    H223323   5.832   0.525   4.124  0.0486 -0.7128  1.7110
 7787TIP3   OH223324   6.257   5.025   4.188 -0.1704 -0.4454  0.3479
 7787TIP3    H123325   6.179   5.002   4.138 -1.0560 -1.0930  1.9487
 7787TIP3    H223326   6.244   5.116   4.213 -1.3349 -1.0372  2.1056
 7788TIP3   OH223327   1.254   6.767   5.258 -0.4899 -0.0535  0.0836
 7788TIP3    H123328   1.161   6.748   5.266 -0.8574  0.8607 -1.6901
 7788TIP3    H223329   1.262   6.816   5.177  1.6712 -0.9095 -0.2774
 7789TIP3   OH223330   1.789   3.038   4.309 -0.3194 -0.2207 -0.2878
 7789TIP3    H123331   1.792   2.960   4.254 -0.2528 -0.7114  0.3945
 7789TIP3    H223332   1.812   3.110   4.250  0.6267 -0.8419 -0.7012
 7790TIP3   OH223333   3.648   1.549   2.990 -0.2086  1.2158 -0.3795
 7790TIP3    H123334   3.663   1.472   3.045  0.6974  0.8655 -1.0917
 7790TIP3    H223335   3.553   1.556   2.983 -0.3005  0.3057 -0.1090
 7791TIP3   OH223336   5.512   3.924   4.881  0.0274 -0.2464 -0.0636
 7791TIP3    H123337   5.524   3.974   4.962  1.9714 -0.1029 -0.3927
 7791TIP3    H223338   5.476   3.987   4.819 -0.2223 -0.0172  0.3075
 7792TIP3   OH223339   2.673   5.207   1.659 -0.3868 -0.1735  0.6095
 7792TIP3    H123340   2.604   5.160   1.612  0.6554 -0.2769 -0.8781
 7792TIP3    H223341   2.734   5.236   1.591 -0.0111  1.7066  1.6733
 7793TIP3   OH223342   5.595   5.781   5.775  0.4414 -0.3042 -0.3440
 7793TIP3    H123343   5.643   5.864   5.777 -0.2759  0.1103 -0.1872
 7793TIP3    H223344   5.531   5.792   5.705  0.2058 -0.6553 -0.1855
 7794TIP3   OH223345   2.508   3.588   0.943  0.4556  1.0312  0.0415
 7794TIP3    H123346   2.471   3.501   0.960  0.8617  0.7176 -0.6495
 7794TIP3    H223347   2.603   3.572   0.939  0.7834  1.9292  2.5407
 7795TIP3   OH223348   3.358   6.159   4.981 -0.5720  0.6255 -0.2837
 7795TIP3    H123349   3.395   6.206   4.906 -0.7269  1.1428 -0.0458
 7795TIP3    H223350   3.273   6.202   4.996 -0.2998  0.8928  0.5263
 7796TIP3   OH223351   0.955   1.216   5.582 -0.1735 -0.1701  0.6153
 7796TIP3    H123352   0.893   1.180   5.646  0.8625 -3.8312 -0.2239
 7796TIP3    H223353   1.041   1.200   5.621  0.4022  2.0920  0.4127
 7797TIP3   OH223354   0.432   0.034   0.633  0.5761 -0.4785 -0.0876
 7797TIP3    H123355   0.347   0.074   0.648  0.0078 -1.6495 -0.0890
 7797TIP3    H223356   0.492   0.082   0.691 -0.0063  0.5548 -0.3110
 7798TIP3   OH223357   6.187   1.808   0.216 -0.4901 -0.3118  0.2287
 7798TIP3    H123358   6.126   1.880   0.225 -1.6223 -1.3353  1.1496
 7798TIP3    H223359   6.273   1.847   0.232 -0.9850  0.9513 -0.0601
 7799TIP3   OH223360   6.993   4.693   0.474  0.7386  0.3111  0.0492
 7799TIP3    H123361   7.041   4.668   0.395  1.0878  0.4528  0.2125
 7799TIP3    H223362   7.053   4.671   0.546 -0.0042 -0.8592  0.3475
 7800TIP3   OH223363   7.142   2.201   3.227  0.0924 -0.0518 -0.7000
 7800TIP3    H123364   7.049   2.208   3.251 -0.1578  0.5128 -1.7383
 7800TIP3    H223365   7.170   2.292   3.216  0.4789 -0.2454 -1.4008
 7801TIP3   OH223366   3.447   6.120   0.145 -0.2979 -0.2290 -0.2048
 7801TIP3    H123367   3.362   6.084   0.120  1.2603 -4.4910 -0.1533
 7801TIP3    H223368   3.499   6.119   0.064  0.1879  0.8393  0.0710
 7802TIP3   OH223369   6.778   2.688   3.289 -0.2939 -0.0649  0.4948
 7802TIP3    H123370   6.726   2.707   3.211  0.3827 -0.8286 -0.1643
 7802TIP3    H223371   6.771   2.767   3.342  0.3535  1.0446 -0.9738
 7803TIP3   OH223372   6.445   5.795   4.482 -0.9116 -0.2818 -0.2705
 7803TIP3    H123373   6.485   5.759   4.403 -2.2884 -1.4046 -0.5044
 7803TIP3    H223374   6.430   5.887   4.461 -2.0274 -0.7421 -1.6685
 7804TIP3   OH223375   5.029   0.772   3.797  0.3556  0.1105 -0.3865
 7804TIP3    H123376   4.942   0.804   3.777 -0.6956 -3.4549 -2.5469
 7804TIP3    H223377   5.069   0.757   3.711  1.6659 -1.6565  0.4679
 7805TIP3   OH223378   2.364   3.584   2.526 -0.0020  0.8121 -0.0946
 7805TIP3    H123379   2.314   3.506   2.500  3.5470 -1.0899 -2.0332
 7805TIP3    H223380   2.311   3.658   2.496 -1.5494 -1.0522 -2.2638
 7806TIP3   OH223381   0.718   2.949   5.118  0.6961 -0.0646 -0.0745
 7806TIP3    H123382   0.697   2.938   5.026  1.2524 -0.3822 -0.1670
 7806TIP3    H223383   0.777   3.024   5.121  2.4928 -1.3916 -0.2629
 7807TIP3   OH223384   2.661   6.576   2.607  0.0001 -0.0825 -0.1667
 7807TIP3    H123385   2.725   6.635   2.567 -1.0468  1.1590 -0.0844
 7807TIP3    H223386   2.647   6.612   2.695 -2.2235  0.8907 -0.8387
 7808TIP3   OH223387   4.729   0.224   3.047 -0.5273 -0.8930  0.1893
 7808TIP3    H123388   4.814   0.227   3.091  1.0927  2.4139 -2.6268
 7808TIP3    H223389   4.667   0.255   3.113  1.2237  0.7458  1.1956
 7809TIP3   OH223390   4.787   1.899   3.762 -0.2979 -0.0714 -0.0033
 7809TIP3    H123391   4.754   1.901   3.852  0.7364 -1.7859  0.4749
 7809TIP3    H223392   4.793   1.805   3.742 -1.2902  0.2877 -2.1762
 7810TIP3   OH223393   0.462   6.472   0.929 -0.1309  0.2981 -0.1099
 7810TIP3    H123394   0.461   6.532   0.855 -1.1340 -0.8180 -1.0379
 7810TIP3    H223395   0.391   6.502   0.985 -0.7534 -0.1249 -0.6654
 7811TIP3   OH223396   1.976   4.203   5.821 -0.5384 -0.2222 -0.1167
 7811TIP3    H123397   1.997   4.117   5.784 -0.0996 -1.2564  2.3367
 7811TIP3    H223398   2.038   4.263   5.778 -0.4203 -1.2219 -1.4047
 7812TIP3   OH223399   4.195   6.362   0.117 -0.1110  0.0714  0.0921
 7812TIP3    H123400   4.134   6.304   0.071 -0.8018  0.1360  0.8916
 7812TIP3    H223401   4.282   6.328   0.096 -0.2792  1.1222 -2.6218
 7813TIP3   OH223402   4.376   2.195   2.973 -0.0393  0.0844  0.6441
 7813TIP3    H123403   4.461   2.228   2.945 -0.1012  1.5058  2.0106
 7813TIP3    H223404   4.339   2.265   3.026 -2.4183 -0.1745 -0.5378
 7814TIP3   OH223405   4.088   1.670   5.458  1.0310 -0.4494  0.1167
 7814TIP3    H123406   4.038   1.588   5.458 -1.4080  0.9568  0.4843
 7814TIP3    H223407   4.176   1.643   5.483 -0.1031 -2.7488  2.1264
 7815TIP3   OH223408   3.590   0.991   3.723  0.2704 -0.1878 -0.1079
 7815TIP3    H123409   3.546   1.016   3.804  1.0003  0.1319  0.1992
 7815TIP3    H223410   3.557   1.053   3.658 -0.0934 -0.2546  0.0133
 7816TIP3   OH223411   0.769   4.788   1.750 -0.5362  0.2709 -0.2497
 7816TIP3    H123412   0.788   4.881   1.744 -0.4276  0.2487 -0.2464
 7816TIP3    H223413   0.810   4.750   1.672  1.2137 -0.0807  0.7761
 7817TIP3   OH223414   1.585   1.162   1.686 -0.1357  0.4386  0.2374
 7817TIP3    H123415   1.527   1.238   1.674  0.7294  1.2907  1.3094
 7817TIP3    H223416   1.655   1.176   1.623 -1.8124 -1.4317 -2.2553
 7818TIP3   OH223417   6.655   0.278   4.219  0.0348 -0.3098  0.6315
 7818TIP3    H123418   6.728   0.294   4.160 -0.3659  2.0957  0.7029
 7818TIP3    H223419   6.696   0.259   4.303  0.5761 -0.7020  0.2817
 7819TIP3   OH223420   1.792   5.626   3.343  0.0134  0.1634 -0.0690
 7819TIP3    H123421   1.844   5.563   3.293 -0.7663 -0.1413 -0.5268
 7819TIP3    H223422   1.819   5.711   3.310 -0.5223 -0.0333 -1.0809
 7820TIP3   OH223423   4.481   6.069   5.671 -0.2047  0.5684 -0.1647
 7820TIP3    H123424   4.434   6.063   5.588  0.6136  0.9847 -0.6657
 7820TIP3    H223425   4.432   6.133   5.722  0.6951  2.2200 -1.2940
 7821TIP3   OH223426   2.816   2.040   0.692 -0.3302  0.5554 -0.5010
 7821TIP3    H123427   2.851   2.126   0.669  0.9316  0.1241 -0.2767
 7821TIP3    H223428   2.724   2.044   0.667 -0.2039  1.8452 -0.8252
 7822TIP3   OH223429   3.039   6.723   0.408  0.1095 -0.5195  0.1284
 7822TIP3    H123430   3.059   6.697   0.318 -0.1418 -2.0948  0.4932
 7822TIP3    H223431   3.124   6.742   0.447  0.1508  1.1374 -0.6920
 7823TIP3   OH223432   2.859   2.274   2.951 -0.4352  0.0465 -0.0961
 7823TIP3    H123433   2.848   2.243   3.041 -0.7536  1.5042  0.4113
 7823TIP3    H223434   2.817   2.208   2.897 -0.2406 -0.8596  0.8296
 7824TIP3   OH223435   0.459   5.020   1.961  0.5673  0.8197  0.2612
 7824TIP3    H123436   0.385   5.045   2.016  0.4411 -0.6465  0.7922
 7824TIP3    H223437   0.494   5.103   1.929 -1.7858  1.5086 -0.6901
 7825TIP3   OH223438   7.075   5.695   2.967  0.7396  0.7543 -0.2156
 7825TIP3    H123439   7.132   5.731   3.035  1.0385 -3.0059  1.7951
 7825TIP3    H223440   7.120   5.614   2.940 -1.6251 -0.1819 -1.5865
 7826TIP3   OH223441   1.571   2.139   2.636  0.4724 -0.0492 -0.4939
 7826TIP3    H123442   1.571   2.235   2.640 -0.2639 -0.0556 -0.0911
 7826TIP3    H223443   1.663   2.115   2.636  0.8273  0.5335  3.7074
 7827TIP3   OH223444   2.300   1.177   3.476  0.0843 -0.6920  0.0392
 7827TIP3    H123445   2.266   1.146   3.392  2.4264 -0.7317 -0.9643
 7827TIP3    H223446   2.255   1.260   3.490 -2.4936 -2.0048  0.2588
 7828TIP3   OH223447   6.463   5.156   3.511  0.0130  0.0126  0.3540
 7828TIP3    H123448   6.511   5.128   3.588 -1.4635  0.2156  1.3944
 7828TIP3    H223449   6.498   5.102   3.440  2.8597  1.2821  0.6793
 7829TIP3   OH223450   2.728   1.687   5.035 -0.2353 -0.1593  0.1564
 7829TIP3    H123451   2.759   1.729   5.115 -3.3357  1.6385  0.5710
 7829TIP3    H223452   2.726   1.758   4.970 -0.7917 -0.8214 -0.5704
 7830TIP3   OH223453   5.946   3.972   4.960 -0.1669  0.2310  0.4861
 7830TIP3    H123454   5.974   3.909   4.894 -1.9729  0.3533 -0.4549
 7830TIP3    H223455   5.871   3.931   5.001 -0.0145  0.8461  1.3976
 7831TIP3   OH223456   6.734   0.369   0.114  0.0715  0.2844  0.0543
 7831TIP3    H123457   6.735   0.348   0.020 -2.3047 -0.0269  0.0418
 7831TIP3    H223458   6.791   0.303   0.153 -0.3421 -0.7412 -0.9856
 7832TIP3   OH223459   3.553   2.292   3.280 -0.0684 -0.0915  0.3908
 7832TIP3    H123460   3.549   2.275   3.374  0.1129 -1.0316  0.2439
 7832TIP3    H223461   3.646   2.289   3.259 -0.2232 -2.4873 -0.2309
 7833TIP3   OH223462   6.878   0.897   2.854 -0.0403  0.0006 -0.2371
 7833TIP3    H123463   6.852   0.986   2.831  0.1127  0.0322 -0.2880
 7833TIP3    H223464   6.800   0.844   2.837  0.2972 -0.0930 -1.5382
 7834TIP3   OH223465   1.189   4.198   2.216 -0.2344 -0.6978 -0.0217
 7834TIP3    H123466   1.278   4.199   2.253 -0.1698 -1.0503 -0.1659
 7834TIP3    H223467   1.201   4.224   2.124 -0.3615 -0.0990  0.1278
 7835TIP3   OH223468   1.747   6.104   5.379  0.1613 -0.0285 -0.1420
 7835TIP3    H123469   1.746   6.143   5.292  0.2124 -0.2190 -0.2300
 7835TIP3    H223470   1.807   6.160   5.430  1.4007 -0.8226 -0.6725
 7836TIP3   OH223471   0.870   3.623   3.395 -0.5029 -0.2878 -0.3149
 7836TIP3    H123472   0.896   3.606   3.305 -0.5723 -1.1554 -0.1765
 7836TIP3    H223473   0.909   3.552   3.445 -0.5789  0.1134  0.3238
 7837TIP3   OH223474   2.767   2.268   0.512  0.5146 -0.3078  0.1095
 7837TIP3    H123475   2.812   2.337   0.464  1.0031 -1.3837 -1.0163
 7837TIP3    H223476   2.720   2.218   0.445 -2.9148  1.0687  1.2541
 7838TIP3   OH223477   3.934   3.347   5.006  0.0791 -0.2044  0.1228
 7838TIP3    H123478   3.970   3.403   4.937  1.0469 -2.3146 -1.1951
 7838TIP3    H223479   3.960   3.390   5.087  0.5027  1.3981 -0.8131
 7839TIP3   OH223480   6.779   2.808   4.078 -0.2654 -0.3692  0.0740
 7839TIP3    H123481   6.778   2.880   4.142  1.0518 -1.4392  1.3458
 7839TIP3    H223482   6.701   2.757   4.099  0.7370 -1.3290  1.5935
 7840TIP3   OH223483   2.352   2.307   5.599  0.1745  0.4238 -0.1887
 7840TIP3    H123484   2.364   2.402   5.590 -1.6525  0.6305 -0.9316
 7840TIP3    H223485   2.428   2.278   5.650 -0.6211  2.7190  2.5554
 7841TIP3   OH223486   0.216   3.554   3.072 -0.2405  0.3966 -0.0301
 7841TIP3    H123487   0.222   3.644   3.102 -1.0052  1.4449 -2.7501
 7841TIP3    H223488   0.302   3.516   3.091 -0.5358  0.9747  2.9966
 7842TIP3   OH223489   2.326   4.192   3.163  0.7574  0.2042 -0.1031
 7842TIP3    H123490   2.261   4.181   3.233 -0.1278 -0.1101 -0.9456
 7842TIP3    H223491   2.402   4.142   3.193  0.1229 -0.5425  0.3153
 7843TIP3   OH223492   2.396   5.790   1.339  0.2244  0.4261 -0.3233
 7843TIP3    H123493   2.450   5.749   1.271 -0.7237  2.0523 -2.1696
 7843TIP3    H223494   2.309   5.751   1.326  0.0788  0.6117  0.0921
 7844TIP3   OH223495   0.336   0.493   4.473 -0.3464 -0.2597  0.9042
 7844TIP3    H123496   0.261   0.454   4.428 -0.5291  0.4791  0.5657
 7844TIP3    H223497   0.304   0.515   4.560 -0.4712 -0.1064  0.8184
 7845TIP3   OH223498   0.123   2.924   3.393  0.4890  0.5203  0.3303
 7845TIP3    H123499   0.139   2.998   3.334 -1.7447  1.5942  0.9952
 7845TIP3    H223500   0.157   2.953   3.477 -0.7657  0.9866  0.6894
 7846TIP3   OH223501   4.962   2.211   1.857 -0.3331 -0.4958 -0.1229
 7846TIP3    H123502   4.882   2.178   1.898 -0.5300  0.8318  0.6181
 7846TIP3    H223503   4.969   2.301   1.888  0.8692 -0.2483 -1.0533
 7847TIP3   OH223504   0.758   0.381   2.501 -0.0571 -0.5400 -1.1771
 7847TIP3    H123505   0.837   0.422   2.466 -0.6624  0.9446 -0.8714
 7847TIP3    H223506   0.696   0.453   2.512 -1.0442 -1.4894 -0.2605
 7848TIP3   OH223507   1.156   4.312   4.286  0.1866  0.0761 -0.0090
 7848TIP3    H123508   1.176   4.403   4.306  2.4571 -0.5416  0.9860
 7848TIP3    H223509   1.240   4.275   4.258 -0.8258 -1.5553 -1.0761
 7849TIP3   OH223510   2.594   2.884   3.913  0.1162  0.0163  0.2430
 7849TIP3    H123511   2.590   2.979   3.911  1.0551  0.1782  2.7072
 7849TIP3    H223512   2.531   2.856   3.848  1.1477  2.3013 -1.8953
 7850TIP3   OH223513   2.785   2.761   1.927 -0.7557  0.2862 -1.0507
 7850TIP3    H123514   2.878   2.781   1.939 -0.9492  0.9978 -0.7053
 7850TIP3    H223515   2.763   2.801   1.843 -0.6388 -0.3051 -1.3704
 7851TIP3   OH223516   2.185   6.436   0.729  0.3268 -0.6313 -0.2660
 7851TIP3    H123517   2.122   6.369   0.754  0.8387 -1.4639 -1.1343
 7851TIP3    H223518   2.271   6.397   0.748  0.6610 -0.5758 -1.5038
 7852TIP3   OH223519   0.411   0.961   1.019 -0.1991  0.2176 -0.0819
 7852TIP3    H123520   0.468   0.888   0.998 -0.5230 -0.6802  2.0168
 7852TIP3    H223521   0.323   0.925   1.016 -0.4471  0.7984 -0.0558
 7853TIP3   OH223522   6.346   6.330   4.418 -0.7063 -0.1294 -0.6508
 7853TIP3    H123523   6.257   6.365   4.407  0.1690  2.4806 -0.2510
 7853TIP3    H223524   6.402   6.394   4.374  0.9628 -2.0574 -1.4601
 7854TIP3   OH223525   2.943   3.176   3.703  0.0645 -0.0860 -0.8899
 7854TIP3    H123526   2.937   3.237   3.630 -0.4042 -0.2991 -1.0330
 7854TIP3    H223527   2.862   3.125   3.699 -0.2518  0.2939  0.1249
 7855TIP3   OH223528   1.923   1.675   0.606 -0.0674 -0.3721 -0.2841
 7855TIP3    H123529   1.985   1.687   0.535 -0.0354 -1.3805 -0.4293
 7855TIP3    H223530   1.972   1.628   0.674  0.1567  1.2764  0.7708
 7856TIP3   OH223531   1.562   5.632   0.108 -0.5530  0.1925 -0.0083
 7856TIP3    H123532   1.509   5.648   0.186  0.2125  0.8776  0.3905
 7856TIP3    H223533   1.649   5.609   0.143  0.0049  1.2714 -0.6483
 7857TIP3   OH223534   5.198   5.189   0.376 -0.6122 -0.3725 -0.3284
 7857TIP3    H123535   5.234   5.260   0.324 -0.3450  0.9949  1.6079
 7857TIP3    H223536   5.274   5.140   0.407 -0.6330  0.1026  0.4920
 7858TIP3   OH223537   3.965   2.202   5.301 -0.0452 -0.2588  0.3390
 7858TIP3    H123538   3.876   2.211   5.334  0.5899 -1.3926  2.5943
 7858TIP3    H223539   3.980   2.107   5.297  0.2443 -0.1870 -2.5751
 7859TIP3   OH223540   7.057   0.355   5.265  0.1968  0.1636  0.0049
 7859TIP3    H123541   7.000   0.347   5.188  0.3135  1.5718 -0.2490
 7859TIP3    H223542   7.118   0.425   5.242  1.2673 -0.4844  0.7643
 7860TIP3   OH223543   7.036   5.669   1.415 -0.1618 -0.2934 -0.0383
 7860TIP3    H123544   6.977   5.658   1.490 -0.6668  3.6660  0.3712
 7860TIP3    H223545   6.978   5.681   1.340  0.1006  1.4476 -0.0055
 7861TIP3   OH223546   5.174   1.415   2.531 -0.2017  0.1440  0.0138
 7861TIP3    H123547   5.112   1.412   2.603 -2.2358  1.7400 -1.5150
 7861TIP3    H223548   5.239   1.480   2.558 -0.8482  0.5979  0.5102
 7862TIP3   OH223549   6.715   0.117   5.335 -0.1538 -0.1515 -0.2723
 7862TIP3    H123550   6.731   0.211   5.322  1.7917 -0.5946 -1.4668
 7862TIP3    H223551   6.632   0.114   5.384 -0.5702  2.1527 -0.6869
 7863TIP3   OH223552   5.959   6.101   0.900 -0.5523  0.6143  0.9811
 7863TIP3    H123553   5.974   6.178   0.955 -0.5182  0.6155  0.9700
 7863TIP3    H223554   5.970   6.132   0.810 -0.5342  0.5959  0.9767
 7864TIP3   OH223555   2.207   0.514   3.559  0.2338  0.4693 -0.4024
 7864TIP3    H123556   2.112   0.507   3.555  0.2388  0.4811 -0.5757
 7864TIP3    H223557   2.238   0.462   3.485  0.4676 -1.6110  1.0662
 7865TIP3   OH223558   2.611   1.818   3.085  0.4215 -0.3106  0.1417
 7865TIP3    H123559   2.608   1.797   2.991 -0.0767  2.1998 -0.4717
 7865TIP3    H223560   2.698   1.856   3.098 -0.1937  1.1060  0.2475
 7866TIP3   OH223561   4.856   3.282   0.500  0.1361  0.5950 -0.4149
 7866TIP3    H123562   4.909   3.270   0.422  0.2466  0.2175 -0.2836
 7866TIP3    H223563   4.779   3.329   0.470 -0.5363 -0.8533 -1.0494
 7867TIP3   OH223564   5.834   2.626   0.199 -0.3625  0.3634  0.1835
 7867TIP3    H123565   5.740   2.611   0.191 -0.3055  0.1460 -0.0667
 7867TIP3    H223566   5.841   2.710   0.245 -0.6939 -0.5643  2.0353
 7868TIP3   OH223567   0.290   4.990   3.037  0.1875  0.2547 -0.3715
 7868TIP3    H123568   0.273   4.951   2.951 -0.9444  1.1130 -0.5640
 7868TIP3    H223569   0.205   5.021   3.066  0.7657  1.0257  0.5438
 7869TIP3   OH223570   1.653   4.488   1.458  0.1638 -0.2217 -0.6512
 7869TIP3    H123571   1.665   4.447   1.543  2.3710  0.1678 -0.7208
 7869TIP3    H223572   1.598   4.427   1.409 -0.5731 -0.7648  0.8058
 7870TIP3   OH223573   7.014   3.329   2.865  0.2390 -0.2547  0.0277
 7870TIP3    H123574   7.017   3.317   2.960  0.4739 -1.0365 -0.0700
 7870TIP3    H223575   6.922   3.318   2.843 -0.1353  1.7969  0.3740
 7871TIP3   OH223576   0.855   4.969   3.415 -0.2600 -0.2568 -0.0861
 7871TIP3    H123577   0.880   5.008   3.499 -0.2236 -1.3293  0.4088
 7871TIP3    H223578   0.905   4.887   3.411 -0.2782 -0.2251 -1.1497
 7872TIP3   OH223579   5.542   3.407   1.970 -0.0620  0.8386  0.3302
 7872TIP3    H123580   5.511   3.479   2.025 -1.1294 -0.3502  1.3588
 7872TIP3    H223581   5.471   3.390   1.909 -0.0929  0.2577  0.5148
 7873TIP3   OH223582   4.901   6.768   2.590 -0.0582  0.2876 -0.6663
 7873TIP3    H123583   4.964   6.706   2.554 -1.9272 -1.5588 -0.9708
 7873TIP3    H223584   4.896   6.837   2.524  0.0613 -0.6504 -1.7021
 7874TIP3   OH223585   1.607   2.345   2.254  0.0792 -0.7781  0.6718
 7874TIP3    H123586   1.672   2.357   2.185 -0.6778 -1.2185 -0.1314
 7874TIP3    H223587   1.656   2.359   2.335  0.2768  3.3248  0.0670
 7875TIP3   OH223588   2.529   4.080   5.710  0.5355  0.0605  0.3126
 7875TIP3    H123589   2.512   4.015   5.778 -1.8256 -0.8367 -0.9833
 7875TIP3    H223590   2.474   4.155   5.733  1.6380  0.7688  0.6850
 7876TIP3   OH223591   0.824   1.828   3.391  0.0986 -0.2575 -0.3980
 7876TIP3    H123592   0.781   1.759   3.340  1.2810 -1.1234 -0.2836
 7876TIP3    H223593   0.753   1.881   3.425 -0.8322 -1.2019 -0.8158
 7877TIP3   OH223594   2.654   4.117   0.965 -0.1575 -0.0295 -0.4514
 7877TIP3    H123595   2.698   4.046   0.918 -1.2708 -0.4724 -0.8523
 7877TIP3    H223596   2.569   4.081   0.989 -1.3235  1.6220 -1.9032
 7878TIP3   OH223597   6.706   4.849   1.845 -0.0585 -0.0276  1.4435
 7878TIP3    H123598   6.764   4.861   1.921  1.2928 -0.3453  0.5068
 7878TIP3    H223599   6.702   4.935   1.804  2.0206 -0.5387 -0.0071
 7879TIP3   OH223600   4.550   0.931   1.979  0.4735 -0.1965  0.2136
 7879TIP3    H123601   4.638   0.893   1.972  1.5667  2.3071 -1.0823
 7879TIP3    H223602   4.493   0.856   1.997  2.6431 -2.1408 -0.4260
 7880TIP3   OH223603   0.314   4.847   5.727  0.1950  0.2847 -0.8047
 7880TIP3    H123604   0.369   4.908   5.776  0.2819  0.3154 -0.9402
 7880TIP3    H223605   0.364   4.828   5.648 -0.7136  1.6095 -1.7310
 7881TIP3   OH223606   1.812   5.098   0.178 -0.2219 -0.1739  0.1418
 7881TIP3    H123607   1.808   5.044   0.256  1.5877  0.0474  0.4416
 7881TIP3    H223608   1.811   5.035   0.105  0.5210 -0.5551  0.4444
 7882TIP3   OH223609   5.940   3.623   3.308 -0.2095 -0.5852 -0.3216
 7882TIP3    H123610   6.015   3.679   3.288 -1.3652  0.6201 -1.5254
 7882TIP3    H223611   5.949   3.548   3.249 -0.8911  0.4605 -1.8007
 7883TIP3   OH223612   2.399   6.350   0.053  0.5492  0.5679 -0.0760
 7883TIP3    H123613   2.416   6.437   0.016 -0.6178  1.7279  1.9022
 7883TIP3    H223614   2.311   6.328   0.020  0.6379  0.3737 -0.1788
 7884TIP3   OH223615  -0.016   3.874   4.145 -0.3049  0.2641  0.2894
 7884TIP3    H123616   0.079   3.887   4.148 -0.1723 -0.8410  1.5959
 7884TIP3    H223617  -0.044   3.875   4.237 -1.5674  0.5980 -0.0724
 7885TIP3   OH223618   3.974   5.250   0.194  0.4100  0.0279 -0.3749
 7885TIP3    H123619   4.042   5.269   0.129 -0.1968 -0.0299 -1.0443
 7885TIP3    H223620   3.917   5.186   0.151  0.0106 -0.0218  0.2196
 7886TIP3   OH223621   2.912   4.916   0.083 -0.0248 -0.3204 -0.0242
 7886TIP3    H123622   2.839   4.860   0.058  0.1491  0.2556 -1.9060
 7886TIP3    H223623   2.979   4.855   0.113 -0.2853 -1.0397 -0.8728
 7887TIP3   OH223624   1.798   6.538   1.641 -0.0992  0.1131 -0.2074
 7887TIP3    H123625   1.730   6.602   1.621 -1.3365 -0.8836  0.6348
 7887TIP3    H223626   1.851   6.580   1.709 -1.4978 -0.0870  1.0688
 7888TIP3   OH223627   2.530   5.284   5.308 -0.7578  0.4155 -0.2994
 7888TIP3    H123628   2.487   5.294   5.223 -2.4699 -1.2169  0.3077
 7888TIP3    H223629   2.494   5.203   5.343  0.8689  0.3889  1.4562
 7889TIP3   OH223630   5.274   1.719   3.767 -0.1243 -0.0067 -0.7356
 7889TIP3    H123631   5.264   1.646   3.827 -0.9340  1.1235  0.5640
 7889TIP3    H223632   5.347   1.694   3.710  0.5393 -1.1949  0.5873
 7890TIP3   OH223633   0.158   2.292   4.474  0.3655 -0.4634 -0.1935
 7890TIP3    H123634   0.145   2.329   4.387 -0.3449 -0.6142 -0.1637
 7890TIP3    H223635   0.069   2.278   4.508  0.6325 -0.0789  0.6972
 7891TIP3   OH223636   0.654   2.705   0.740 -0.1659  0.2224  0.0464
 7891TIP3    H123637   0.624   2.623   0.779 -0.8748  1.2577  1.8011
 7891TIP3    H223638   0.747   2.692   0.723  0.2365 -0.2476  2.3127
 7892TIP3   OH223639   3.126   3.435   0.345 -0.3423  0.5510  0.1257
 7892TIP3    H123640   3.085   3.493   0.281 -1.2516  0.7526  0.8729
 7892TIP3    H223641   3.136   3.351   0.298 -3.3252 -0.0905  0.4298
 7893TIP3   OH223642   7.004   6.428   2.300  0.0865 -0.2147 -0.0725
 7893TIP3    H123643   6.915   6.466   2.300  0.3600  0.4898  1.3504
 7893TIP3    H223644   7.049   6.474   2.370  1.7036 -0.3340 -0.9850
 7894TIP3   OH223645   6.569   3.707   0.635 -0.0670  0.3245 -0.2851
 7894TIP3    H123646   6.628   3.725   0.561  1.7489 -0.9625  0.7709
 7894TIP3    H223647   6.512   3.637   0.603 -0.9684  1.4658 -1.2646
 7895TIP3   OH223648   1.937   5.820   1.761  0.0850 -0.4448  0.2425
 7895TIP3    H123649   1.924   5.826   1.666  0.9846 -1.3435  0.0394
 7895TIP3    H223650   1.949   5.910   1.789 -1.4174 -0.0502 -0.2965
 7896TIP3   OH223651   4.665   3.842   2.870 -0.0026 -0.1488 -0.0182
 7896TIP3    H123652   4.633   3.844   2.780 -1.0339 -1.1559  0.3041
 7896TIP3    H223653   4.761   3.838   2.862 -0.0430  0.7436 -1.0402
 7897TIP3   OH223654   4.956   4.642   0.837 -0.3220  0.2769  0.3782
 7897TIP3    H123655   5.051   4.632   0.830 -0.0938  2.7638 -1.8150
 7897TIP3    H223656   4.944   4.720   0.891 -0.9983  0.8797 -0.5946
 7898TIP3   OH223657   6.582   5.519   5.836 -0.3173 -1.0238  0.2839
 7898TIP3    H123658   6.575   5.430   5.801  0.4466 -1.2994  0.7858
 7898TIP3    H223659   6.510   5.526   5.899 -1.0158 -0.9100 -0.5106
 7899TIP3   OH223660   4.010   2.611   0.458  0.5069  0.1191 -0.4117
 7899TIP3    H123661   4.033   2.519   0.453  1.0803  0.2970 -1.5805
 7899TIP3    H223662   4.039   2.639   0.545 -0.3264 -0.9518  0.2269
 7900TIP3   OH223663   2.978   2.232   3.224 -0.0986  0.0827  0.4204
 7900TIP3    H123664   3.042   2.259   3.159 -0.8659  0.4809 -0.1904
 7900TIP3    H223665   2.999   2.140   3.242  0.5579  0.1749  0.1433
 7901TIP3   OH223666   4.812   1.860   5.852 -0.0696 -0.2246 -0.5946
 7901TIP3    H123667   4.890   1.807   5.870 -0.7325 -1.3582 -0.9528
 7901TIP3    H223668   4.739   1.808   5.886 -0.5107  2.0785  2.3916
 7902TIP3   OH223669   2.721   5.405   2.793 -0.8171  0.0982  0.0392
 7902TIP3    H123670   2.694   5.379   2.705 -1.1401 -0.1690  0.2159
 7902TIP3    H223671   2.675   5.344   2.851  0.9370 -1.0579  0.3079
 7903TIP3   OH223672   6.301   1.757   2.937  0.3162 -0.3682 -0.4242
 7903TIP3    H123673   6.385   1.765   2.982 -0.7427  1.9003  1.3535
 7903TIP3    H223674   6.237   1.747   3.007 -1.1495  0.5014 -1.5835
 7904TIP3   OH223675   1.430   5.119   0.813  0.1800 -0.3785 -0.1818
 7904TIP3    H123676   1.433   5.190   0.877 -1.1516 -0.2461 -0.2256
 7904TIP3    H223677   1.422   5.040   0.867 -1.0060 -0.2617 -0.1643
 7905TIP3   OH223678   0.078   3.530   5.249  0.3318  0.0487  0.1540
 7905TIP3    H123679   0.139   3.566   5.184  1.0883 -0.0770  0.7964
 7905TIP3    H223680   0.126   3.530   5.331 -0.3587 -0.5392  0.5708
 7906TIP3   OH223681   4.302   2.404   2.686  0.1388  0.1695 -0.4247
 7906TIP3    H123682   4.372   2.340   2.677 -0.6900 -0.9756  0.8126
 7906TIP3    H223683   4.268   2.416   2.598  2.6228  1.6951 -1.2972
 7907TIP3   OH223684   4.737   6.074   1.489 -0.3503 -0.1044 -0.0778
 7907TIP3    H123685   4.740   6.021   1.568 -0.4125  0.4896  0.3288
 7907TIP3    H223686   4.665   6.136   1.504 -0.4648 -0.0891 -0.6610
 7908TIP3   OH223687   0.499   1.205   5.839  0.0555 -0.0392  0.0859
 7908TIP3    H123688   0.411   1.236   5.861  0.8414  2.6190 -0.1143
 7908TIP3    H223689   0.521   1.252   5.758  1.9967  0.1235  0.6496
 7909TIP3   OH223690   4.699   1.986   4.031 -0.1274 -0.0912 -0.0167
 7909TIP3    H123691   4.675   2.078   4.020 -1.7980 -0.4397  0.4371
 7909TIP3    H223692   4.737   1.982   4.119 -3.3739 -0.3719  1.5391
 7910TIP3   OH223693   0.989   3.516   3.138  0.2687 -0.3569  0.0670
 7910TIP3    H123694   1.079   3.502   3.169  0.2132 -3.0096 -0.6823
 7910TIP3    H223695   0.999   3.529   3.043 -0.1716 -2.2845 -0.2902
 7911TIP3   OH223696   6.411   1.540   5.412  0.5981 -0.0684  0.2082
 7911TIP3    H123697   6.327   1.501   5.434  0.5674 -0.2701 -0.2415
 7911TIP3    H223698   6.389   1.612   5.353  0.6234  0.8964  1.3549
 7912TIP3   OH223699   1.190   2.771   3.680 -0.1114  0.7409  0.0423
 7912TIP3    H123700   1.230   2.854   3.705 -0.5093  0.8356  0.3779
 7912TIP3    H223701   1.229   2.750   3.595  0.1002  1.1949  0.0248
 7913TIP3   OH223702   2.130   5.911   3.414  0.4952 -0.4104 -0.4738
 7913TIP3    H123703   2.190   5.880   3.346 -1.7304 -1.4108 -2.1290
 7913TIP3    H223704   2.149   6.004   3.422  1.6714 -0.5284 -1.5469
 7914TIP3   OH223705   5.167   2.743   2.450 -0.2005 -0.0762  0.0274
 7914TIP3    H123706   5.077   2.776   2.458 -1.0943 -2.2985 -0.1464
 7914TIP3    H223707   5.177   2.723   2.357  1.3575  2.2554 -0.4202
 7915TIP3   OH223708   4.397   2.693   5.401 -0.6636 -0.0784  0.2377
 7915TIP3    H123709   4.374   2.601   5.417 -0.3361 -0.4367 -1.2441
 7915TIP3    H223710   4.460   2.690   5.329  0.4654  1.2224  1.1051
 7916TIP3   OH223711   5.414   5.165   1.230  0.5173 -0.0849  0.0060
 7916TIP3    H123712   5.467   5.102   1.279 -2.0609 -2.1368  0.4222
 7916TIP3    H223713   5.379   5.224   1.297 -0.1971 -0.7132  0.2076
 7917TIP3   OH223714   1.193   5.295   1.062 -0.1463 -0.7174  0.3989
 7917TIP3    H123715   1.156   5.224   1.009 -1.5924  0.7370 -0.6338
 7917TIP3    H223716   1.126   5.313   1.128 -0.8536  1.1126 -0.7228
 7918TIP3   OH223717   5.135   4.976   5.818  0.1698  0.3331  0.4278
 7918TIP3    H123718   5.218   4.944   5.783 -0.5586 -0.6047 -0.4971
 7918TIP3    H223719   5.084   5.001   5.741 -0.5651  0.5165  0.9579
 7919TIP3   OH223720   5.373   0.374   1.010  0.1601 -0.1290 -0.0714
 7919TIP3    H123721   5.320   0.353   1.087 -0.3059 -0.0069 -0.3543
 7919TIP3    H223722   5.456   0.404   1.045  0.5960 -1.7222  0.3770
 7920TIP3   OH223723   1.955   0.718   1.733  0.1414 -0.2773 -0.3605
 7920TIP3    H123724   1.873   0.670   1.726  1.0292 -2.0321  0.4877
 7920TIP3    H223725   1.934   0.806   1.703 -1.5462 -1.2007 -2.1160
 7921TIP3   OH223726   7.044   0.277   3.380 -0.4366  0.2507 -0.5830
 7921TIP3    H123727   7.023   0.186   3.362 -0.2001 -0.4113  2.0111
 7921TIP3    H223728   6.960   0.322   3.375 -0.9315 -0.5450  0.2477
 7922TIP3   OH223729   5.862   3.956   5.664 -0.1814 -0.2239  0.2363
 7922TIP3    H123730   5.836   3.894   5.733 -1.6383  1.2843  1.1253
 7922TIP3    H223731   5.951   3.982   5.688 -0.0639 -0.9487  0.6230
 7923TIP3   OH223732   4.982   1.403   3.322  0.3029  0.3984  0.0199
 7923TIP3    H123733   4.987   1.444   3.236  0.3980  0.6144  0.1264
 7923TIP3    H223734   5.057   1.439   3.370  0.6162 -0.1968 -0.0102
 7924TIP3   OH223735   3.721   1.128   5.160 -0.0233 -0.2748 -0.1181
 7924TIP3    H123736   3.723   1.034   5.177  3.1060 -0.5918 -1.6979
 7924TIP3    H223737   3.779   1.166   5.225  0.2993  0.3019 -0.7274
 7925TIP3   OH223738   1.545   3.900   3.597 -0.7369  0.0839  0.2411
 7925TIP3    H123739   1.556   3.852   3.514 -0.8818 -1.0196  0.8326
 7925TIP3    H223740   1.631   3.894   3.639 -0.9081 -0.1462  0.5630
 7926TIP3   OH223741   0.727   5.465   1.193 -0.0979 -0.1839  0.1565
 7926TIP3    H123742   0.766   5.480   1.279  1.3377 -1.1221 -0.2924
 7926TIP3    H223743   0.718   5.370   1.188 -0.5441 -0.1031 -0.5721
 7927TIP3   OH223744   7.125   0.122   0.602  0.2913  0.0898  0.4718
 7927TIP3    H123745   7.096   0.180   0.673 -1.9985 -0.5695  0.1548
 7927TIP3    H223746   7.046   0.076   0.576  1.0142  0.4421 -2.6560
 7928TIP3   OH223747   0.930   4.050   1.344 -0.2429  0.0821 -0.4229
 7928TIP3    H123748   0.901   4.043   1.253 -2.3535 -0.9204  0.2521
 7928TIP3    H223749   0.931   4.144   1.362 -1.1694  0.2357 -1.0970
 7929TIP3   OH223750   2.251   2.490   5.829 -0.5391  0.3032  0.3899
 7929TIP3    H123751   2.224   2.523   5.744  0.4750 -2.5780 -1.1746
 7929TIP3    H223752   2.329   2.541   5.852 -1.1008  1.4299 -0.1406
 7930TIP3   OH223753   6.483   1.116   3.004 -0.3461 -0.6447  0.5576
 7930TIP3    H123754   6.574   1.130   2.978  0.4981 -2.1106  2.4900
 7930TIP3    H223755   6.451   1.049   2.943 -0.6426  0.8880 -1.0489
 7931TIP3   OH223756   2.471   0.854   5.261 -0.1025 -0.3917 -0.2658
 7931TIP3    H123757   2.403   0.796   5.228  0.1977 -0.2690 -1.1285
 7931TIP3    H223758   2.489   0.914   5.188 -1.1216  1.4525  0.9008
 7932TIP3   OH223759   5.667   6.189   1.584 -0.3959 -0.0453  0.4640
 7932TIP3    H123760   5.714   6.198   1.666 -1.8121 -0.4191  1.3645
 7932TIP3    H223761   5.654   6.278   1.553  0.0905  0.1019  0.6825
 7933TIP3   OH223762   1.492   3.146   3.140  0.1372 -0.1615 -0.3639
 7933TIP3    H123763   1.424   3.203   3.176  0.5646  0.3956 -0.4325
 7933TIP3    H223764   1.575   3.187   3.166  0.4478 -0.4679 -0.8519
 7934TIP3   OH223765   0.187   5.857   0.071 -0.1293 -0.3373 -0.2070
 7934TIP3    H123766   0.205   5.823   0.159 -0.7363 -0.2637 -0.0519
 7934TIP3    H223767   0.094   5.840   0.058 -0.4175  1.1527 -0.1801
 7935TIP3   OH223768   2.882   5.616   2.648 -0.7495 -0.2560 -0.1293
 7935TIP3    H123769   2.856   5.529   2.677  3.3537 -1.9203 -0.6925
 7935TIP3    H223770   2.918   5.658   2.726 -0.6997  0.0478 -0.3138
 7936TIP3   OH223771   6.242   3.792   2.999  0.4356  0.2948 -0.6646
 7936TIP3    H123772   6.205   3.864   2.948 -1.4428 -0.4813 -0.4534
 7936TIP3    H223773   6.334   3.816   3.011 -0.1908  2.8129 -0.3472
 7937TIP3   OH223774   0.443   5.123   2.705 -0.1032  0.8869 -0.0843
 7937TIP3    H123775   0.417   5.042   2.661  0.9187  0.5616 -0.1372
 7937TIP3    H223776   0.534   5.136   2.676  0.4141  0.9657  1.4922
 7938TIP3   OH223777   1.261   4.357   4.724 -0.4316  0.2598 -0.3287
 7938TIP3    H123778   1.214   4.299   4.664  1.8700 -1.5074 -0.5798
 7938TIP3    H223779   1.288   4.431   4.669 -1.5806  0.5612 -0.5167
 7939TIP3   OH223780   3.483   1.287   0.998 -0.2537  0.7286  0.3190
 7939TIP3    H123781   3.535   1.217   1.038 -1.9566 -0.5217  0.4953
 7939TIP3    H223782   3.541   1.362   0.995  0.4763  0.5101  3.8970
 7940TIP3   OH223783   2.784   0.563   4.027  0.1923 -0.3672  0.1174
 7940TIP3    H123784   2.714   0.628   4.029  0.5710  0.0279  0.8467
 7940TIP3    H223785   2.859   0.607   4.067  1.0956 -0.5287 -1.3201
 7941TIP3   OH223786   4.084   0.141   5.455 -0.1184 -0.3908  0.6710
 7941TIP3    H123787   4.033   0.066   5.425 -0.7282  0.3770 -0.2988
 7941TIP3    H223788   4.028   0.216   5.438  0.6342  0.3226  1.2586
 7942TIP3   OH223789   6.293   3.025   2.985  0.1436 -0.1025  0.5683
 7942TIP3    H123790   6.305   3.047   2.892 -1.0406 -2.4298 -0.2253
 7942TIP3    H223791   6.377   2.990   3.013  0.7307  1.2905  0.6259
 7943TIP3   OH223792   2.615   6.773   5.438 -0.1968  0.7010  0.0336
 7943TIP3    H123793   2.653   6.860   5.425 -0.2490  1.1434  2.4286
 7943TIP3    H223794   2.690   6.715   5.450 -0.1957  0.6972  0.0109
 7944TIP3   OH223795   4.755   2.983   0.596  0.1818  0.2439  0.1209
 7944TIP3    H123796   4.772   2.893   0.624 -0.6197 -0.0986 -0.4753
 7944TIP3    H223797   4.826   3.002   0.534  1.3678  0.6517  1.5376
 7945TIP3   OH223798   5.395   3.708   4.291  0.0927  0.3995 -0.1817
 7945TIP3    H123799   5.321   3.704   4.230  0.2835  2.1066 -0.5756
 7945TIP3    H223800   5.439   3.791   4.270  2.1886 -0.6092 -0.0100
 7946TIP3   OH223801   3.346   3.506   0.500  0.0582 -0.5425  0.0963
 7946TIP3    H123802   3.315   3.538   0.585  0.6367 -1.0862  0.5205
 7946TIP3    H223803   3.266   3.488   0.451 -0.3570 -2.5296  1.3964
 7947TIP3   OH223804   6.696   0.015   0.834  0.2858 -0.2281  0.2412
 7947TIP3    H123805   6.621   0.075   0.832 -0.1893 -0.8168 -1.0218
 7947TIP3    H223806   6.749   0.044   0.909 -0.9337  0.5222  0.8390
 7948TIP3   OH223807   0.639   6.251   4.463 -0.3745 -0.3991  0.0888
 7948TIP3    H123808   0.717   6.250   4.519 -0.0110  0.4138 -0.3819
 7948TIP3    H223809   0.567   6.230   4.522  0.3914 -3.1989  0.1743
 7949TIP3   OH223810   4.197   3.805   0.605  0.5044 -0.2519  0.6791
 7949TIP3    H123811   4.255   3.872   0.569  0.0344  0.3292  0.9871
 7949TIP3    H223812   4.162   3.844   0.686  2.1233 -1.8017  2.2262
 7950TIP3   OH223813   4.929   4.519   2.625 -0.6503 -0.0421 -0.1338
 7950TIP3    H123814   4.999   4.458   2.647  1.8334  2.6305  0.0124
 7950TIP3    H223815   4.856   4.463   2.595  1.8906 -2.9744 -1.3894
 7951TIP3   OH223816   2.707   2.011   4.437 -0.4778 -0.7248 -0.3229
 7951TIP3    H123817   2.680   2.096   4.400  1.4293  0.3381  0.5644
 7951TIP3    H223818   2.659   2.005   4.520  1.6325  1.0410  1.1410
 7952TIP3   OH223819   0.854   4.452   2.773  0.3239 -0.2113  0.0901
 7952TIP3    H123820   0.912   4.378   2.793  0.9384  0.6606  1.7516
 7952TIP3    H223821   0.766   4.416   2.779  0.5258 -0.4665  2.7907
 7953TIP3   OH223822   1.586   1.382   3.334 -0.8177 -0.1162 -0.2052
 7953TIP3    H123823   1.673   1.423   3.337 -0.2405 -1.3397  0.2425
 7953TIP3    H223824   1.526   1.456   3.322  0.3304  0.6741 -1.4226
 7954TIP3   OH223825   5.539   4.375   3.170 -0.0636  0.2788  0.0931
 7954TIP3    H123826   5.488   4.343   3.244 -0.0014  1.1482  0.5201
 7954TIP3    H223827   5.623   4.402   3.208  1.4965 -2.7640 -0.8188
 7955TIP3   OH223828   4.964   2.201   2.741  0.9105 -0.2813  0.1225
 7955TIP3    H123829   4.992   2.278   2.791  3.3865 -1.4858  0.7510
 7955TIP3    H223830   4.954   2.133   2.807 -0.4672 -0.7274 -0.5224
 7956TIP3   OH223831   0.100   1.491   2.335  0.8441 -0.4587 -0.0834
 7956TIP3    H123832   0.088   1.416   2.394  1.2201  0.3267  1.0332
 7956TIP3    H223833   0.013   1.530   2.328 -0.1143 -2.7587 -3.2471
 7957TIP3   OH223834   5.180   2.164   0.854  0.0990  0.1547  0.3868
 7957TIP3    H123835   5.260   2.199   0.815 -0.2682  0.7060  0.1172
 7957TIP3    H223836   5.187   2.187   0.947 -0.4958  1.6812  0.0886
 7958TIP3   OH223837   6.125   5.816   3.297 -0.0262  0.0503  0.1951
 7958TIP3    H123838   6.115   5.910   3.284 -0.4493  0.0557  0.5485
 7958TIP3    H223839   6.053   5.777   3.248  0.7377 -0.1519 -0.7902
 7959TIP3   OH223840   0.664   2.173   2.873 -0.4198 -0.7044  0.2761
 7959TIP3    H123841   0.613   2.108   2.825  1.3702 -0.2276 -2.4767
 7959TIP3    H223842   0.645   2.256   2.829 -1.1750  0.3851  2.5161
 7960TIP3   OH223843   1.651   4.746   0.826  0.2904 -0.1260  0.0938
 7960TIP3    H123844   1.591   4.764   0.754  0.9193 -0.1710 -0.4550
 7960TIP3    H223845   1.720   4.811   0.816  0.9914 -0.8736 -0.0648
 7961TIP3   OH223846   4.680   5.138   5.841  0.1692  0.2376 -0.0458
 7961TIP3    H123847   4.742   5.082   5.887  0.0076  0.8387  0.9293
 7961TIP3    H223848   4.595   5.112   5.875 -0.0992 -0.3429 -1.1253
 7962TIP3   OH223849   6.336   4.474   5.581  0.0368  0.0214  0.3541
 7962TIP3    H123850   6.385   4.464   5.663 -3.1885 -2.8132  2.2019
 7962TIP3    H223851   6.349   4.392   5.534 -3.0092 -1.0416  1.1187
 7963TIP3   OH223852   3.595   0.952   5.385  0.2964 -0.7572  0.7763
 7963TIP3    H123853   3.515   0.986   5.424 -0.3667  2.5564 -2.8490
 7963TIP3    H223854   3.664   0.974   5.448 -1.0091  1.3846  1.5590
 7964TIP3   OH223855   2.418   4.148   2.129 -0.0602  0.0305 -0.6810
 7964TIP3    H123856   2.495   4.170   2.182 -0.4509  0.4863 -0.2924
 7964TIP3    H223857   2.346   4.198   2.169 -1.6581 -3.8945  2.0509
 7965TIP3   OH223858   2.077   1.853   3.298 -0.3387  0.2439 -0.5906
 7965TIP3    H123859   2.038   1.834   3.213  0.3224  2.0002 -1.3404
 7965TIP3    H223860   2.002   1.871   3.355 -0.7792 -0.8231 -0.8041
 7966TIP3   OH223861   5.542   4.419   2.885  0.2946 -0.5894 -0.4230
 7966TIP3    H123862   5.474   4.371   2.837  0.2765 -1.1663  0.1747
 7966TIP3    H223863   5.525   4.400   2.977  0.7739 -0.0752 -0.2245
 7967TIP3   OH223864   5.731   3.840   3.137 -0.3518  0.4873 -0.0383
 7967TIP3    H123865   5.747   3.850   3.043  0.2302  1.1551  0.1233
 7967TIP3    H223866   5.661   3.902   3.156 -0.7085  0.1029 -0.0926
 7968TIP3   OH223867   4.595   2.573   2.742  0.1361 -0.5652  0.2962
 7968TIP3    H123868   4.644   2.558   2.823  3.4957 -0.9017 -1.6070
 7968TIP3    H223869   4.539   2.648   2.761  0.9303 -0.5130  2.8350
 7969TIP3   OH223870   3.227   3.611   3.639  0.6649 -0.2597  0.3193
 7969TIP3    H123871   3.265   3.604   3.552 -3.5919  0.7307 -1.8665
 7969TIP3    H223872   3.249   3.700   3.668 -0.3096  0.4782 -1.1069
 7970TIP3   OH223873   6.492   3.658   4.063 -0.2505  0.1996  0.1675
 7970TIP3    H123874   6.552   3.588   4.039  0.6885  1.6496 -2.0682
 7970TIP3    H223875   6.526   3.736   4.018 -1.1710  2.1513  2.5973
 7971TIP3   OH223876   5.807   2.391   2.406 -0.1596  0.0327  0.0041
 7971TIP3    H123877   5.864   2.396   2.329  1.4768 -3.1281  0.8523
 7971TIP3    H223878   5.867   2.391   2.480 -1.4022 -1.2375  1.0603
 7972TIP3   OH223879   2.961   0.666   1.702  0.1047 -0.1090  0.1233
 7972TIP3    H123880   2.944   0.576   1.673  2.1839 -0.8234  0.9610
 7972TIP3    H223881   2.942   0.665   1.796  1.9407 -0.2159  0.5243
 7973TIP3   OH223882   5.112   6.500   2.329  0.5179  0.0133  0.1510
 7973TIP3    H123883   5.183   6.539   2.278 -0.6586  2.5276  0.2714
 7973TIP3    H223884   5.131   6.527   2.419  0.7978 -1.5641  0.5830
 7974TIP3   OH223885   3.132   2.216   0.422  0.3208  0.3714 -0.0526
 7974TIP3    H123886   3.092   2.232   0.508  1.1416  0.7201  0.2738
 7974TIP3    H223887   3.077   2.150   0.382  0.0508  0.0457  0.8379
 7975TIP3   OH223888   0.694   0.380   0.702  0.0130  0.4278 -0.1749
 7975TIP3    H123889   0.623   0.422   0.654 -0.1325 -0.2792 -0.5873
 7975TIP3    H223890   0.774   0.421   0.669 -0.1373  0.4761 -0.4755
 7976TIP3   OH223891   2.744   4.634   2.891  0.4810  0.6956 -0.0541
 7976TIP3    H123892   2.770   4.712   2.940  0.3721  0.5929  0.1662
 7976TIP3    H223893   2.654   4.651   2.864  0.6949  0.9550 -0.6272
 7977TIP3   OH223894   5.019   0.701   5.256  0.2753 -0.5039  0.0075
 7977TIP3    H123895   4.960   0.765   5.216 -0.0719 -0.9140 -0.1379
 7977TIP3    H223896   4.997   0.618   5.214  2.4161 -0.3193 -1.6503
 7978TIP3   OH223897   4.031   0.496   1.467  0.5060  0.2320 -0.3436
 7978TIP3    H123898   3.991   0.415   1.499  1.0361 -0.1816 -0.7090
 7978TIP3    H223899   3.984   0.516   1.386  1.1409 -0.3471 -0.8635
 7979TIP3   OH223900   3.630   4.666   3.388  0.9019 -0.0474  0.2755
 7979TIP3    H123901   3.540   4.634   3.398  1.8773 -2.6749  1.8109
 7979TIP3    H223902   3.627   4.756   3.418 -0.8487 -0.7792  2.6157
 7980TIP3   OH223903   1.836   1.845   3.831 -0.2087 -0.2265 -0.1260
 7980TIP3    H123904   1.913   1.819   3.881  0.3440 -0.9276 -1.3019
 7980TIP3    H223905   1.769   1.864   3.897  0.4667 -1.1907  0.8640
 7981TIP3   OH223906   2.720   3.330   5.233  0.0109 -0.2312  0.0751
 7981TIP3    H123907   2.775   3.324   5.311 -1.2593 -0.2899  0.9996
 7981TIP3    H223908   2.735   3.248   5.186  0.8434 -0.1572  0.1935
 7982TIP3   OH223909   1.362   1.367   1.613 -0.2495  0.0644 -0.0632
 7982TIP3    H123910   1.324   1.280   1.621 -1.8863  0.6584 -0.8187
 7982TIP3    H223911   1.366   1.383   1.518  0.1303  0.7762  0.0640
 7983TIP3   OH223912   0.520   2.013   2.419  0.4728 -0.1194  1.0224
 7983TIP3    H123913   0.606   1.997   2.458  0.8674 -0.4479  0.0686
 7983TIP3    H223914   0.507   1.938   2.360 -0.2969  0.1221  0.8779
 7984TIP3   OH223915   2.675   3.675   0.570  0.1246  0.0917 -0.0071
 7984TIP3    H123916   2.717   3.614   0.630  0.0276 -1.6614 -1.6349
 7984TIP3    H223917   2.745   3.735   0.544  0.2086  0.7668  1.6451
 7985TIP3   OH223918   1.976   5.522   2.182 -0.6571 -0.2329 -0.6823
 7985TIP3    H123919   1.954   5.448   2.126 -1.4015 -0.6250  0.0922
 7985TIP3    H223920   1.892   5.562   2.202 -0.5615 -0.8084  1.0712
 7986TIP3   OH223921   2.661   3.426   4.342 -0.1809 -0.8517  0.6231
 7986TIP3    H123922   2.592   3.378   4.296 -0.9926 -1.2469  2.1669
 7986TIP3    H223923   2.695   3.363   4.406 -0.7622  0.3772  2.1920
 7987TIP3   OH223924   1.388   2.694   0.048  0.2932 -0.2302  0.3393
 7987TIP3    H123925   1.469   2.646   0.065  1.2486  1.4769  0.8167
 7987TIP3    H223926   1.351   2.709   0.134  1.5583  2.3977  0.5199
 7988TIP3   OH223927   3.923   1.510   2.147  0.0055 -0.4844 -0.5445
 7988TIP3    H123928   3.858   1.452   2.186 -0.2409  0.7812  1.0677
 7988TIP3    H223929   3.937   1.476   2.059 -0.5012 -2.6479  0.1457
 7989TIP3   OH223930   4.862   2.597   2.644 -0.1603 -0.2523  0.8571
 7989TIP3    H123931   4.874   2.582   2.550  0.6500 -1.1975  1.0984
 7989TIP3    H223932   4.778   2.557   2.665 -0.5204  0.2905  0.4704
 7990TIP3   OH223933   0.224   4.779   1.950  0.1564 -0.2374 -0.0719
 7990TIP3    H123934   0.143   4.740   1.918  0.6396  0.0506 -1.7426
 7990TIP3    H223935   0.294   4.732   1.905  0.9103 -0.1431  0.9538
 7991TIP3   OH223936   5.008   6.294   2.981  0.4346  0.1558 -0.2087
 7991TIP3    H123937   4.918   6.285   2.949  0.3473  1.4341 -0.3945
 7991TIP3    H223938   5.021   6.389   2.987  1.9142 -0.0053 -0.6082
 7992TIP3   OH223939   1.940   1.470   1.652  0.1124  0.0068  0.2242
 7992TIP3    H123940   2.000   1.427   1.591  0.4236  2.2762 -1.1897
 7992TIP3    H223941   1.961   1.431   1.737  1.5342 -1.3530 -0.6857
 7993TIP3   OH223942   5.735   5.159   5.745 -0.7368  0.2440  0.4073
 7993TIP3    H123943   5.802   5.210   5.700 -2.0841  3.1588  1.5017
 7993TIP3    H223944   5.685   5.118   5.674  0.4224  0.3565 -0.5142
 7994TIP3   OH223945   3.407   2.666   2.683 -0.0317  0.4976  0.4769
 7994TIP3    H123946   3.325   2.680   2.636 -0.3759 -1.2497  0.4898
 7994TIP3    H223947   3.453   2.600   2.631  1.2024  1.1560  0.6927
 7995TIP3   OH223948   3.233   4.562   5.512  0.1814 -0.1338  0.1760
 7995TIP3    H123949   3.200   4.534   5.597  1.9306 -0.6239  0.7459
 7995TIP3    H223950   3.238   4.658   5.519 -1.5109 -0.0018 -0.1133
 7996TIP3   OH223951   7.088   0.820   5.773  0.0371  0.2723 -0.4416
 7996TIP3    H123952   7.115   0.733   5.803 -3.7402 -0.4870  1.3873
 7996TIP3    H223953   7.094   0.815   5.677  3.2268 -0.6498 -0.3226
 7997TIP3   OH223954   1.795   1.110   1.537  0.1122 -0.0347 -0.0963
 7997TIP3    H123955   1.758   1.182   1.486 -2.9151 -1.3270  0.0679
 7997TIP3    H223956   1.809   1.040   1.473  2.8045  0.4985 -0.2116
 7998TIP3   OH223957   5.149   3.294   4.674  0.3570 -0.4138 -0.2095
 7998TIP3    H123958   5.164   3.336   4.759  2.6736  1.5028 -1.4535
 7998TIP3    H223959   5.077   3.343   4.635 -3.6473 -3.8141  2.0415
 7999TIP3   OH223960   3.649   2.371   2.094 -0.0934 -0.7063  0.0678
 7999TIP3    H123961   3.736   2.378   2.133 -0.8583  2.2934  1.5544
 7999TIP3    H223962   3.662   2.391   2.002  0.7638  0.2422  0.3736
 8000TIP3   OH223963   1.922   3.624   3.141 -0.0221  0.1550  0.3408
 8000TIP3    H123964   1.841   3.647   3.095  0.1950  0.4971  0.1344
 8000TIP3    H223965   1.944   3.702   3.192  1.3234  0.8528 -1.2264
 8001TIP3   OH223966   2.165   1.827   2.713  0.3920  0.3507 -0.2365
 8001TIP3    H123967   2.226   1.766   2.670 -0.3677 -0.0876 -0.7265
 8001TIP3    H223968   2.087   1.774   2.730  0.3534  0.7519  0.9139
 8002TIP3   OH223969   5.179   3.061   1.738 -0.1074 -0.0752  0.4560
 8002TIP3    H123970   5.104   3.008   1.765 -0.9226 -0.2681 -1.9570
 8002TIP3    H223971   5.254   3.004   1.751 -0.7767 -1.1900 -0.3311
 8003TIP3   OH223972   0.329   4.861   3.767  0.2484  0.0286  0.5590
 8003TIP3    H123973   0.411   4.831   3.805 -0.0779 -0.8251  0.6147
 8003TIP3    H223974   0.340   4.849   3.672  0.3924  0.4402  0.5231
 8004TIP3   OH223975   6.340   6.037   4.377  0.5496 -0.2883  0.0230
 8004TIP3    H123976   6.315   6.021   4.286  0.8986 -1.1673  0.0748
 8004TIP3    H223977   6.309   6.127   4.395  0.5730 -0.0710 -0.9807
 8005TIP3   OH223978   2.671   0.443   2.246  0.2659  0.0326  0.0683
 8005TIP3    H123979   2.678   0.351   2.222 -0.7213 -0.5820  1.8786
 8005TIP3    H223980   2.579   0.465   2.231  0.4763  0.6845 -0.2643
 8006TIP3   OH223981   1.057   6.528   0.975  0.2621  0.6506 -0.0870
 8006TIP3    H123982   1.005   6.488   0.905  1.0908  0.6360 -0.7048
 8006TIP3    H223983   1.020   6.616   0.985 -0.0055  0.5750 -0.3821
 8007TIP3   OH223984   0.654   0.427   5.809  0.5337 -0.1281 -0.1688
 8007TIP3    H123985   0.644   0.481   5.730 -4.1512 -0.1036  0.1590
 8007TIP3    H223986   0.677   0.340   5.776 -3.2847 -0.6576 -2.0391
 8008TIP3   OH223987   0.410   4.147   3.421 -0.7133 -0.4278  0.2424
 8008TIP3    H123988   0.375   4.109   3.340  2.1577 -0.1284 -1.2414
 8008TIP3    H223989   0.493   4.102   3.435  0.0740  1.3291  1.6078
 8009TIP3   OH223990   5.059   3.525   5.153 -0.4286 -0.1219 -0.0679
 8009TIP3    H123991   5.009   3.601   5.181 -1.0148 -0.1582 -0.9735
 8009TIP3    H223992   5.008   3.450   5.183 -0.4527 -0.1564 -0.1941
 8010TIP3   OH223993   4.244   6.585   3.223  0.5053 -0.4578  0.5969
 8010TIP3    H123994   4.234   6.559   3.315  1.2546 -1.2853  0.4495
 8010TIP3    H223995   4.331   6.554   3.198  1.1975  1.6222  0.2152
 8011TIP3   OH223996   2.030   0.783   5.080 -0.0789 -0.3055 -0.6375
 8011TIP3    H123997   2.043   0.875   5.059  1.3216 -0.5202 -0.7763
 8011TIP3    H223998   1.960   0.783   5.146 -0.4554  0.8020 -1.0116
 8012TIP3   OH223999   3.685   5.952   4.346 -0.4513 -0.3223  0.2936
 8012TIP3    H124000   3.766   5.986   4.383 -0.5432 -0.4287  0.5889
 8012TIP3    H224001   3.636   6.031   4.321 -0.7614 -0.2239  1.1852
 8013TIP3   OH224002   3.404   2.019   0.197  0.0942  0.6844  0.4821
 8013TIP3    H124003   3.359   1.938   0.171  0.2077  0.6145  0.5021
 8013TIP3    H224004   3.343   2.089   0.173  0.8552  0.7416 -1.5287
 8014TIP3   OH224005   6.612   0.215   1.504 -0.3031 -0.1340 -0.3689
 8014TIP3    H124006   6.566   0.297   1.488 -0.0137 -0.0860 -1.0035
 8014TIP3    H224007   6.549   0.159   1.549 -0.0039  0.9720  1.5128
 8015TIP3   OH224008   6.703   4.410   2.924  0.1388  0.0270  0.3706
 8015TIP3    H124009   6.703   4.380   2.833 -0.6578  0.7558  0.1250
 8015TIP3    H224010   6.749   4.340   2.972 -0.3536 -0.8631 -0.4246
 8016TIP3   OH224011   0.306   5.265   5.644 -0.4689  0.3803 -0.2348
 8016TIP3    H124012   0.362   5.221   5.579  1.1194  0.8133  0.8003
 8016TIP3    H224013   0.217   5.253   5.610 -0.0771 -3.0127 -0.3929
 8017TIP3   OH224014   3.609   6.232   5.586  0.5025 -0.0044  0.2233
 8017TIP3    H124015   3.566   6.267   5.508  0.2466  0.3893  0.5346
 8017TIP3    H224016   3.701   6.261   5.577  0.5219 -0.1396 -0.0330
 8018TIP3   OH224017   4.513   1.217   4.216 -0.0407 -0.4825 -0.1175
 8018TIP3    H124018   4.584   1.159   4.191 -1.0598 -1.0837 -1.7928
 8018TIP3    H224019   4.538   1.302   4.179  0.7163 -0.1861  1.0153
 8019TIP3   OH224020   5.897   3.624   5.304  0.3773 -0.4990 -0.3888
 8019TIP3    H124021   5.886   3.642   5.397 -0.5832  1.1596 -0.7940
 8019TIP3    H224022   5.957   3.692   5.273 -0.7046  0.0750 -1.3042
 8020TIP3   OH224023   6.911   4.554   4.359  0.1861 -0.3071  0.2534
 8020TIP3    H124024   6.913   4.596   4.445 -1.0978  0.8759 -0.2552
 8020TIP3    H224025   7.003   4.534   4.340  0.4066 -1.5321  2.3041
 8021TIP3   OH224026   0.854   6.491   5.156 -0.0275 -0.8560 -0.1212
 8021TIP3    H124027   0.839   6.450   5.241  0.2334 -0.4475  0.1272
 8021TIP3    H224028   0.776   6.470   5.105 -1.0300  0.4092  0.8148
 8022TIP3   OH224029   0.060   2.786   3.900  0.1213  0.0176 -0.4004
 8022TIP3    H124030  -0.010   2.732   3.938  1.3081 -1.6010 -0.3816
 8022TIP3    H224031   0.138   2.731   3.907  1.4206  1.8045 -0.3672
 8023TIP3   OH224032   0.261   2.301   2.782  0.2449 -0.2439  0.2317
 8023TIP3    H124033   0.267   2.257   2.867 -0.8222 -0.4409  0.2148
 8023TIP3    H224034   0.168   2.298   2.759  0.3643  0.7158 -0.4675
 8024TIP3   OH224035   0.970   0.810   0.206  0.0098 -0.8834 -0.0049
 8024TIP3    H124036   0.911   0.751   0.253 -0.6051 -0.0672  0.2631
 8024TIP3    H224037   0.941   0.807   0.115 -0.0942 -0.8954  0.0294
 8025TIP3   OH224038   3.961   6.620   0.796  0.2947 -0.0035  0.5211
 8025TIP3    H124039   3.970   6.681   0.870  1.1464  0.6504 -0.1019
 8025TIP3    H224040   4.000   6.666   0.722 -2.8047  0.3989 -0.9816
 8026TIP3   OH224041   1.599   5.543   1.460 -0.3829 -0.5424  0.1563
 8026TIP3    H124042   1.643   5.458   1.458  0.4408 -0.2072  2.0038
 8026TIP3    H224043   1.594   5.566   1.553  0.8081  2.1213 -0.3433
 8027TIP3   OH224044   5.600   5.028   2.290  0.2177  1.3084 -0.3531
 8027TIP3    H124045   5.548   4.961   2.245  0.4130  1.5262 -0.9122
 8027TIP3    H224046   5.635   5.083   2.219  3.0163 -0.0982 -0.1961
 8028TIP3   OH224047   6.061   2.692   3.327 -0.0594 -0.5254 -0.2994
 8028TIP3    H124048   5.995   2.690   3.397  0.8215 -1.8230  0.5371
 8028TIP3    H224049   6.113   2.770   3.345 -0.5836 -0.1986 -0.2034
 8029TIP3   OH224050   6.443   3.269   0.221 -0.4393  0.1183  0.0094
 8029TIP3    H124051   6.380   3.298   0.287 -1.3269  0.9937 -1.1672
 8029TIP3    H224052   6.389   3.230   0.152  0.4739 -0.8731 -0.1648
 8030TIP3   OH224053   0.607   6.050   2.717 -0.0968  0.2000 -0.4299
 8030TIP3    H124054   0.589   6.084   2.804 -0.6588 -0.5999 -0.2205
 8030TIP3    H224055   0.532   5.994   2.697  0.8006 -0.9492 -0.7319
 8031TIP3   OH224056   6.748   1.667   4.277  0.0792  0.0911 -0.1082
 8031TIP3    H124057   6.729   1.622   4.195 -1.4945  0.8850 -0.2131
 8031TIP3    H224058   6.827   1.718   4.259 -0.0957  0.0355 -1.0428
 8032TIP3   OH224059   6.516   1.607   2.532 -0.2719  0.0401  0.2436
 8032TIP3    H124060   6.586   1.661   2.568  2.3311 -2.1702 -1.1781
 8032TIP3    H224061   6.506   1.640   2.442  2.2406 -2.4175 -1.0800
 8033TIP3   OH224062   4.485   5.448   0.527 -0.1478 -0.2597  0.2320
 8033TIP3    H124063   4.573   5.486   0.527  0.3748 -1.3999 -1.1604
 8033TIP3    H224064   4.438   5.495   0.458 -0.5672  0.1366  0.7693
 8034TIP3   OH224065   6.133   1.196   3.377 -0.1984 -0.6210 -0.1237
 8034TIP3    H124066   6.188   1.124   3.348  0.4542 -0.8152  1.4772
 8034TIP3    H224067   6.186   1.242   3.442 -0.1712  1.9541 -1.8054
 8035TIP3   OH224068   6.965   4.184   3.135  0.4498 -0.7342  0.1541
 8035TIP3    H124069   7.033   4.127   3.169  1.7101 -0.2315 -1.4156
 8035TIP3    H224070   7.003   4.224   3.058 -0.9388  1.0832  0.3361
 8036TIP3   OH224071   5.398   2.484   5.385 -0.6944 -0.5220 -0.1594
 8036TIP3    H124072   5.339   2.464   5.458 -0.2275  0.9871  0.6792
 8036TIP3    H224073   5.392   2.579   5.374  0.4814 -0.5204 -1.0079
 8037TIP3   OH224074   3.530   3.292   1.495 -0.1462  0.5327  0.4660
 8037TIP3    H124075   3.443   3.319   1.524 -0.5820  1.7957 -1.7661
 8037TIP3    H224076   3.580   3.373   1.490  0.3339  0.1859 -0.7802
 8038TIP3   OH224077   0.186   4.391   2.230 -0.4645  0.2094  1.1573
 8038TIP3    H124078   0.250   4.424   2.167 -2.6329  1.5141 -0.4852
 8038TIP3    H224079   0.103   4.428   2.202 -2.1049 -1.9462  2.8171
 8039TIP3   OH224080   3.038   4.578   1.457 -0.2426  0.7414  0.4899
 8039TIP3    H124081   3.132   4.561   1.444 -0.5305 -1.3338  0.6555
 8039TIP3    H224082   3.007   4.609   1.372  0.0784 -1.4922 -0.5374
 8040TIP3   OH224083   0.641   2.525   0.048  0.2918 -0.5820 -0.3258
 8040TIP3    H124084   0.563   2.468   0.042 -1.0545  1.2213 -0.8699
 8040TIP3    H224085   0.633   2.568   0.133 -0.7110  1.4410 -1.3663
 8041TIP3   OH224086   1.313   5.476   2.554 -0.1041  0.5548  0.5251
 8041TIP3    H124087   1.372   5.549   2.534 -1.2356  1.0430 -1.1888
 8041TIP3    H224088   1.335   5.452   2.644  2.6587  0.7572  0.0010
 8042TIP3   OH224089   5.567   3.458   5.267  0.7629 -0.4721  0.2117
 8042TIP3    H124090   5.621   3.483   5.342  0.5867 -1.8217  0.8081
 8042TIP3    H224091   5.488   3.421   5.305 -0.0131  0.2186 -0.6570
 8043TIP3   OH224092   4.127   5.120   3.975  0.4781  0.7584  0.3038
 8043TIP3    H124093   4.198   5.056   3.974 -0.0317  0.1911 -0.3629
 8043TIP3    H224094   4.172   5.205   3.977  1.1506  0.3897  1.6272
 8044TIP3   OH224095   1.416   5.233   0.368 -0.2748 -0.0899  0.1102
 8044TIP3    H124096   1.387   5.313   0.413  0.3220 -0.4211  1.1245
 8044TIP3    H224097   1.511   5.229   0.385  0.2171  0.4256 -2.2524
 8045TIP3   OH224098   0.305   4.292   0.589  0.1396  0.2186 -0.5174
 8045TIP3    H124099   0.338   4.329   0.671  0.4750  0.3158 -0.6941
 8045TIP3    H224100   0.383   4.272   0.538 -0.0360 -0.8325 -0.3873
 8046TIP3   OH224101   0.474   6.756   2.152 -0.1560  0.2421  0.2962
 8046TIP3    H124102   0.455   6.694   2.082  0.4424  0.9511 -0.5193
 8046TIP3    H224103   0.492   6.701   2.228  0.0470 -0.5833 -0.3303
 8047TIP3   OH224104   6.427   2.756   2.594  0.1878  0.4417  0.0481
 8047TIP3    H124105   6.448   2.792   2.680 -1.1444  1.8254 -0.1524
 8047TIP3    H224106   6.483   2.803   2.533 -0.1981  0.8218 -0.0188
 8048TIP3   OH224107   2.963   0.985   0.518 -0.4312  0.4993  0.0649
 8048TIP3    H124108   2.903   1.052   0.484  0.0156  0.8570 -0.0216
 8048TIP3    H224109   2.970   1.004   0.611 -0.6968  0.2595  0.1381
 8049TIP3   OH224110   6.518   2.116   5.488 -0.6262 -0.3516 -0.3362
 8049TIP3    H124111   6.425   2.097   5.480 -0.3987 -1.0517 -1.6819
 8049TIP3    H224112   6.522   2.201   5.530 -1.9076  0.0192 -0.9248
 8050TIP3   OH224113   4.918   0.187   3.616 -0.7161  0.0749 -0.0021
 8050TIP3    H124114   4.953   0.187   3.526 -0.0574 -1.1558  0.2218
 8050TIP3    H224115   4.853   0.117   3.616  0.6753 -1.2903  0.9419
 8051TIP3   OH224116   4.841   3.994   4.905 -0.0669 -0.6711 -0.5138
 8051TIP3    H124117   4.888   3.923   4.862 -1.5970 -1.6301 -0.6565
 8051TIP3    H224118   4.762   4.005   4.853 -0.0482  0.8836 -0.2499
 8052TIP3   OH224119   2.933   0.808   3.630 -0.3588  0.6050 -0.0381
 8052TIP3    H124120   2.976   0.892   3.620  0.9574 -0.1899 -1.4937
 8052TIP3    H224121   3.004   0.744   3.636 -1.3232 -0.4211  0.9695
 8053TIP3   OH224122   6.292   0.833   2.394 -0.0191 -0.0225  0.0398
 8053TIP3    H124123   6.239   0.904   2.358 -0.0631  0.3369  0.7774
 8053TIP3    H224124   6.383   0.858   2.373 -0.0263  0.3180  0.3869
 8054TIP3   OH224125   0.444   0.063   0.990  0.5440  0.6045  0.2021
 8054TIP3    H124126   0.480   0.062   0.902 -0.5745  0.4227 -0.2710
 8054TIP3    H224127   0.517   0.089   1.046  0.7692  2.8964 -1.0190
 8055TIP3   OH224128   1.021   3.305   4.119  0.1200  0.0600  0.8107
 8055TIP3    H124129   1.020   3.297   4.023  0.6828  0.5636  0.7616
 8055TIP3    H224130   1.052   3.393   4.136 -0.2768  0.0849  1.4617
 8056TIP3   OH224131   1.623   1.316   4.088  0.1828  0.5842 -0.1787
 8056TIP3    H124132   1.652   1.406   4.073 -1.1364  1.0278 -0.1518
 8056TIP3    H224133   1.544   1.307   4.034  1.5814 -1.3219 -2.1180
 8057TIP3   OH224134   0.641   3.230   3.344 -0.6653  0.1468 -0.1405
 8057TIP3    H124135   0.555   3.265   3.364 -0.6135  0.0744  0.2100
 8057TIP3    H224136   0.688   3.303   3.303 -0.2922  0.7574  1.3025
 8058TIP3   OH224137   6.842   5.199   3.935  0.1407 -0.3248 -0.0557
 8058TIP3    H124138   6.913   5.208   3.998  0.0436 -0.1350  0.0278
 8058TIP3    H224139   6.880   5.149   3.863  0.7023  0.7194 -0.5184
 8059TIP3   OH224140   4.454   0.621   2.417 -0.0277  0.4259  0.1900
 8059TIP3    H124141   4.404   0.550   2.377 -1.0530  0.4514  1.3422
 8059TIP3    H224142   4.536   0.624   2.368 -0.1713 -1.2165 -0.2147
 8060TIP3   OH224143   5.800   0.314   0.682  0.4746  0.1273 -0.7285
 8060TIP3    H124144   5.707   0.318   0.707  0.8651 -1.6914  1.4060
 8060TIP3    H224145   5.800   0.271   0.597 -0.6646 -0.0072 -0.6773
 8061TIP3   OH224146   1.977   2.875   2.667 -0.4411  0.6392 -0.5452
 8061TIP3    H124147   1.934   2.952   2.704  0.8590  1.3194 -0.4051
 8061TIP3    H224148   2.069   2.883   2.693 -0.4372 -1.4755  0.3305
 8062TIP3   OH224149   6.562   6.550   2.966 -0.0235  0.1967  0.0974
 8062TIP3    H124150   6.561   6.476   3.026  1.7802  0.3153  0.3401
 8062TIP3    H224151   6.553   6.511   2.879  2.5897 -0.5571  0.0812
 8063TIP3   OH224152   6.084   6.501   3.152 -0.5697  0.0599  0.1610
 8063TIP3    H124153   6.113   6.572   3.209 -1.1118 -0.3921  1.0235
 8063TIP3    H224154   5.990   6.515   3.143 -0.7774 -0.8308  0.7755
 8064TIP3   OH224155   7.032   0.954   2.046 -0.3118  0.2681  0.4144
 8064TIP3    H124156   7.096   0.926   1.981 -1.8570 -0.7574 -0.7417
 8064TIP3    H224157   7.028   1.049   2.037  1.3352  0.3995  0.8211
 8065TIP3   OH224158   1.316   3.573   3.162 -0.1031 -0.3522  0.2495
 8065TIP3    H124159   1.354   3.523   3.234  2.3075  0.7615 -0.1509
 8065TIP3    H224160   1.376   3.559   3.088 -1.2313  0.4005 -0.8503
 8066TIP3   OH224161   2.796   1.899   3.949  0.0415 -0.3365 -0.0342
 8066TIP3    H124162   2.738   1.861   4.015  1.2310  1.3866  2.1125
 8066TIP3    H224163   2.856   1.955   3.998 -0.4227  2.8712 -2.7304
 8067TIP3   OH224164   1.777   5.084   5.008 -0.2785 -0.3426 -0.2626
 8067TIP3    H124165   1.717   5.149   4.971 -0.9816 -0.4052  0.7333
 8067TIP3    H224166   1.834   5.134   5.067  0.8790 -0.2329 -1.4171
 8068TIP3   OH224167   3.281   1.696   5.104 -0.2466 -0.0742 -0.2486
 8068TIP3    H124168   3.317   1.609   5.085  1.0062  0.0236  1.5323
 8068TIP3    H224169   3.228   1.684   5.183  1.7299  1.1408  1.3551
 8069TIP3   OH224170   3.564   2.509   1.352 -0.5325 -0.6083 -0.0942
 8069TIP3    H124171   3.602   2.471   1.272  0.3285 -1.2736  0.6124
 8069TIP3    H224172   3.485   2.555   1.321 -0.3974 -1.1245 -1.2794
 8070TIP3   OH224173   4.939   0.561   2.158 -0.2620  0.0792 -0.1651
 8070TIP3    H124174   4.952   0.642   2.208  0.8136 -1.6899  2.5891
 8070TIP3    H224175   4.868   0.515   2.203  0.0531 -1.1373 -0.8694
 8071TIP3   OH224176   4.832   4.285   3.841 -0.4437 -0.4534  0.5096
 8071TIP3    H124177   4.815   4.192   3.856 -0.8225 -0.6556 -1.0175
 8071TIP3    H224178   4.745   4.323   3.828 -0.2000 -0.1605 -0.3142
 8072TIP3   OH224179   4.844   1.397   2.999 -0.3317 -0.1498 -0.1335
 8072TIP3    H124180   4.801   1.336   3.060 -4.0737  1.3830 -0.9658
 8072TIP3    H224181   4.857   1.477   3.050 -0.1227 -0.0138 -0.3981
 8073TIP3   OH224182   6.366   4.246   4.976 -0.5849 -0.5938  0.3964
 8073TIP3    H124183   6.384   4.284   5.062  0.1004  1.3309 -0.5435
 8073TIP3    H224184   6.444   4.195   4.955 -0.3760 -0.3224  0.5222
 8074TIP3   OH224185   2.513   2.207   3.000  0.3268  0.6404  0.3510
 8074TIP3    H124186   2.492   2.116   2.982 -2.9738  0.7689  2.6840
 8074TIP3    H224187   2.559   2.204   3.084  0.7448  1.0976  0.1425
 8075TIP3   OH224188   4.025   5.581   3.720  0.0108  0.3007 -0.1596
 8075TIP3    H124189   3.981   5.554   3.800  1.4701  1.1419  0.9629
 8075TIP3    H224190   3.954   5.615   3.664 -0.8485  1.0499  1.3331
 8076TIP3   OH224191   2.608   4.400   2.977 -0.4586 -0.1395 -0.0927
 8076TIP3    H124192   2.596   4.447   3.060  0.8680 -0.5507  0.3523
 8076TIP3    H224193   2.607   4.469   2.910  0.0040  0.3716  0.4140
 8077TIP3   OH224194   3.824   6.167   5.390  0.4834 -0.4623  0.2828
 8077TIP3    H124195   3.772   6.200   5.316 -0.2224  0.0526  0.9984
 8077TIP3    H224196   3.856   6.246   5.433  1.9776 -0.7747 -0.2122
 8078TIP3   OH224197   4.371   2.051   5.776  0.1497 -0.0360  0.5375
 8078TIP3    H124198   4.377   2.069   5.870  0.8927 -1.1788  0.7442
 8078TIP3    H224199   4.286   2.009   5.764  0.8432 -1.6951  1.0797
 8079TIP3   OH224200   5.258   4.389   1.133 -0.1815 -0.0207 -0.3303
 8079TIP3    H124201   5.270   4.306   1.179  0.7679 -1.3404 -2.7640
 8079TIP3    H224202   5.180   4.427   1.172 -0.2810 -1.7518  1.2959
 8080TIP3   OH224203   3.981   2.953   5.722  0.0485  0.1560 -0.6076
 8080TIP3    H124204   4.046   3.023   5.726  0.2209  0.0378 -1.1581
 8080TIP3    H224205   3.999   2.909   5.639  0.7336 -1.3227  0.2849
 8081TIP3   OH224206   4.177   0.651   1.116  0.6391  0.0003  0.3919
 8081TIP3    H124207   4.091   0.623   1.147  1.1179 -0.3146  1.4790
 8081TIP3    H224208   4.223   0.570   1.095  1.3428  0.0394  1.6808
 8082TIP3   OH224209   3.043   6.326   3.397 -0.3046  0.3094  0.6409
 8082TIP3    H124210   3.023   6.235   3.375  1.1202  0.1479 -0.0550
 8082TIP3    H224211   3.058   6.369   3.313  1.1020  0.6806  1.0564
 8083TIP3   OH224212   0.770   5.177   1.151 -0.7115 -0.0041 -0.6781
 8083TIP3    H124213   0.807   5.092   1.130 -2.6388 -0.7093 -1.4926
 8083TIP3    H224214   0.707   5.159   1.221  0.1562  1.0891  0.4333
 8084TIP3   OH224215   0.076   6.565   3.237 -0.1228  0.0305  0.3811
 8084TIP3    H124216   0.082   6.658   3.256  0.3504  0.0635  0.0940
 8084TIP3    H224217   0.112   6.522   3.315 -0.7672  0.0658  0.7066
 8085TIP3   OH224218   5.619   6.654   2.251  0.0741  0.0191  0.6598
 8085TIP3    H124219   5.657   6.734   2.215  0.2492 -0.5702 -0.5177
 8085TIP3    H224220   5.658   6.583   2.199 -2.1106 -0.6564 -0.1642
 8086TIP3   OH224221   1.517   1.658   1.345  0.5264 -0.1276  0.4411
 8086TIP3    H124222   1.557   1.719   1.406  1.3239  0.9743 -1.0994
 8086TIP3    H224223   1.588   1.634   1.285 -0.5807  0.1308 -1.0199
 8087TIP3   OH224224   5.307   5.714   3.654  0.0493  0.5202 -0.4265
 8087TIP3    H124225   5.212   5.717   3.643  0.0361  2.6890 -0.1568
 8087TIP3    H224226   5.321   5.730   3.747  0.7145  2.1758 -0.7857
 8088TIP3   OH224227   5.514   6.199   4.431 -0.4919 -0.2555  0.8869
 8088TIP3    H124228   5.559   6.153   4.502  1.0546 -0.0943  0.0526
 8088TIP3    H224229   5.520   6.139   4.356  0.0315  0.5542  0.2565
 8089TIP3   OH224230   0.091   1.204   0.329 -0.2369  0.5210  0.3002
 8089TIP3    H124231   0.093   1.249   0.244 -0.3180  1.6370  0.8685
 8089TIP3    H224232   0.120   1.115   0.310  2.2247  1.4209 -0.5049
 8090TIP3   OH224233   6.688   6.362   4.501 -0.2982 -0.3849 -0.5661
 8090TIP3    H124234   6.612   6.312   4.531 -1.1538  1.2943  0.1470
 8090TIP3    H224235   6.661   6.453   4.504  1.7382  0.2763 -0.2959
 8091TIP3   OH224236   3.207   4.958   2.570 -0.2119 -0.5982  0.6469
 8091TIP3    H124237   3.233   4.947   2.661 -1.1671 -0.1910  0.9822
 8091TIP3    H224238   3.151   5.035   2.570 -0.8708 -1.0577 -0.1435
 8092TIP3   OH224239   0.375   4.890   2.569 -0.2148  0.2051  0.1254
 8092TIP3    H124240   0.329   4.821   2.522  1.5933 -2.4784  2.0370
 8092TIP3    H224241   0.455   4.849   2.601  0.1311  2.6749  2.8819
 8093TIP3   OH224242   3.357   1.048   2.997  0.4356 -0.2400 -0.3663
 8093TIP3    H124243   3.325   0.979   2.938  0.2682  0.8693 -1.6228
 8093TIP3    H224244   3.452   1.047   2.985  0.7677 -2.1429  1.8047
 8094TIP3   OH224245   2.103   3.436   0.863  0.1865  1.0807  0.4532
 8094TIP3    H124246   2.090   3.490   0.785  0.5824  0.9198  0.2701
 8094TIP3    H224247   2.041   3.470   0.927  0.4213  1.7514  0.3376
 8095TIP3   OH224248   1.708   5.164   4.005  0.4816  0.0191  0.2242
 8095TIP3    H124249   1.754   5.163   4.089  1.5683 -0.4821 -0.3616
 8095TIP3    H224250   1.704   5.257   3.983  2.7464  0.0155 -0.4941
 8096TIP3   OH224251   0.435   1.464   4.508 -0.2567 -0.5650  0.0408
 8096TIP3    H124252   0.530   1.456   4.495  0.0649 -0.1913  1.8603
 8096TIP3    H224253   0.401   1.377   4.490  0.3236 -0.5300 -1.3283
 8097TIP3   OH224254   0.448   4.897   1.299  0.1460  0.0857  0.2840
 8097TIP3    H124255   0.505   4.852   1.361 -0.5841 -0.6508  0.4458
 8097TIP3    H224256   0.488   4.882   1.214 -1.1880 -2.7951  0.0387
 8098TIP3   OH224257   4.564   6.772   3.398  0.1159  0.1231  0.5539
 8098TIP3    H124258   4.501   6.821   3.345 -0.4571 -0.8047  0.3491
 8098TIP3    H224259   4.545   6.680   3.379  1.1890 -0.1855  0.8962
 8099TIP3   OH224260   4.823   4.580   1.587 -0.0590  0.1462 -0.1882
 8099TIP3    H124261   4.913   4.613   1.582 -0.4367  1.2393  0.0161
 8099TIP3    H224262   4.774   4.635   1.526 -0.3380 -1.3989 -1.4226
 8100TIP3   OH224263   3.349   2.433   0.947 -0.5335 -0.2570  0.0649
 8100TIP3    H124264   3.308   2.368   1.004  2.5862 -1.8711  0.6977
 8100TIP3    H224265   3.354   2.390   0.861  1.3012 -0.8436  0.4222
 8101TIP3   OH224266   1.580   5.801   5.056  0.1509 -0.1013 -0.2751
 8101TIP3    H124267   1.622   5.840   4.979 -0.1631 -0.6285 -0.7213
 8101TIP3    H224268   1.568   5.709   5.032 -2.1091  0.2126 -0.5605
 8102TIP3   OH224269   5.081   5.675   2.037 -0.6680 -0.0781 -0.1636
 8102TIP3    H124270   5.073   5.770   2.046 -1.0134 -0.0655 -0.5497
 8102TIP3    H224271   5.057   5.641   2.122 -1.0816  0.1562 -0.1853
 8103TIP3   OH224272   5.837   0.228   2.122  0.0386  0.5136 -0.1489
 8103TIP3    H124273   5.927   0.207   2.097 -0.5484 -0.2190 -1.8398
 8103TIP3    H224274   5.826   0.188   2.209  1.0485 -0.2648 -0.3584
 8104TIP3   OH224275   0.927   5.232   3.260 -0.3759 -1.2743  0.1062
 8104TIP3    H124276   1.022   5.239   3.263 -0.5143  2.0368  2.4119
 8104TIP3    H224277   0.904   5.191   3.344 -0.9752  2.6424  2.1077
 8105TIP3   OH224278   3.675   3.076   3.938  0.1319 -0.1706 -0.4077
 8105TIP3    H124279   3.691   2.986   3.968 -0.5524  0.3679  1.7430
 8105TIP3    H224280   3.579   3.084   3.937  0.1349  0.0673 -2.2153
 8106TIP3   OH224281   3.680   5.964   5.703 -0.7167  0.0060  0.2308
 8106TIP3    H124282   3.722   6.017   5.771  0.1578  0.9195 -0.9791
 8106TIP3    H224283   3.629   6.026   5.651 -0.8292 -0.5673 -0.3683
 8107TIP3   OH224284   4.648   6.412   1.998 -0.0579 -0.0245  0.3351
 8107TIP3    H124285   4.630   6.360   2.077 -2.3679 -0.5983 -0.5021
 8107TIP3    H224286   4.562   6.443   1.970  0.7969  0.6770 -1.6365
 8108TIP3   OH224287   3.096   5.733   2.135 -0.4509  0.1819  0.5572
 8108TIP3    H124288   3.084   5.674   2.209  2.0330  0.5203  1.3351
 8108TIP3    H224289   3.068   5.682   2.059  0.3692 -1.5339  1.3536
 8109TIP3   OH224290   3.433   0.806   0.572 -0.6010  0.3165 -0.2449
 8109TIP3    H124291   3.455   0.713   0.567 -1.1132  0.2261 -0.9238
 8109TIP3    H224292   3.351   0.814   0.524 -0.6556  1.0940 -0.0369
 8110TIP3   OH224293   2.947   5.429   4.396 -0.0187 -0.2254 -0.0906
 8110TIP3    H124294   3.001   5.470   4.464  0.5753  0.6095 -1.0311
 8110TIP3    H224295   2.972   5.474   4.316  1.7129 -3.3141 -1.4832
 8111TIP3   OH224296   4.062   6.302   3.520 -0.3925  0.1336  0.5753
 8111TIP3    H124297   4.113   6.319   3.440 -3.2992  0.6520 -1.3374
 8111TIP3    H224298   4.092   6.217   3.550  1.2006  0.1803 -0.7025
 8112TIP3   OH224299   4.708   2.082   0.281  0.2996 -0.3013 -0.2721
 8112TIP3    H124300   4.658   2.078   0.199  0.3295 -0.9835 -0.2597
 8112TIP3    H224301   4.671   2.012   0.335  0.6783 -0.2345  0.0768
 8113TIP3   OH224302   5.811   4.891   2.039 -0.2558  0.1984 -0.4295
 8113TIP3    H124303   5.787   4.853   1.955  0.5522 -0.0161 -0.5751
 8113TIP3    H224304   5.898   4.929   2.024 -0.2064  0.3693  0.2425
 8114TIP3   OH224305   3.991   5.654   0.342  0.1860  0.1090 -0.2622
 8114TIP3    H124306   4.027   5.712   0.276 -0.5500  1.3800  0.4102
 8114TIP3    H224307   3.942   5.712   0.401  3.2238 -0.4085  3.1835
 8115TIP3   OH224308   1.372   3.214   4.069 -0.3371 -0.5832 -0.1716
 8115TIP3    H124309   1.374   3.271   3.992 -0.1139  0.8771  0.8574
 8115TIP3    H224310   1.318   3.139   4.042 -0.1646 -0.1792 -1.7652
 8116TIP3   OH224311   1.584   2.226   3.598  0.4757  0.0030  0.0618
 8116TIP3    H124312   1.548   2.255   3.682  2.4574  1.6992  0.3914
 8116TIP3    H224313   1.665   2.181   3.620  0.5257 -0.4049 -0.8909
 8117TIP3   OH224314   2.653   2.372   1.569 -0.2130 -0.1292 -0.7233
 8117TIP3    H124315   2.676   2.464   1.556  0.6613 -0.1749  0.3584
 8117TIP3    H224316   2.682   2.328   1.489  1.3662  0.2093 -0.3782
 8118TIP3   OH224317   4.707   5.598   0.888 -0.3191 -0.7941  0.1507
 8118TIP3    H124318   4.721   5.564   0.977  0.7126  0.0018  0.3141
 8118TIP3    H224319   4.626   5.557   0.859 -2.2415  1.0040  2.5206
 8119TIP3   OH224320   2.173   2.383   3.246  0.5160  0.4273 -0.1812
 8119TIP3    H124321   2.231   2.385   3.322 -1.8654  1.1889  1.7525
 8119TIP3    H224322   2.121   2.303   3.257 -0.7037  1.1760 -0.2770
 8120TIP3   OH224323   6.863   1.511   5.208  0.5333  0.5039 -0.2047
 8120TIP3    H124324   6.874   1.435   5.150  1.3173  0.6612 -0.2745
 8120TIP3    H224325   6.780   1.549   5.181 -0.5110 -1.0365  0.6701
 8121TIP3   OH224326   3.753   5.101   4.227  0.1302  0.2542 -0.8626
 8121TIP3    H124327   3.706   5.182   4.249  1.5452  1.2636 -1.4109
 8121TIP3    H224328   3.764   5.057   4.311 -0.5103  0.7100 -0.5262
 8122TIP3   OH224329   0.032   1.758   4.666 -0.4441 -0.1984 -0.0830
 8122TIP3    H124330  -0.017   1.689   4.623 -1.0440 -0.4515  1.0065
 8122TIP3    H224331   0.022   1.742   4.759  0.1643  0.8282  0.1799
 8123TIP3   OH224332   1.675   2.267   3.286 -0.6734  0.0448  0.3040
 8123TIP3    H124333   1.727   2.347   3.278 -2.6866  1.2757 -1.5755
 8123TIP3    H224334   1.692   2.219   3.205 -0.2099 -0.9899  1.0029
 8124TIP3   OH224335   4.700   2.582   4.145 -0.1566 -0.8161 -0.4443
 8124TIP3    H124336   4.637   2.516   4.115 -0.3038 -0.7030 -0.3851
 8124TIP3    H224337   4.734   2.548   4.228  1.1743 -1.7403 -1.3213
 8125TIP3   OH224338   3.056   0.939   1.528  0.2834  0.6050  0.4260
 8125TIP3    H124339   3.092   1.027   1.537  2.4340 -0.0723 -0.6940
 8125TIP3    H224340   3.048   0.907   1.618 -0.1442  1.7830  0.8191
 8126TIP3   OH224341   3.485   0.645   4.450  0.5226  0.2922  0.1316
 8126TIP3    H124342   3.421   0.688   4.394 -0.9203  0.3021  1.6955
 8126TIP3    H224343   3.462   0.673   4.539  0.8194 -2.0309  1.0341
 8127TIP3   OH224344   0.486   6.460   4.366 -0.4158  0.3729  0.1557
 8127TIP3    H124345   0.545   6.388   4.390 -0.7924 -0.2018 -0.6060
 8127TIP3    H224346   0.543   6.524   4.324 -0.0509  0.5956  0.9736
 8128TIP3   OH224347   6.765   3.720   3.306 -0.3785  0.2005  0.3446
 8128TIP3    H124348   6.738   3.770   3.383 -3.4440  1.0260 -1.1137
 8128TIP3    H224349   6.723   3.635   3.317 -1.4771  0.5753 -0.6852
 8129TIP3   OH224350   3.375   3.188   2.709  0.0076  0.2234  0.1702
 8129TIP3    H124351   3.345   3.113   2.760  1.2642 -0.4920 -0.0991
 8129TIP3    H224352   3.297   3.241   2.696 -1.5511 -2.3558 -1.9180
 8130TIP3   OH224353   3.000   2.900   0.124 -0.1612 -0.1996  0.9057
 8130TIP3    H124354   2.950   2.974   0.157 -0.0762 -0.5217  1.7947
 8130TIP3    H224355   3.070   2.887   0.189  0.9480  0.1046 -0.1928
 8131TIP3   OH224356   6.599   2.327   2.486  0.2528  0.0841 -0.0473
 8131TIP3    H124357   6.576   2.239   2.517  2.3678 -0.1374  1.0628
 8131TIP3    H224358   6.547   2.338   2.406 -3.9801 -0.0923  2.3827
 8132TIP3   OH224359   5.757   3.489   1.819  0.0792  0.1516 -0.0691
 8132TIP3    H124360   5.821   3.418   1.829 -1.7297 -1.4655  0.6694
 8132TIP3    H224361   5.680   3.459   1.868 -0.5172  2.9813  0.9369
 8133TIP3   OH224362   3.175   2.392   1.465  0.4481  0.2177  0.4612
 8133TIP3    H124363   3.175   2.363   1.374 -0.3993  1.0408  0.1848
 8133TIP3    H224364   3.138   2.318   1.514  1.6758 -0.5492  0.2655
 8134TIP3   OH224365   6.938   6.691   3.193  0.4664  0.3387 -0.5288
 8134TIP3    H124366   7.000   6.640   3.142  0.6150 -0.3015  0.2781
 8134TIP3    H224367   6.852   6.656   3.169  0.5474 -0.0818 -0.2146
 8135TIP3   OH224368   3.414   4.393   0.236 -0.3733 -0.4046  0.0432
 8135TIP3    H124369   3.377   4.374   0.322 -0.1817 -1.8342 -0.1685
 8135TIP3    H224370   3.470   4.318   0.216 -1.5609 -0.8398 -1.9575
 8136TIP3   OH224371   4.981   3.283   3.278 -0.4972 -0.1155  0.5413
 8136TIP3    H124372   4.920   3.214   3.304 -1.0549  0.4765  0.8123
 8136TIP3    H224373   5.062   3.264   3.327 -1.1550  0.3243  1.8387
 8137TIP3   OH224374   4.379   3.106   1.809 -0.0639 -0.3946  0.3342
 8137TIP3    H124375   4.377   3.166   1.883  1.8476 -0.2079  0.2852
 8137TIP3    H224376   4.364   3.020   1.848 -1.7764 -0.0277  0.5432
 8138TIP3   OH224377   4.537   4.754   0.994  0.2507 -0.1761  0.1768
 8138TIP3    H124378   4.543   4.664   1.027 -0.9432 -0.3354 -0.0167
 8138TIP3    H224379   4.452   4.759   0.952  0.4137  0.9787 -0.0517
 8139TIP3   OH224380   1.322   1.181   3.269 -0.1679  0.0023  0.2877
 8139TIP3    H124381   1.295   1.270   3.247  0.4643 -0.2771 -1.8202
 8139TIP3    H224382   1.351   1.144   3.186  2.6598 -1.1084  1.6707
 8140TIP3   OH224383   2.125   2.873   3.513 -0.3581 -0.1799  0.4544
 8140TIP3    H124384   2.074   2.821   3.576 -1.3674 -1.3901 -1.2919
 8140TIP3    H224385   2.168   2.808   3.458  0.4172  0.8516 -0.1961
 8141TIP3   OH224386   2.925   3.906   3.981  0.0111 -0.1906 -0.5871
 8141TIP3    H124387   2.847   3.851   3.981 -1.4548  1.7154 -3.3586
 8141TIP3    H224388   2.917   3.958   4.061 -1.0737 -0.6368 -0.3863
 8142TIP3   OH224389   0.744   3.143   0.292  0.4677 -0.4921  0.0113
 8142TIP3    H124390   0.687   3.209   0.331 -1.0169 -1.8394  0.2188
 8142TIP3    H224391   0.825   3.190   0.272 -0.2600  1.1972  0.8424
 8143TIP3   OH224392   1.147   3.011   5.342  0.4507 -0.3746  0.0976
 8143TIP3    H124393   1.196   3.081   5.300  0.3742 -0.2760  0.1716
 8143TIP3    H224394   1.113   2.958   5.270 -0.9650  0.6601 -0.0158
 8144TIP3   OH224395   0.610   3.749   2.563  0.4398 -0.1662 -0.2622
 8144TIP3    H124396   0.683   3.810   2.551  0.8617 -0.2232  1.7170
 8144TIP3    H224397   0.532   3.802   2.546  0.8011  0.9422  1.3499
 8145TIP3   OH224398   0.840   4.126   0.060 -0.8484  0.4187  0.1303
 8145TIP3    H124399   0.751   4.119   0.025 -0.6432 -0.9127 -0.2009
 8145TIP3    H224400   0.831   4.179   0.139 -1.5032  2.5388 -1.2792
 8146TIP3   OH224401   6.319   3.439   0.398 -0.1134  0.4619 -0.3370
 8146TIP3    H124402   6.313   3.534   0.387 -0.1472  0.6999  1.5516
 8146TIP3    H224403   6.389   3.426   0.462  2.4880 -1.0314 -3.1963
 8147TIP3   OH224404   1.377   1.711   5.654  0.6087  0.4011 -0.1157
 8147TIP3    H124405   1.297   1.671   5.688  1.2837 -0.4549  0.5012
 8147TIP3    H224406   1.360   1.723   5.561  0.5818 -1.8212 -0.4305
 8148TIP3   OH224407   3.332   5.178   0.345 -0.0088 -0.5174  0.5694
 8148TIP3    H124408   3.424   5.153   0.334  0.1635  0.3217 -0.0007
 8148TIP3    H224409   3.336   5.263   0.390 -0.4836 -0.1999  0.0189
 8149TIP3   OH224410   2.123   2.941   4.189 -0.3589  0.0166 -0.2105
 8149TIP3    H124411   2.127   3.023   4.140 -0.3347 -1.5107 -2.9077
 8149TIP3    H224412   2.032   2.913   4.182 -0.4258 -0.1103  0.9032
 8150TIP3   OH224413   6.061   6.307   3.325 -0.2210 -0.4545  0.5575
 8150TIP3    H124414   6.062   6.372   3.255 -2.1677 -1.6391 -0.6650
 8150TIP3    H224415   6.046   6.357   3.404  0.1867  0.7600 -0.1135
 8151TIP3   OH224416   1.462   0.565   1.772  0.0599  0.0062 -0.3004
 8151TIP3    H124417   1.384   0.619   1.756  0.4994  0.6316 -0.3465
 8151TIP3    H224418   1.447   0.486   1.720 -0.5842  0.0852 -0.2452
 8152TIP3   OH224419   4.825   2.390   5.014 -0.3847  0.8511 -0.4308
 8152TIP3    H124420   4.879   2.391   5.094  1.5050  0.2489 -1.6454
 8152TIP3    H224421   4.789   2.301   5.011  0.8322  0.3620 -1.0481
 8153TIP3   OH224422   2.135   6.122   5.051 -0.0627 -0.3474  1.0395
 8153TIP3    H124423   2.127   6.031   5.081 -2.6190 -0.4075  0.3874
 8153TIP3    H224424   2.116   6.118   4.957  0.1570  0.8336  0.9299
 8154TIP3   OH224425   0.222   2.447   2.429 -0.2050  0.6544  0.0498
 8154TIP3    H124426   0.307   2.410   2.408 -0.1577  0.4618  0.5692
 8154TIP3    H224427   0.236   2.542   2.429 -0.3392  0.6875 -1.3341
 8155TIP3   OH224428   6.050   4.767   2.682  0.1714  0.1645  0.6282
 8155TIP3    H124429   5.997   4.696   2.646  1.2883 -0.8141  0.8676
 8155TIP3    H224430   6.136   4.729   2.695  1.0710  1.8474 -0.1310
 8156TIP3   OH224431   3.475   1.909   4.844 -0.0602 -0.1876  0.0730
 8156TIP3    H124432   3.560   1.949   4.860  0.2458 -0.3799 -1.0192
 8156TIP3    H224433   3.487   1.816   4.862 -0.3783 -0.0336  1.1407
 8157TIP3   OH224434   4.215   4.595   3.893  0.2883 -0.2408  0.1191
 8157TIP3    H124435   4.187   4.618   3.804  1.3414 -1.0056 -0.4432
 8157TIP3    H224436   4.253   4.507   3.884  1.1362 -0.0051  1.1726
 8158TIP3   OH224437   5.197   2.329   0.178  0.1802  0.5018  0.3333
 8158TIP3    H124438   5.173   2.411   0.220 -1.6090  1.1686 -1.8146
 8158TIP3    H224439   5.293   2.333   0.172  0.0893  3.1175 -0.8928
 8159TIP3   OH224440   3.477   6.590   0.101 -0.7084 -0.2654 -0.1397
 8159TIP3    H124441   3.447   6.569   0.189 -0.6419  0.9075  0.1745
 8159TIP3    H224442   3.404   6.639   0.062  0.0258  0.9796 -0.0145
 8160TIP3   OH224443   6.924   0.868   3.569  0.1382  0.0992  0.1178
 8160TIP3    H124444   6.897   0.790   3.519 -0.9847 -0.2281  1.1708
 8160TIP3    H224445   6.974   0.920   3.507 -1.0432 -0.3777 -1.2944
 8161TIP3   OH224446   1.082   5.198   1.865  0.2510  0.4323  0.4547
 8161TIP3    H124447   1.145   5.228   1.931  2.8418  1.3288 -2.2224
 8161TIP3    H224448   1.032   5.277   1.842 -1.4737 -0.1196  2.0230
 8162TIP3   OH224449   2.550   1.925   0.532  0.0047  0.7585  0.1614
 8162TIP3    H124450   2.537   1.845   0.584  0.1637 -0.6676 -1.8801
 8162TIP3    H224451   2.513   1.904   0.447  0.4676  2.7414 -0.5661
 8163TIP3   OH224452   0.038   4.229   4.849 -0.0326  0.5581 -0.7633
 8163TIP3    H124453   0.015   4.264   4.763  0.3205  1.6668 -0.4336
 8163TIP3    H224454   0.002   4.141   4.850 -1.6446  1.1812 -1.3534
 8164TIP3   OH224455   2.152   4.262   4.406 -0.3405 -0.0824  0.1046
 8164TIP3    H124456   2.078   4.229   4.354 -0.0192 -0.8715  0.1341
 8164TIP3    H224457   2.189   4.184   4.447 -1.3955  0.6511  2.6356
 8165TIP3   OH224458   7.143   3.150   5.257 -0.6127 -0.9111  0.1498
 8165TIP3    H124459   7.053   3.134   5.286 -1.3284 -0.6819 -1.7888
 8165TIP3    H224460   7.189   3.179   5.336 -2.8547  1.3682  0.7590
 8166TIP3   OH224461   6.543   4.151   0.649 -0.0261 -0.1570 -0.4512
 8166TIP3    H124462   6.458   4.186   0.676  0.2142  0.3687 -0.3458
 8166TIP3    H224463   6.581   4.117   0.730 -0.7521 -1.7740 -0.7579
 8167TIP3   OH224464   2.644   5.984   3.854 -0.2294  0.9147  0.0786
 8167TIP3    H124465   2.708   5.989   3.783  0.9630 -1.2314  0.9002
 8167TIP3    H224466   2.565   6.024   3.817  0.6683  0.8712 -2.0640
 8168TIP3   OH224467   5.623   2.557   3.898 -0.1886 -0.0060 -0.2070
 8168TIP3    H124468   5.674   2.595   3.827 -0.8499 -1.2924 -1.4329
 8168TIP3    H224469   5.684   2.498   3.943  0.4919  1.5098  0.9210
 8169TIP3   OH224470   5.515   0.679   2.427 -0.1790  0.4684 -0.0659
 8169TIP3    H124471   5.420   0.685   2.437 -0.1196  1.8871 -0.2200
 8169TIP3    H224472   5.528   0.675   2.332 -0.1120 -0.6131 -0.0255
 8170TIP3   OH224473   0.021   4.233   3.494  0.2030  0.1703  0.2113
 8170TIP3    H124474   0.109   4.272   3.492 -0.2462  1.6147  2.8814
 8170TIP3    H224475   0.027   4.164   3.560 -0.5307 -0.0112  0.0933
 8171TIP3   OH224476   4.284   1.928   4.231  0.1979 -0.1065  0.0477
 8171TIP3    H124477   4.360   1.955   4.282 -1.3629 -0.3026  2.6457
 8171TIP3    H224478   4.313   1.850   4.184  1.5617 -0.2567  1.0708
 8172TIP3   OH224479   2.632   5.648   1.737  0.0149 -0.2394 -0.1584
 8172TIP3    H124480   2.578   5.659   1.815  0.6749 -0.6925  0.3728
 8172TIP3    H224481   2.578   5.682   1.666  0.1968  2.1312  0.7569
 8173TIP3   OH224482   6.123   1.647  -0.001  0.1066  0.0100  0.2641
 8173TIP3    H124483   6.154   1.700   0.072 -1.4128 -0.0002  0.9456
 8173TIP3    H224484   6.146   1.557   0.024 -0.7808 -0.0404  0.9555
 8174TIP3   OH224485   3.523   2.653   0.549 -0.0097  0.2788 -0.1575
 8174TIP3    H124486   3.527   2.568   0.591  0.6078  0.6188  0.4849
 8174TIP3    H224487   3.458   2.702   0.598  1.6261  1.1191  1.2823
 8175TIP3   OH224488   2.041   6.674   0.012 -0.3382 -0.0994 -0.0267
 8175TIP3    H124489   2.110   6.686   0.077 -1.0099  0.0688  0.6675
 8175TIP3    H224490   1.963   6.711   0.053 -0.3560  1.9023 -1.7443
 8176TIP3   OH224491   4.271   6.271   3.365  0.0121  0.0957  0.9013
 8176TIP3    H124492   4.304   6.288   3.277  1.4765  1.7387  1.7028
 8176TIP3    H224493   4.349   6.262   3.420 -0.8237 -2.5704  1.8161
 8177TIP3   OH224494   4.299   5.954   3.558 -0.5108  0.0758  0.0513
 8177TIP3    H124495   4.277   5.908   3.477  1.8039 -2.7692  0.8569
 8177TIP3    H224496   4.296   5.886   3.626  2.1808  1.2707  1.5289
 8178TIP3   OH224497   7.061   2.750   3.079 -0.1998 -0.5717  0.0448
 8178TIP3    H124498   7.000   2.677   3.087  1.2430 -1.6631  1.6363
 8178TIP3    H224499   7.122   2.724   3.009  0.6887 -1.2135  1.0323
 8179TIP3   OH224500   1.444   2.167   2.392  0.0132  0.6185  0.1083
 8179TIP3    H124501   1.484   2.241   2.347  3.1503 -0.4890  0.8552
 8179TIP3    H224502   1.469   2.179   2.484 -1.5077 -0.1297  0.6477
 8180TIP3   OH224503   5.679   6.694   4.505 -0.4796 -0.1618 -0.5322
 8180TIP3    H124504   5.686   6.599   4.517  1.5737  0.0024  0.0108
 8180TIP3    H224505   5.698   6.707   4.412  1.3613 -0.1865 -0.2076
 8181TIP3   OH224506   5.992   0.838   2.976  0.8340  0.1644 -0.2627
 8181TIP3    H124507   5.904   0.846   3.012  0.3803 -0.2381 -1.2401
 8181TIP3    H224508   5.979   0.825   2.882  1.9555  0.6076 -0.5004
 8182TIP3   OH224509   2.863   2.921   5.388  0.3204  0.3459 -0.6857
 8182TIP3    H124510   2.899   2.936   5.475 -2.3830  1.0731  0.4089
 8182TIP3    H224511   2.858   2.826   5.381 -1.3553  0.2626  0.8883
 8183TIP3   OH224512   3.032   2.772   3.522  0.3113 -0.5811  0.1054
 8183TIP3    H124513   3.068   2.860   3.520  2.3596 -1.3835 -0.7550
 8183TIP3    H224514   2.993   2.763   3.609  0.7257  0.8893  0.4658
 8184TIP3   OH224515   6.346   3.426   1.468 -0.1272 -0.4152  0.1941
 8184TIP3    H124516   6.374   3.415   1.377  1.2215 -0.0805  0.5557
 8184TIP3    H224517   6.382   3.511   1.494  0.1612 -0.8522  1.2772
 8185TIP3   OH224518   2.757   2.372   1.283  0.2721 -0.4558 -0.2125
 8185TIP3    H124519   2.835   2.322   1.258  0.6785 -0.5338  1.1218
 8185TIP3    H224520   2.683   2.318   1.254  0.7071 -1.7973  1.0569
 8186TIP3   OH224521   5.681   5.163   3.054  0.3544 -0.0146  0.1963
 8186TIP3    H124522   5.710   5.216   3.128 -0.9113  0.7908  0.1367
 8186TIP3    H224523   5.637   5.225   2.995  0.7785 -0.7542 -0.9267
 8187TIP3   OH224524   2.100   5.964   3.885  0.2441  0.0420 -0.4001
 8187TIP3    H124525   2.034   5.962   3.954  1.3015  1.9829  0.7788
 8187TIP3    H224526   2.121   6.057   3.874  2.2825 -0.4384 -1.1750
 8188TIP3   OH224527   0.471   3.076   4.391  0.4343 -0.3168 -0.1841
 8188TIP3    H124528   0.556   3.118   4.401  0.9355 -0.7220 -2.3278
 8188TIP3    H224529   0.433   3.117   4.313  0.1420 -2.4857 -1.2372
 8189TIP3   OH224530   3.418   0.775   4.698 -0.1640 -0.4671 -0.0374
 8189TIP3    H124531   3.419   0.807   4.788  1.4460  1.3111 -0.6342
 8189TIP3    H224532   3.326   0.779   4.672 -0.5257 -0.1576  1.2305
 8190TIP3   OH224533   0.505   0.945   5.705  0.2270  0.4800  0.4003
 8190TIP3    H124534   0.519   1.028   5.752  0.0665  0.3357  0.7069
 8190TIP3    H224535   0.412   0.927   5.717  0.1138  0.6098 -0.2592
 8191TIP3   OH224536   3.358   3.897   4.897 -0.0679 -0.4871  0.1261
 8191TIP3    H124537   3.418   3.968   4.875  1.0462 -1.2643  0.5913
 8191TIP3    H224538   3.275   3.941   4.916  0.5955  0.6878  0.4171
 8192TIP3   OH224539   0.571   3.711   3.545 -0.0562  0.1113  0.3235
 8192TIP3    H124540   0.574   3.741   3.636  2.0163  0.2845  0.2503
 8192TIP3    H224541   0.655   3.739   3.508  0.3185 -2.3291 -0.8740
 8193TIP3   OH224542   5.289   4.462   0.429 -0.1254  0.7984  0.0915
 8193TIP3    H124543   5.249   4.440   0.513  1.3810 -0.9304  0.4304
 8193TIP3    H224544   5.362   4.519   0.452 -1.3127  2.5665 -0.3568
 8194TIP3   OH224545   1.394   1.574   0.079 -0.1447 -0.1449 -0.2754
 8194TIP3    H124546   1.426   1.489   0.108 -0.2666 -0.1179 -0.0566
 8194TIP3    H224547   1.426   1.636   0.145 -1.7714 -0.2949  0.7022
 8195TIP3   OH224548   0.395   5.843   1.586  0.2188 -0.2405  0.2436
 8195TIP3    H124549   0.444   5.866   1.665  1.7703 -0.5275 -0.5922
 8195TIP3    H224550   0.326   5.909   1.580  1.3473  1.0283  0.7330
 8196TIP3   OH224551   3.057   2.199   2.659 -0.1534 -0.0789  0.4010
 8196TIP3    H124552   2.993   2.233   2.597  0.5106  0.2498 -0.1177
 8196TIP3    H224553   3.132   2.174   2.605  0.5222  0.4017  1.0885
 8197TIP3   OH224554   5.745   5.767   4.349 -0.2939  0.1446  0.3419
 8197TIP3    H124555   5.700   5.848   4.370 -2.1083 -0.5543 -0.6280
 8197TIP3    H224556   5.755   5.722   4.433  0.9526  1.4360  0.9171
 8198TIP3   OH224557   2.932   6.388   2.879 -0.2190 -0.4261  0.2068
 8198TIP3    H124558   2.939   6.447   2.803  0.9447  0.9852  1.3387
 8198TIP3    H224559   3.015   6.340   2.879 -1.7625 -3.3624 -1.6173
 8199TIP3   OH224560   0.751   0.574   4.136  1.1342  0.4478  0.0376
 8199TIP3    H124561   0.706   0.590   4.052  2.1554  1.3909 -0.3553
 8199TIP3    H224562   0.746   0.658   4.181 -0.7827 -0.4456  1.6624
 8200TIP3   OH224563   5.219   0.299   3.535 -0.6592  0.5571 -0.3293
 8200TIP3    H124564   5.283   0.251   3.587  1.0521  1.1285 -1.7868
 8200TIP3    H224565   5.200   0.377   3.586  0.2479  0.6446 -0.1073
 8201TIP3   OH224566   7.038   2.307   5.540  0.0357 -0.0842 -0.2148
 8201TIP3    H124567   7.114   2.256   5.568 -0.8346 -1.1985  0.1765
 8201TIP3    H224568   7.051   2.318   5.446  1.7975  1.6920  0.1531
 8202TIP3   OH224569   0.976   3.250   0.174 -0.0809  0.3767 -0.0835
 8202TIP3    H124570   0.945   3.337   0.196  0.1704  0.2415  0.8551
 8202TIP3    H224571   1.013   3.259   0.086  1.3312  1.5833  0.5944
 8203TIP3   OH224572   6.476   6.604   3.863  0.2962 -0.6015 -0.7050
 8203TIP3    H124573   6.497   6.658   3.786  0.8606  0.6507  0.2805
 8203TIP3    H224574   6.559   6.595   3.910 -0.2044 -0.5881  0.2115
 8204TIP3   OH224575   5.349   5.254   0.875 -0.0337  0.5798  0.0567
 8204TIP3    H124576   5.377   5.163   0.885  0.5511  0.7239 -0.2477
 8204TIP3    H224577   5.290   5.252   0.800  0.3090  0.5226 -0.2126
 8205TIP3   OH224578   5.718   5.080   5.134  0.2080 -0.0380  0.5814
 8205TIP3    H124579   5.809   5.085   5.105 -0.0420  2.6732 -0.0143
 8205TIP3    H224580   5.667   5.069   5.053 -0.0199 -1.8351  0.9343
 8206TIP3   OH224581   2.405   1.278   3.212 -0.3160 -0.2868  0.1611
 8206TIP3    H124582   2.404   1.326   3.295 -1.4383 -0.6493  0.3864
 8206TIP3    H224583   2.451   1.336   3.151 -1.4742  1.0234  0.4611
 8207TIP3   OH224584   0.960   2.932   2.383  0.0683 -0.5731  0.0810
 8207TIP3    H124585   0.974   2.940   2.478 -1.0773 -1.2178  0.3278
 8207TIP3    H224586   1.039   2.968   2.344  0.7924 -0.7829  1.2944
 8208TIP3   OH224587   0.106   2.962   2.000  0.2932 -0.2430 -0.4655
 8208TIP3    H124588   0.025   2.975   1.949  1.2913 -0.7204 -2.2817
 8208TIP3    H224589   0.092   3.011   2.081 -2.2716 -1.2664 -0.1948
 8209TIP3   OH224590   0.436   3.464   4.320 -0.3078 -0.3070 -0.2934
 8209TIP3    H124591   0.412   3.428   4.406  0.9606 -0.7917 -0.1149
 8209TIP3    H224592   0.523   3.428   4.303  0.1283  1.0563 -1.0700
 8210TIP3   OH224593   3.864   4.238   3.220 -0.3298 -0.0330  0.7457
 8210TIP3    H124594   3.794   4.173   3.228 -0.7368  0.4863  1.5105
 8210TIP3    H224595   3.820   4.317   3.187  0.2916 -0.3396 -0.9079
 8211TIP3   OH224596   3.008   2.648   3.788 -0.0168  0.2155  0.2143
 8211TIP3    H124597   3.052   2.731   3.806  0.1883 -0.1457  1.4134
 8211TIP3    H224598   3.078   2.584   3.782 -0.2186  0.0200 -0.1224
 8212TIP3   OH224599   5.354   4.007   0.346 -0.0314 -0.1358 -0.3706
 8212TIP3    H124600   5.355   4.066   0.422  0.4399 -0.4763 -0.1065
 8212TIP3    H224601   5.312   3.927   0.379  0.3044 -0.3373 -0.4219
 8213TIP3   OH224602   5.439   0.864   5.519 -0.6957 -0.1222  0.9018
 8213TIP3    H124603   5.493   0.895   5.592  2.4789 -2.5851 -0.1746
 8213TIP3    H224604   5.458   0.926   5.448 -1.0907  0.3068  1.1647
 8214TIP3   OH224605   2.590   1.304   0.418 -0.0902  0.9012 -0.1756
 8214TIP3    H124606   2.587   1.280   0.510 -2.0228 -1.0581 -0.6475
 8214TIP3    H224607   2.574   1.398   0.417  0.3214  1.0203  1.4910
 8215TIP3   OH224608   1.625   6.641   4.706  0.4981 -0.3172 -0.2244
 8215TIP3    H124609   1.654   6.718   4.755  1.0727 -0.1582 -0.7837
 8215TIP3    H224610   1.693   6.575   4.722 -0.4771 -1.0546  1.0251
 8216TIP3   OH224611   2.165   6.588   3.179 -0.2064 -0.1978  0.1330
 8216TIP3    H124612   2.159   6.624   3.090  1.5539 -0.2109 -0.0315
 8216TIP3    H224613   2.140   6.660   3.236  1.8846  0.9199 -0.2542
 8217TIP3   OH224614   0.781   4.495   4.680 -0.1213 -0.1031 -0.0996
 8217TIP3    H124615   0.816   4.417   4.724  0.6737 -0.9661 -2.1468
 8217TIP3    H224616   0.686   4.486   4.686 -0.0414 -0.3453  1.1133
 8218TIP3   OH224617   1.906   6.257   5.178 -0.0057  0.1053 -0.4031
 8218TIP3    H124618   1.848   6.285   5.108  0.0530  0.4447 -0.3178
 8218TIP3    H224619   1.972   6.203   5.135 -0.4595 -0.4057 -0.4812
 8219TIP3   OH224620   2.908   4.544   1.714 -0.4335  0.5184 -0.1177
 8219TIP3    H124621   2.831   4.491   1.734  0.8223 -1.5487 -0.3720
 8219TIP3    H224622   2.931   4.520   1.624 -0.5639  2.5363 -0.7265
 8220TIP3   OH224623   5.401   6.260   1.736  0.0554  0.3899 -0.4432
 8220TIP3    H124624   5.360   6.177   1.763 -0.8663  1.0122  0.1056
 8220TIP3    H224625   5.480   6.233   1.689 -1.1896 -0.8522 -1.9260
 8221TIP3   OH224626   4.670   1.052   4.032 -0.3951 -0.4869  0.1564
 8221TIP3    H124627   4.629   0.981   3.983 -1.3000 -0.1512  0.3936
 8221TIP3    H224628   4.759   1.022   4.050  0.1279 -0.4410 -2.0657
 8222TIP3   OH224629   5.854   2.061   5.216 -0.1590  0.7943  0.3756
 8222TIP3    H124630   5.939   2.024   5.240  0.0936  2.3355  2.0382
 8222TIP3    H224631   5.838   2.129   5.281 -2.6414  0.6172  0.0318
 8223TIP3   OH224632   0.322   0.145   2.266 -0.3604 -0.1509  0.3253
 8223TIP3    H124633   0.233   0.116   2.244 -0.9901  1.3080  0.8045
 8223TIP3    H224634   0.317   0.173   2.357  0.4578  0.4372  0.2061
 8224TIP3   OH224635   6.192   0.983   1.611 -0.2662  0.3855  0.3199
 8224TIP3    H124636   6.199   0.900   1.565  1.4079  0.9254 -0.5058
 8224TIP3    H224637   6.176   1.048   1.542  0.5860  0.9942  0.6671
 8225TIP3   OH224638  -0.000   5.973   4.414  0.6233  0.2096 -0.1952
 8225TIP3    H124639   0.058   6.048   4.405  1.5869 -0.5955 -0.9479
 8225TIP3    H224640  -0.043   5.966   4.328  0.1420  0.2060  0.0414
 8226TIP3   OH224641   3.157   2.686   5.501 -0.4708  0.4078  0.1857
 8226TIP3    H124642   3.131   2.758   5.559 -1.1621 -0.5476  1.1035
 8226TIP3    H224643   3.226   2.723   5.446 -1.4761  2.0476 -0.0248
 8227TIP3   OH224644   1.996   5.429   2.466  0.3809  0.2185 -0.3148
 8227TIP3    H124645   1.924   5.413   2.526 -0.3422  0.7582 -1.0166
 8227TIP3    H224646   1.954   5.446   2.382  1.2763  1.7081 -0.4872
 8228TIP3   OH224647   3.633   3.546   5.418  0.4322 -0.1307  0.3943
 8228TIP3    H124648   3.636   3.533   5.323  0.7819  1.2597  0.1950
 8228TIP3    H224649   3.565   3.485   5.448 -1.7909  1.4203 -1.1433
 8229TIP3   OH224650   3.426   1.924   5.808  0.1122  0.3107  0.3055
 8229TIP3    H124651   3.405   1.836   5.838 -1.2799  0.5976  0.2503
 8229TIP3    H224652   3.521   1.926   5.803  0.1973 -0.9331  1.0689
 8230TIP3   OH224653   4.361   6.301   5.745 -0.2209  0.0955 -0.3325
 8230TIP3    H124654   4.375   6.383   5.700 -1.4130 -0.5595 -1.9915
 8230TIP3    H224655   4.319   6.325   5.828  0.8148  1.2203 -0.1132
 8231TIP3   OH224656   5.425   2.623   3.077 -0.4705 -0.8752 -0.1097
 8231TIP3    H124657   5.436   2.718   3.078 -0.5880 -0.8432 -1.2768
 8231TIP3    H224658   5.433   2.598   3.169 -1.5564  0.3873  0.3594
 8232TIP3   OH224659   1.207   0.086   3.047  0.1087  0.1136 -0.0369
 8232TIP3    H124660   1.169   0.020   2.989 -1.2081  0.3769  0.5095
 8232TIP3    H224661   1.227   0.159   2.989  1.6278 -0.7453 -0.6590
 8233TIP3   OH224662   4.977   4.963   4.176 -0.4555 -0.0262 -0.3012
 8233TIP3    H124663   4.964   4.869   4.159  1.1381 -0.2398 -0.5250
 8233TIP3    H224664   5.061   4.983   4.135  0.3094  0.9837  1.6174
 8234TIP3   OH224665   4.377   5.890   1.097 -0.1815  0.5327 -0.1854
 8234TIP3    H124666   4.290   5.861   1.124  0.1427  0.0347  0.3156
 8234TIP3    H224667   4.426   5.900   1.178  1.0043 -1.6262 -0.5663
 8235TIP3   OH224668   3.723   4.950   3.163  0.2353 -0.3564  0.0244
 8235TIP3    H124669   3.650   4.982   3.109 -0.6505 -1.3988  0.5666
 8235TIP3    H224670   3.703   4.981   3.251  0.2406 -0.9622  0.2440
 8236TIP3   OH224671   2.773   0.203   3.690 -0.0467 -0.0658  0.0547
 8236TIP3    H124672   2.773   0.134   3.624  0.7676  0.6081 -0.6693
 8236TIP3    H224673   2.857   0.195   3.734  0.0132  0.4001  0.0346
 8237TIP3   OH224674   4.162   3.135   3.172  0.6065 -0.3795 -0.1559
 8237TIP3    H124675   4.196   3.125   3.262  1.2456 -0.7813 -0.4311
 8237TIP3    H224676   4.086   3.191   3.181 -0.1544 -1.5283  0.8225
 8238TIP3   OH224677   4.091   0.648   2.415 -0.1128 -0.2825  0.0004
 8238TIP3    H124678   4.142   0.611   2.487 -1.7235  0.5611  1.6537
 8238TIP3    H224679   4.002   0.617   2.431 -0.6724  0.6803 -1.1154
 8239TIP3   OH224680   7.079   4.724   2.273  0.4576  0.0730 -0.0246
 8239TIP3    H124681   7.045   4.749   2.187  0.2951  0.6891  0.2085
 8239TIP3    H224682   7.114   4.806   2.309  3.1301 -0.6955 -0.6575
 8240TIP3   OH224683   5.813   4.428   3.646  0.0859 -0.1645 -0.0304
 8240TIP3    H124684   5.817   4.409   3.740  0.5319 -1.6780 -0.3353
 8240TIP3    H224685   5.904   4.435   3.619 -0.0383 -0.0246 -0.4123
 8241TIP3   OH224686   5.996   5.856   5.297 -0.3615  0.3414 -0.0734
 8241TIP3    H124687   6.004   5.890   5.386  1.2222  0.8848 -0.3888
 8241TIP3    H224688   5.952   5.926   5.249  1.3021  1.2712 -0.3184
 8242TIP3   OH224689   4.027   3.736   4.982  0.5228 -0.1801  0.2840
 8242TIP3    H124690   4.045   3.738   4.887  1.8181 -1.1161  0.4711
 8242TIP3    H224691   4.085   3.803   5.018 -0.1385  0.3328  0.3945
 8243TIP3   OH224692   6.582   5.260   5.748  0.9351 -0.2630 -0.6412
 8243TIP3    H124693   6.560   5.256   5.655  0.8501 -2.8990 -0.5738
 8243TIP3    H224694   6.658   5.201   5.758  0.9316 -0.0543  0.9579
 8244TIP3   OH224695   0.139   1.392   4.264 -0.4935 -0.3439 -0.1375
 8244TIP3    H124696   0.186   1.358   4.341 -0.1687 -1.6219 -0.8648
 8244TIP3    H224697   0.120   1.483   4.286 -0.6357 -0.7384  1.5658
 8245TIP3   OH224698   6.982   0.098   4.138  0.2745  0.1238  0.2237
 8245TIP3    H124699   6.975   0.029   4.073 -0.6196  0.8988 -0.5159
 8245TIP3    H224700   6.923   0.071   4.209  1.4305 -0.8385  0.8639
 8246TIP3   OH224701   1.220   4.935   1.878 -0.1639  0.6734 -0.0922
 8246TIP3    H124702   1.307   4.955   1.843 -0.5483 -0.1953 -1.6478
 8246TIP3    H224703   1.160   4.987   1.825 -0.6032  1.3219  1.0221
 8247TIP3   OH224704   4.460   0.576   5.581 -0.4892  0.0585  0.3668
 8247TIP3    H124705   4.495   0.661   5.554 -0.7151 -0.3155 -1.1806
 8247TIP3    H224706   4.464   0.522   5.503 -3.0253 -0.4840  0.5201
 8248TIP3   OH224707   1.758   3.517   4.432 -0.0100 -0.3396 -0.1827
 8248TIP3    H124708   1.728   3.460   4.362 -0.6011 -1.0561  0.6338
 8248TIP3    H224709   1.743   3.467   4.512 -0.2043  0.8159  0.5318
 8249TIP3   OH224710   2.191   5.685   5.568  0.4073  0.6049  0.0815
 8249TIP3    H124711   2.204   5.604   5.617  1.0982 -0.1094 -1.2005
 8249TIP3    H224712   2.102   5.677   5.532  0.6297  0.1825 -0.4021
 8250TIP3   OH224713   5.784   0.540   5.807  0.2434 -0.4835  0.9022
 8250TIP3    H124714   5.724   0.600   5.851  0.0786 -0.3025  0.4309
 8250TIP3    H224715   5.773   0.457   5.854 -1.4098 -0.8433 -0.0342
 8251TIP3   OH224716   6.077   6.294   4.131 -0.0570 -0.0983 -0.2009
 8251TIP3    H124717   6.056   6.288   4.224 -0.6387  1.6372 -0.1987
 8251TIP3    H224718   6.172   6.286   4.128  0.0453  0.6390  0.6312
 8252TIP3   OH224719   7.053   0.743   5.212 -0.1774 -0.8603 -0.2034
 8252TIP3    H124720   7.092   0.678   5.154  0.1829 -1.2776  0.4910
 8252TIP3    H224721   7.082   0.827   5.177  0.1023 -1.1123 -0.5819
 8253TIP3   OH224722   6.908   5.302   5.215 -0.6877  0.4042 -0.0772
 8253TIP3    H124723   6.908   5.377   5.274  2.0634  0.9860 -0.6500
 8253TIP3    H224724   6.995   5.263   5.226 -1.3927 -1.6445 -1.1201
 8254TIP3   OH224725   3.804   0.965   3.066  0.3031 -0.2235 -0.2450
 8254TIP3    H124726   3.880   0.975   3.008  1.0990 -1.6655  0.4739
 8254TIP3    H224727   3.840   0.975   3.154 -0.6747  0.7623  0.0664
 8255TIP3   OH224728   6.960   4.599   4.082 -0.1523 -0.2380 -0.1532
 8255TIP3    H124729   6.945   4.584   4.176  0.9792  0.9060  0.2249
 8255TIP3    H224730   7.027   4.667   4.078 -1.2293  0.8122 -1.7981
 8256TIP3   OH224731   6.496   3.389   0.594  0.0971  0.1259 -0.0713
 8256TIP3    H124732   6.584   3.352   0.582 -0.6448 -2.3222  1.3275
 8256TIP3    H224733   6.491   3.409   0.688 -0.7882  0.4156 -0.1689
 8257TIP3   OH224734   0.818   4.966   5.621 -0.8164 -0.4366  0.0563
 8257TIP3    H124735   0.906   4.989   5.651  0.9655 -1.0139 -4.0323
 8257TIP3    H224736   0.763   5.038   5.651  1.5987  1.3658  0.4832
 8258TIP3   OH224737   0.765   4.587   3.008  0.0029  0.1484 -0.6706
 8258TIP3    H124738   0.817   4.558   2.933  1.0308 -0.6907  0.3390
 8258TIP3    H224739   0.674   4.566   2.984  0.5515 -2.5639 -0.6348
 8259TIP3   OH224740   7.068   1.003   3.746 -0.0523  0.2250  0.0505
 8259TIP3    H124741   7.073   0.969   3.835  0.4942 -1.0764 -0.4561
 8259TIP3    H224742   7.016   0.938   3.698 -1.2577  1.4366 -0.3561
 8260TIP3   OH224743   4.294   3.541   4.730  0.0029 -0.0428  0.0528
 8260TIP3    H124744   4.370   3.530   4.787 -0.9333 -0.0419  1.3461
 8260TIP3    H224745   4.328   3.524   4.642  1.1640 -1.5603  0.7395
 8261TIP3   OH224746   6.888   1.128   3.138  0.4582  0.2221 -0.0422
 8261TIP3    H124747   6.955   1.188   3.105  1.3401 -0.5437  0.3232
 8261TIP3    H224748   6.935   1.067   3.194 -0.6505  0.0557  0.7499
 8262TIP3   OH224749   3.249   3.679   2.858 -0.0961 -0.6476 -0.1030
 8262TIP3    H124750   3.211   3.668   2.770 -0.1147 -0.0486 -0.1715
 8262TIP3    H224751   3.184   3.730   2.906  0.1794 -0.4696  0.0817
 8263TIP3   OH224752   4.897   4.282   5.496  0.1254 -0.0994  0.0402
 8263TIP3    H124753   4.917   4.374   5.480  1.3639 -0.3445  0.0667
 8263TIP3    H224754   4.964   4.234   5.447 -0.7490 -1.0073 -0.3140
 8264TIP3   OH224755   4.633   4.323   5.623  0.2650  0.4237  0.3110
 8264TIP3    H124756   4.725   4.338   5.603 -0.3296  2.1556 -1.4620
 8264TIP3    H224757   4.634   4.265   5.699  2.7759 -1.1102 -0.7774
 8265TIP3   OH224758   3.983   1.058   3.689 -0.5177  0.2447  0.0629
 8265TIP3    H124759   3.937   0.975   3.677 -0.5403  0.0523  1.3543
 8265TIP3    H224760   4.041   1.065   3.613 -1.5581 -0.2495 -0.7949
 8266TIP3   OH224761   5.576   2.821   3.575  0.6041 -0.3897 -0.3149
 8266TIP3    H124762   5.651   2.829   3.633 -1.8511  0.0992  3.1327
 8266TIP3    H224763   5.561   2.727   3.568  0.4663 -0.4358  0.5350
 8267TIP3   OH224764   0.139   6.163   1.966 -0.4014 -0.2892  0.2743
 8267TIP3    H124765   0.110   6.132   2.052 -0.0031 -1.3138  0.0543
 8267TIP3    H224766   0.106   6.098   1.904 -0.1259  0.0896 -0.2849
 8268TIP3   OH224767   1.268   2.553   5.489  0.5805 -0.2884 -0.3688
 8268TIP3    H124768   1.289   2.462   5.510  0.1261 -0.9778 -2.6355
 8268TIP3    H224769   1.342   2.603   5.523  0.4082 -1.3639  1.7249
 8269TIP3   OH224770   2.956   0.794   5.526  0.0864  0.2913  0.3264
 8269TIP3    H124771   3.045   0.767   5.549  0.3544 -0.2234 -1.2120
 8269TIP3    H224772   2.940   0.753   5.441 -0.8650  2.0131 -0.3675
 8270TIP3   OH224773   5.297   3.535   5.865 -0.0535  0.1064 -0.4256
 8270TIP3    H124774   5.256   3.455   5.899  0.8582 -1.0116 -1.8734
 8270TIP3    H224775   5.231   3.572   5.806 -0.1055 -0.1056 -0.5018
 8271TIP3   OH224776   0.239   4.194   5.019 -0.1527 -0.5236 -0.1250
 8271TIP3    H124777   0.185   4.181   5.097  0.4640 -1.5341  0.1585
 8271TIP3    H224778   0.177   4.196   4.946 -0.5263 -2.8773  0.0626
 8272TIP3   OH224779   6.352   3.920   1.759  0.0589  0.5868 -0.0373
 8272TIP3    H124780   6.284   3.987   1.771 -1.2029 -0.9514  2.0007
 8272TIP3    H224781   6.308   3.837   1.776  2.9384 -0.3705  4.4907
 8273TIP3   OH224782   1.076   4.789   5.582  0.2196 -0.0704  0.3494
 8273TIP3    H124783   1.094   4.718   5.643 -0.3477 -1.3624 -0.9032
 8273TIP3    H224784   1.081   4.869   5.634 -0.9396 -1.1445  2.2316
 8274TIP3   OH224785   3.450   5.971   3.873 -0.6679 -0.1502 -0.2275
 8274TIP3    H124786   3.420   5.941   3.958  1.4440  1.1507  1.0633
 8274TIP3    H224787   3.423   6.062   3.869  1.0168  0.3967  0.0062
 8275TIP3   OH224788   2.029   1.272   2.815 -0.0664  0.2068 -0.1047
 8275TIP3    H124789   1.934   1.275   2.800 -0.2290  1.2467  0.9532
 8275TIP3    H224790   2.041   1.313   2.901  1.3667  0.3301 -0.3357
 8276TIP3   OH224791   2.959   0.312   5.792  0.0784  0.1626 -0.3907
 8276TIP3    H124792   3.000   0.372   5.731  1.6083 -0.9139 -0.4875
 8276TIP3    H224793   2.967   0.354   5.878  0.2564  0.5169 -0.5820
 8277TIP3   OH224794   3.936   0.718   4.841  0.1423 -0.1060  0.2907
 8277TIP3    H124795   3.885   0.655   4.892 -3.2851  1.6163 -0.6549
 8277TIP3    H224796   3.944   0.678   4.755  0.8068 -0.5784  0.5683
 8278TIP3   OH224797   5.013   4.847   5.087 -0.3060  0.1213  0.2193
 8278TIP3    H124798   4.939   4.858   5.027  0.2717 -0.0137 -0.5354
 8278TIP3    H224799   4.986   4.776   5.144 -0.2705 -0.7823 -0.8490
 8279TIP3   OH224800   6.927   3.492   1.863  0.3485  0.0204  0.2456
 8279TIP3    H124801   6.880   3.494   1.779  0.5243 -1.1662  0.1131
 8279TIP3    H224802   6.906   3.407   1.901  0.8765  0.2470  1.0661
 8280TIP3   OH224803   4.996   5.221   2.887 -0.1917 -0.1879 -0.1521
 8280TIP3    H124804   4.986   5.171   2.806 -1.5214 -1.4282  0.7164
 8280TIP3    H224805   5.051   5.166   2.942 -1.6951 -0.7854  0.8245
 8281TIP3   OH224806   4.872   4.333   1.477  0.2520 -0.0989  0.1954
 8281TIP3    H124807   4.854   4.424   1.453  0.0501 -0.5417 -1.4375
 8281TIP3    H224808   4.904   4.293   1.396  0.3200 -1.4932  0.8884
 8282TIP3   OH224809   6.191   2.260   0.121  0.0948  0.4400 -0.4248
 8282TIP3    H124810   6.205   2.319   0.195 -1.4604 -0.9307  1.0570
 8282TIP3    H224811   6.272   2.210   0.115 -0.8091 -1.6711  2.5710
 8283TIP3   OH224812   6.623   3.060   5.251  0.1418 -0.3469  0.0398
 8283TIP3    H124813   6.656   3.021   5.333  0.7504  1.8349  0.8854
 8283TIP3    H224814   6.609   3.152   5.272  0.9140  0.4171 -2.4986
 8284TIP3   OH224815   2.440   4.048   3.842  0.4096  0.4718  0.2336
 8284TIP3    H124816   2.532   4.041   3.863  0.5612 -0.0431 -0.5661
 8284TIP3    H224817   2.396   3.987   3.901  0.2303  2.6686  2.5596
 8285TIP3   OH224818   1.437   4.195   2.327 -0.0758 -0.1528  0.3781
 8285TIP3    H124819   1.467   4.144   2.402  1.7205  0.6755  0.2852
 8285TIP3    H224820   1.444   4.286   2.355 -0.0018  0.1461 -0.5622
 8286TIP3   OH224821   6.959   2.316   0.069 -0.1470 -0.5886  0.2610
 8286TIP3    H124822   7.037   2.280   0.112  0.6300 -0.8632 -1.2943
 8286TIP3    H224823   6.990   2.395   0.026 -1.0727  0.0782  0.7856
 8287TIP3   OH224824   0.700   5.142   1.663 -0.0586  0.1490  0.0341
 8287TIP3    H124825   0.634   5.076   1.644  0.8455 -0.8966  0.4620
 8287TIP3    H224826   0.649   5.220   1.688 -1.2334  0.5418 -3.1225
 8288TIP3   OH224827   3.219   3.046   0.479  0.0487 -0.3266  0.0885
 8288TIP3    H124828   3.270   3.112   0.527  0.9947  0.0191 -1.3248
 8288TIP3    H224829   3.141   3.031   0.533  1.0425  0.0557  1.7045
 8289TIP3   OH224830   0.557   0.729   5.173 -0.2155  0.2280 -0.1827
 8289TIP3    H124831   0.569   0.819   5.144 -0.8348  0.1179 -0.8310
 8289TIP3    H224832   0.552   0.678   5.091  0.8232 -0.4931  0.1836
 8290TIP3   OH224833   1.810   6.510   3.978 -0.3349  0.7405 -0.9170
 8290TIP3    H124834   1.720   6.541   3.965 -0.6635  0.5225  0.6477
 8290TIP3    H224835   1.845   6.503   3.889 -2.1715 -0.0800 -1.6389
 8291TIP3   OH224836   2.802   6.719   2.354 -0.2904 -0.3723 -0.1836
 8291TIP3    H124837   2.773   6.808   2.334 -1.8474 -1.0071 -0.8870
 8291TIP3    H224838   2.797   6.673   2.270 -0.9067 -1.4922  0.4543
 8292TIP3   OH224839   1.185   3.016   4.326  0.3790 -0.1187  0.3314
 8292TIP3    H124840   1.258   3.032   4.387 -0.7608 -0.5529  1.8697
 8292TIP3    H224841   1.123   3.086   4.346 -0.4651 -0.8793  0.4169
 8293TIP3   OH224842   5.064   0.410   2.366  0.2871  0.0578  0.3477
 8293TIP3    H124843   4.994   0.449   2.312 -0.7068 -2.2917 -0.1727
 8293TIP3    H224844   5.040   0.432   2.456 -0.8763 -0.3034  0.1409
 8294TIP3   OH224845   2.592   0.663   0.850 -0.2814 -0.5931  0.1629
 8294TIP3    H124846   2.540   0.616   0.785 -1.7882  1.0091  0.1491
 8294TIP3    H224847   2.681   0.664   0.814 -1.2277  1.0430 -2.3724
 8295TIP3   OH224848   4.231   4.500   2.015 -0.6332 -0.4655 -0.0175
 8295TIP3    H124849   4.311   4.500   2.069  1.7145  0.7206 -3.2031
 8295TIP3    H224850   4.160   4.501   2.079  1.8734  0.3278  3.0516
 8296TIP3   OH224851   2.033   4.025   4.138 -0.2428  0.0061  0.0315
 8296TIP3    H124852   1.960   4.053   4.193  0.0830 -0.5595  0.7685
 8296TIP3    H224853   2.094   3.982   4.198 -0.3390 -1.5451 -0.9045
 8297TIP3   OH224854   3.013   6.285   0.163  0.8657 -0.0174 -0.1946
 8297TIP3    H124855   3.093   6.328   0.134  0.9486  0.2504  0.4318
 8297TIP3    H224856   2.980   6.340   0.234  1.1915 -1.1852  0.8958
 8298TIP3   OH224857   2.689   5.873   4.604  0.4313 -0.0250 -0.1046
 8298TIP3    H124858   2.761   5.928   4.574 -0.5711  2.2062  1.2988
 8298TIP3    H224859   2.620   5.887   4.539 -0.2843  1.5097  0.9308
 8299TIP3   OH224860   3.396   1.111   3.872  0.1694 -0.0216  0.4398
 8299TIP3    H124861   3.347   1.098   3.953  1.4464 -1.4741  1.0398
 8299TIP3    H224862   3.406   1.206   3.865  0.7451  0.1179  2.4540
 8300TIP3   OH224863   5.214   0.461   1.905 -0.0293 -0.0487  0.4704
 8300TIP3    H124864   5.185   0.529   1.843 -0.2352  0.0306  0.6526
 8300TIP3    H224865   5.303   0.487   1.930  0.3865 -0.5378 -0.4453
 8301TIP3   OH224866   4.671   4.049   4.347  0.6473  0.1761 -0.3598
 8301TIP3    H124867   4.644   4.108   4.277 -0.2627 -0.6691 -0.7439
 8301TIP3    H224868   4.597   4.045   4.407 -0.1372 -2.0757 -1.3623
 8302TIP3   OH224869   0.578   4.292   5.303  0.2779 -0.4400 -0.1201
 8302TIP3    H124870   0.556   4.385   5.288  1.8531 -0.2005 -1.1965
 8302TIP3    H224871   0.496   4.253   5.333 -0.6348  1.1317 -0.4318
 8303TIP3   OH224872   0.674   5.824   5.645 -0.1303  0.5492  0.0871
 8303TIP3    H124873   0.691   5.817   5.551 -0.1802  1.9621 -0.0615
 8303TIP3    H224874   0.590   5.868   5.651  0.0075  0.7309  0.7870
 8304TIP3   OH224875   6.235   1.062   5.042 -0.1400 -0.7577 -0.3451
 8304TIP3    H124876   6.319   1.022   5.020  0.1803 -0.6286  0.5892
 8304TIP3    H224877   6.206   1.017   5.121 -0.6946 -0.4379 -0.3538
 8305TIP3   OH224878   0.867   0.203   2.152 -0.0584  0.1570  0.0460
 8305TIP3    H124879   0.883   0.288   2.111 -1.2088  0.1782 -0.4028
 8305TIP3    H224880   0.773   0.202   2.167  0.0350 -0.7964  0.6076
 8306TIP3   OH224881   3.077   0.070   0.287  0.3371 -0.0985  0.1120
 8306TIP3    H124882   2.983   0.055   0.279  0.1194  0.6648  1.0005
 8306TIP3    H224883   3.088   0.162   0.264  0.6006  0.2952  1.6630
 8307TIP3   OH224884   2.112   0.954   2.997  0.3022  0.7159  0.1253
 8307TIP3    H124885   2.104   0.859   2.994 -0.0655  0.6494  1.8825
 8307TIP3    H224886   2.053   0.986   2.929 -1.5653 -0.2619  1.1980
 8308TIP3   OH224887   2.748   1.539   1.574 -0.4631 -0.2350 -0.2418
 8308TIP3    H124888   2.800   1.601   1.626  2.1712 -1.5571 -1.0949
 8308TIP3    H224889   2.668   1.526   1.625  0.3961  1.2832  1.6212
 8309TIP3   OH224890   0.327   3.070   1.871  1.1245  0.2478  0.0878
 8309TIP3    H124891   0.266   3.011   1.916  1.4669  0.6796  1.1597
 8309TIP3    H224892   0.307   3.059   1.778 -2.6290  2.5157  0.4088
 8310TIP3   OH224893   0.651   6.623   3.808  0.2899 -0.4289 -0.6740
 8310TIP3    H124894   0.646   6.714   3.837  0.9088 -0.5480 -0.1788
 8310TIP3    H224895   0.733   6.591   3.844 -1.5563 -2.2532  2.3139
 8311TIP3   OH224896   4.913   6.404   3.678  0.2112 -0.0036  0.1601
 8311TIP3    H124897   4.847   6.418   3.610 -0.3504  0.6535  0.8248
 8311TIP3    H224898   4.870   6.347   3.742  1.1636 -1.6688 -0.6250
 8312TIP3   OH224899   6.136   4.710   1.293  0.3962 -0.1536  0.1433
 8312TIP3    H124900   6.192   4.632   1.300 -1.8580 -1.9202 -0.2065
 8312TIP3    H224901   6.198   4.783   1.286  2.6300 -1.9091  0.1567
 8313TIP3   OH224902   0.978   2.380   3.290 -0.3728 -0.3226  0.5454
 8313TIP3    H124903   0.894   2.358   3.330  0.1106  0.4176  2.0349
 8313TIP3    H224904   1.039   2.383   3.363  0.5729  1.0209 -0.2599
 8314TIP3   OH224905   3.755   0.269   1.423  0.9163 -0.0099 -0.6455
 8314TIP3    H124906   3.680   0.224   1.460  1.3726 -0.0331  0.2750
 8314TIP3    H224907   3.828   0.248   1.482  1.5971  0.2055 -1.3802
 8315TIP3   OH224908   0.840   3.935   2.171  0.1975 -0.6703 -0.3403
 8315TIP3    H124909   0.764   3.905   2.120 -1.3290  0.6640  1.0277
 8315TIP3    H224910   0.868   4.014   2.126 -1.7021  1.0112  1.2218
 8316TIP3   OH224911   0.114   3.822   3.415 -0.1896  0.3088  0.2288
 8316TIP3    H124912   0.166   3.775   3.480 -0.9009 -1.1112 -0.1992
 8316TIP3    H224913   0.088   3.903   3.459  0.6647  0.0988  1.1458
 8317TIP3   OH224914   6.624   6.634   5.531  0.4930  0.1569 -0.0021
 8317TIP3    H124915   6.595   6.558   5.581 -0.6653  0.5921  0.0073
 8317TIP3    H224916   6.652   6.698   5.597  1.2350 -0.1595 -0.0025
 8318TIP3   OH224917   5.013   2.711   5.337  0.3609  0.6483  0.7176
 8318TIP3    H124918   5.058   2.765   5.272 -0.7130 -0.6709 -1.2340
 8318TIP3    H224919   4.922   2.742   5.336  0.4964  1.1958  2.2982
 8319TIP3   OH224920   0.275   3.425   1.577 -0.0763  0.0509 -0.0985
 8319TIP3    H124921   0.202   3.380   1.621  0.5579  0.0597  1.0008
 8319TIP3    H224922   0.244   3.437   1.487 -1.3045 -0.2271  0.2559
 8320TIP3   OH224923   6.543   1.676   2.276  0.0273 -0.1522  0.9340
 8320TIP3    H124924   6.631   1.667   2.239 -0.5020 -0.4529 -0.3144
 8320TIP3    H224925   6.505   1.751   2.229 -0.5434 -0.3173  1.1213
 8321TIP3   OH224926   3.075   3.103   2.967  0.0268  0.7803  0.4658
 8321TIP3    H124927   3.007   3.048   3.006 -0.4866  0.7162 -0.4988
 8321TIP3    H224928   3.157   3.070   3.004 -0.4341  0.7043  1.4586
 8322TIP3   OH224929   1.927   2.104   2.312 -0.2489  0.3530 -0.2710
 8322TIP3    H124930   1.848   2.154   2.290 -0.0374  0.3344 -1.1314
 8322TIP3    H224931   1.999   2.160   2.284  0.0213  0.0469 -0.1900
 8323TIP3   OH224932   0.571   3.966   0.228  0.0917 -0.1256 -0.1542
 8323TIP3    H124933   0.633   3.951   0.299  0.1187  2.2382  0.3865
 8323TIP3    H224934   0.625   3.977   0.150  0.2024 -0.4217 -0.1199
 8324TIP3   OH224935   5.649   6.220   2.201  0.2014 -0.2244  0.3228
 8324TIP3    H124936   5.560   6.185   2.189  0.3252 -0.5120  0.2110
 8324TIP3    H224937   5.644   6.310   2.170  0.1415 -0.4867 -0.4406
 8325TIP3   OH224938   4.908   1.716   2.746  0.1201 -0.0032  0.3558
 8325TIP3    H124939   4.933   1.802   2.779 -0.7318 -0.1918  1.5823
 8325TIP3    H224940   4.813   1.713   2.758  0.3393 -1.8198  2.1907
 8326TIP3   OH224941   4.214   3.083   4.209  0.4564 -0.1353 -0.3482
 8326TIP3    H124942   4.186   2.993   4.227 -0.3865  0.3704  1.0366
 8326TIP3    H224943   4.277   3.102   4.278 -1.4625  1.2384  1.1405
 8327TIP3   OH224944   2.466   0.045   5.682 -1.0158 -0.8188  0.1971
 8327TIP3    H124945   2.461   0.029   5.776 -0.0179  2.4952  0.9737
 8327TIP3    H224946   2.552   0.086   5.670 -2.1946  1.3210 -1.6364
 8328TIP3   OH224947   6.228   0.372   3.786 -0.0727  0.5412  0.1485
 8328TIP3    H124948   6.252   0.338   3.872  1.0614  1.3382  0.1720
 8328TIP3    H224949   6.298   0.435   3.765 -1.5243  2.0727 -0.3254
 8329TIP3   OH224950   3.212   5.419   5.332  0.4761 -0.4202  0.1033
 8329TIP3    H124951   3.291   5.446   5.284  0.5147 -0.9845 -0.1520
 8329TIP3    H224952   3.219   5.464   5.416  0.1910  0.9456 -0.5667
 8330TIP3   OH224953   2.052   4.529   3.540 -0.2035  0.0069 -0.2724
 8330TIP3    H124954   2.067   4.606   3.484 -1.5055  0.5459  0.0794
 8330TIP3    H224955   2.133   4.521   3.591  0.3515  0.5219 -1.0517
 8331TIP3   OH224956   2.247   4.400   1.939 -0.0548 -0.0207  0.0540
 8331TIP3    H124957   2.232   4.348   2.018  0.8783  0.1084  0.3253
 8331TIP3    H224958   2.159   4.419   1.906 -0.4305 -2.0442 -0.2473
 8332TIP3   OH224959   0.052   5.530   2.364  0.4156  0.4684 -0.3696
 8332TIP3    H124960   0.130   5.579   2.389 -1.0536  2.3273  0.7927
 8332TIP3    H224961  -0.019   5.570   2.414 -0.9592 -2.6898  0.4523
 8333TIP3   OH224962   2.520   1.037   0.348  0.0201 -0.9855 -0.1916
 8333TIP3    H124963   2.584   0.972   0.318 -0.5871 -1.1521 -1.1455
 8333TIP3    H224964   2.573   1.106   0.388  0.7726 -1.3074 -0.6188
 8334TIP3   OH224965   6.296   0.057   4.032  0.4844 -0.5328 -0.7135
 8334TIP3    H124966   6.318  -0.016   4.090  2.6414  0.5676 -0.0265
 8334TIP3    H224967   6.224   0.025   3.979  0.1360 -2.4898  0.8366
 8335TIP3   OH224968   1.517   3.245   3.635  0.4219 -0.4828  0.5210
 8335TIP3    H124969   1.510   3.269   3.542 -0.8466 -0.9989  0.4542
 8335TIP3    H224970   1.469   3.314   3.681 -0.1999 -0.9925  0.6487
 8336TIP3   OH224971   2.318   0.802   1.335 -0.3103 -0.1235  0.0264
 8336TIP3    H124972   2.236   0.763   1.364  0.2784 -1.4311  0.0053
 8336TIP3    H224973   2.302   0.896   1.339 -1.0493 -0.2823  2.2435
 8337TIP3   OH224974   5.667   0.543   0.437 -0.7349  0.4524  0.5119
 8337TIP3    H124975   5.654   0.515   0.528 -1.5900 -0.8498  0.0326
 8337TIP3    H224976   5.755   0.581   0.435 -1.1351  1.5557  2.1126
 8338TIP3   OH224977   4.250  -0.026   3.440 -0.0451  0.8037  0.1225
 8338TIP3    H124978   4.291   0.003   3.522 -0.3444  0.8058  0.2716
 8338TIP3    H224979   4.185   0.041   3.421 -0.7973  0.2003  0.5101
 8339TIP3   OH224980   1.296   2.205   0.426  0.4881  0.4865 -0.1176
 8339TIP3    H124981   1.217   2.190   0.375  0.8370 -0.3821 -0.4146
 8339TIP3    H224982   1.287   2.295   0.459 -0.4453  0.5153 -0.4416
 8340TIP3   OH224983   0.081   3.107   2.231 -0.0753 -0.1215  0.3942
 8340TIP3    H124984   0.170   3.103   2.267  0.0402 -0.7833  0.0432
 8340TIP3    H224985   0.034   3.036   2.275 -0.5716  0.5167  0.9273
 8341TIP3   OH224986   4.161   4.744   3.656 -0.5979  0.1003  0.1857
 8341TIP3    H124987   4.233   4.795   3.620  0.6201 -0.0060  2.3156
 8341TIP3    H224988   4.125   4.697   3.581  1.3307  0.3907 -0.9900
 8342TIP3   OH224989   6.908   3.763   5.549 -0.1383  0.5147 -0.0815
 8342TIP3    H124990   6.831   3.763   5.605 -0.1784 -0.0121 -0.1349
 8342TIP3    H224991   6.889   3.828   5.481 -0.1132  1.1141  0.4809
 8343TIP3   OH224992   0.080   3.316   1.754  0.5099  0.3649  0.0942
 8343TIP3    H124993   0.007   3.353   1.704  1.4212 -0.3516 -1.8674
 8343TIP3    H224994   0.067   3.221   1.750  1.1316  0.2578  0.4097
 8344TIP3   OH224995   1.186   3.522   5.493 -0.3955 -0.2046 -0.0159
 8344TIP3    H124996   1.105   3.498   5.448  0.0742 -1.1126 -0.3851
 8344TIP3    H224997   1.231   3.580   5.431 -0.3405 -0.4216 -0.1764
 8345TIP3   OH224998   6.528   6.330   3.105 -0.1681  0.5361 -0.6076
 8345TIP3    H124999   6.616   6.300   3.128 -0.9855 -0.7620  1.0870
 8345TIP3    H225000   6.475   6.309   3.182 -2.1912  0.1878 -2.0102
 8346TIP3   OH225001   6.473   0.190   5.816 -0.1972 -0.4080 -0.1016
 8346TIP3    H125002   6.473   0.221   5.907 -2.6879  2.1250 -0.8431
 8346TIP3    H225003   6.564   0.164   5.800  0.7025  0.7126  2.5677
 8347TIP3   OH225004   2.956   6.142   1.130 -0.0975  0.0918 -0.1222
 8347TIP3    H125005   2.986   6.180   1.212 -1.2281  1.1712 -0.1740
 8347TIP3    H225006   2.993   6.054   1.128 -0.0818  0.0428  1.5493
 8348TIP3   OH225007   4.577   1.124   3.421  0.1212  0.1744 -0.0214
 8348TIP3    H125008   4.568   1.049   3.362 -0.7130 -0.0001  0.3142
 8348TIP3    H225009   4.507   1.183   3.394  0.2222  0.4402  0.2993
 8349TIP3   OH225010   2.107   6.191   4.762 -0.3197  0.2826  0.1770
 8349TIP3    H125011   2.114   6.135   4.684  1.2784  0.9101 -0.1665
 8349TIP3    H225012   2.111   6.280   4.728  0.6309  0.5602  0.9935
 8350TIP3   OH225013   2.886   2.341   4.042  0.0765  0.4161 -0.0531
 8350TIP3    H125014   2.846   2.416   3.999 -2.5575 -0.6908  0.2985
 8350TIP3    H225015   2.919   2.287   3.970  0.7028  1.2103 -0.3741
 8351TIP3   OH225016   4.779   2.868   5.253  0.9231 -0.2308 -0.1509
 8351TIP3    H125017   4.693   2.830   5.235 -0.4622  2.4730  0.2151
 8351TIP3    H225018   4.825   2.862   5.169 -0.4359  0.1892 -0.9642
 8352TIP3   OH225019   1.260   6.198   4.206  0.7052  0.5942 -0.3507
 8352TIP3    H125020   1.250   6.205   4.111  0.3461  0.4601 -0.3258
 8352TIP3    H225021   1.351   6.171   4.219  0.8908  1.0646 -0.6345
 8353TIP3   OH225022   4.077   2.132   3.408  0.1201  0.4316 -0.0993
 8353TIP3    H125023   4.158   2.180   3.390  0.1675  0.6235  0.6200
 8353TIP3    H225024   4.059   2.148   3.500 -0.9627  0.7257 -0.3512
 8354TIP3   OH225025   7.188   3.948   3.626 -0.1417 -0.2389  0.2998
 8354TIP3    H125026   7.147   3.949   3.713 -1.3355 -0.7706 -0.2428
 8354TIP3    H225027   7.121   3.913   3.568  1.3094 -1.8020 -0.5179
 8355TIP3   OH225028   3.964   6.580   1.424 -0.8346  0.0406 -0.4683
 8355TIP3    H125029   4.033   6.544   1.480  0.1625  0.4780 -1.3884
 8355TIP3    H225030   3.955   6.515   1.353 -0.7231  0.4130 -0.8301
 8356TIP3   OH225031   4.367   3.682   1.235  0.0174 -0.9488  0.0144
 8356TIP3    H125032   4.349   3.602   1.283  1.0398 -0.5857  1.0606
 8356TIP3    H225033   4.288   3.735   1.246  0.2341 -0.8516  1.3995
 8357TIP3   OH225034   0.457   0.174   2.988  0.0829  0.1332  0.4940
 8357TIP3    H125035   0.552   0.181   2.994  0.3114 -1.6050 -0.5839
 8357TIP3    H225036   0.432   0.127   3.067 -0.0619  1.7728  1.4574
 8358TIP3   OH225037   1.280   3.940   5.206 -0.6774  0.3522 -1.1055
 8358TIP3    H125038   1.246   3.921   5.294 -2.9384 -1.3325 -2.2244
 8358TIP3    H225039   1.302   4.033   5.208 -2.0565  0.7001  0.8377
 8359TIP3   OH225040   5.977   4.417   4.211 -0.4640 -0.0501  0.1021
 8359TIP3    H125041   6.006   4.452   4.295  0.5186  2.6934 -1.2471
 8359TIP3    H225042   5.892   4.377   4.230  0.3030 -0.6952  2.5828
 8360TIP3   OH225043   0.776   2.327   4.990 -0.3489 -0.0173  0.0215
 8360TIP3    H125044   0.767   2.244   5.037 -1.1633  0.2010  0.2689
 8360TIP3    H225045   0.855   2.367   5.028 -0.1763 -0.4964  0.1775
 8361TIP3   OH225046   1.236   4.128   1.177  0.2565  0.8998 -0.7063
 8361TIP3    H125047   1.191   4.075   1.243  1.9073  0.5098  0.1678
 8361TIP3    H225048   1.289   4.065   1.128  1.1214  1.5222 -0.6033
 8362TIP3   OH225049   5.458   4.858   3.717  0.0230 -0.0774 -0.2939
 8362TIP3    H125050   5.400   4.931   3.694 -0.5003 -0.1494  0.7440
 8362TIP3    H225051   5.509   4.891   3.792 -0.8888 -1.0785  0.8069
 8363TIP3   OH225052   0.992   1.075   4.499 -0.5100 -0.5754 -0.1561
 8363TIP3    H125053   0.897   1.083   4.495 -0.6664 -2.1827 -0.7028
 8363TIP3    H225054   1.025   1.164   4.492 -1.9968  0.1188  1.2672
 8364TIP3   OH225055   4.814   0.470   4.280 -0.2608 -0.0618  0.0529
 8364TIP3    H125056   4.875   0.534   4.318 -0.6762 -0.0069  0.6423
 8364TIP3    H225057   4.870   0.411   4.230  0.5220 -0.9773  1.8823
 8365TIP3   OH225058   1.337   1.599   3.619  0.0665  0.0516  0.1047
 8365TIP3    H125059   1.358   1.601   3.712 -0.3321 -1.0021  0.2224
 8365TIP3    H225060   1.347   1.508   3.593 -0.2505  0.2574 -0.7895
 8366TIP3   OH225061   4.903   6.208   3.911 -0.5450  0.5699  0.0613
 8366TIP3    H125062   4.870   6.168   3.992  1.9098  0.1712  0.9711
 8366TIP3    H225063   4.835   6.191   3.846 -3.3552  2.2674  2.3181
 8367TIP3   OH225064   0.093   1.454   2.623  0.4491 -0.1956 -0.3357
 8367TIP3    H125065   0.156   1.520   2.595 -0.4817  1.0794  0.4500
 8367TIP3    H225066   0.009   1.501   2.626 -0.1683 -1.3171  0.6427
 8368TIP3   OH225067   6.371   3.010   0.438 -0.6646 -0.1490 -0.1726
 8368TIP3    H125068   6.303   3.066   0.401  0.8377  2.8392  1.3265
 8368TIP3    H225069   6.339   2.988   0.525 -0.0880  0.5444  0.2135
 8369TIP3   OH225070   1.805   2.283   3.888 -0.2512  0.2079 -0.0502
 8369TIP3    H125071   1.824   2.354   3.827  0.1487  0.6832  0.6169
 8369TIP3    H225072   1.745   2.322   3.952 -0.4958 -0.2267 -0.0103
 8370TIP3   OH225073   5.176   6.112   0.547 -0.3900 -0.3360  0.3377
 8370TIP3    H125074   5.204   6.077   0.631  1.5343 -0.1342 -0.1768
 8370TIP3    H225075   5.083   6.089   0.541 -0.6758 -0.0199  2.6644
 8371TIP3   OH225076   6.448   6.618   1.361 -0.1199 -0.7183  0.2737
 8371TIP3    H125077   6.373   6.629   1.420  0.8314 -3.8397  2.3412
 8371TIP3    H225078   6.411   6.576   1.283 -1.5690  4.3445 -2.2040
 8372TIP3   OH225079   2.208   1.242   3.916  0.1957  0.6725 -0.2866
 8372TIP3    H125080   2.213   1.294   3.996 -1.2174 -0.3874  0.5232
 8372TIP3    H225081   2.293   1.197   3.912  0.4111  1.0018  0.4315
 8373TIP3   OH225082   6.038   4.437   2.219 -0.0271 -0.3379  0.8595
 8373TIP3    H125083   5.952   4.441   2.262 -0.2089 -2.2940  0.7654
 8373TIP3    H225084   6.064   4.528   2.209 -1.2517  0.2535  2.5814
 8374TIP3   OH225085   4.024   5.872   3.521  0.2123 -0.3811 -0.3912
 8374TIP3    H125086   4.044   5.924   3.599 -0.6000  1.5213 -1.3855
 8374TIP3    H225087   4.008   5.937   3.453  1.1982 -1.9980 -2.2377
 8375TIP3   OH225088   4.284   0.252   3.818 -0.3533  0.2172  0.1101
 8375TIP3    H125089   4.272   0.191   3.891 -1.9147 -0.6137 -0.7738
 8375TIP3    H225090   4.345   0.317   3.851 -0.3033 -0.6403  1.8391
 8376TIP3   OH225091   4.504   2.368   3.652  0.1545  0.0912 -0.6834
 8376TIP3    H125092   4.513   2.289   3.599 -0.9917 -0.1827 -0.4994
 8376TIP3    H225093   4.533   2.341   3.740  1.2475  0.3139 -0.9655
 8377TIP3   OH225094   1.942   0.445   3.548  0.4596 -0.0780 -0.6024
 8377TIP3    H125095   1.872   0.469   3.488 -0.2315  2.0437  0.9351
 8377TIP3    H225096   1.897   0.406   3.623  0.9186  0.8392  0.1804
 8378TIP3   OH225097   2.035   6.359   4.444  0.1992 -0.4132 -0.5287
 8378TIP3    H125098   2.045   6.264   4.444 -0.3407 -0.4801 -1.1922
 8378TIP3    H225099   2.064   6.386   4.357  0.6133  0.0644 -0.2472
 8379TIP3   OH225100   0.920   0.659   2.201 -0.8070 -0.0896  0.7418
 8379TIP3    H125101   0.885   0.707   2.126 -0.5208  0.0880  0.7228
 8379TIP3    H225102   0.960   0.726   2.257 -0.7805 -0.2532  0.9207
 8380TIP3   OH225103   5.414   0.983   3.325  0.3290 -0.4044 -0.2395
 8380TIP3    H125104   5.417   1.008   3.233 -0.8806 -3.0090 -1.1120
 8380TIP3    H225105   5.474   0.909   3.331  0.8170  0.0930  1.2102
 8381TIP3   OH225106   1.389   2.123   5.562 -0.0168 -0.2661  0.3101
 8381TIP3    H125107   1.390   2.181   5.485  0.5675  0.0939  0.5811
 8381TIP3    H225108   1.432   2.043   5.532  1.9418  0.5702  0.7719
 8382TIP3   OH225109   6.258   5.564   2.239  0.0277  0.0963 -0.3555
 8382TIP3    H125110   6.266   5.541   2.146 -1.1323 -1.1621 -0.1555
 8382TIP3    H225111   6.324   5.510   2.283 -1.1209 -1.1990 -0.1685
 8383TIP3   OH225112   6.091   1.244   0.906 -0.0458  0.3918 -0.0482
 8383TIP3    H125113   6.107   1.150   0.900  1.2264  0.5570  0.4330
 8383TIP3    H225114   6.139   1.282   0.832 -1.5253  0.5763 -0.9459
 8384TIP3   OH225115   0.447   2.679   2.214  0.1612  0.1207  0.2337
 8384TIP3    H125116   0.537   2.650   2.201  0.0700 -1.7815  2.9878
 8384TIP3    H225117   0.455   2.765   2.256  0.5693  1.1438 -1.8203
 8385TIP3   OH225118   2.589   0.313   3.461 -0.0304 -0.0020  0.1546
 8385TIP3    H125119   2.532   0.258   3.514  0.1158 -0.1220  0.1851
 8385TIP3    H225120   2.631   0.253   3.399 -0.0773  0.1128  0.0100
 8386TIP3   OH225121   1.625   3.892   3.015  0.1780 -0.0506 -0.6746
 8386TIP3    H125122   1.646   3.976   3.055 -2.6384  1.0046 -1.1457
 8386TIP3    H225123   1.690   3.881   2.946  0.7101  1.6666 -0.4829
 8387TIP3   OH225124   0.354   0.573   2.974  0.0710  0.4006 -0.3222
 8387TIP3    H125125   0.363   0.664   2.944  0.4799  0.3353 -0.4064
 8387TIP3    H225126   0.426   0.526   2.931  0.4558  0.2400  0.4706
 8388TIP3   OH225127   0.219   6.390   5.444 -0.1124 -0.1934 -0.6226
 8388TIP3    H125128   0.188   6.309   5.485  0.5743  0.6593  1.7401
 8388TIP3    H225129   0.184   6.460   5.498  3.5372  0.9024  0.6202
 8389TIP3   OH225130   6.192   6.489   2.055 -0.1357 -0.8514 -0.4607
 8389TIP3    H125131   6.208   6.505   2.148  0.7944  1.5928 -0.9628
 8389TIP3    H225132   6.226   6.401   2.039  0.1318 -1.1240  1.4024
 8390TIP3   OH225133   4.332   4.246   0.279  0.2283  0.8870 -0.1492
 8390TIP3    H125134   4.422   4.216   0.267 -0.1718 -0.1794 -0.5616
 8390TIP3    H225135   4.303   4.269   0.191  0.2273  1.6535  0.0413
 8391TIP3   OH225136   4.212   0.324   3.564  0.4282  0.2890 -0.2769
 8391TIP3    H125137   4.302   0.318   3.532  0.2227  1.4999 -1.1783
 8391TIP3    H225138   4.220   0.330   3.659  1.2100 -0.8663 -0.2461
 8392TIP3   OH225139   6.008   2.890   5.458  0.0019  0.5719  0.1204
 8392TIP3    H125140   5.970   2.810   5.493  0.9812  0.0956  0.1329
 8392TIP3    H225141   5.980   2.958   5.518 -0.1127  0.1033  0.6066
 8393TIP3   OH225142   4.795   5.045   3.181  0.2509  0.2545  0.1877
 8393TIP3    H125143   4.738   5.094   3.122 -2.4518 -2.1603  0.5608
 8393TIP3    H225144   4.834   4.976   3.126 -1.5321 -1.4176  0.9048
 8394TIP3   OH225145   3.407   6.505   1.152 -0.0273  0.0719 -0.3484
 8394TIP3    H125146   3.499   6.485   1.172 -0.1582  0.5974  0.8157
 8394TIP3    H225147   3.362   6.421   1.159  0.2569 -0.0775 -0.3052
 8395TIP3   OH225148   5.478   4.634   0.525  0.0743 -0.0778  0.1926
 8395TIP3    H125149   5.431   4.691   0.586  1.6582 -0.5068  1.8739
 8395TIP3    H225150   5.553   4.685   0.497  0.2537 -0.4998 -0.1073
 8396TIP3   OH225151   1.371   4.448   4.970  0.3304  0.0052 -0.0724
 8396TIP3    H125152   1.317   4.526   4.983  0.2078 -0.1421  0.2843
 8396TIP3    H225153   1.330   4.403   4.896  1.2726  1.0536 -1.2878
 8397TIP3   OH225154   1.210   6.545   3.457 -0.4137  0.1108 -0.4515
 8397TIP3    H125155   1.137   6.514   3.403  0.7573 -3.2624 -0.3303
 8397TIP3    H225156   1.288   6.526   3.405  0.5560  0.8675  0.6699
 8398TIP3   OH225157   0.595   1.756   3.829 -0.3793  0.2696  0.0489
 8398TIP3    H125158   0.569   1.695   3.760  2.9987 -2.7018  1.1461
 8398TIP3    H225159   0.670   1.803   3.792 -0.4111  0.8334  0.6824
 8399TIP3   OH225160   4.042   4.708   3.424 -0.4170 -0.4738  0.1748
 8399TIP3    H125161   3.992   4.688   3.344 -1.6846  0.3070  0.7369
 8399TIP3    H225162   4.026   4.801   3.439  1.7266 -0.0566  0.0645
 8400TIP3   OH225163   5.857   5.458   4.962 -0.2669  0.0320 -0.5177
 8400TIP3    H125164   5.769   5.447   4.927  0.1036 -1.0808 -1.1709
 8400TIP3    H225165   5.845   5.469   5.056 -1.1889  1.6239 -0.7888
 8401TIP3   OH225166   4.323   0.241   0.275 -0.1754 -0.0267 -0.1739
 8401TIP3    H125167   4.401   0.276   0.232  0.5813 -1.1858  0.2195
 8401TIP3    H225168   4.269   0.207   0.204 -0.0748  0.2822 -0.4018
 8402TIP3   OH225169   0.481   6.446   4.010  0.4648 -0.0528  0.0772
 8402TIP3    H125170   0.521   6.377   4.063 -1.0216  0.1175  1.4911
 8402TIP3    H225171   0.502   6.421   3.920 -0.3616 -2.5859  0.5015
 8403TIP3   OH225172   7.110   3.831   0.246 -0.4261  0.1043  0.0893
 8403TIP3    H125173   7.060   3.904   0.284 -1.1162  0.2216 -0.9786
 8403TIP3    H225174   7.122   3.770   0.319 -3.0511 -0.4134  0.2183
 8404TIP3   OH225175   7.166   2.400   3.639 -0.1168 -0.1534 -0.3973
 8404TIP3    H125176   7.070   2.402   3.630 -0.3423 -2.4927  0.8251
 8404TIP3    H225177   7.194   2.488   3.614 -2.6097  0.7052 -0.4302
 8405TIP3   OH225178   4.452   2.726   0.716  0.1148  0.2793 -0.3499
 8405TIP3    H125179   4.461   2.654   0.778 -0.1540  0.7444  0.2457
 8405TIP3    H225180   4.498   2.697   0.638  0.8227 -0.1585  0.2138
 8406TIP3   OH225181   2.628   0.607   5.237 -0.0416  0.3916 -0.1470
 8406TIP3    H125182   2.565   0.679   5.236 -2.4667 -1.5185  1.8294
 8406TIP3    H225183   2.614   0.562   5.153 -0.4853  0.6557 -0.2206
 8407TIP3   OH225184   6.172   5.549   1.612 -0.2656  0.6813 -0.0694
 8407TIP3    H125185   6.243   5.502   1.657 -1.1014  0.5460  1.1498
 8407TIP3    H225186   6.203   5.639   1.608  0.9878  0.2432 -1.6845
 8408TIP3   OH225187   4.462   1.100   1.019 -0.2121 -0.1054  0.2981
 8408TIP3    H125188   4.427   1.129   1.103 -1.6090 -0.9270  0.0390
 8408TIP3    H225189   4.556   1.096   1.032 -0.4973 -2.2048  2.5063
 8409TIP3   OH225190   1.021   5.408   2.212  0.3249  0.3522  0.2944
 8409TIP3    H125191   0.966   5.350   2.264 -1.0495  0.4902 -0.9343
 8409TIP3    H225192   1.108   5.370   2.218 -0.4322 -1.5830 -0.0679
 8410TIP3   OH225193   6.731   3.415   4.539 -0.1034  0.1694  0.0349
 8410TIP3    H125194   6.683   3.458   4.468  0.1057  0.1954 -0.0894
 8410TIP3    H225195   6.715   3.470   4.615 -0.6905 -0.0908  0.1120
 8411TIP3   OH225196   0.056   0.385   1.123 -0.1365  0.1689 -0.1773
 8411TIP3    H125197   0.111   0.307   1.109 -0.7780 -0.1574 -0.9243
 8411TIP3    H225198   0.085   0.447   1.056  0.4407  0.6314  0.4781
 8412TIP3   OH225199   4.440   1.738   3.049 -0.3926  0.3027 -0.4457
 8412TIP3    H125200   4.392   1.744   3.132 -1.1788  1.3991 -0.9621
 8412TIP3    H225201   4.430   1.824   3.009  2.1833  0.6289 -0.5084
 8413TIP3   OH225202   5.868   6.380   0.985  0.4398  0.2483  0.0452
 8413TIP3    H125203   5.879   6.468   1.021 -1.1014  1.3189 -1.9242
 8413TIP3    H225204   5.863   6.394   0.890 -0.8675 -1.8503 -0.2390
 8414TIP3   OH225205   7.169   4.013   0.709 -0.4331 -0.0819 -0.4294
 8414TIP3    H125206   7.108   3.940   0.722 -1.1100  0.6333  0.5238
 8414TIP3    H225207   7.186   4.045   0.798  1.4269 -0.3315 -0.6621
 8415TIP3   OH225208   3.347   2.342   5.716  0.0089 -0.0128 -0.0138
 8415TIP3    H125209   3.256   2.370   5.725 -0.6160 -1.5228 -1.2076
 8415TIP3    H225210   3.357   2.323   5.622  1.4569 -0.1821  0.1526
 8416TIP3   OH225211   7.017   3.005   2.972  0.1902  0.5777  0.1222
 8416TIP3    H125212   7.109   3.011   2.946  0.1500 -1.9473 -0.8360
 8416TIP3    H225213   7.007   2.917   3.007 -2.0214  0.5373 -0.4440
 8417TIP3   OH225214   4.273   3.069   5.513 -0.4136  1.1688 -0.0943
 8417TIP3    H125215   4.303   3.092   5.601 -0.4550  2.0510 -0.3035
 8417TIP3    H225216   4.299   3.143   5.459  0.7203  0.1054 -1.0729
 8418TIP3   OH225217   0.043   2.173   0.737  0.2074 -0.0208 -0.5417
 8418TIP3    H125218   0.104   2.115   0.783  0.9708  0.0992 -1.3653
 8418TIP3    H225219  -0.024   2.115   0.702 -0.0058 -0.1911  0.1411
 8419TIP3   OH225220   5.869   0.151   0.443 -0.2723 -0.6011 -0.8259
 8419TIP3    H125221   5.936   0.089   0.416 -2.0335 -2.3093 -1.4539
 8419TIP3    H225222   5.845   0.198   0.363  0.0944 -0.0454 -0.6178
 8420TIP3   OH225223   4.920   2.942   2.477  0.1389 -0.4918 -0.4202
 8420TIP3    H125224   4.961   2.977   2.398 -2.4240  1.0827 -1.2132
 8420TIP3    H225225   4.827   2.934   2.453 -0.3845 -1.8646  1.8322
 8421TIP3   OH225226   2.330   0.035   2.409 -0.1463  0.4285 -0.2969
 8421TIP3    H125227   2.327   0.038   2.313  1.7800 -0.4935 -0.4372
 8421TIP3    H225228   2.420   0.060   2.431 -0.2565 -0.3883  1.2134
 8422TIP3   OH225229   0.300   2.224   1.423  0.3295 -0.0398 -0.0597
 8422TIP3    H125230   0.278   2.314   1.445 -0.7161 -0.4992  0.8191
 8422TIP3    H225231   0.365   2.232   1.353  0.3253  1.3884  0.0772
 8423TIP3   OH225232   6.887   2.376   2.317 -0.0557  0.3529  0.1560
 8423TIP3    H125233   6.868   2.445   2.381  1.9296  0.8140  0.3223
 8423TIP3    H225234   6.982   2.367   2.319 -0.2097 -2.1110 -0.1937
 8424TIP3   OH225235   1.479   2.525   3.225  0.7454  0.5334  0.5101
 8424TIP3    H125236   1.394   2.518   3.182  0.3526  0.3116  1.3119
 8424TIP3    H225237   1.536   2.469   3.172  0.9548  2.3632 -1.3157
 8425TIP3   OH225238   1.575   3.711   2.605  0.4768 -0.2066  0.0328
 8425TIP3    H125239   1.598   3.642   2.667  1.8097 -1.9130 -2.2346
 8425TIP3    H225240   1.520   3.668   2.540  0.7096  1.0433 -1.0356
 8426TIP3   OH225241   3.404   2.610   4.507 -0.0757 -0.7209  0.6095
 8426TIP3    H125242   3.333   2.664   4.541 -0.6216 -1.6695  0.9976
 8426TIP3    H225243   3.484   2.653   4.538 -0.3437  1.3661 -1.2768
 8427TIP3   OH225244   1.258   1.721   5.024 -0.5164 -0.3585 -0.1507
 8427TIP3    H125245   1.218   1.796   5.069  0.3869 -0.9890  1.8004
 8427TIP3    H225246   1.338   1.756   4.986  0.4983 -0.5135  1.7320
 8428TIP3   OH225247   2.468   0.504   4.175 -0.4280 -0.7287  0.4095
 8428TIP3    H125248   2.466   0.437   4.107 -0.2529  1.3290 -1.7147
 8428TIP3    H225249   2.379   0.537   4.180  0.3960  2.5116 -2.5169
 8429TIP3   OH225250   5.410   0.683   5.784 -0.3362 -0.0923  0.4270
 8429TIP3    H125251   5.386   0.591   5.778  0.9866 -0.4662  0.5629
 8429TIP3    H225252   5.347   0.728   5.728  0.8653 -1.4258 -2.1861
 8430TIP3   OH225253   5.486   1.371   3.059  0.4237 -0.2437  0.3479
 8430TIP3    H125254   5.570   1.417   3.064  1.6629 -2.3254  0.1588
 8430TIP3    H225255   5.451   1.395   2.974  1.1671  0.1324  0.1336
 8431TIP3   OH225256   3.486   1.873   1.096 -0.5721  1.0786  0.9988
 8431TIP3    H125257   3.546   1.890   1.169  0.0868 -0.3262  0.8067
 8431TIP3    H225258   3.508   1.785   1.067 -2.0909  0.9045  0.2935
 8432TIP3   OH225259   0.514   2.161   4.785 -0.4489 -0.3606  0.0105
 8432TIP3    H125260   0.512   2.253   4.810 -1.0824  0.0619 -1.4797
 8432TIP3    H225261   0.514   2.114   4.868  1.7950  0.9750  0.8544
 8433TIP3   OH225262   6.717   2.208   4.219 -0.4114  0.2823  0.1322
 8433TIP3    H125263   6.720   2.117   4.191  0.1026  0.2082  0.4129
 8433TIP3    H225264   6.770   2.211   4.299 -0.0764  0.9025 -0.1042
 8434TIP3   OH225265   6.643   2.993   4.252 -0.6072  0.3545 -0.0574
 8434TIP3    H125266   6.589   3.038   4.316 -1.7028 -0.8356 -0.1133
 8434TIP3    H225267   6.707   2.945   4.304 -2.8933 -2.4656  0.4073
 8435TIP3   OH225268   6.934   4.779   1.155 -0.0793 -0.0707 -0.1212
 8435TIP3    H125269   6.844   4.786   1.124  0.4504  0.2480 -1.6638
 8435TIP3    H225270   6.986   4.826   1.089  1.0341  1.3179  1.6505
 8436TIP3   OH225271   5.640   1.727   2.313  0.3235  0.2921 -0.2018
 8436TIP3    H125272   5.645   1.633   2.296  1.9546  0.6020 -1.6760
 8436TIP3    H225273   5.547   1.747   2.305  0.1223 -0.9362 -1.4754
 8437TIP3   OH225274   6.930   3.082   0.936  0.4137  0.5080  0.5278
 8437TIP3    H125275   6.924   3.170   0.972 -1.5078  0.5430  0.2115
 8437TIP3    H225276   6.862   3.033   0.982  0.4986 -0.4368 -0.3187
 8438TIP3   OH225277   2.744   5.868   2.744  0.0821  0.5815  0.0396
 8438TIP3    H125278   2.688   5.856   2.667 -1.1659 -2.4167  1.2872
 8438TIP3    H225279   2.827   5.901   2.708 -0.9642  0.8133 -2.3676
 8439TIP3   OH225280   0.082   1.348   1.803 -0.2771 -0.3461  0.3895
 8439TIP3    H125281   0.167   1.317   1.774 -0.2899  0.2900 -0.3547
 8439TIP3    H225282   0.096   1.375   1.894  0.8559  1.7055 -0.3241
 8440TIP3   OH225283   6.855   0.279   1.882  0.4254 -0.2763  0.0404
 8440TIP3    H125284   6.850   0.359   1.831 -0.4012 -0.1773  0.2621
 8440TIP3    H225285   6.866   0.209   1.818  1.0181 -0.0041 -0.1604
 8441TIP3   OH225286   4.930   1.351   5.383  0.1449 -0.1219  0.1492
 8441TIP3    H125287   4.920   1.296   5.305  0.1462  1.3901 -0.9692
 8441TIP3    H225288   4.968   1.293   5.449  1.4350 -1.1202 -1.3943
 8442TIP3   OH225289   1.431   0.834   5.283  0.5543 -0.4632  0.4758
 8442TIP3    H125290   1.495   0.801   5.347  1.7662 -0.8131 -0.8692
 8442TIP3    H225291   1.380   0.757   5.258  0.4446 -0.4327  0.6028
 8443TIP3   OH225292   0.940   3.506   0.358  0.2756 -0.0118 -0.2335
 8443TIP3    H125293   0.873   3.521   0.424 -0.6431 -0.2440 -1.0820
 8443TIP3    H225294   0.960   3.593   0.324 -0.6141 -0.0685 -0.9318
 8444TIP3   OH225295   3.040   0.390   1.591 -0.2756 -0.1061  0.0040
 8444TIP3    H125296   3.078   0.360   1.674  2.0810  0.3924 -0.8390
 8444TIP3    H225297   3.084   0.473   1.573 -0.5605 -0.3251 -1.8710
 8445TIP3   OH225298   0.495   2.029   5.014 -0.3964  0.1747  0.7341
 8445TIP3    H125299   0.443   2.076   5.078  0.2472  0.0902  1.3321
 8445TIP3    H225300   0.433   1.970   4.971 -1.0467  1.0176  0.5059
 8446TIP3   OH225301   2.981   6.743   3.204 -0.0933 -0.0439  0.2345
 8446TIP3    H125302   3.019   6.831   3.202  2.7549 -1.0657  2.6669
 8446TIP3    H225303   2.942   6.736   3.292  2.0871 -1.9930  1.1468
 8447TIP3   OH225304   6.686   3.888   4.924  0.0052 -0.2841 -0.1606
 8447TIP3    H125305   6.689   3.966   4.980  1.4148 -1.2416  1.1619
 8447TIP3    H225306   6.606   3.899   4.873 -0.6357  1.2839  1.0826
 8448TIP3   OH225307   1.494   2.356   5.360 -0.2150  0.5298  0.1034
 8448TIP3    H125308   1.526   2.429   5.306  0.6824  0.1886  0.1564
 8448TIP3    H225309   1.573   2.316   5.395 -0.6722 -0.6420 -0.1490
 8449TIP3   OH225310   6.057   3.389   0.145  0.3987 -0.6124 -0.2729
 8449TIP3    H125311   6.072   3.379   0.239  0.8556  3.9243  0.3874
 8449TIP3    H225312   5.968   3.424   0.139  1.0194  0.8934 -1.2857
 8450TIP3   OH225313   0.849   6.056   0.457 -0.5616  0.1525 -0.0573
 8450TIP3    H125314   0.914   6.111   0.499 -2.4141  0.9299  1.9936
 8450TIP3    H225315   0.834   5.985   0.519 -0.3589 -1.0548 -1.3335
 8451TIP3   OH225316   6.566   6.211   1.400 -0.2200  0.1262 -0.3159
 8451TIP3    H125317   6.615   6.271   1.344  0.7197 -0.7654 -0.4869
 8451TIP3    H225318   6.621   6.133   1.405 -0.4116  0.0662  1.6006
 8452TIP3   OH225319   4.350   2.973   0.494 -0.2518 -0.0941 -0.3246
 8452TIP3    H125320   4.356   2.971   0.590 -0.6423  2.4498 -0.1827
 8452TIP3    H225321   4.258   2.950   0.476  0.0084 -1.3324 -0.1703
 8453TIP3   OH225322   3.925   3.157   2.966  0.0468  0.6382  0.6110
 8453TIP3    H125323   3.922   3.252   2.957  0.1175  0.4634 -1.8749
 8453TIP3    H225324   3.899   3.141   3.057 -0.4389  2.9833  0.9546
 8454TIP3   OH225325   4.801   6.277   4.860  0.2153 -0.9697 -0.0970
 8454TIP3    H125326   4.837   6.347   4.806 -1.2515 -0.2621 -0.2185
 8454TIP3    H225327   4.735   6.321   4.914 -0.5824 -2.2137 -0.0187
 8455TIP3   OH225328   0.865   3.690   3.970 -0.5031  0.0481  0.1963
 8455TIP3    H125329   0.868   3.636   3.891  0.3361 -0.4285  0.5302
 8455TIP3    H225330   0.815   3.767   3.946 -0.3218 -0.1334 -0.7780
 8456TIP3   OH225331   5.219   2.738   4.651  0.5942  0.0885 -0.1725
 8456TIP3    H125332   5.210   2.648   4.682  1.7543  0.6230  1.9342
 8456TIP3    H225333   5.129   2.770   4.644  0.2289 -0.4402  1.6606
 8457TIP3   OH225334   1.267   6.560   2.608 -0.5200 -0.1688 -0.2024
 8457TIP3    H125335   1.343   6.504   2.622 -0.2032  0.4420  0.5804
 8457TIP3    H225336   1.302   6.649   2.604 -1.2481  0.1791  0.7888
 8458TIP3   OH225337   4.561   2.283   4.404 -0.2444  0.2567 -0.3661
 8458TIP3    H125338   4.539   2.277   4.497 -0.7032  1.5529 -0.3725
 8458TIP3    H225339   4.596   2.372   4.394  0.5892 -0.1601 -1.2777
 8459TIP3   OH225340   5.008   5.713   0.466  0.3758 -0.7903  0.2276
 8459TIP3    H125341   4.934   5.656   0.448  2.2242 -3.2640 -0.0375
 8459TIP3    H225342   5.029   5.753   0.382  0.3105 -1.3346 -0.0517
 8460TIP3   OH225343   1.258   6.385   4.792 -0.3248  0.0619 -0.0008
 8460TIP3    H125344   1.247   6.461   4.735 -1.9370  1.3128  1.8652
 8460TIP3    H225345   1.190   6.324   4.764  1.7236 -1.3474 -2.3076
 8461TIP3   OH225346   7.003   3.597   4.974  0.0294  0.0639  0.3927
 8461TIP3    H125347   7.086   3.575   5.016  0.0287 -0.5265  0.0828
 8461TIP3    H225348   7.026   3.664   4.909 -0.0519  1.4127  1.6907
 8462TIP3   OH225349   5.514   6.184   4.863  0.5613  0.7374  0.3857
 8462TIP3    H125350   5.494   6.184   4.957  0.7838  2.5750  0.4736
 8462TIP3    H225351   5.433   6.215   4.821 -0.4873 -2.6337 -0.3460
 8463TIP3   OH225352   7.002   4.969   5.272  0.3407  0.1258  0.2115
 8463TIP3    H125353   7.070   5.010   5.325  0.9530 -1.6845  0.9294
 8463TIP3    H225354   6.960   4.907   5.332 -1.1617  0.3581 -0.5537
 8464TIP3   OH225355   1.063   1.835   3.661 -0.0873 -0.4950 -0.1630
 8464TIP3    H125356   1.039   1.926   3.648 -1.1207 -0.7388 -0.0663
 8464TIP3    H225357   1.131   1.818   3.597  0.3943  0.4526  0.0934
 8465TIP3   OH225358   1.797   1.420   2.829  0.1073 -0.1151 -0.1085
 8465TIP3    H125359   1.746   1.339   2.833 -1.2702  0.7606  1.5131
 8465TIP3    H225360   1.763   1.473   2.901  1.7371  1.4753 -0.4372
 8466TIP3   OH225361   5.219   0.697   2.460 -0.5677  0.9422  0.4262
 8466TIP3    H125362   5.193   0.615   2.502  1.1770  0.6018  0.8833
 8466TIP3    H225363   5.136   0.739   2.438 -1.5079 -0.9272  0.1950
 8467TIP3   OH225364   0.267   3.005   3.631  0.0549 -0.1792  0.4355
 8467TIP3    H125365   0.328   3.078   3.641  0.2680 -0.2800 -0.1031
 8467TIP3    H225366   0.323   2.927   3.631 -0.0772 -0.2739 -0.0308
 8468TIP3   OH225367   5.181   0.658   3.248  0.0918  0.8641  0.9003
 8468TIP3    H125368   5.247   0.670   3.316  1.2684  1.3129 -0.2827
 8468TIP3    H225369   5.195   0.731   3.188 -0.8323  0.4096  0.0998
 8469TIP3   OH225370   5.464   3.498   1.181 -0.0150 -0.6545  0.4453
 8469TIP3    H125371   5.547   3.476   1.138 -0.2153  0.3759 -0.5081
 8469TIP3    H225372   5.396   3.463   1.123 -0.2705 -0.0255  0.3531
 8470TIP3   OH225373   3.193   3.802   0.328 -0.1864 -0.3084 -0.5626
 8470TIP3    H125374   3.110   3.756   0.343 -0.3075 -0.0381 -0.4014
 8470TIP3    H225375   3.246   3.740   0.278 -0.7057 -0.2577 -1.1893
 8471TIP3   OH225376   2.853   3.605   3.897 -0.2604  0.1541  0.0986
 8471TIP3    H125377   2.881   3.618   3.988  0.1974 -0.0635 -0.0056
 8471TIP3    H225378   2.922   3.550   3.859 -1.7152 -1.9213  0.3120
 8472TIP3   OH225379   3.458   2.524   4.229 -0.4991  0.0403 -0.0180
 8472TIP3    H125380   3.414   2.569   4.301 -0.0206  0.1097  0.2383
 8472TIP3    H225381   3.551   2.526   4.253 -0.2494  0.7453 -1.0119
 8473TIP3   OH225382   5.209   6.222   4.872 -0.5584  0.0979 -0.3710
 8473TIP3    H125383   5.219   6.311   4.840  1.2531  0.1732  0.2782
 8473TIP3    H225384   5.145   6.229   4.943  1.7621  1.5332  1.7710
 8474TIP3   OH225385   1.466   0.456   5.340 -0.3818  0.3014 -0.1216
 8474TIP3    H125386   1.421   0.497   5.267  2.4549  2.0727 -1.0399
 8474TIP3    H225387   1.506   0.528   5.388  0.9804 -1.0738  0.9408
 8475TIP3   OH225388   5.372   3.174   4.242  0.0135 -0.0987  0.2039
 8475TIP3    H125389   5.340   3.174   4.152  0.1230  1.4900  0.1335
 8475TIP3    H225390   5.299   3.140   4.293 -0.2388 -0.5088 -0.4205
 8476TIP3   OH225391   6.063   6.502   3.537  0.2273  0.0962 -0.1026
 8476TIP3    H125392   6.157   6.489   3.548  0.4706 -0.7729 -2.5862
 8476TIP3    H225393   6.053   6.597   3.528  0.6817  0.3006  1.3989
 8477TIP3   OH225394   0.731   5.938   1.922 -0.0190  0.2766  0.3587
 8477TIP3    H125395   0.763   5.979   2.003  0.8984  0.5340 -0.1201
 8477TIP3    H225396   0.643   5.975   1.910 -0.7108 -0.7434  1.9164
 8478TIP3   OH225397   7.106   5.920   0.045  0.7376  0.3529 -0.1031
 8478TIP3    H125398   7.076   5.929   0.135 -0.5830 -1.5839 -0.2872
 8478TIP3    H225399   7.061   5.990  -0.002  0.3780  0.5374  0.5004
 8479TIP3   OH225400   2.223   3.587   3.465  0.0023 -0.3387  0.4179
 8479TIP3    H125401   2.285   3.595   3.537 -0.4075  0.3056  0.7135
 8479TIP3    H225402   2.226   3.672   3.421 -0.2805 -0.4832  0.1183
 8480TIP3   OH225403   1.804   0.666   1.231  0.1349  0.3871 -0.1872
 8480TIP3    H125404   1.797   0.601   1.301 -3.1985 -0.0453 -0.7572
 8480TIP3    H225405   1.826   0.747   1.277 -2.4371  0.2264  1.5248
 8481TIP3   OH225406   3.056   5.887   1.147  0.1994 -0.2314 -0.6621
 8481TIP3    H125407   2.981   5.828   1.145  0.8875 -1.1241 -0.6482
 8481TIP3    H225408   3.127   5.835   1.184  0.7132  0.7409 -0.2441
 8482TIP3   OH225409   2.175   6.444   2.444 -0.0320 -0.3575  0.0418
 8482TIP3    H125410   2.259   6.470   2.483  0.6663 -3.2766  0.7123
 8482TIP3    H225411   2.197   6.419   2.354 -0.2471 -0.7610  0.1003
 8483TIP3   OH225412   4.630   2.473   2.472 -0.0962 -0.1927  0.0720
 8483TIP3    H125413   4.581   2.478   2.553  1.9069 -0.0945  1.3567
 8483TIP3    H225414   4.687   2.397   2.482 -1.1722 -1.4135 -2.1219
 8484TIP3   OH225415   0.060   5.001   4.268 -0.0237 -0.0240  0.2783
 8484TIP3    H125416   0.153   5.014   4.286 -0.0551  3.0040 -1.1307
 8484TIP3    H225417   0.016   5.059   4.330 -0.8076  0.4434 -0.6986
 8485TIP3   OH225418   6.662   2.656   2.217 -0.2684 -0.5560 -0.0263
 8485TIP3    H125419   6.710   2.655   2.300 -0.1623  0.0964 -0.0742
 8485TIP3    H225420   6.623   2.569   2.210 -0.6308 -0.4758  0.9106
 8486TIP3   OH225421   4.283   3.886   2.647  0.7400 -0.4251  0.1922
 8486TIP3    H125422   4.359   3.841   2.611 -0.2622 -1.6139 -0.5072
 8486TIP3    H225423   4.311   3.918   2.733  1.7560 -1.5989  0.3102
 8487TIP3   OH225424   0.814   0.594   1.113  0.1840  0.0297  0.0025
 8487TIP3    H125425   0.756   0.530   1.072  0.8845 -0.6318  0.0350
 8487TIP3    H225426   0.859   0.636   1.040 -0.6562  0.8829 -0.0538
 8488TIP3   OH225427   1.070   3.011   3.290  0.2015 -0.3667  0.0051
 8488TIP3    H125428   1.068   2.916   3.283 -0.6546 -0.3751  0.3050
 8488TIP3    H225429   1.124   3.028   3.368  2.0008 -0.5230 -1.1352
 8489TIP3   OH225430   0.123   2.591   2.838 -0.3491 -0.6096 -0.3536
 8489TIP3    H125431   0.101   2.498   2.831 -0.4837 -0.5842 -0.2620
 8489TIP3    H225432   0.060   2.635   2.781  0.8222 -0.7328 -1.8002
 8490TIP3   OH225433   6.059   4.751   3.388 -0.4742 -0.0038 -0.5664
 8490TIP3    H125434   6.080   4.798   3.308  0.2396  0.2393 -0.2499
 8490TIP3    H225435   5.973   4.783   3.413 -0.1069  0.9772 -0.4886
 8491TIP3   OH225436   0.268   3.281   0.347 -0.3401 -0.4568  0.3998
 8491TIP3    H125437   0.247   3.217   0.279  0.3693  0.8389 -1.1058
 8491TIP3    H225438   0.314   3.230   0.414  1.9219 -1.2813 -1.6258
 8492TIP3   OH225439   4.943   4.215   1.224 -0.3067 -0.4821 -0.1782
 8492TIP3    H125440   4.856   4.206   1.186 -1.2398  1.4552  1.2905
 8492TIP3    H225441   4.999   4.157   1.172 -2.4270 -1.6988 -1.2333
 8493TIP3   OH225442   6.125   5.442   3.998 -0.1155  0.5176  0.0748
 8493TIP3    H125443   6.126   5.454   4.093 -0.2368 -2.2289  0.5147
 8493TIP3    H225444   6.034   5.452   3.972 -0.4269 -0.6844  0.6185
 8494TIP3   OH225445   4.274   6.161   3.827 -0.3418 -0.4603  0.1491
 8494TIP3    H125446   4.197   6.109   3.802  0.3598 -1.0539 -0.8533
 8494TIP3    H225447   4.283   6.224   3.756  0.2052 -0.5218  0.1647
 8495TIP3   OH225448   0.445   1.641   3.309  0.0241  0.5918  0.1852
 8495TIP3    H125449   0.396   1.559   3.316  2.3504 -1.2362 -2.4666
 8495TIP3    H225450   0.394   1.694   3.248  0.1541 -0.3388 -0.7641
 8496TIP3   OH225451   0.111   2.080   3.840  0.3621  0.0069 -0.2328
 8496TIP3    H125452   0.124   2.172   3.817 -0.1229  0.0713 -0.2610
 8496TIP3    H225453   0.155   2.070   3.925  0.9234  0.1187 -0.5106
 8497TIP3   OH225454   0.858   5.754   3.923 -0.1942  0.2064 -0.6251
 8497TIP3    H125455   0.919   5.754   3.997  0.2970 -0.7131 -1.0057
 8497TIP3    H225456   0.842   5.661   3.906 -1.7981  0.4432 -0.4670
 8498TIP3   OH225457   0.743   5.784   4.230  0.1060 -0.3240  0.1009
 8498TIP3    H125458   0.666   5.737   4.198  0.1791 -0.3149 -0.0872
 8498TIP3    H225459   0.707   5.865   4.268 -0.0109 -0.4921  0.3497
 8499TIP3   OH225460   7.134   6.700   2.147  0.4364 -0.0565 -0.0898
 8499TIP3    H125461   7.065   6.636   2.127  0.8479  0.4226 -3.5731
 8499TIP3    H225462   7.215   6.657   2.120  0.9490  1.1456 -0.4880
 8500TIP3   OH225463   1.481   5.011   1.775  0.1045 -0.0241  0.0431
 8500TIP3    H125464   1.469   5.073   1.703 -1.1596  0.6292  0.7746
 8500TIP3    H225465   1.565   4.970   1.757  0.0639  0.4894 -1.5257
 8501TIP3   OH225466   6.420   3.196   3.919  0.0595 -0.0312 -0.4934
 8501TIP3    H125467   6.513   3.181   3.930  0.4617  0.6585 -2.5483
 8501TIP3    H225468   6.396   3.255   3.990  2.2281  3.5684 -2.4413
 8502TIP3   OH225469   4.019   1.885   1.979 -0.0868  0.1481 -0.6266
 8502TIP3    H125470   4.015   1.942   1.902 -0.1597  1.5088  0.3336
 8502TIP3    H225471   4.011   1.797   1.944 -0.1824  0.7287 -2.1711
 8503TIP3   OH225472   3.313   4.924   2.292  0.1756 -0.0025  0.0393
 8503TIP3    H125473   3.270   4.934   2.377  0.6110  2.1149  0.0656
 8503TIP3    H225474   3.333   5.014   2.265  0.3180 -0.6502 -2.1688
 8504TIP3   OH225475   5.951   1.244   3.556 -0.0218  0.1661 -0.4167
 8504TIP3    H125476   5.913   1.156   3.558  0.7750 -0.1705  1.0126
 8504TIP3    H225477   6.026   1.236   3.496 -0.1618 -0.0429 -0.5639
 8505TIP3   OH225478   2.051   4.254   0.077  0.2682  0.0164 -0.4020
 8505TIP3    H125479   2.102   4.193   0.024 -0.7001 -1.4615  0.2855
 8505TIP3    H225480   1.992   4.198   0.128  1.7544  1.2347  2.9331
 8506TIP3   OH225481   6.937   3.320   1.062 -0.0432  0.8440 -0.4587
 8506TIP3    H125482   6.875   3.302   1.133 -0.4180 -1.4872 -1.3015
 8506TIP3    H225483   7.012   3.361   1.106 -1.0227  1.1978  0.9766
 8507TIP3   OH225484   0.997   5.120   4.161 -0.2455 -0.4478 -0.1620
 8507TIP3    H125485   0.931   5.099   4.226  0.2847 -1.5246  0.0490
 8507TIP3    H225486   1.042   5.037   4.145  1.4093  0.3644  0.1017
 8508TIP3   OH225487   6.525   6.236   2.802  0.3807  0.0743 -0.8425
 8508TIP3    H125488   6.621   6.235   2.799  0.5051  1.8508  0.9012
 8508TIP3    H225489   6.504   6.204   2.890 -0.3880  3.5231  0.3635
 8509TIP3   OH225490   4.466   5.039   0.498  0.3956 -0.0848  0.1422
 8509TIP3    H125491   4.384   5.024   0.451  1.5839 -1.2656 -1.7145
 8509TIP3    H225492   4.519   4.961   0.478  1.4307 -0.0715  2.5267
 8510TIP3   OH225493   5.341   2.495   4.487 -0.2272 -0.3590  0.0766
 8510TIP3    H125494   5.338   2.561   4.419 -1.7027  1.0853  1.4589
 8510TIP3    H225495   5.435   2.483   4.505  0.0704  1.6943  0.0797
 8511TIP3   OH225496   5.978   0.267   4.265 -0.1403  0.2409 -0.2000
 8511TIP3    H125497   5.952   0.295   4.353  0.3225 -0.0649  0.0405
 8511TIP3    H225498   5.927   0.322   4.206 -0.1247  0.7571  0.2596
 8512TIP3   OH225499   5.370   6.004   3.155  0.2449 -0.1439  0.4419
 8512TIP3    H125500   5.291   6.039   3.114  0.4603  0.9415  0.9238
 8512TIP3    H225501   5.373   5.913   3.125 -0.8800 -0.0546 -0.0305
 8513TIP3   OH225502   4.400   4.305   0.934 -0.1380  0.0133  0.2967
 8513TIP3    H125503   4.401   4.337   0.844 -2.0577 -0.0018  0.2188
 8513TIP3    H225504   4.371   4.214   0.927  1.7899 -0.6708  0.7921
 8514TIP3   OH225505   6.021   0.710   1.643  0.1409 -0.1507  0.5023
 8514TIP3    H125506   6.097   0.733   1.697 -1.0786  1.5513  1.5703
 8514TIP3    H225507   5.946   0.725   1.700 -1.1356  0.4399 -1.2598
 8515TIP3   OH225508   2.676   0.919   3.660 -0.1666 -0.0627  0.1666
 8515TIP3    H125509   2.751   0.879   3.616 -0.8469  0.6286 -1.7190
 8515TIP3    H225510   2.715   0.975   3.727  0.9939 -0.0281 -0.5055
 8516TIP3   OH225511   3.437   4.655   0.558  0.1759  0.1645  0.6452
 8516TIP3    H125512   3.357   4.654   0.505  0.1323 -1.7726  0.6670
 8516TIP3    H225513   3.411   4.697   0.640 -1.0144 -0.9485  0.8778
 8517TIP3   OH225514   7.059   1.449   0.246  0.4017  0.3177 -0.3382
 8517TIP3    H125515   7.081   1.457   0.339 -1.4107 -0.2187  0.1785
 8517TIP3    H225516   7.022   1.534   0.223  0.1545  0.2056 -0.3605
 8518TIP3   OH225517   5.214   3.183   5.164 -0.0915  0.5441 -0.5041
 8518TIP3    H125518   5.275   3.242   5.121  0.0184  0.1512 -0.8979
 8518TIP3    H225519   5.269   3.126   5.218 -0.1326  0.3557 -0.6605
 8519TIP3   OH225520   0.053   2.130   2.635  0.4533 -0.6098  0.0226
 8519TIP3    H125521   0.141   2.092   2.633  0.9315  0.4863 -0.5862
 8519TIP3    H225522   0.005   2.084   2.567  1.1552  0.1497 -1.0112
 8520TIP3   OH225523   1.292   1.828   3.476  0.3525  0.6076  0.2229
 8520TIP3    H125524   1.351   1.898   3.504 -0.3748  0.8762  1.1515
 8520TIP3    H225525   1.306   1.758   3.540  2.6367 -1.0235 -1.8986
 8521TIP3   OH225526   0.474   2.858   0.142 -0.3227 -0.5243 -0.7550
 8521TIP3    H125527   0.419   2.844   0.064  0.2700 -0.4511 -1.1957
 8521TIP3    H225528   0.512   2.945   0.128 -0.1606 -0.5419 -0.4106
 8522TIP3   OH225529   3.845   0.849   5.262 -0.1236  0.2322  0.0951
 8522TIP3    H125530   3.896   0.828   5.340 -0.4006 -2.9017 -0.4220
 8522TIP3    H225531   3.769   0.898   5.294  0.1761 -0.2993  1.6780
 8523TIP3   OH225532   1.036   0.447   1.540  0.3049  0.6741  0.0067
 8523TIP3    H125533   0.962   0.478   1.489  1.1421  1.7245 -0.6089
 8523TIP3    H225534   1.020   0.479   1.629 -1.2430 -1.3039  0.5289
 8524TIP3   OH225535   2.666   5.736   2.106  0.5006 -0.4354  0.1401
 8524TIP3    H125536   2.703   5.812   2.151  2.6947 -0.7945 -0.9094
 8524TIP3    H225537   2.589   5.770   2.060  1.4045  1.1518 -0.2618
 8525TIP3   OH225538   5.345   3.503   0.171  0.2574  0.5192  0.0909
 8525TIP3    H125539   5.352   3.429   0.231 -1.8725  0.7361  0.6831
 8525TIP3    H225540   5.432   3.542   0.171  1.8521 -2.7013 -1.2870
 8526TIP3   OH225541   4.520   2.001   4.360  0.0522 -0.5784  0.5634
 8526TIP3    H125542   4.524   2.095   4.373  0.9616 -0.2733 -1.4686
 8526TIP3    H225543   4.602   1.967   4.395 -0.1961 -0.5968  1.1303
 8527TIP3   OH225544   2.895   4.227   2.231 -0.2263  0.5203  0.6096
 8527TIP3    H125545   2.835   4.174   2.179  0.1954 -0.4380  1.0646
 8527TIP3    H225546   2.854   4.313   2.236 -1.5501 -0.1077  0.9008
 8528TIP3   OH225547   5.407   1.471   0.141 -0.0272  0.0698 -0.2290
 8528TIP3    H125548   5.361   1.487   0.059 -0.5082 -0.9881 -0.1793
 8528TIP3    H225549   5.339   1.443   0.202  0.5713 -0.9323  0.0080
 8529TIP3   OH225550   4.746   1.153   0.873  0.1111 -0.4143 -0.0120
 8529TIP3    H125551   4.775   1.122   0.787  0.4980 -2.0837  0.6804
 8529TIP3    H225552   4.693   1.230   0.854  1.4500  0.1617 -1.6283
 8530TIP3   OH225553   4.164   0.705   0.387  0.2706  0.1980 -0.2162
 8530TIP3    H125554   4.225   0.633   0.405  0.3733  0.2821 -0.2234
 8530TIP3    H225555   4.179   0.767   0.459 -0.0777  0.0421 -0.0095
 8531TIP3   OH225556   1.890   0.354   0.511 -0.0960 -0.8692  0.4784
 8531TIP3    H125557   1.936   0.437   0.498 -0.8667 -0.8438 -3.2392
 8531TIP3    H225558   1.799   0.380   0.529  0.2788 -0.9566  2.7075
 8532TIP3   OH225559   2.489   3.282   4.168 -0.3150 -0.2982 -0.0356
 8532TIP3    H125560   2.434   3.322   4.235  0.9489 -0.3094  1.0376
 8532TIP3    H225561   2.438   3.208   4.136 -1.4148  0.3916  0.0921
 8533TIP3   OH225562   2.363   2.367   1.347 -0.0498 -0.5929  0.1733
 8533TIP3    H125563   2.443   2.318   1.331  0.2827 -0.1693  0.4962
 8533TIP3    H225564   2.391   2.459   1.349 -0.5743 -0.4262  0.0871
 8534TIP3   OH225565   0.045   0.879   1.898 -0.0756 -0.5476 -0.1592
 8534TIP3    H125566   0.076   0.849   1.984 -0.5981  0.2533  0.3222
 8534TIP3    H225567   0.032   0.798   1.848 -0.9151 -1.1131  0.9256
 8535TIP3   OH225568   3.058   3.537   1.521  0.0888 -0.8305  0.0198
 8535TIP3    H125569   2.997   3.483   1.571 -1.8927  2.6254  1.7622
 8535TIP3    H225570   3.015   3.550   1.437 -2.2812  2.1646  1.4737
 8536TIP3   OH225571   6.251   1.281   3.636  0.0562 -0.1217 -0.0141
 8536TIP3    H125572   6.219   1.314   3.720  1.9368 -0.5396  0.9197
 8536TIP3    H225573   6.347   1.283   3.644  0.2748 -1.2641 -1.7210
 8537TIP3   OH225574   6.736   3.567   5.348  0.2110  0.5783  0.4882
 8537TIP3    H125575   6.731   3.647   5.295  1.5460  0.3155 -0.0714
 8537TIP3    H225576   6.808   3.582   5.408  0.9231 -0.4440 -0.0734
 8538TIP3   OH225577   0.296   1.650   1.821  0.4634  0.2947  0.1904
 8538TIP3    H125578   0.255   1.672   1.737  1.5420  0.6610 -0.2692
 8538TIP3    H225579   0.305   1.555   1.819 -0.2123  0.2248  0.2360
 8539TIP3   OH225580   3.920   4.309   4.020  0.0325 -0.4557  0.3190
 8539TIP3    H125581   3.882   4.226   3.993 -2.9689  0.5413  1.1063
 8539TIP3    H225582   3.865   4.339   4.092  0.9439  2.2510  0.0224
 8540TIP3   OH225583   5.684   2.193   1.590  0.6565  0.2274  0.0176
 8540TIP3    H125584   5.670   2.210   1.497 -0.1961  0.8719  0.2466
 8540TIP3    H225585   5.777   2.175   1.598  0.6578 -0.3134 -1.0339
 8541TIP3   OH225586   4.820   0.151   2.440  0.7526  0.2851  0.4257
 8541TIP3    H125587   4.885   0.122   2.376  0.0475 -0.3277 -0.0221
 8541TIP3    H225588   4.848   0.111   2.522 -0.3889 -2.0534 -0.2383
 8542TIP3   OH225589   5.750   2.942   5.064 -0.1588 -0.2018 -0.1775
 8542TIP3    H125590   5.816   2.885   5.102 -0.6790 -0.1680  0.8132
 8542TIP3    H225591   5.667   2.907   5.096 -0.5721  0.2252 -0.7654
 8543TIP3   OH225592   3.934   0.935   5.022 -0.4778  0.1925  0.0459
 8543TIP3    H125593   3.947   0.866   4.957  0.5136  1.3374 -1.0084
 8543TIP3    H225594   3.906   0.888   5.101  1.6050 -1.5743 -0.1904
 8544TIP3   OH225595   3.420   6.696   5.122  0.5669  0.0232 -0.3743
 8544TIP3    H125596   3.423   6.604   5.148 -0.2466 -0.0106 -0.3664
 8544TIP3    H225597   3.492   6.737   5.171  0.3695 -0.4422  0.3259
 8545TIP3   OH225598   4.653   3.420   0.388 -1.1474  0.3682  0.2861
 8545TIP3    H125599   4.640   3.515   0.388 -2.0215  0.2693  1.3774
 8545TIP3    H225600   4.565   3.384   0.378 -0.8411 -0.3291  0.0761
 8546TIP3   OH225601   2.241   3.998   4.341  0.4449 -0.1743 -0.7215
 8546TIP3    H125602   2.288   3.915   4.332 -0.3135 -0.6895 -0.0657
 8546TIP3    H225603   2.220   4.004   4.434 -1.0873 -0.1420 -1.0324
 8547TIP3   OH225604   3.964   5.047   0.399 -0.2675 -0.3069  0.1401
 8547TIP3    H125605   3.934   4.968   0.354  0.9929  0.4825 -2.2505
 8547TIP3    H225606   3.954   5.116   0.334  2.4475  0.7584  0.7431
 8548TIP3   OH225607   5.118   6.575   1.582 -0.1423 -0.1606  0.0920
 8548TIP3    H125608   5.032   6.541   1.558  0.3944 -1.6326  0.1871
 8548TIP3    H225609   5.109   6.602   1.674 -1.0207  1.5599 -0.4473
 8549TIP3   OH225610   1.172   1.295   2.123  0.0614  0.1239  0.2284
 8549TIP3    H125611   1.210   1.208   2.138 -0.9254 -0.5052 -0.7180
 8549TIP3    H225612   1.187   1.311   2.030 -0.8955  0.3857  0.1084
 8550TIP3   OH225613   0.627   4.908   2.936 -0.3417  0.2051 -0.4047
 8550TIP3    H125614   0.721   4.894   2.937 -0.4135 -0.3332  0.9066
 8550TIP3    H225615   0.617   5.004   2.933  0.2293  0.2592 -0.7681
 8551TIP3   OH225616   6.862   6.190   2.185  0.4588 -0.4982  0.3372
 8551TIP3    H125617   6.862   6.283   2.210  0.3360 -0.4027 -0.0029
 8551TIP3    H225618   6.822   6.145   2.260  0.9781 -0.3401  0.7117
 8552TIP3   OH225619   2.780   2.559   3.927 -0.0679 -0.3263 -0.1150
 8552TIP3    H125620   2.840   2.548   3.853  1.6868 -2.5423  1.4804
 8552TIP3    H225621   2.693   2.555   3.888  0.8087 -0.7511 -2.1461
 8553TIP3   OH225622   2.773   5.461   4.607 -0.4266  0.2132 -0.1469
 8553TIP3    H125623   2.839   5.486   4.543  0.2933  0.5600  0.7129
 8553TIP3    H225624   2.765   5.537   4.664 -1.4228  0.0960 -0.1071
 8554TIP3   OH225625   0.190   4.714   2.433  0.4494  0.6053 -0.2768
 8554TIP3    H125626   0.118   4.651   2.428  0.3491  0.6768  0.2955
 8554TIP3    H225627   0.234   4.706   2.348 -0.6830  1.1092 -0.9273
 8555TIP3   OH225628   0.958   6.742   5.260 -0.0123 -0.3849  0.0249
 8555TIP3    H125629   0.906   6.770   5.336 -0.8524 -0.0335 -0.6619
 8555TIP3    H225630   0.926   6.654   5.240  0.0390 -0.3815 -0.0726
 8556TIP3   OH225631   1.229   6.412   0.419  0.1488 -0.1677 -0.1405
 8556TIP3    H125632   1.222   6.485   0.481 -0.2464 -0.2429 -0.0968
 8556TIP3    H225633   1.192   6.337   0.465  0.4787 -0.3780 -0.2189
 8557TIP3   OH225634   2.093   0.361   0.179 -0.0796  0.8564 -0.2580
 8557TIP3    H125635   2.157   0.406   0.123  1.8842 -1.6278 -0.2043
 8557TIP3    H225636   2.084   0.417   0.256  1.2513  1.7833 -0.7390
 8558TIP3   OH225637   4.383   0.185   0.815  0.7083 -0.4526  0.4187
 8558TIP3    H125638   4.360   0.165   0.724  0.7557 -2.0451  0.7197
 8558TIP3    H225639   4.384   0.280   0.819 -0.9634 -0.3240 -0.8386
 8559TIP3   OH225640   4.785   3.033   5.781  0.8342  0.0472  0.0110
 8559TIP3    H125641   4.739   3.018   5.863 -1.2481 -0.3745 -1.1699
 8559TIP3    H225642   4.758   3.121   5.754 -0.3189 -0.6793 -1.3069
 8560TIP3   OH225643   0.793   6.320   5.372 -0.2291 -0.6816 -0.1634
 8560TIP3    H125644   0.858   6.270   5.420  0.3819 -0.3249 -0.5991
 8560TIP3    H225645   0.735   6.357   5.439 -0.6616 -1.9122  0.1609
 8561TIP3   OH225646   6.790   0.708   1.093  0.7259 -0.1774  0.1398
 8561TIP3    H125647   6.695   0.711   1.104  0.8195  1.2243  0.7798
 8561TIP3    H225648   6.811   0.615   1.089 -0.7615 -0.4949 -0.8332
 8562TIP3   OH225649   5.335   0.156   5.678  0.1285  0.0256 -0.0759
 8562TIP3    H125650   5.394   0.090   5.713  0.5583  1.4428  2.0627
 8562TIP3    H225651   5.262   0.159   5.739  0.1978  1.6078 -0.0254
 8563TIP3   OH225652   6.960   0.758   0.737 -0.2441 -0.4487 -0.1397
 8563TIP3    H125653   7.033   0.817   0.756 -1.0369  0.3698  0.4667
 8563TIP3    H225654   6.913   0.800   0.666  0.0818 -1.1840 -0.8131
 8564TIP3   OH225655   3.993   5.127   0.882 -0.2514 -0.0078 -0.2405
 8564TIP3    H125656   4.012   5.084   0.799  1.9934 -1.4985  0.9460
 8564TIP3    H225657   4.047   5.207   0.880  1.2949 -0.9948  0.4992
 8565TIP3   OH225658   6.427   5.361   1.761  0.1049 -0.3170 -0.1825
 8565TIP3    H125659   6.471   5.288   1.805 -1.4762 -0.7086  0.8216
 8565TIP3    H225660   6.416   5.427   1.830 -1.8327 -0.6814 -0.0721
 8566TIP3   OH225661   1.896   5.383   5.454  0.0504 -0.2170 -0.9874
 8566TIP3    H125662   1.897   5.467   5.408  2.2523  0.3129 -0.0770
 8566TIP3    H225663   1.901   5.405   5.547 -0.2834 -1.3600 -0.6742
 8567TIP3   OH225664   0.188   0.459   0.434 -0.1788 -0.4493  0.1513
 8567TIP3    H125665   0.181   0.370   0.468  1.4259  0.3843  3.0019
 8567TIP3    H225666   0.205   0.448   0.341  0.5559 -3.1636  0.5308
 8568TIP3   OH225667   2.261   3.163   2.094 -0.1307 -0.1828 -0.2532
 8568TIP3    H125668   2.256   3.161   2.189 -0.2388 -1.8625 -0.2677
 8568TIP3    H225669   2.296   3.249   2.073  4.0453 -1.2116  1.5529
 8569TIP3   OH225670   4.070   6.479   2.240  0.1975  0.3188 -0.0342
 8569TIP3    H125671   3.995   6.420   2.229 -0.1089  0.5356  0.7526
 8569TIP3    H225672   4.060   6.513   2.329  0.5115  1.3622 -0.3820
 8570TIP3   OH225673   3.049   1.682   5.249 -0.2515  0.4398  0.3821
 8570TIP3    H125674   3.095   1.705   5.330 -0.0559  2.7185 -0.3018
 8570TIP3    H225675   3.018   1.765   5.214  0.0632 -0.3820 -2.1274
 8571TIP3   OH225676   0.444   5.528   0.813  0.0863  0.3597 -0.3139
 8571TIP3    H125677   0.422   5.615   0.779  1.0717  0.5025 -0.6234
 8571TIP3    H225678   0.539   5.523   0.805 -0.0227 -1.0673 -1.0793
 8572TIP3   OH225679   4.616   3.158   5.529 -0.2334  0.4549 -0.2002
 8572TIP3    H125680   4.694   3.113   5.497  0.0276 -0.0117  1.0649
 8572TIP3    H225681   4.642   3.250   5.537  0.3005  0.2464  0.5406
 8573TIP3   OH225682   4.620   3.809   1.937  0.2774 -0.3651  0.1803
 8573TIP3    H125683   4.692   3.867   1.964 -1.5642  1.4913  1.3984
 8573TIP3    H225684   4.594   3.842   1.852 -0.7890  0.6884  0.8857
 8574TIP3   OH225685   1.214   4.771   1.213 -0.1254  0.1387 -0.0727
 8574TIP3    H125686   1.306   4.753   1.193  0.1542  0.6419  0.7269
 8574TIP3    H225687   1.213   4.862   1.242 -0.9870  0.3552 -0.7341
 8575TIP3   OH225688   3.987   5.409   3.916 -0.0136  0.0195 -0.3659
 8575TIP3    H125689   4.081   5.413   3.935 -0.2326 -0.5105  0.8898
 8575TIP3    H225690   3.946   5.380   3.998 -1.2339 -0.1957 -1.0189
 8576TIP3   OH225691   4.508   5.301   5.098  0.3452  0.1616  0.3050
 8576TIP3    H125692   4.476   5.212   5.111 -0.4906  0.4022 -0.0665
 8576TIP3    H225693   4.439   5.358   5.133 -0.0072  0.6973 -1.1676
 8577TIP3   OH225694   1.177   0.915   0.657  0.2144  0.5121 -0.4717
 8577TIP3    H125695   1.101   0.972   0.671  0.2704  0.0676  2.0186
 8577TIP3    H225696   1.140   0.833   0.624 -0.2353  0.7789 -0.6404
 8578TIP3   OH225697   2.895   1.009   0.916  0.5254 -0.1284 -0.1037
 8578TIP3    H125698   2.939   0.926   0.936 -0.2644 -0.1656  1.6635
 8578TIP3    H225699   2.810   0.983   0.880  0.6997 -0.0807 -0.5477
 8579TIP3   OH225700   5.992   3.486   1.465 -0.5429 -0.0490  0.0256
 8579TIP3    H125701   5.968   3.516   1.377  0.9821 -0.7638 -0.6567
 8579TIP3    H225702   6.060   3.547   1.493 -1.0793  0.2285  0.7754
 8580TIP3   OH225703   2.631   2.484   3.158  0.0053  0.5232  0.3825
 8580TIP3    H125704   2.541   2.468   3.128 -0.3901  0.6297  1.4692
 8580TIP3    H225705   2.658   2.401   3.198  0.2000  0.6462  0.5072
 8581TIP3   OH225706   0.498   6.431   3.708 -0.4893 -0.0642 -0.7290
 8581TIP3    H125707   0.534   6.403   3.624 -0.5013  0.6417 -0.9742
 8581TIP3    H225708   0.558   6.499   3.739  0.9067 -1.9644  1.0209
 8582TIP3   OH225709   1.759   6.430   4.418 -0.3560  0.1936 -0.0875
 8582TIP3    H125710   1.820   6.471   4.357  0.6551  2.6100  2.3555
 8582TIP3    H225711   1.811   6.364   4.463 -1.0235 -1.3764 -1.4983
 8583TIP3   OH225712   7.029   1.839   3.018 -0.1494 -0.0280  0.5326
 8583TIP3    H125713   6.942   1.865   3.049  1.0612  0.6106  3.8282
 8583TIP3    H225714   7.064   1.916   2.975 -0.9034 -0.0702 -0.1931
 8584TIP3   OH225715   6.847   4.432   3.250 -0.2516  0.0944 -0.0868
 8584TIP3    H125716   6.852   4.343   3.216  1.2001  0.0043  0.3020
 8584TIP3    H225717   6.934   4.449   3.285 -1.0983  0.9007  1.7775
 8585TIP3   OH225718   3.509   1.598   3.622 -0.6625  0.5054 -0.2541
 8585TIP3    H125719   3.423   1.597   3.665 -0.8532 -0.5704 -0.6288
 8585TIP3    H225720   3.556   1.670   3.664 -1.1540  0.0461  1.1345
 8586TIP3   OH225721   0.796   6.104   5.592 -0.0372 -0.1489  0.1467
 8586TIP3    H125722   0.705   6.082   5.572  0.3226 -0.3597 -1.3666
 8586TIP3    H225723   0.848   6.042   5.540  0.9976 -0.9046  1.9865
 8587TIP3   OH225724   4.259   3.009   1.507 -0.0430  0.1138  0.6864
 8587TIP3    H125725   4.187   3.007   1.570 -0.0886  1.3759  0.6993
 8587TIP3    H225726   4.229   2.954   1.434 -1.2744  1.0567  0.4463
 8588TIP3   OH225727   3.485   6.152   4.246  0.0288 -0.0417 -0.2631
 8588TIP3    H125728   3.468   6.230   4.298  0.8272  0.0130 -0.0603
 8588TIP3    H225729   3.405   6.100   4.252  0.6082 -0.7785  2.3370
 8589TIP3   OH225730   2.097   5.675   4.855  0.1165 -0.7167 -0.1706
 8589TIP3    H125731   2.118   5.682   4.762  1.1833  0.2089  0.1188
 8589TIP3    H225732   2.098   5.581   4.873  0.0094 -0.8941 -1.0651
 8590TIP3   OH225733   4.170   5.761   1.234 -0.3040 -0.6646  0.0314
 8590TIP3    H125734   4.078   5.736   1.232 -0.4631 -0.0547 -1.1108
 8590TIP3    H225735   4.190   5.771   1.327 -1.3196 -1.0520  0.3060
 8591TIP3   OH225736   6.642   3.396   2.451  0.0638 -0.0611 -0.3530
 8591TIP3    H125737   6.669   3.469   2.396  1.6554 -0.3991 -0.0570
 8591TIP3    H225738   6.648   3.429   2.540  3.4705 -1.2712 -0.0087
 8592TIP3   OH225739   5.081   6.072   0.224  0.1081 -0.7291 -0.5237
 8592TIP3    H125740   4.995   6.114   0.222  0.1987 -0.5489 -1.6232
 8592TIP3    H225741   5.063   5.981   0.199  0.1170 -0.9354  0.2187
 8593TIP3   OH225742   0.809   4.693   4.996  0.4111 -0.0960  0.1733
 8593TIP3    H125743   0.821   4.738   4.912 -0.0012 -2.2165 -1.0964
 8593TIP3    H225744   0.841   4.604   4.980  0.4122 -0.5248  2.3169
 8594TIP3   OH225745   1.709   3.039   3.648  0.1986  0.2061 -0.1656
 8594TIP3    H125746   1.765   3.105   3.688 -1.1757  1.8152 -0.7213
 8594TIP3    H225747   1.621   3.076   3.655 -0.5627 -1.3655 -0.9457
 8595TIP3   OH225748   3.376   2.172   5.214 -0.6232 -0.1187  0.0477
 8595TIP3    H125749   3.438   2.229   5.167 -0.6157 -0.6655 -0.6189
 8595TIP3    H225750   3.304   2.230   5.238 -0.4422  0.2560 -0.2991
 8596TIP3   OH225751   1.633   3.043   0.773 -0.1043  0.2323 -0.1249
 8596TIP3    H125752   1.564   3.101   0.743 -2.2144 -1.2165  1.6341
 8596TIP3    H225753   1.599   3.004   0.853  2.0834 -1.8502 -0.0799
 8597TIP3   OH225754   1.231   6.048   0.344  0.4984  0.6047  0.4675
 8597TIP3    H125755   1.161   6.010   0.291  1.0083 -1.0347  0.9357
 8597TIP3    H225756   1.311   6.029   0.295  0.8295  0.4403  1.0658
 8598TIP3   OH225757   4.711   1.661   4.192  0.0876  0.3490 -0.3315
 8598TIP3    H125758   4.783   1.631   4.248  0.9754 -0.3809 -1.8157
 8598TIP3    H225759   4.743   1.743   4.155  0.4429 -0.2588 -1.4372
 8599TIP3   OH225760   3.954   4.409   1.841  0.6204 -0.6928 -0.4223
 8599TIP3    H125761   3.962   4.463   1.920 -1.1226  0.9697 -1.2999
 8599TIP3    H225762   4.031   4.353   1.842  1.3317  0.2199  1.7519
 8600TIP3   OH225763   5.156   3.912   2.614 -0.2010  0.5826  0.8429
 8600TIP3    H125764   5.225   3.855   2.582  0.6041  2.3999 -0.8396
 8600TIP3    H225765   5.086   3.904   2.549  0.6228  2.7456 -0.4123
 8601TIP3   OH225766   3.664   2.307   2.581 -0.1193  0.1164 -0.1864
 8601TIP3    H125767   3.698   2.234   2.530 -0.6798 -0.3593  0.0961
 8601TIP3    H225768   3.683   2.385   2.529  0.6684 -0.2085 -0.3965
 8602TIP3   OH225769   4.703   5.939   0.267  0.2797 -0.1832  0.2491
 8602TIP3    H125770   4.608   5.931   0.276  0.1245  0.4839 -0.7240
 8602TIP3    H225771   4.725   6.018   0.316  0.3158 -0.2526  0.3456
 8603TIP3   OH225772   3.783   5.290   3.774  0.0152 -0.2132  0.2228
 8603TIP3    H125773   3.837   5.366   3.793  0.7232  0.3416 -3.2754
 8603TIP3    H225774   3.823   5.219   3.825  1.4983  1.0393  0.8797
 8604TIP3   OH225775   5.853   3.867   4.580 -0.6617  0.1153 -0.1385
 8604TIP3    H125776   5.771   3.915   4.563  0.5732  2.2267 -0.5165
 8604TIP3    H225777   5.873   3.824   4.497 -1.1878 -0.0717 -0.1692
 8605TIP3   OH225778   5.281   1.357   5.539 -0.0614 -0.4439 -0.4397
 8605TIP3    H125779   5.296   1.351   5.633 -0.6628  0.2758 -0.2826
 8605TIP3    H225780   5.196   1.401   5.531 -0.3100 -1.0464 -1.3114
 8606TIP3   OH225781   4.870   0.480   1.899  0.0956 -0.4621  0.2484
 8606TIP3    H125782   4.865   0.481   1.994 -0.8936  0.2540  0.2109
 8606TIP3    H225783   4.955   0.520   1.879  0.1792 -0.3478  0.8252
 8607TIP3   OH225784   6.648   3.405   1.952 -0.1425  0.5909 -0.9576
 8607TIP3    H125785   6.620   3.326   1.998 -0.3626 -0.1316 -2.2884
 8607TIP3    H225786   6.623   3.390   1.861 -2.9406  3.3983 -0.8521
 8608TIP3   OH225787   0.623   4.247   2.110  0.2651 -0.2708 -0.0001
 8608TIP3    H125788   0.600   4.210   2.025 -2.7336  1.2888  0.0065
 8608TIP3    H225789   0.605   4.177   2.173 -0.3712 -0.4987 -0.4260
 8609TIP3   OH225790   6.289   5.178   2.127 -0.5011  0.5538 -0.3029
 8609TIP3    H125791   6.380   5.157   2.149 -0.5766  1.3476  0.9362
 8609TIP3    H225792   6.237   5.130   2.192 -0.8563  1.3580  0.0358
 8610TIP3   OH225793   3.426   3.024   0.994  0.1687  0.3784 -0.0858
 8610TIP3    H125794   3.455   2.934   1.005 -0.3948  0.0007 -1.4720
 8610TIP3    H225795   3.455   3.068   1.074 -1.1749 -1.4264  1.4847
 8611TIP3   OH225796   4.729   3.769   1.585  0.0153  0.1237  0.6634
 8611TIP3    H125797   4.646   3.787   1.630  0.1129  2.5017 -0.0128
 8611TIP3    H225798   4.788   3.839   1.613  1.1661 -0.3568 -0.4653
 8612TIP3   OH225799   0.816   3.313   2.892 -0.1260  0.3265  0.7733
 8612TIP3    H125800   0.905   3.279   2.907  0.1208  0.1604 -0.8013
 8612TIP3    H225801   0.761   3.235   2.885  0.1277  0.2493 -1.0266
 8613TIP3   OH225802   6.930   5.878   4.814  0.5769 -0.0731 -0.2615
 8613TIP3    H125803   6.919   5.913   4.726  0.8500  0.2138 -0.1838
 8613TIP3    H225804   6.843   5.885   4.854  0.9178  1.8838  0.2435
 8614TIP3   OH225805   5.743   3.487   0.357  0.0800  0.1686 -0.3648
 8614TIP3    H125806   5.776   3.566   0.400 -1.4909  0.4225  0.4482
 8614TIP3    H225807   5.711   3.517   0.272  0.3340  0.2454 -0.4320
 8615TIP3   OH225808   0.175   0.996   5.135 -0.0737  0.3209 -0.2117
 8615TIP3    H125809   0.220   0.931   5.081  0.0719  0.4651 -0.2611
 8615TIP3    H225810   0.082   0.984   5.114 -0.0449  0.1474 -0.2420
 8616TIP3   OH225811   5.156   3.534   3.282  0.5805 -0.4526  0.0831
 8616TIP3    H125812   5.120   3.592   3.215 -0.4468 -0.1935  0.8353
 8616TIP3    H225813   5.106   3.453   3.272  0.7837 -0.5914  0.1913
 8617TIP3   OH225814   5.263   4.491   5.480 -0.1790 -0.3150 -0.1509
 8617TIP3    H125815   5.355   4.471   5.459 -0.3667 -0.8287 -0.5217
 8617TIP3    H225816   5.217   4.409   5.464 -0.7448  0.0090 -0.2066
 8618TIP3   OH225817   6.776   4.878   5.421  0.9204  0.0063 -0.3793
 8618TIP3    H125818   6.827   4.888   5.501 -0.9641 -0.7414  0.9955
 8618TIP3    H225819   6.713   4.808   5.441 -2.8585  2.9693 -0.7007
 8619TIP3   OH225820   5.208   6.164   2.048 -0.0821 -0.5812 -0.1693
 8619TIP3    H125821   5.144   6.229   2.018  0.6956 -0.2596 -1.1720
 8619TIP3    H225822   5.244   6.127   1.968  0.3803 -1.3728  0.3931
 8620TIP3   OH225823   5.436   3.514   1.674 -0.2926  0.2253 -0.6143
 8620TIP3    H125824   5.448   3.421   1.656 -0.0561  0.3020 -0.8587
 8620TIP3    H225825   5.475   3.559   1.599 -0.8590  0.5102 -0.7471
 8621TIP3   OH225826   6.780   2.988   3.235  0.2479  0.8069 -0.3051
 8621TIP3    H125827   6.872   2.983   3.210 -0.2277  0.8733 -2.2689
 8621TIP3    H225828   6.766   3.081   3.255  0.6415  0.7630  0.1845
 8622TIP3   OH225829   3.693   3.294   1.825 -0.6098 -0.3575 -0.2856
 8622TIP3    H125830   3.707   3.203   1.848  0.7156 -0.1580 -0.2126
 8622TIP3    H225831   3.743   3.306   1.744 -0.6359  0.3359 -0.2076
 8623TIP3   OH225832   7.147   2.478   1.029 -0.5901  0.0458  0.4541
 8623TIP3    H125833   7.223   2.536   1.041 -0.8669  0.9114 -1.5915
 8623TIP3    H225834   7.186   2.393   1.009 -0.1663  0.1429  0.8335
 8624TIP3   OH225835   6.493   0.115   2.663  0.0029  0.0651 -0.2324
 8624TIP3    H125836   6.539   0.180   2.716 -0.9715 -0.7921  1.7887
 8624TIP3    H225837   6.411   0.157   2.638  0.1281  0.2017 -0.4163
 8625TIP3   OH225838   6.562   0.224   0.966  0.8507 -0.3347 -0.1205
 8625TIP3    H125839   6.618   0.226   1.043  0.8808  0.6841 -0.1632
 8625TIP3    H225840   6.477   0.256   0.996  0.7403 -0.3438 -0.4138
 8626TIP3   OH225841   6.960   0.246   2.527  0.1169  0.7457  0.1912
 8626TIP3    H125842   6.945   0.169   2.582 -2.5329  1.3739  0.4565
 8626TIP3    H225843   7.021   0.299   2.578  2.3887 -1.2867 -0.2031
 8627TIP3   OH225844   1.183   2.355   5.038 -0.1167 -0.1250  0.3305
 8627TIP3    H125845   1.238   2.285   5.074 -0.3053 -0.5210 -0.1513
 8627TIP3    H225846   1.226   2.381   4.957 -0.1199  0.2355  0.4385
 8628TIP3   OH225847   1.262   1.313   0.328  0.7323  0.6638  0.3393
 8628TIP3    H125848   1.271   1.406   0.351 -1.2463  1.3151 -1.2326
 8628TIP3    H225849   1.193   1.281   0.386  0.3036  0.5962 -0.2066
 8629TIP3   OH225850   4.898   6.414   0.900 -0.3686  0.1562 -0.0866
 8629TIP3    H125851   4.925   6.324   0.881 -2.2758 -0.4942  0.0745
 8629TIP3    H225852   4.969   6.450   0.953  1.5815 -0.4151 -2.1567
 8630TIP3   OH225853   1.698   4.104   3.156 -0.1109 -0.2641 -0.2223
 8630TIP3    H125854   1.728   4.058   3.235  0.6477 -0.1220 -0.4176
 8630TIP3    H225855   1.732   4.193   3.167 -0.7216 -0.0173 -0.3156
 8631TIP3   OH225856   4.787   1.849   2.166  0.4753  0.3173 -0.1979
 8631TIP3    H125857   4.814   1.851   2.258  2.1168  0.2317 -0.6466
 8631TIP3    H225858   4.788   1.756   2.142  1.5894  0.4444 -0.7053
 8632TIP3   OH225859   0.662   4.478   1.855 -0.1194  0.5150 -0.0538
 8632TIP3    H125860   0.705   4.410   1.907  2.2820  2.8198  1.1903
 8632TIP3    H225861   0.711   4.481   1.773  0.8828  1.8061  0.5642
 8633TIP3   OH225862   3.162   4.801   0.686  0.1095 -0.5285 -0.1246
 8633TIP3    H125863   3.079   4.837   0.715  1.6499  5.5440 -1.7273
 8633TIP3    H225864   3.218   4.802   0.764  0.0686  0.6687 -0.0947
 8634TIP3   OH225865   4.771   5.699   4.182  0.0872 -0.0599  0.0308
 8634TIP3    H125866   4.741   5.785   4.152  0.1013  0.9680  2.6527
 8634TIP3    H225867   4.843   5.676   4.123  0.0970  1.7521 -0.7155
 8635TIP3   OH225868   1.339   3.443   0.546  0.2701 -0.1264  0.2242
 8635TIP3    H125869   1.346   3.424   0.452 -1.4515 -1.2300  0.2709
 8635TIP3    H225870   1.247   3.428   0.567  0.8624 -1.2648  2.3588
 8636TIP3   OH225871   4.313   3.337   1.597  0.4472 -0.4625  0.2784
 8636TIP3    H125872   4.267   3.255   1.579  0.9279 -0.8677  0.8739
 8636TIP3    H225873   4.301   3.389   1.517 -0.7341 -0.6965  0.2900
 8637TIP3   OH225874   3.384   2.073   2.473  0.1238 -0.1561  0.1843
 8637TIP3    H125875   3.298   2.095   2.435  1.6463  1.8634 -2.4629
 8637TIP3    H225876   3.384   1.978   2.479 -1.9774 -0.2675 -0.5731
 8638TIP3   OH225877   6.012   6.563   5.828 -0.8915 -0.1061 -0.7140
 8638TIP3    H125878   6.032   6.657   5.832 -1.2047 -0.0466 -0.4884
 8638TIP3    H225879   6.096   6.521   5.809 -0.5347  0.1329  0.2709
 8639TIP3   OH225880   5.066   4.022   0.541  0.2366 -0.7261  0.1695
 8639TIP3    H125881   5.067   4.022   0.637 -0.3289 -1.0407  0.1772
 8639TIP3    H225882   5.099   3.936   0.517  1.9735 -0.0568  0.0505
 8640TIP3   OH225883   5.222   0.609   2.184 -0.2164 -0.2028  0.1436
 8640TIP3    H125884   5.207   0.622   2.278  0.3244 -0.9664  0.3371
 8640TIP3    H225885   5.135   0.594   2.148 -0.3914 -0.2348  0.5717
 8641TIP3   OH225886   4.545   2.691   5.169 -0.2986  0.3134 -0.6683
 8641TIP3    H125887   4.567   2.620   5.109 -0.5060 -0.7613  0.4889
 8641TIP3    H225888   4.531   2.767   5.112  3.7828  0.5017 -1.7385
 8642TIP3   OH225889   1.082   0.753   0.458 -0.3431 -0.1815 -1.0145
 8642TIP3    H125890   1.138   0.678   0.440 -1.9449 -1.2343 -1.8648
 8642TIP3    H225891   1.054   0.784   0.372 -0.2752  0.9655 -0.6501
 8643TIP3   OH225892   7.146   1.304   5.273 -0.4733  0.2289  0.0638
 8643TIP3    H125893   7.210   1.335   5.338 -1.3222  1.2685  0.4486
 8643TIP3    H225894   7.062   1.316   5.317 -0.8907 -3.6466  0.6532
 8644TIP3   OH225895   0.970   0.780   3.231  0.1915  0.1303  0.1492
 8644TIP3    H125896   0.997   0.696   3.269 -0.5238 -0.7427 -1.2019
 8644TIP3    H225897   0.877   0.787   3.254 -0.4153 -0.6931 -1.8224
 8645TIP3   OH225898   2.605   1.793   4.305  0.6366  0.1644 -0.2875
 8645TIP3    H125899   2.538   1.736   4.342 -1.3780  0.7531 -2.7091
 8645TIP3    H225900   2.634   1.848   4.378  0.0651 -1.5396  1.2875
 8646TIP3   OH225901   6.824   5.189   2.846 -0.2641 -0.0315 -0.3901
 8646TIP3    H125902   6.781   5.104   2.845 -0.8361  0.2493 -1.2164
 8646TIP3    H225903   6.762   5.248   2.888 -0.3677  0.2111 -0.8682
 8647TIP3   OH225904   0.717   2.851   4.462  0.0869 -0.3172 -0.6338
 8647TIP3    H125905   0.795   2.842   4.407  1.6125  0.1439  1.3559
 8647TIP3    H225906   0.743   2.911   4.532 -2.3263  0.4814 -0.3302
 8648TIP3   OH225907   4.761   2.370   1.947  0.1377  0.0397 -0.1929
 8648TIP3    H125908   4.699   2.297   1.940 -2.0024  1.4493  2.1479
 8648TIP3    H225909   4.750   2.418   1.866 -1.0437 -0.3429 -0.2779
 8649TIP3   OH225910   3.103   5.955   5.299 -0.4867 -0.1979 -0.3181
 8649TIP3    H125911   3.036   5.926   5.237 -1.1618 -1.3255  0.8687
 8649TIP3    H225912   3.175   5.893   5.288 -1.6138 -1.9943  1.6760
 8650TIP3   OH225913   2.226   6.527   3.843  0.0859  0.1168 -0.4117
 8650TIP3    H125914   2.311   6.496   3.875  0.1818  1.1210  0.3636
 8650TIP3    H225915   2.248   6.603   3.788 -0.3914  1.6495  1.4114
 8651TIP3   OH225916   5.881   2.643   3.545  0.4376 -0.5066  0.2130
 8651TIP3    H125917   5.880   2.733   3.578 -0.5573 -0.3233 -0.2753
 8651TIP3    H225918   5.792   2.611   3.560 -0.2596 -0.2154 -2.7300
 8652TIP3   OH225919   3.234   0.021   0.763 -0.2122  0.3936 -0.1996
 8652TIP3    H125920   3.158  -0.022   0.724 -0.2814 -1.4801  1.7837
 8652TIP3    H225921   3.202   0.107   0.790 -0.6378  1.0111 -2.4347
 8653TIP3   OH225922   4.929   0.856   5.025  0.2514 -0.1186  0.0069
 8653TIP3    H125923   4.985   0.923   4.985 -1.3264  1.9035  0.9937
 8653TIP3    H225924   4.906   0.797   4.953 -2.0092  3.0415 -2.0955
 8654TIP3   OH225925   6.321   2.114   1.079 -0.9470 -0.7413 -0.2225
 8654TIP3    H125926   6.283   2.044   1.024  3.5164 -2.2669 -1.8660
 8654TIP3    H225927   6.349   2.069   1.158 -0.5011 -0.1867 -0.0646
 8655TIP3   OH225928   6.712   2.961   5.555 -0.2339  0.0753 -0.3078
 8655TIP3    H125929   6.694   2.867   5.550 -0.3959  0.0671  0.3416
 8655TIP3    H225930   6.676   2.988   5.640 -1.8148  1.0752 -1.2511
 8656TIP3   OH225931   2.857   3.492   5.524 -0.0085 -0.4068  0.1575
 8656TIP3    H125932   2.883   3.504   5.433  0.2435  1.9788  0.4778
 8656TIP3    H225933   2.762   3.499   5.523 -0.0117 -0.4693  0.0480
 8657TIP3   OH225934   3.979   2.737   4.661 -0.6225  0.0388  0.3244
 8657TIP3    H125935   3.896   2.739   4.709  0.4560  0.2385  2.3151
 8657TIP3    H225936   4.016   2.824   4.674  1.1260 -0.8463  1.9038
 8658TIP3   OH225937   3.669   3.888   0.256 -0.5690  0.4288  0.4851
 8658TIP3    H125938   3.624   3.809   0.288 -0.3648  0.4247  0.7655
 8658TIP3    H225939   3.686   3.939   0.335 -1.1816  1.0123  0.2469
 8659TIP3   OH225940   6.774   6.232   2.502 -0.0992 -0.2011  0.1283
 8659TIP3    H125941   6.757   6.156   2.558 -0.3736 -0.1082  0.1686
 8659TIP3    H225942   6.867   6.224   2.481 -0.1992 -0.7349 -0.1424
 8660TIP3   OH225943   6.282   3.051   1.519 -0.2712 -0.1089  0.4268
 8660TIP3    H125944   6.304   2.973   1.467  2.9096  0.3777  0.8434
 8660TIP3    H225945   6.238   3.110   1.458 -0.4393 -1.2213 -0.5526
 8661TIP3   OH225946   1.285   2.495   1.736 -0.2026  0.4950  0.1416
 8661TIP3    H125947   1.229   2.521   1.664  1.3857  1.3135 -0.8605
 8661TIP3    H225948   1.326   2.414   1.707  0.4597  0.8377  0.1032
 8662TIP3   OH225949   5.147   3.960   4.543  0.4478  0.0935  0.5639
 8662TIP3    H125950   5.203   4.035   4.561 -0.5200  1.0180 -0.1675
 8662TIP3    H225951   5.078   3.964   4.609  0.0620  0.2099  0.1620
 8663TIP3   OH225952   3.191   6.359   2.014  0.4717 -0.3392 -0.6557
 8663TIP3    H125953   3.208   6.341   1.922  0.4172 -1.1217 -0.5248
 8663TIP3    H225954   3.108   6.405   2.015  0.2821 -0.6694 -0.9781
 8664TIP3   OH225955   6.281   4.212   1.616 -0.3457 -0.5959  0.1397
 8664TIP3    H125956   6.194   4.217   1.656  0.4920  0.3581  1.9208
 8664TIP3    H225957   6.334   4.274   1.665  0.6998  0.9488 -2.7066
 8665TIP3   OH225958   3.831   2.705   0.035 -0.5902  0.0592  0.2136
 8665TIP3    H125959   3.884   2.721  -0.043  0.4771  1.9530  1.2523
 8665TIP3    H225960   3.845   2.612   0.055  2.1517  0.3795  0.2304
 8666TIP3   OH225961   1.251   6.561   0.638 -0.5874 -0.8357 -0.0988
 8666TIP3    H125962   1.205   6.594   0.715 -2.4279 -2.8629 -0.2358
 8666TIP3    H225963   1.309   6.492   0.672 -0.8675 -1.2344 -0.4097
 8667TIP3   OH225964   5.410   3.432   2.920  0.0955 -0.0062  0.0857
 8667TIP3    H125965   5.424   3.439   3.014 -1.6930  2.2924  0.2610
 8667TIP3    H225966   5.494   3.460   2.881  0.7652 -0.7461  0.9461
 8668TIP3   OH225967   5.505   6.214   3.887  0.4611 -0.4138  0.7308
 8668TIP3    H125968   5.539   6.183   3.803  0.5730 -0.3083  0.7373
 8668TIP3    H225969   5.555   6.293   3.906 -1.0753  0.8398 -0.1894
 8669TIP3   OH225970   0.609   5.485   5.330  0.1869  0.0154  0.3046
 8669TIP3    H125971   0.543   5.494   5.398 -0.9048  2.3813 -0.9542
 8669TIP3    H225972   0.650   5.400   5.348 -3.0375 -1.5104  1.2695
 8670TIP3   OH225973   5.055   1.800   1.154 -0.4745  0.4620  0.4585
 8670TIP3    H125974   5.002   1.748   1.093 -2.3566  1.3867  1.2084
 8670TIP3    H225975   5.134   1.822   1.104 -1.0284 -0.5171 -0.9203
 8671TIP3   OH225976   4.910   2.660   0.145  0.5548  0.8479  0.2931
 8671TIP3    H125977   4.826   2.702   0.127  0.3543 -0.4510 -2.2165
 8671TIP3    H225978   4.886   2.575   0.182  0.7758  0.8227  0.3766
 8672TIP3   OH225979   2.782   4.794   0.492  0.5836 -0.1252  0.0776
 8672TIP3    H125980   2.712   4.793   0.427 -2.3516  0.0435  2.9944
 8672TIP3    H225981   2.814   4.703   0.494 -1.5726 -0.9338  0.6216
 8673TIP3   OH225982   2.782   5.079   5.360 -0.1870  0.3786 -0.0371
 8673TIP3    H125983   2.725   5.135   5.413 -0.5057 -0.4654  0.5387
 8673TIP3    H225984   2.737   5.073   5.276 -0.9027 -0.1925  0.3777
 8674TIP3   OH225985   1.198   5.412   4.762 -0.1499 -0.1654 -0.9777
 8674TIP3    H125986   1.208   5.490   4.817 -1.3767 -0.8908  0.3212
 8674TIP3    H225987   1.281   5.406   4.714 -0.0505  1.9639 -1.1558
 8675TIP3   OH225988   6.578   3.537   3.672  0.2827 -0.3588 -0.1651
 8675TIP3    H125989   6.571   3.624   3.634 -0.4777 -0.0589  0.6327
 8675TIP3    H225990   6.520   3.539   3.747 -0.7299 -1.9525 -0.8586
 8676TIP3   OH225991   6.970   1.429   2.601 -0.4206  0.1177  0.1140
 8676TIP3    H125992   6.939   1.412   2.512  1.6168 -0.2034 -0.5795
 8676TIP3    H225993   7.018   1.512   2.594 -0.7707  0.4173  1.0676
 8677TIP3   OH225994   2.737   3.558   4.671 -0.1633 -0.4651  0.0085
 8677TIP3    H125995   2.650   3.575   4.636  0.0316 -0.2263 -0.3664
 8677TIP3    H225996   2.780   3.503   4.606  0.2518  0.1023 -0.2038
 8678TIP3   OH225997   0.159   2.401   4.892  0.0680  0.3236  0.5319
 8678TIP3    H125998   0.119   2.323   4.853 -1.1722  1.0690  0.2795
 8678TIP3    H225999   0.185   2.373   4.979 -0.8649 -0.2351  0.6411
 8679TIP3   OH226000   7.111   4.339   0.366 -0.2824  0.9826  0.3435
 8679TIP3    H126001   7.186   4.312   0.420 -0.9642  1.4219  1.5416
 8679TIP3    H226002   7.064   4.257   0.349  0.1663  0.7818  0.0513
 8680TIP3   OH226003   5.979   3.362   4.054  0.1296 -0.5354 -0.7829
 8680TIP3    H126004   5.986   3.345   3.960 -1.9220 -2.8326 -0.6281
 8680TIP3    H226005   5.885   3.351   4.073  0.3033  1.1400  1.3289
 8681TIP3   OH226006   5.633   5.857   3.220 -0.2529  0.1598 -0.0046
 8681TIP3    H126007   5.688   5.873   3.297 -2.5027 -0.3843  1.8167
 8681TIP3    H226008   5.637   5.762   3.208 -0.4309  0.1703 -0.1495
 8682TIP3   OH226009   2.642   2.210   3.249  0.9907  0.2143 -0.2895
 8682TIP3    H126010   2.596   2.131   3.277 -1.0272  1.0250 -1.0676
 8682TIP3    H226011   2.727   2.206   3.293 -0.0404 -1.0941  1.7345
 8683TIP3   OH226012   5.131   0.160   5.133  0.0154  0.0816 -0.3286
 8683TIP3    H126013   5.100   0.207   5.210 -0.8350 -0.3666 -0.3811
 8683TIP3    H226014   5.054   0.153   5.076  0.5711  0.1988 -1.1170
 8684TIP3   OH226015   6.648   0.897   5.346  0.0829 -0.1593  0.5016
 8684TIP3    H126016   6.576   0.839   5.371  0.5178 -1.1726 -0.5088
 8684TIP3    H226017   6.676   0.936   5.429 -1.4603  0.0820  0.9449
 8685TIP3   OH226018   5.804   1.532   5.197  0.5515 -0.3212 -0.0148
 8685TIP3    H126019   5.797   1.611   5.250  1.3754  0.4780 -1.0530
 8685TIP3    H226020   5.729   1.535   5.137  0.6870 -0.2265 -0.1806
 8686TIP3   OH226021   6.813   0.513   4.110 -0.3458  0.1140 -0.2050
 8686TIP3    H126022   6.896   0.538   4.151  0.2858  0.5105 -1.6639
 8686TIP3    H226023   6.835   0.439   4.054 -1.5462 -1.5583  1.4385
 8687TIP3   OH226024   1.360   0.108   4.105 -0.1936 -0.0280 -0.2918
 8687TIP3    H126025   1.410   0.187   4.126  0.1946 -1.1101  3.6250
 8687TIP3    H226026   1.269   0.133   4.114 -0.0593 -0.0823  1.5731
 8688TIP3   OH226027   5.220   0.913   4.063  0.0931 -0.2016  0.5222
 8688TIP3    H126028   5.223   0.986   4.002 -0.0313  1.2017  2.1133
 8688TIP3    H226029   5.274   0.941   4.137 -0.8969 -1.2148  1.6748
 8689TIP3   OH226030   0.244   1.193   1.367  0.5876 -0.2139  0.3130
 8689TIP3    H126031   0.161   1.176   1.412  0.1259 -0.3346 -0.5513
 8689TIP3    H226032   0.239   1.285   1.341  1.0907  0.0070  0.9841
 8690TIP3   OH226033   2.005   4.792   0.851 -0.7166  0.0193 -0.4353
 8690TIP3    H126034   1.949   4.798   0.773 -1.2167 -0.9868 -0.1806
 8690TIP3    H226035   1.948   4.818   0.924 -0.6877 -0.4475 -0.2421
 8691TIP3   OH226036   0.209   6.205   1.245  0.3520 -0.2361  0.2311
 8691TIP3    H126037   0.292   6.161   1.264  1.9983  1.8968 -1.5221
 8691TIP3    H226038   0.220   6.293   1.279 -1.5100 -0.0916  0.5784
 8692TIP3   OH226039   1.726   4.061   5.662 -0.9392 -0.1926 -0.1608
 8692TIP3    H126040   1.721   4.060   5.758 -1.5416  0.3576 -0.1774
 8692TIP3    H226041   1.765   4.146   5.641  1.3204 -1.2114 -0.3472
 8693TIP3   OH226042   4.533   3.049   3.987  0.5725 -0.7541  0.2790
 8693TIP3    H126043   4.580   3.081   4.063  0.7103 -1.5327  0.5267
 8693TIP3    H226044   4.531   3.123   3.927 -1.9129  0.8303  2.0972
 8694TIP3   OH226045   1.632   1.498   1.577  0.0294 -0.0472  0.0433
 8694TIP3    H126046   1.543   1.521   1.603 -0.1794 -1.5126  0.7294
 8694TIP3    H226047   1.622   1.421   1.522  0.8987 -0.4945  0.4901
 8695TIP3   OH226048   7.142   1.593   1.099 -0.2771  0.3020 -0.1638
 8695TIP3    H126049   7.083   1.648   1.047 -0.9359  1.1038  1.3722
 8695TIP3    H226050   7.224   1.644   1.104  0.7351 -0.9293 -2.5224
 8696TIP3   OH226051   1.358   0.505   4.694 -0.4227 -0.0150  0.6498
 8696TIP3    H126052   1.451   0.525   4.688 -0.5267  0.1924 -0.5116
 8696TIP3    H226053   1.350   0.417   4.659 -0.7120  0.1100  0.3986
 8697TIP3   OH226054   1.012   1.410   0.817  0.1118 -0.4827  0.5280
 8697TIP3    H126055   0.971   1.419   0.731  2.3315  1.4745 -0.4346
 8697TIP3    H226056   0.983   1.487   0.866 -0.0186 -0.8591  1.0584
 8698TIP3   OH226057   4.235   6.523   4.943 -0.9363 -0.0570  0.0970
 8698TIP3    H126058   4.253   6.521   4.849  1.5927 -0.7617  0.5234
 8698TIP3    H226059   4.261   6.437   4.974 -1.9260  0.0998  1.4317
 8699TIP3   OH226060   0.820   2.970   5.640  0.1896  0.1220 -0.1743
 8699TIP3    H126061   0.731   2.954   5.608  0.1185 -0.3526  0.2478
 8699TIP3    H226062   0.873   2.900   5.602  0.7496  1.4179 -1.8778
 8700TIP3   OH226063   6.526   5.942   1.707 -0.1312 -0.1925 -0.0089
 8700TIP3    H126064   6.527   5.846   1.707 -0.1497 -0.2112 -1.0522
 8700TIP3    H226065   6.610   5.966   1.667  0.5659  0.2696  1.6673
 8701TIP3   OH226066   4.243   5.344   1.344 -0.2492 -0.1685 -0.5203
 8701TIP3    H126067   4.305   5.417   1.350 -0.1126 -0.2101 -1.3875
 8701TIP3    H226068   4.186   5.367   1.271 -1.8277  0.2870  0.7913
 8702TIP3   OH226069   5.011   0.734   1.419 -0.2234  0.0583  0.6345
 8702TIP3    H126070   5.017   0.702   1.329  1.6062 -1.0916  1.1219
 8702TIP3    H226071   4.962   0.816   1.412 -0.5471 -0.2578 -1.3253
 8703TIP3   OH226072   5.967   0.036   0.885  0.6133  0.5481 -0.1124
 8703TIP3    H126073   5.873   0.022   0.869  0.7763  0.3030 -0.8778
 8703TIP3    H226074   6.008  -0.044   0.854  1.0085  0.3109  0.9880
 8704TIP3   OH226075   5.062   2.697   0.503 -0.1376 -0.4980  0.3682
 8704TIP3    H126076   5.090   2.780   0.541 -0.5983  0.8163 -1.9844
 8704TIP3    H226077   5.136   2.637   0.519  1.0510  0.9152  0.3825
 8705TIP3   OH226078   6.599   5.814   3.290 -0.0471 -0.0353 -0.0657
 8705TIP3    H126079   6.653   5.747   3.332 -0.1745 -0.0595  0.0615
 8705TIP3    H226080   6.510   5.793   3.316  0.0205  0.9210  1.0377
 8706TIP3   OH226081   1.201   3.782   4.639 -0.4334  0.0975  0.4731
 8706TIP3    H126082   1.248   3.866   4.637  1.0625 -0.6910  1.0265
 8706TIP3    H226083   1.147   3.786   4.718 -0.7987  0.7356  0.2030
 8707TIP3   OH226084   1.684   3.835   4.981  0.1494 -0.2481 -0.3099
 8707TIP3    H126085   1.763   3.880   5.011 -0.9262  0.8675  0.9967
 8707TIP3    H226086   1.648   3.795   5.060 -0.0761 -1.6113 -1.0751
 8708TIP3   OH226087   1.862   3.155   1.528 -0.7078  0.0923 -0.3707
 8708TIP3    H126088   1.958   3.147   1.533 -0.7766 -0.2190  1.4020
 8708TIP3    H226089   1.845   3.246   1.551 -0.9161 -0.6960  3.4062
 8709TIP3   OH226090   4.300   0.916   5.768  0.2852 -0.4256  0.2590
 8709TIP3    H126091   4.368   0.897   5.832  1.4565 -0.4203 -0.9575
 8709TIP3    H226092   4.292   1.011   5.769  1.3641 -0.3066 -0.6408
 8710TIP3   OH226093   2.735   5.474   5.312  0.5337  0.6885  0.0580
 8710TIP3    H126094   2.666   5.407   5.313 -0.6818  1.8437  2.0061
 8710TIP3    H226095   2.807   5.435   5.361  0.7023  0.0198 -0.7081
 8711TIP3   OH226096  -0.001   2.023   2.908 -0.1556  0.3986 -0.7070
 8711TIP3    H126097   0.070   2.004   2.970 -0.2322  1.5156 -0.2481
 8711TIP3    H226098   0.041   2.022   2.822  0.1513 -0.2259 -0.5540
 8712TIP3   OH226099   4.779   0.251   1.580 -0.3146 -0.5730  0.3067
 8712TIP3    H126100   4.796   0.157   1.587  0.3287 -0.4914 -0.0077
 8712TIP3    H226101   4.866   0.291   1.587 -0.7495  0.1253  2.3557
 8713TIP3   OH226102   6.488   5.285   3.218 -0.2853  0.0994  0.1772
 8713TIP3    H126103   6.467   5.347   3.288  1.0779  1.2612 -0.3857
 8713TIP3    H226104   6.404   5.246   3.195 -1.3523  2.2873  0.0614
 8714TIP3   OH226105   5.020   5.511   4.334 -0.3971 -0.2533  0.3730
 8714TIP3    H126106   4.929   5.497   4.359 -0.6519 -1.7401 -1.1768
 8714TIP3    H226107   5.016   5.571   4.260 -0.0512  0.3142  0.8106
 8715TIP3   OH226108   0.195   1.981   0.886  0.0515  0.2164 -0.1140
 8715TIP3    H126109   0.153   1.964   0.970 -0.7411  0.8070 -0.3835
 8715TIP3    H226110   0.288   1.960   0.901 -0.1700 -0.1651  0.7555
 8716TIP3   OH226111   3.672   2.661   2.265  0.3230  0.0815 -0.2023
 8716TIP3    H126112   3.711   2.724   2.325  3.4826  1.2958 -3.1510
 8716TIP3    H226113   3.713   2.578   2.288 -1.0520 -0.2251  1.3353
 8717TIP3   OH226114   5.827   1.864   3.718 -0.4417  0.8465  0.0618
 8717TIP3    H126115   5.831   1.935   3.782  1.3210 -0.4642  1.4945
 8717TIP3    H226116   5.905   1.811   3.734 -2.0889 -1.9242 -0.3312
 8718TIP3   OH226117   1.388   4.549   5.692  0.1741 -0.2715  0.2091
 8718TIP3    H126118   1.369   4.496   5.615 -0.4952  1.5066 -0.9346
 8718TIP3    H226119   1.476   4.522   5.719 -0.0669 -1.7711 -0.4398
 8719TIP3   OH226120   0.465   1.425   3.579 -0.4787 -0.1770  0.3740
 8719TIP3    H126121   0.423   1.502   3.541  0.3361  0.2867  0.3822
 8719TIP3    H226122   0.452   1.356   3.514 -1.4193 -0.1038  0.4712
 8720TIP3   OH226123   6.661   0.945   4.715 -0.2362 -0.2001 -0.4489
 8720TIP3    H126124   6.715   0.982   4.645  0.0179  0.3929  0.0544
 8720TIP3    H226125   6.577   0.925   4.672  0.4026 -1.2814 -1.2767
 8721TIP3   OH226126   5.895   6.653   1.076  0.6565 -0.0059  0.1776
 8721TIP3    H126127   5.871   6.746   1.079  3.1770  0.7860 -1.4102
 8721TIP3    H226128   5.853   6.615   1.153  1.1555  2.8438  1.9843
 8722TIP3   OH226129   5.377   6.227   2.257  0.0232 -0.9079  0.4042
 8722TIP3    H126130   5.325   6.207   2.180  2.4136 -2.0429 -1.0122
 8722TIP3    H226131   5.367   6.322   2.268 -0.0169 -0.6515 -1.5663
 8723TIP3   OH226132   5.777   1.364   3.130 -0.2032  0.3094  0.5833
 8723TIP3    H126133   5.770   1.298   3.199  0.9297 -0.6636 -0.2043
 8723TIP3    H226134   5.791   1.314   3.049  0.7664  1.4947 -0.0238
 8724TIP3   OH226135   5.420   3.345   5.025  0.6624 -0.4320 -0.0353
 8724TIP3    H126136   5.479   3.406   5.072  0.9014 -0.7802  0.1231
 8724TIP3    H226137   5.459   3.336   4.939  1.0135 -0.8956  0.1671
 8725TIP3   OH226138   5.076   5.495   0.135  0.3213 -0.1478  0.6693
 8725TIP3    H126139   5.140   5.443   0.184 -1.8677 -3.3204  0.3714
 8725TIP3    H226140   5.078   5.459   0.046 -0.2261  1.3316  0.0164
 8726TIP3   OH226141   4.656   0.717   2.234 -0.0343 -0.3403  0.0245
 8726TIP3    H126142   4.721   0.656   2.271  0.3475 -0.3106 -0.5869
 8726TIP3    H226143   4.660   0.793   2.292  1.0814 -0.0003 -0.4822
 8727TIP3   OH226144   3.952   1.092   2.856  0.2310  0.1218 -0.5491
 8727TIP3    H126145   3.897   1.082   2.779  1.8170 -1.9751 -1.4899
 8727TIP3    H226146   4.036   1.122   2.823  0.7853 -0.3017  0.4258
 8728TIP3   OH226147   2.843   1.074   5.591 -0.7888 -0.9544 -0.2013
 8728TIP3    H126148   2.847   0.991   5.543 -0.6968 -0.6177 -0.7875
 8728TIP3    H226149   2.876   1.053   5.678 -2.5915 -1.9682  0.2913
 8729TIP3   OH226150   5.745   2.588   2.640 -0.6962 -0.0919 -0.4175
 8729TIP3    H126151   5.724   2.680   2.627 -0.7823  0.1744  1.3409
 8729TIP3    H226152   5.828   2.575   2.595 -1.4375  0.4281 -2.0167
 8730TIP3   OH226153   2.434   1.527   0.044  0.0329 -0.2291  0.7297
 8730TIP3    H126154   2.392   1.483   0.118 -0.8083  0.2126  0.5204
 8730TIP3    H226155   2.404   1.478  -0.032  1.0955 -0.8384  0.6875
 8731TIP3   OH226156   6.776   6.355   5.482 -0.1928  0.2194 -0.2294
 8731TIP3    H126157   6.787   6.304   5.401 -1.2729 -0.3064 -0.0668
 8731TIP3    H226158   6.861   6.397   5.496  0.3861 -0.6707 -0.9647
 8732TIP3   OH226159   0.104   4.608   1.159 -0.2948  0.5616  0.1702
 8732TIP3    H126160   0.151   4.668   1.217  0.8086 -0.1059 -0.0053
 8732TIP3    H226161   0.161   4.532   1.152 -0.5239  0.5188 -1.5988
 8733TIP3   OH226162   0.280   4.165   0.039  0.1018  0.1854 -0.2102
 8733TIP3    H126163   0.194   4.208   0.037  1.2750  2.6509 -0.4073
 8733TIP3    H226164   0.331   4.210  -0.028  1.9200 -0.4217  0.7130
 8734TIP3   OH226165   3.880   6.355   5.605  0.3312  0.0074  0.0456
 8734TIP3    H126166   3.905   6.348   5.697 -3.6790 -0.3538  1.2808
 8734TIP3    H226167   3.866   6.449   5.591 -1.8199 -0.1610  0.7473
 8735TIP3   OH226168   2.969   1.587   4.634 -0.1119  0.4122  0.5492
 8735TIP3    H126169   3.044   1.529   4.624 -0.3883  0.3501 -1.5810
 8735TIP3    H226170   2.971   1.642   4.555 -0.9863  1.9713  1.5688
 8736TIP3   OH226171   1.269   5.428   2.847 -0.1541  0.2921  0.2625
 8736TIP3    H126172   1.188   5.452   2.892 -0.1251  1.3522 -0.2181
 8736TIP3    H226173   1.256   5.336   2.823 -0.2392 -0.2432  2.2331
 8737TIP3   OH226174   6.663   0.885   0.426  0.0756 -0.9126 -0.6354
 8737TIP3    H126175   6.620   0.894   0.341 -0.2985  0.4667 -0.3258
 8737TIP3    H226176   6.606   0.933   0.487  0.8410 -1.0589  0.2181
 8738TIP3   OH226177   3.364   4.740   0.867 -0.4429 -0.2877 -0.2377
 8738TIP3    H126178   3.369   4.710   0.958  1.8752 -2.3548 -0.9423
 8738TIP3    H226179   3.450   4.778   0.850 -0.0803 -1.8021 -2.1262
 8739TIP3   OH226180   5.989   0.049   4.515  0.5999  0.4585  0.1070
 8739TIP3    H126181   5.985  -0.045   4.499 -0.4970  0.2025  1.5973
 8739TIP3    H226182   5.905   0.083   4.482  0.0199  0.5263  1.5707
 8740TIP3   OH226183   0.856   1.290   1.020 -0.0242  0.4204 -0.0469
 8740TIP3    H126184   0.760   1.293   1.012 -0.0696  0.6182  0.4936
 8740TIP3    H226185   0.888   1.315   0.934 -0.4625  0.3585 -0.2313
 8741TIP3   OH226186   6.644   4.352   0.862 -0.3251 -0.0436 -0.0833
 8741TIP3    H126187   6.661   4.431   0.812 -0.0518  1.2290  1.8983
 8741TIP3    H226188   6.708   4.289   0.830  0.5761  1.0739 -0.5721
 8742TIP3   OH226189   4.369   3.177   1.309  0.1725  0.0812  0.3800
 8742TIP3    H126190   4.327   3.124   1.376  1.4390 -0.7117  0.5674
 8742TIP3    H226191   4.455   3.137   1.296  1.0746  1.9357  0.3486
 8743TIP3   OH226192   1.478   5.578   2.895  0.2603  0.0354 -0.1668
 8743TIP3    H126193   1.396   5.531   2.907  0.0794  0.6927  1.5446
 8743TIP3    H226194   1.538   5.514   2.857 -0.1253 -1.4524  1.5963
 8744TIP3   OH226195   5.485   0.985   4.187  0.5108  0.6901  0.8878
 8744TIP3    H126196   5.533   0.911   4.226 -0.3856  0.6491  1.9884
 8744TIP3    H226197   5.552   1.039   4.147  1.3218 -0.0806  1.1634
 8745TIP3   OH226198   2.680   0.491   1.100  0.0656  0.1218 -0.2005
 8745TIP3    H126199   2.615   0.561   1.107 -0.3697 -0.2842 -0.1565
 8745TIP3    H226200   2.718   0.485   1.188 -0.2392 -0.0266 -0.0794
 8746TIP3   OH226201   5.658   2.700   4.851 -0.2909 -0.3438  0.4517
 8746TIP3    H126202   5.625   2.741   4.931  0.0829 -0.9393  0.9160
 8746TIP3    H226203   5.746   2.736   4.840  0.7088 -2.1943  1.7757
 8747TIP3   OH226204   0.035   3.418   0.340  0.1021  0.0763  0.2087
 8747TIP3    H126205   0.009   3.337   0.295  1.5318  0.0706 -0.6603
 8747TIP3    H226206   0.125   3.403   0.367  0.7439  1.7239 -0.8476
 8748TIP3   OH226207   6.951   4.254   5.372 -0.1295  0.3822 -0.3235
 8748TIP3    H126208   7.040   4.248   5.337  0.7623  0.6925  1.7392
 8748TIP3    H226209   6.943   4.179   5.431 -1.4601  0.0452 -0.8770
 8749TIP3   OH226210   0.556   1.387   1.277 -0.1485 -0.4397 -0.0820
 8749TIP3    H126211   0.539   1.294   1.291 -1.7313 -0.3809 -1.3430
 8749TIP3    H226212   0.559   1.397   1.182  0.8473  0.6806  0.0422
 8750TIP3   OH226213   2.497   3.060   1.671 -0.2280  0.1260  0.4015
 8750TIP3    H126214   2.421   3.108   1.703 -0.9184 -0.2303 -0.6522
 8750TIP3    H226215   2.502   3.081   1.578  0.5644 -0.3895  0.3150
 8751TIP3   OH226216   5.619   2.617   5.797  0.3549  0.1571  0.2032
 8751TIP3    H126217   5.570   2.696   5.774 -0.2182 -0.6911 -1.7416
 8751TIP3    H226218   5.554   2.548   5.799  1.1618 -0.6471 -0.4158
 8752TIP3   OH226219   1.709   0.224   4.701  0.3219 -0.2272  0.2591
 8752TIP3    H126220   1.682   0.315   4.716  1.8688  0.2469  0.3311
 8752TIP3    H226221   1.668   0.175   4.772 -1.6170  0.1553 -0.5197
 8753TIP3   OH226222   5.823   4.850   0.696 -0.1215 -0.1884 -0.3921
 8753TIP3    H126223   5.762   4.813   0.632  0.5352 -0.9746 -0.5823
 8753TIP3    H226224   5.853   4.931   0.655 -2.3954  1.1909  0.5049
 8754TIP3   OH226225   1.770   3.993   0.969 -0.1085 -0.2585 -0.0847
 8754TIP3    H126226   1.770   4.084   0.942  0.0691  0.3052  1.6972
 8754TIP3    H226227   1.822   3.948   0.903  1.8206  1.3461  0.2617
 8755TIP3   OH226228   4.307   2.400   1.037  0.9713  0.5039 -0.6593
 8755TIP3    H126229   4.296   2.494   1.019  0.2892  0.7112  0.7094
 8755TIP3    H226230   4.227   2.375   1.084  1.1825 -0.7543 -0.9271
 8756TIP3   OH226231   5.648   1.236   0.532  0.0280  0.2655  0.0691
 8756TIP3    H126232   5.626   1.318   0.488  0.6748  0.3588 -0.0882
 8756TIP3    H226233   5.727   1.257   0.583  1.5367 -0.8078 -1.6986
 8757TIP3   OH226234   2.509   6.311   1.466  0.3999 -0.0010  1.0540
 8757TIP3    H126235   2.480   6.351   1.548 -1.2669  0.0898  0.4447
 8757TIP3    H226236   2.486   6.219   1.474 -2.2497  0.4534 -0.3143
 8758TIP3   OH226237   0.644   0.116   0.817  0.3614  0.3483 -0.5538
 8758TIP3    H126238   0.728   0.070   0.813 -0.2543 -0.7043 -2.7497
 8758TIP3    H226239   0.662   0.202   0.779  0.6008  0.3807 -0.3693
 8759TIP3   OH226240   0.944   5.463   0.577 -0.2606 -0.3051 -0.1160
 8759TIP3    H126241   0.929   5.415   0.658  0.3829 -0.5311 -0.1200
 8759TIP3    H226242   0.857   5.486   0.546 -0.4901  0.3527  0.9708
 8760TIP3   OH226243   1.469   4.435   3.397 -0.1427 -0.0457  0.2547
 8760TIP3    H126244   1.472   4.378   3.320 -3.0042  0.3919 -0.2889
 8760TIP3    H226245   1.485   4.376   3.471 -0.6097 -1.1169 -0.4676
 8761TIP3   OH226246   4.457   0.860   2.553 -0.2816 -0.0772  0.5160
 8761TIP3    H126247   4.462   0.770   2.521  0.6715  0.4435 -0.9074
 8761TIP3    H226248   4.454   0.914   2.474  1.1038  1.2190  1.2939
 8762TIP3   OH226249   1.963   1.647   5.409  0.1261 -0.2682  0.0479
 8762TIP3    H126250   1.904   1.607   5.473  1.8633 -0.6924  1.4835
 8762TIP3    H226251   1.908   1.664   5.333 -1.9027 -0.3460  1.3991
 8763TIP3   OH226252   2.976   3.683   0.446  0.5365  0.2228 -0.0063
 8763TIP3    H126253   2.958   3.589   0.450  1.0209  0.0592 -1.3411
 8763TIP3    H226254   2.908   3.719   0.389  2.0179  0.2138 -1.8400
 8764TIP3   OH226255   1.325   3.048   1.085  0.0089 -0.0642 -0.2508
 8764TIP3    H126256   1.243   3.097   1.095 -0.0154  0.0819 -1.0849
 8764TIP3    H226257   1.305   2.981   1.020  0.3439 -0.5067  0.0990
 8765TIP3   OH226258   7.108   3.617   2.025 -0.2415  0.2703 -0.1264
 8765TIP3    H126259   7.065   3.562   1.960  0.1667 -1.5502  1.0662
 8765TIP3    H226260   7.036   3.663   2.069 -0.6713 -0.0324 -0.5087
 8766TIP3   OH226261   3.513   0.111   4.187 -0.7161 -0.0118  0.2944
 8766TIP3    H126262   3.541   0.197   4.156  1.2010 -1.2746 -1.8346
 8766TIP3    H226263   3.580   0.085   4.251 -0.8328 -0.2511  0.3229
 8767TIP3   OH226264   4.599   3.061   2.101 -0.6504  0.2073 -0.0976
 8767TIP3    H126265   4.572   3.152   2.104  0.0158  0.5143 -2.0492
 8767TIP3    H226266   4.521   3.014   2.071 -0.9964  0.0999  0.9172
 8768TIP3   OH226267   1.999   1.536   0.053  0.2356  0.1370  0.7626
 8768TIP3    H126268   1.920   1.482   0.045 -1.6022  2.7520 -0.1560
 8768TIP3    H226269   2.023   1.557  -0.037 -0.2556  2.3250  1.0959
 8769TIP3   OH226270   4.945   5.156   0.233  0.2132 -0.0087  0.6657
 8769TIP3    H126271   5.028   5.162   0.281  0.8701  1.7053 -0.5902
 8769TIP3    H226272   4.909   5.244   0.237 -0.3810 -0.1659 -0.8300
 8770TIP3   OH226273   4.251   3.932   4.593 -0.3287  0.3501  0.4157
 8770TIP3    H126274   4.239   3.878   4.672 -1.1592 -0.9463 -0.5614
 8770TIP3    H226275   4.179   3.906   4.535  0.3263  1.2008 -0.8141
 8771TIP3   OH226276   2.117   2.341   4.030  0.1034  0.5311 -0.1647
 8771TIP3    H126277   2.092   2.261   3.984  0.2854  0.3632  0.0277
 8771TIP3    H226278   2.207   2.358   4.002  1.5440 -1.4939  2.7155
 8772TIP3   OH226279   4.064   6.333   5.153 -0.4128 -0.0741  0.3650
 8772TIP3    H126280   4.032   6.285   5.077  1.0010  3.1386 -2.5479
 8772TIP3    H226281   3.996   6.399   5.169 -0.3934 -0.3185  1.5275
 8773TIP3   OH226282   7.088   6.165   4.705 -0.3230 -0.1378  0.2676
 8773TIP3    H126283   7.131   6.240   4.664  1.1472 -1.1613 -0.1485
 8773TIP3    H226284   7.051   6.115   4.632  1.0285 -1.1990  0.2846
 8774TIP3   OH226285   6.822   6.637   0.637 -0.2423  0.6420 -0.2178
 8774TIP3    H126286   6.749   6.590   0.678  0.5896 -0.1928  0.3355
 8774TIP3    H226287   6.799   6.730   0.648 -1.7104  0.3991 -0.9865
 8775TIP3   OH226288   2.892   1.444   2.639 -0.1697 -0.6397  0.4991
 8775TIP3    H126289   2.918   1.528   2.601  1.9850 -0.2116  2.6232
 8775TIP3    H226290   2.830   1.468   2.708  0.9795 -0.6573  1.5733
 8776TIP3   OH226291   2.177   0.136   5.667 -0.0881 -0.3267  0.4901
 8776TIP3    H126292   2.244   0.138   5.735  0.3161  1.5550  0.1056
 8776TIP3    H226293   2.210   0.074   5.601  0.6417 -0.3806  0.9062
 8777TIP3   OH226294   0.245   6.382   3.075  0.3901 -0.2638  0.3515
 8777TIP3    H126295   0.214   6.439   3.146  1.7843 -1.0267  1.6417
 8777TIP3    H226296   0.166   6.356   3.029 -0.2981  2.7343 -0.3540
 8778TIP3   OH226297   0.227   1.724   1.152  0.1685  0.0086 -0.1430
 8778TIP3    H126298   0.204   1.774   1.231  0.0789 -1.3600  0.7292
 8778TIP3    H226299   0.283   1.783   1.102  0.0967  0.9673  0.8657
 8779TIP3   OH226300   2.101   2.273   5.016  0.1112 -0.2361 -0.2037
 8779TIP3    H126301   2.051   2.236   5.089 -0.8242 -0.4380 -0.9318
 8779TIP3    H226302   2.154   2.199   4.984 -0.5214 -0.5256 -0.6055
 8780TIP3   OH226303   7.074   6.282   5.464  0.3201 -0.4526  0.4789
 8780TIP3    H126304   7.060   6.189   5.445  0.0445 -0.4936  0.8604
 8780TIP3    H226305   7.134   6.282   5.538 -0.0018 -0.3412  0.7458
 8781TIP3   OH226306   3.417   3.027   0.116 -0.0047  0.1038  0.0858
 8781TIP3    H126307   3.453   3.076   0.189 -0.3191  2.0328 -0.9997
 8781TIP3    H226308   3.450   3.071   0.038  0.9667 -2.3729 -1.0064
 8782TIP3   OH226309   0.693   6.011   4.738  0.3002 -0.3819  0.4429
 8782TIP3    H126310   0.740   6.049   4.812 -0.0024  1.1169 -0.0936
 8782TIP3    H226311   0.758   6.004   4.668  0.4624 -1.3162  0.6716
 8783TIP3   OH226312   4.795   3.509   3.879 -0.2795 -0.2661 -0.2643
 8783TIP3    H126313   4.755   3.590   3.846 -0.1949  0.3070  1.0049
 8783TIP3    H226314   4.737   3.480   3.949  0.6616 -0.3020  0.5174
 8784TIP3   OH226315   5.002   3.368   5.722 -0.6280 -0.3335  0.0013
 8784TIP3    H126316   5.037   3.450   5.687  1.7434 -1.3209 -0.0962
 8784TIP3    H226317   4.908   3.373   5.705 -0.4468  2.0513 -0.6036
 8785TIP3   OH226318   3.788   6.655   2.150 -0.0770  0.2003 -0.5354
 8785TIP3    H126319   3.700   6.620   2.163 -0.2807  0.8017 -0.2543
 8785TIP3    H226320   3.805   6.642   2.056  0.1714 -1.3450 -0.2996
 8786TIP3   OH226321   1.290   3.452   1.579 -0.1853  0.4301  0.0397
 8786TIP3    H126322   1.312   3.478   1.489  1.2421 -2.8800 -0.7102
 8786TIP3    H226323   1.208   3.403   1.570 -0.2636  0.4537  0.6179
 8787TIP3   OH226324   2.334   6.294   5.182  0.3741  0.0325 -0.4028
 8787TIP3    H126325   2.305   6.244   5.105  2.0388 -1.4164 -0.1591
 8787TIP3    H226326   2.259   6.294   5.241  0.5944 -3.2498  0.0567
 8788TIP3   OH226327   1.727   1.170   4.845 -0.4818 -0.6135 -0.0958
 8788TIP3    H126328   1.664   1.122   4.898 -0.6636 -0.3936 -0.1101
 8788TIP3    H226329   1.681   1.187   4.763  0.2066 -1.9890 -0.7899
 8789TIP3   OH226330   5.209   4.363   3.802 -0.0284  0.7765  0.4740
 8789TIP3    H126331   5.144   4.293   3.808  1.7495 -1.0505 -0.2497
 8789TIP3    H226332   5.160   4.443   3.816 -2.4126 -0.5226  0.0201
 8790TIP3   OH226333   1.234   6.739   0.399 -0.3210  0.1833  0.1097
 8790TIP3    H126334   1.206   6.666   0.345  2.9521 -1.0602 -0.1836
 8790TIP3    H226335   1.227   6.706   0.489 -0.1753  0.0223  0.0624
 8791TIP3   OH226336   0.194   5.778   0.347  0.3709  0.2409 -0.2121
 8791TIP3    H126337   0.138   5.783   0.424 -2.6184  2.1608 -2.2811
 8791TIP3    H226338   0.273   5.827   0.371 -0.9167  1.6814  1.2999
 8792TIP3   OH226339   4.360   3.597   0.210 -0.6445  0.1549 -0.2843
 8792TIP3    H126340   4.423   3.553   0.268 -0.6540  0.9552  0.3642
 8792TIP3    H226341   4.304   3.527   0.177 -1.0258 -0.2531  1.1712
 8793TIP3   OH226342   2.521   1.681   1.189  0.1298 -0.3349 -0.2957
 8793TIP3    H126343   2.538   1.699   1.281  2.5139  1.8320 -1.0451
 8793TIP3    H226344   2.426   1.695   1.178 -0.0137  0.4164  1.6020
 8794TIP3   OH226345   2.365   2.621   2.187 -0.2334 -0.1739  0.1614
 8794TIP3    H126346   2.294   2.608   2.250  0.9506 -1.5374  1.2613
 8794TIP3    H226347   2.421   2.688   2.227 -0.1608 -0.0975 -0.0656
 8795TIP3   OH226348   2.692   6.669   2.085 -0.4746 -0.3573  0.3084
 8795TIP3    H126349   2.702   6.692   1.992 -1.9873  0.0293  0.2258
 8795TIP3    H226350   2.734   6.583   2.092  0.9994  0.2583 -0.3993
 8796TIP3   OH226351   1.053   1.458   1.720  0.6230 -0.5267 -0.0506
 8796TIP3    H126352   1.059   1.547   1.756 -1.0533 -0.7903  0.9707
 8796TIP3    H226353   1.033   1.403   1.795 -1.6093 -1.2883 -1.1155
 8797TIP3   OH226354   5.045   1.669   4.650 -0.4507  0.1084 -0.3891
 8797TIP3    H126355   5.048   1.757   4.611  0.5956 -0.1127 -0.8390
 8797TIP3    H226356   4.958   1.635   4.627 -1.2066  1.3398  0.5166
 8798TIP3   OH226357   3.045   1.782   1.129  0.2488  0.2049  0.0367
 8798TIP3    H126358   3.113   1.833   1.173  0.8994 -0.2620 -0.4098
 8798TIP3    H226359   2.990   1.847   1.085  0.2219  0.6035  0.6408
 8799TIP3   OH226360   3.281   3.488   5.705 -0.5758 -0.2731  0.6905
 8799TIP3    H126361   3.216   3.558   5.696  0.1107  0.2996  0.0439
 8799TIP3    H226362   3.255   3.442   5.785 -1.1157  0.6370  1.0602
 8800TIP3   OH226363   5.853   1.862   1.645  0.4811 -0.0177 -0.3483
 8800TIP3    H126364   5.805   1.880   1.725  0.4840 -1.5605  0.0458
 8800TIP3    H226365   5.884   1.771   1.656  0.0374 -0.4466 -2.3015
 8801TIP3   OH226366   2.032   3.957   5.700  0.1303  0.4434 -0.3651
 8801TIP3    H126367   2.047   3.977   5.608  1.2750  0.6912 -0.1339
 8801TIP3    H226368   1.949   3.907   5.700 -0.6057  1.6144 -1.3578
 8802TIP3   OH226369   0.162   0.342   4.308  0.8570  0.1283  0.4831
 8802TIP3    H126370   0.131   0.277   4.245  1.2239 -0.3910  0.8324
 8802TIP3    H226371   0.164   0.424   4.258  0.6441 -0.1789 -0.0369
 8803TIP3   OH226372   5.989   3.878   2.727  0.4432 -0.4797 -0.3717
 8803TIP3    H126373   5.948   3.852   2.645  1.9087 -0.9826 -0.9739
 8803TIP3    H226374   6.038   3.958   2.706  1.4110 -1.0053 -0.1905
 8804TIP3   OH226375   5.073   0.838   2.915  0.0453  0.1385 -0.0587
 8804TIP3    H126376   5.020   0.837   2.835  1.5014 -1.4435 -1.0566
 8804TIP3    H226377   5.043   0.916   2.962 -0.7723  1.1923 -2.1932
 8805TIP3   OH226378   5.813   2.241   5.413  0.1412 -0.1126  0.2413
 8805TIP3    H126379   5.722   2.227   5.441  0.3297 -1.0924  0.4050
 8805TIP3    H226380   5.861   2.252   5.495  0.7316 -3.2028  0.4222
 8806TIP3   OH226381   2.483   0.845   2.555 -0.0563  0.6189 -0.2779
 8806TIP3    H126382   2.530   0.927   2.540  0.0894  0.4457 -0.7794
 8806TIP3    H226383   2.436   0.829   2.474 -1.0964  0.8578  0.2660
 8807TIP3   OH226384   5.146   3.643   1.340 -0.0704 -0.5101 -0.0053
 8807TIP3    H126385   5.073   3.641   1.403  0.2309  0.2659  0.3738
 8807TIP3    H226386   5.163   3.736   1.326 -1.0604 -0.6151 -2.3430
 8808TIP3   OH226387   4.343   2.589   4.654  0.3613  0.3202  0.3939
 8808TIP3    H126388   4.388   2.516   4.611  2.5897  2.0356 -0.3663
 8808TIP3    H226389   4.312   2.645   4.583 -0.0813  0.8341  0.9736
 8809TIP3   OH226390   5.180   1.042   5.737 -0.2662 -0.2610 -0.5924
 8809TIP3    H126391   5.198   0.959   5.692 -0.8952 -0.5921 -0.2450
 8809TIP3    H226392   5.244   1.045   5.808  2.1350  1.2336 -2.6525
 8810TIP3   OH226393   3.651   2.913   2.652 -0.1867  0.7998 -0.3118
 8810TIP3    H126394   3.670   2.929   2.744  1.5422  1.0756 -0.6827
 8810TIP3    H226395   3.627   2.820   2.648  1.0684  0.4283  0.2444
 8811TIP3   OH226396   4.968   3.992   1.469 -0.2395  0.2991 -0.4043
 8811TIP3    H126397   4.912   3.996   1.546  1.5471  1.2393  0.9240
 8811TIP3    H226398   4.962   4.079   1.430  1.0118  0.7413  0.3282
 8812TIP3   OH226399   4.604   5.678   5.080 -0.7533  0.1449 -0.0627
 8812TIP3    H126400   4.632   5.761   5.119 -0.2165  0.0530 -0.2454
 8812TIP3    H226401   4.636   5.611   5.140  0.3979 -0.0164 -0.8237
 8813TIP3   OH226402   0.747   2.069   0.794  0.0478  0.3222  0.1626
 8813TIP3    H126403   0.766   2.113   0.711 -0.0111 -0.7785 -0.4562
 8813TIP3    H226404   0.704   2.135   0.848 -0.8902  0.7634 -1.0869
 8814TIP3   OH226405   0.203   2.651   0.987 -0.5864  0.1685 -0.5522
 8814TIP3    H126406   0.235   2.626   0.900 -0.9043 -1.0099 -0.3485
 8814TIP3    H226407   0.281   2.678   1.034 -0.2621 -0.1430 -0.9015
 8815TIP3   OH226408   4.294   5.803   1.989  0.1387  0.5442  0.1871
 8815TIP3    H126409   4.259   5.724   2.030  0.2985 -0.4770 -1.5705
 8815TIP3    H226410   4.278   5.872   2.053 -0.8330 -0.7351  1.3791
 8816TIP3   OH226411   5.255   4.567   2.561  0.4266  0.3392 -0.2923
 8816TIP3    H126412   5.264   4.588   2.654  0.1180 -0.2381 -0.1227
 8816TIP3    H226413   5.198   4.490   2.560  0.3734  0.3832 -0.9653
 8817TIP3   OH226414   6.319   5.528   0.630  0.4496  0.4115  0.3883
 8817TIP3    H126415   6.231   5.545   0.664 -0.5166 -2.1697 -0.5968
 8817TIP3    H226416   6.362   5.477   0.699  1.4050  2.0207  1.0523
 8818TIP3   OH226417   4.106   2.649   0.722 -0.8229  0.1585  0.0945
 8818TIP3    H126418   4.187   2.685   0.759 -0.1203  0.3078 -1.5251
 8818TIP3    H226419   4.123   2.556   0.713 -0.3430  0.3691 -1.3897
 8819TIP3   OH226420   5.872   6.616   2.022  0.0448 -0.0773 -0.1166
 8819TIP3    H126421   5.953   6.595   1.974 -0.0275 -1.4571  0.3281
 8819TIP3    H226422   5.881   6.572   2.106 -1.1340 -0.1954 -0.0283
 8820TIP3   OH226423   4.330   2.663   0.307 -0.2082 -0.1960 -0.4358
 8820TIP3    H126424   4.265   2.723   0.270  1.1026  0.3217 -2.0459
 8820TIP3    H226425   4.341   2.693   0.398 -1.1542  0.6280 -0.5744
 8821TIP3   OH226426   5.599   1.115   0.283 -0.0403  0.2964 -0.3698
 8821TIP3    H126427   5.612   1.149   0.372  0.0218  3.2377 -1.3720
 8821TIP3    H226428   5.659   1.041   0.276  1.0266  0.9081  1.5706
 8822TIP3   OH226429   2.145   0.884   4.788  0.2367 -0.1697  0.2288
 8822TIP3    H126430   2.158   0.935   4.868 -0.9163 -0.7462  0.8142
 8822TIP3    H226431   2.051   0.869   4.784  0.4497 -1.5421 -0.3567
 8823TIP3   OH226432   1.326   0.961   4.553 -0.1564  0.5720 -0.2310
 8823TIP3    H126433   1.419   0.948   4.539 -0.1600  0.5107 -0.1975
 8823TIP3    H226434   1.284   0.922   4.477 -0.2721 -1.2925  0.7295
 8824TIP3   OH226435   0.949   1.018   0.741 -0.7040  0.3637  0.1378
 8824TIP3    H126436   0.859   0.991   0.723  0.2076 -2.7738 -0.2784
 8824TIP3    H226437   0.949   1.038   0.835 -1.4016 -1.9690  0.7089
 8825TIP3   OH226438   6.426   3.937   5.372  0.2206 -0.3231  0.4458
 8825TIP3    H126439   6.509   3.985   5.363 -0.3537  0.5266 -0.4011
 8825TIP3    H226440   6.453   3.850   5.400  1.4936 -0.4111 -0.9295
 8826TIP3   OH226441   0.919   1.625   2.466 -0.0811 -0.6050 -0.3619
 8826TIP3    H126442   0.961   1.690   2.523  0.8605  0.0161 -1.7050
 8826TIP3    H226443   0.984   1.556   2.457 -0.1160 -0.5748 -0.8795
 8827TIP3   OH226444   5.043   2.050   2.473 -0.3190 -0.6506 -0.2077
 8827TIP3    H126445   4.957   2.048   2.516 -0.5657 -2.6905 -0.6916
 8827TIP3    H226446   5.023   2.035   2.380  0.4629  0.3522 -0.5549
 8828TIP3   OH226447   4.128   1.043   4.425 -0.6771 -0.4050 -0.1255
 8828TIP3    H126448   4.209   1.004   4.458  0.5238  0.7897 -1.5278
 8828TIP3    H226449   4.153   1.131   4.397 -2.1059 -0.5192 -1.9757
 8829TIP3   OH226450   4.694   5.578   3.182  0.4121  0.5958 -0.8656
 8829TIP3    H126451   4.697   5.533   3.098 -0.9829  0.3809 -0.8235
 8829TIP3    H226452   4.618   5.540   3.227 -0.2247  2.2824 -0.4294
 8830TIP3   OH226453   4.591   0.306   0.254  0.5946 -0.3919 -0.1694
 8830TIP3    H126454   4.575   0.240   0.321  0.4453 -1.1142 -0.8919
 8830TIP3    H226455   4.683   0.330   0.265  0.3099  0.2442  0.9286
 8831TIP3   OH226456   4.561   3.670   3.044 -0.3472  0.2955  0.1613
 8831TIP3    H126457   4.614   3.734   2.997 -0.6274 -0.7769 -1.7666
 8831TIP3    H226458   4.623   3.601   3.069 -0.6901 -0.8389 -1.8748
 8832TIP3   OH226459   5.181   4.636   4.675  0.1409  0.3581  0.2222
 8832TIP3    H126460   5.189   4.667   4.765 -0.0286 -2.5453  1.3477
 8832TIP3    H226461   5.251   4.571   4.665  0.9839  1.5209 -2.2230
 8833TIP3   OH226462   7.097   0.864   1.517  0.7459  0.7042 -0.2721
 8833TIP3    H126463   7.098   0.772   1.490  0.8507 -0.0582  2.0867
 8833TIP3    H226464   7.174   0.873   1.575  0.8767  2.3504 -0.6426
 8834TIP3   OH226465   5.172   3.476   4.282  0.3810  0.0956 -0.2151
 8834TIP3    H126466   5.230   3.404   4.307 -1.8808 -1.4949  0.7620
 8834TIP3    H226467   5.152   3.459   4.190  1.2034  0.5039 -0.4821
 8835TIP3   OH226468   3.818   3.780   1.848  0.1102 -0.4125 -0.6078
 8835TIP3    H126469   3.892   3.830   1.882  1.2922 -1.9321 -0.8156
 8835TIP3    H226470   3.747   3.843   1.842  1.3461  1.0736 -0.2568
 8836TIP3   OH226471   4.471   4.079   1.139 -0.6151 -0.4725 -0.3529
 8836TIP3    H126472   4.500   4.058   1.227  1.1822  0.7516 -0.5919
 8836TIP3    H226473   4.381   4.108   1.149 -0.6763 -1.0804  0.9593
 8837TIP3   OH226474   2.994   6.397   1.000  0.2562 -0.3913  0.1477
 8837TIP3    H126475   2.956   6.317   1.035 -0.4889 -0.2868 -0.3938
 8837TIP3    H226476   3.019   6.448   1.077 -0.3534 -0.6335  0.5103
 8838TIP3   OH226477   3.540   4.400   2.116 -0.4266  0.0745 -0.1504
 8838TIP3    H126478   3.600   4.390   2.042 -0.8361  1.5136 -0.7236
 8838TIP3    H226479   3.465   4.448   2.080 -0.7190  0.6497  1.1566
 8839TIP3   OH226480   4.333   4.617   4.784  0.4248  0.3660  0.7090
 8839TIP3    H126481   4.330   4.595   4.877 -1.2468  0.2304  0.6444
 8839TIP3    H226482   4.315   4.534   4.739  0.0909  0.6548  0.2986
 8840TIP3   OH226483   2.547   2.995   0.241 -0.3842 -0.3936 -0.2720
 8840TIP3    H126484   2.554   2.949   0.158 -0.4806 -1.1609  0.1430
 8840TIP3    H226485   2.503   2.934   0.300  0.1967 -0.0803  0.5083
 8841TIP3   OH226486   6.505   2.666   5.234 -0.2511 -0.0787  0.1815
 8841TIP3    H126487   6.414   2.673   5.265 -0.8241 -1.0924 -1.1699
 8841TIP3    H226488   6.521   2.748   5.188  0.4870  1.2927  2.6635
 8842TIP3   OH226489   6.129   5.134   4.442  0.1459  0.0786 -0.0806
 8842TIP3    H126490   6.185   5.181   4.380  0.7924  0.1300  0.5327
 8842TIP3    H226491   6.054   5.105   4.389  0.1516  1.0589 -0.6558
 8843TIP3   OH226492   5.902   2.771   4.753  0.0260 -0.5755  0.1636
 8843TIP3    H126493   5.874   2.846   4.699  1.4672  0.5994  0.9602
 8843TIP3    H226494   5.905   2.698   4.692  1.0291  0.5753 -1.2483
 8844TIP3   OH226495   4.939   0.977   4.152 -0.0063  0.1285  0.0378
 8844TIP3    H126496   5.011   0.954   4.093 -0.0025 -0.1355  0.1419
 8844TIP3    H226497   4.976   0.964   4.240 -0.9034 -2.4719  0.1251
 8845TIP3   OH226498   4.268   4.849   1.152  0.0306 -0.7774  0.4792
 8845TIP3    H126499   4.345   4.793   1.157 -0.1739 -1.0833  0.2704
 8845TIP3    H226500   4.303   4.937   1.138  0.3331 -1.3728 -4.1802
 8846TIP3   OH226501   4.708   6.659   1.678 -0.2714 -0.8433  0.3995
 8846TIP3    H126502   4.690   6.737   1.626 -1.9907 -0.2616  1.7714
 8846TIP3    H226503   4.737   6.692   1.763 -2.4740 -1.5741  1.5134
 8847TIP3   OH226504   0.679   4.017   4.314 -0.0939  0.0311  0.0943
 8847TIP3    H126505   0.697   4.024   4.408  1.0525 -0.0198 -0.1021
 8847TIP3    H226506   0.690   4.106   4.280  1.0360 -0.2188 -0.2289
 8848TIP3   OH226507   5.047   2.717   3.824  0.2138 -0.2141 -0.7063
 8848TIP3    H126508   5.072   2.809   3.812 -1.6593  0.6927  1.6282
 8848TIP3    H226509   5.107   2.685   3.891 -1.4167  0.4444  1.1366
 8849TIP3   OH226510   5.896   1.756   1.135 -0.7587 -0.9696  0.5328
 8849TIP3    H126511   5.896   1.699   1.212  0.4273 -1.2482  0.3445
 8849TIP3    H226512   5.841   1.710   1.071 -1.0532 -1.1465  0.9093
 8850TIP3   OH226513   1.539   3.437   1.697  0.0754  0.4863  0.1472
 8850TIP3    H126514   1.447   3.451   1.673  0.0145  0.3764  0.3115
 8850TIP3    H226515   1.589   3.468   1.622 -0.1253 -0.1887 -0.2765
 8851TIP3   OH226516   2.562   4.520   4.375  0.2378 -0.4816 -0.1612
 8851TIP3    H126517   2.609   4.601   4.396 -1.6189  1.0894 -1.6796
 8851TIP3    H226518   2.471   4.538   4.399 -0.0124 -2.6009  0.6274
 8852TIP3   OH226519   3.672   6.568   0.751 -0.1585  0.4439 -0.1286
 8852TIP3    H126520   3.754   6.572   0.801 -1.1452  1.6880  1.4871
 8852TIP3    H226521   3.639   6.479   0.768  1.2396 -0.4045 -1.5395
 8853TIP3   OH226522   2.602   3.684   2.694 -0.1336 -0.3569 -0.6489
 8853TIP3    H126523   2.598   3.642   2.780  1.2950  0.9386  0.0939
 8853TIP3    H226524   2.520   3.659   2.651 -0.9257 -0.9442  1.1222
 8854TIP3   OH226525   6.808   0.059   2.689 -0.0210 -0.5552 -0.3164
 8854TIP3    H126526   6.876  -0.007   2.676  1.0155  0.2280  0.9105
 8854TIP3    H226527   6.736   0.011   2.730  0.7889 -0.9078  0.7298
 8855TIP3   OH226528   6.933   5.414   4.300  0.4015 -0.3116 -0.4952
 8855TIP3    H126529   6.889   5.332   4.277 -0.3593 -0.8338  2.4678
 8855TIP3    H226530   6.887   5.480   4.248 -1.2740 -1.3480 -0.4289
 8856TIP3   OH226531   4.169   1.732   2.183 -0.3792  0.0530 -0.4424
 8856TIP3    H126532   4.202   1.706   2.097 -0.8535  0.4255 -0.7420
 8856TIP3    H226533   4.091   1.784   2.164 -0.4595  0.1796  0.2124
 8857TIP3   OH226534   1.737   5.613   2.283  0.3436 -0.4639 -0.1315
 8857TIP3    H126535   1.754   5.677   2.351 -1.2378  1.1752 -1.1932
 8857TIP3    H226536   1.641   5.608   2.278  0.4310 -1.3524 -1.4804
 8858TIP3   OH226537   4.869   6.727   1.006 -0.2136 -0.1826  0.3990
 8858TIP3    H126538   4.945   6.679   1.039 -0.0184  0.6453  1.2011
 8858TIP3    H226539   4.814   6.660   0.965  0.6293 -0.8925  0.4031
 8859TIP3   OH226540   5.389   2.069   2.384  0.3265 -0.4407 -0.0518
 8859TIP3    H126541   5.322   2.098   2.445  0.1078 -1.0264 -0.0041
 8859TIP3    H226542   5.422   2.149   2.343 -0.3990 -0.1504 -0.0681
 8860TIP3   OH226543   1.476   6.551   1.769 -0.2278  0.3579 -0.3648
 8860TIP3    H126544   1.489   6.613   1.840 -0.4180 -0.9251  0.8330
 8860TIP3    H226545   1.401   6.497   1.797  0.0360 -0.5243 -1.2729
 8861TIP3   OH226546   2.560   5.892   4.085  0.6069  0.2009 -0.2475
 8861TIP3    H126547   2.621   5.896   4.011  1.4312  2.0703  0.4740
 8861TIP3    H226548   2.496   5.960   4.067 -0.7794 -1.1303 -0.5270
 8862TIP3   OH226549   0.658   3.679   5.056  0.1205 -0.2814  0.1382
 8862TIP3    H126550   0.649   3.612   4.988 -0.6019 -1.5449  1.4169
 8862TIP3    H226551   0.744   3.664   5.094 -0.7141 -1.6863  1.5862
 8863TIP3   OH226552   1.544   6.417   5.752 -0.4107 -0.3558  0.1169
 8863TIP3    H126553   1.500   6.432   5.836  1.0005  0.0457  0.8095
 8863TIP3    H226554   1.548   6.503   5.711  0.6101 -0.2092  0.5109
 8864TIP3   OH226555   1.994   4.207   0.905  0.2294  0.0224 -0.1083
 8864TIP3    H126556   1.950   4.291   0.887  0.1912 -0.0493 -0.3515
 8864TIP3    H226557   1.966   4.149   0.834  1.2416  0.1723 -0.6601
 8865TIP3   OH226558   4.555   2.087   0.591 -0.1755 -0.0550  0.1810
 8865TIP3    H126559   4.555   2.011   0.534 -0.3056  1.2188 -1.6049
 8865TIP3    H226560   4.646   2.116   0.591  0.0965 -0.8242  1.7645
 8866TIP3   OH226561   0.501   1.817   0.388 -0.2901  0.1171  0.0819
 8866TIP3    H126562   0.585   1.861   0.398 -0.7716  1.7866 -2.4135
 8866TIP3    H226563   0.524   1.725   0.373  0.8265 -0.1949  3.0183
 8867TIP3   OH226564   0.919   4.817   0.714 -0.3869 -0.0130 -0.7318
 8867TIP3    H126565   0.854   4.845   0.778  0.2739  0.8633 -0.4179
 8867TIP3    H226566   0.996   4.793   0.766  0.6573  2.0293 -1.1888
 8868TIP3   OH226567   1.573   2.883   2.210  0.8211 -0.2420 -0.1846
 8868TIP3    H126568   1.655   2.933   2.207  1.2169 -0.9097 -1.8833
 8868TIP3    H226569   1.526   2.910   2.132 -0.5298 -0.0069  0.6819
 8869TIP3   OH226570   5.299   4.113   3.920  0.0651  0.3707  0.0294
 8869TIP3    H126571   5.317   4.188   3.863 -1.0156  0.9770  0.4735
 8869TIP3    H226572   5.261   4.150   3.999 -2.8231 -0.7627 -0.7002
 8870TIP3   OH226573   3.805   5.060   0.057 -0.2020  0.4266  0.0325
 8870TIP3    H126574   3.799   4.965   0.072  0.6356  0.3997  0.2395
 8870TIP3    H226575   3.837   5.068  -0.033  1.9423  0.4577  0.7567
 8871TIP3   OH226576   4.139   6.010   5.750 -0.0354  0.2914  0.3620
 8871TIP3    H126577   4.165   6.072   5.681 -2.4006  0.3712 -0.5284
 8871TIP3    H226578   4.169   5.925   5.717  0.7263  0.5869  0.2620
 8872TIP3   OH226579   6.730   3.465   4.832  0.3405  0.2326 -0.0819
 8872TIP3    H126580   6.718   3.560   4.825 -0.9780  0.0438 -0.5427
 8872TIP3    H226581   6.815   3.449   4.790 -0.0334  1.0720 -1.2224
 8873TIP3   OH226582   1.224   6.671   2.327  0.7430 -0.5597 -0.1241
 8873TIP3    H126583   1.204   6.642   2.416 -1.5341  1.4849  0.1433
 8873TIP3    H226584   1.269   6.754   2.339  0.1509 -0.1252 -0.8825
 8874TIP3   OH226585   5.779   1.809   0.676 -0.2468 -0.4915  0.2887
 8874TIP3    H126586   5.873   1.805   0.660 -0.3116  0.8186 -0.5292
 8874TIP3    H226587   5.740   1.818   0.589 -0.9454  1.7053  0.7702
 8875TIP3   OH226588   7.024   0.277   4.564  0.4839 -0.3253 -0.0245
 8875TIP3    H126589   6.966   0.316   4.630 -0.4477 -1.8195  0.0949
 8875TIP3    H226590   7.018   0.182   4.580  3.1262 -0.5520  0.1073
 8876TIP3   OH226591   2.758   3.684   4.300  0.3587  0.3379  0.3240
 8876TIP3    H126592   2.730   3.596   4.325 -2.7958  1.9358  3.4677
 8876TIP3    H226593   2.797   3.720   4.379  1.4761  1.8262 -0.8497
 8877TIP3   OH226594   2.507   5.084   5.828 -0.5551 -0.0435  0.1520
 8877TIP3    H126595   2.490   5.168   5.870 -1.1129 -0.3877  0.6316
 8877TIP3    H226596   2.424   5.037   5.833 -0.1229 -0.8097  0.3136
 8878TIP3   OH226597   2.650   2.154   0.271 -0.5191  0.4579  0.5186
 8878TIP3    H126598   2.687   2.215   0.207  0.5924 -0.7349 -0.0253
 8878TIP3    H226599   2.556   2.175   0.272 -0.0596  2.8153  1.1060
 8879TIP3   OH226600   6.261   6.412   5.851  0.2418 -0.0129  0.1961
 8879TIP3    H126601   6.310   6.342   5.808 -1.2796 -0.2942 -1.1525
 8879TIP3    H226602   6.238   6.376   5.937 -1.1929 -1.5250 -0.7729
 8880TIP3   OH226603   6.334   5.603   3.792 -0.0048  0.2178 -0.2100
 8880TIP3    H126604   6.293   5.545   3.729 -0.7392 -0.0186  0.4654
 8880TIP3    H226605   6.309   5.567   3.878 -1.6993  2.3083  0.2716
 8881TIP3   OH226606   5.872   5.362   2.498 -0.2506 -0.0223  0.6919
 8881TIP3    H126607   5.955   5.392   2.535 -1.0983  1.4623  1.4861
 8881TIP3    H226608   5.881   5.377   2.404  0.2812  0.4138  0.8070
 8882TIP3   OH226609   2.078   1.501   0.992 -0.4043  0.6273 -0.2096
 8882TIP3    H126610   2.038   1.422   0.957 -1.7113  0.2249  2.0040
 8882TIP3    H226611   2.015   1.571   0.973 -0.3218  0.7165 -0.1584
 8883TIP3   OH226612   5.594   3.756   0.391 -0.0511 -0.0390  0.0909
 8883TIP3    H126613   5.549   3.714   0.464 -0.2388 -0.6740 -0.3800
 8883TIP3    H226614   5.603   3.847   0.418  3.3481 -0.9447  2.5660
 8884TIP3   OH226615   4.319   5.575   4.614 -0.2833 -0.2345  0.3235
 8884TIP3    H126616   4.347   5.666   4.606  1.2569 -0.7795 -1.2333
 8884TIP3    H226617   4.272   5.571   4.697  0.3662  1.7929  0.8384
 8885TIP3   OH226618   1.202   1.890   3.192  0.1224 -0.3521  0.0831
 8885TIP3    H126619   1.134   1.909   3.256 -1.1223  2.4668 -1.8376
 8885TIP3    H226620   1.284   1.912   3.235 -0.3564 -1.5220  1.6639
 8886TIP3   OH226621   2.742   3.831   5.096 -0.4886  0.0082  0.0552
 8886TIP3    H126622   2.676   3.865   5.156  0.8689  0.7942  1.1436
 8886TIP3    H226623   2.717   3.867   5.011 -1.3128  0.4948  0.4887
 8887TIP3   OH226624   0.502   1.893   5.506 -0.4138 -0.3455  0.3231
 8887TIP3    H126625   0.501   1.895   5.602 -1.3692  1.1037  0.3234
 8887TIP3    H226626   0.595   1.901   5.484 -0.2276 -0.0695  1.1340
 8888TIP3   OH226627   2.473   1.670   4.532 -0.0352 -0.2588  0.6759
 8888TIP3    H126628   2.562   1.643   4.555  0.0336  0.2013  0.9688
 8888TIP3    H226629   2.463   1.756   4.573 -0.2830  0.1124 -0.1348
 8889TIP3   OH226630   0.575   2.246   5.343 -0.4586 -0.2032  0.1324
 8889TIP3    H126631   0.643   2.180   5.357  0.0022  0.4079  0.8063
 8889TIP3    H226632   0.577   2.301   5.421 -2.9132 -1.1903  0.9957
 8890TIP3   OH226633   0.950   2.606   3.581 -0.2124  0.0266  0.1626
 8890TIP3    H126634   0.994   2.676   3.630 -0.7619 -0.1937  1.0106
 8890TIP3    H226635   1.020   2.547   3.554  0.1578  0.4131  0.2810
 8891TIP3   OH226636   4.493   5.683   1.468 -0.0629  0.2734 -0.9108
 8891TIP3    H126637   4.404   5.716   1.481  0.2254  0.9147 -0.5248
 8891TIP3    H226638   4.527   5.670   1.556 -0.3504 -1.6187 -1.0225
 8892TIP3   OH226639   4.445   2.811   2.813 -0.5863 -0.4961  0.2478
 8892TIP3    H126640   4.440   2.878   2.745  1.9374 -2.0859 -1.7092
 8892TIP3    H226641   4.487   2.855   2.887  1.5003  0.0764 -1.1713
 8893TIP3   OH226642   1.213   3.159   3.759 -0.1563 -0.6805  0.0761
 8893TIP3    H126643   1.142   3.214   3.792 -0.7508 -2.2574  1.6432
 8893TIP3    H226644   1.293   3.211   3.773 -0.7881  0.2031  0.4649
 8894TIP3   OH226645   1.813   1.838   2.710 -0.1522  0.0631  0.3408
 8894TIP3    H126646   1.786   1.907   2.649  2.4069  0.8496  0.0021
 8894TIP3    H226647   1.831   1.762   2.655 -1.2954 -0.3687  0.5362
 8895TIP3   OH226648   1.261   0.612   5.184 -0.0365  0.2118 -0.4701
 8895TIP3    H126649   1.267   0.568   5.099 -0.9265  0.2039 -0.5370
 8895TIP3    H226650   1.175   0.655   5.182  0.3662  1.0528  0.0217
 8896TIP3   OH226651   4.456   4.070   1.398  0.2176  0.2216 -0.0469
 8896TIP3    H126652   4.461   3.996   1.458 -2.8050  0.5290  0.7417
 8896TIP3    H226653   4.486   4.145   1.449  0.1968  0.0557  0.2111
 8897TIP3   OH226654   1.315   4.292   0.548 -0.2423  0.0571 -0.1673
 8897TIP3    H126655   1.312   4.225   0.617  1.5691  2.7051  2.7486
 8897TIP3    H226656   1.230   4.335   0.551 -0.7832 -0.9269 -0.8492
 8898TIP3   OH226657   6.885   6.591   5.695 -0.7522  0.6155  0.0910
 8898TIP3    H126658   6.961   6.576   5.752 -1.0672 -1.5375  0.0513
 8898TIP3    H226659   6.810   6.586   5.755 -1.0349 -0.8610 -0.3453
 8899TIP3   OH226660   0.493   1.836   4.410 -0.5616  0.1439  0.1564
 8899TIP3    H126661   0.401   1.816   4.430 -0.9970  0.9418 -0.9424
 8899TIP3    H226662   0.489   1.900   4.339  0.8529 -0.3915 -0.4609
 8900TIP3   OH226663   6.026   6.689   4.371  0.1039 -0.2185  0.2275
 8900TIP3    H126664   5.993   6.602   4.349 -0.0039  0.4199 -2.4415
 8900TIP3    H226665   5.970   6.750   4.322  0.0725  1.4076  2.1466
 8901TIP3   OH226666   5.863   3.694   0.607 -0.3842 -0.0329 -0.2207
 8901TIP3    H126667   5.827   3.763   0.551 -2.3799 -1.7776 -1.2350
 8901TIP3    H226668   5.955   3.690   0.585  0.0269  2.8717  0.5454
 8902TIP3   OH226669   4.441   0.305   1.565  0.6847  0.6194  0.0035
 8902TIP3    H126670   4.493   0.254   1.504  0.9497 -0.8173  1.3618
 8902TIP3    H226671   4.505   0.337   1.629  0.1787  0.5500  0.5466
 8903TIP3   OH226672   4.088   1.199   1.341  0.0830  0.2817 -0.1173
 8903TIP3    H126673   4.026   1.126   1.329  2.0871 -1.8262  1.4919
 8903TIP3    H226674   4.174   1.158   1.336  1.3276  2.7103  0.2062
 8904TIP3   OH226675   4.003   2.670   2.808  0.3609 -0.0028  0.1253
 8904TIP3    H126676   3.985   2.764   2.814  0.1436  0.0266 -0.8194
 8904TIP3    H226677   4.061   2.652   2.882  1.7068  1.2055 -0.5742
 8905TIP3   OH226678   5.769   5.314   1.360  0.0053  0.2294 -0.5163
 8905TIP3    H126679   5.684   5.305   1.317  0.3054 -2.3162 -0.7200
 8905TIP3    H226680   5.752   5.369   1.436 -1.8242 -0.1844 -0.5831
 8906TIP3   OH226681   5.354   6.512   1.710 -0.0643 -0.0737 -0.2173
 8906TIP3    H126682   5.384   6.424   1.732 -1.1682 -0.1667  1.1532
 8906TIP3    H226683   5.273   6.498   1.661 -0.2278  0.1676 -0.0212
 8907TIP3   OH226684   0.661   6.290   3.255  0.5862  0.2698  0.0886
 8907TIP3    H126685   0.709   6.234   3.316 -0.3328 -0.8588 -0.1887
 8907TIP3    H226686   0.662   6.376   3.296  2.0087  0.0604  0.5502
 8908TIP3   OH226687   4.661   2.177   1.094  0.0418 -0.0655  0.1791
 8908TIP3    H126688   4.708   2.260   1.089 -0.4400  0.1250 -1.9523
 8908TIP3    H226689   4.581   2.198   1.143 -0.4383  0.9455 -0.9837
 8909TIP3   OH226690   4.886   0.264   0.354 -0.4821 -0.0464  0.0062
 8909TIP3    H126691   4.857   0.285   0.443 -0.7612  1.7834 -0.4790
 8909TIP3    H226692   4.917   0.347   0.319 -0.4416 -0.7254 -1.6392
 8910TIP3   OH226693   2.971   5.090   5.691 -0.3219  0.1230 -0.5425
 8910TIP3    H126694   2.996   5.067   5.780  1.0596 -1.0694 -1.1957
 8910TIP3    H226695   2.884   5.051   5.680  0.5179 -1.9170 -0.4676
 8911TIP3   OH226696   0.957   4.560   2.535 -0.5946  0.0838  0.0614
 8911TIP3    H126697   0.961   4.496   2.606  0.8637  0.4113  0.2988
 8911TIP3    H226698   1.036   4.543   2.483 -0.1004  1.7582  0.2135
 8912TIP3   OH226699   0.112   5.307   3.934 -0.0846  0.5493 -0.4989
 8912TIP3    H126700   0.089   5.214   3.938  0.0590  0.5412  0.1311
 8912TIP3    H226701   0.206   5.308   3.920  0.0091  0.6052  0.1378
 8913TIP3   OH226702   1.655   6.524   5.482  0.0212  0.3908 -0.0555
 8913TIP3    H126703   1.638   6.447   5.427 -1.5400 -0.6139  1.7156
 8913TIP3    H226704   1.588   6.587   5.456  0.5735  0.7212 -0.7023
 8914TIP3   OH226705   3.126   5.421   1.093  0.4347  0.5898 -0.0547
 8914TIP3    H126706   3.216   5.423   1.126  0.2358 -2.1769  0.9611
 8914TIP3    H226707   3.080   5.486   1.144  1.1938 -0.2655  1.8080
 8915TIP3   OH226708   5.589   0.621   5.500 -0.3866 -0.0908  0.6306
 8915TIP3    H126709   5.519   0.686   5.497 -1.0138 -0.7786 -1.7921
 8915TIP3    H226710   5.652   0.657   5.564 -1.0015  2.5812 -0.1185
 8916TIP3   OH226711   3.430   6.574   4.785 -0.4726 -0.8680 -0.0152
 8916TIP3    H126712   3.474   6.651   4.822  0.6325 -1.1723 -0.6495
 8916TIP3    H226713   3.338   6.599   4.780 -0.5897 -0.6038  2.3861
 8917TIP3   OH226714   7.163   4.924   0.683 -0.7425  0.3524  0.0092
 8917TIP3    H126715   7.090   4.981   0.709  0.8350  2.0908  0.8173
 8917TIP3    H226716   7.229   4.938   0.750  0.9219 -0.0513 -1.4819
 8918TIP3   OH226717   5.046   1.715   5.005 -0.1307 -0.5925 -0.0775
 8918TIP3    H126718   4.990   1.792   4.996 -0.6833 -0.9893 -0.0338
 8918TIP3    H226719   5.011   1.651   4.943  1.1096 -0.3702 -1.0620
 8919TIP3   OH226720   4.205   0.509   0.144  0.2551  0.7623  0.6036
 8919TIP3    H126721   4.143   0.437   0.153  1.5234 -0.4675 -0.1700
 8919TIP3    H226722   4.230   0.531   0.233 -0.1562  0.2668  0.8445
 8920TIP3   OH226723   7.053   1.593   2.297  0.3387 -0.1189  0.5140
 8920TIP3    H126724   7.083   1.648   2.369 -0.2540  0.7154  0.1469
 8920TIP3    H226725   7.010   1.654   2.237 -0.8835 -1.0606  0.3861
 8921TIP3   OH226726   0.081   1.387   5.514  0.0916  0.8089  0.2400
 8921TIP3    H126727   0.150   1.449   5.536  1.2992 -0.7512  1.0771
 8921TIP3    H226728   0.056   1.348   5.597 -0.0744 -0.3670 -0.3399
 8922TIP3   OH226729   4.134   4.449   3.472  0.4899 -0.0029  0.0107
 8922TIP3    H126730   4.084   4.379   3.429  1.5375 -0.3066 -0.7561
 8922TIP3    H226731   4.107   4.529   3.426  0.2160 -0.0720  0.0488
 8923TIP3   OH226732   4.225   1.561   5.818 -0.3201  0.1522  0.1353
 8923TIP3    H126733   4.172   1.641   5.822 -0.3122  0.3968 -2.5242
 8923TIP3    H226734   4.167   1.492   5.850 -1.6837  0.6907 -1.0564
 8924TIP3   OH226735   6.200   2.112   2.568  0.8015 -0.4632  0.0540
 8924TIP3    H126736   6.161   2.030   2.599 -1.0504  0.0548 -0.7261
 8924TIP3    H226737   6.189   2.109   2.473 -0.3851  1.1505  0.0872
 8925TIP3   OH226738   4.240   6.086   1.489 -0.8785 -0.0164 -0.2668
 8925TIP3    H126739   4.307   6.022   1.466  1.0898  1.0671  1.9655
 8925TIP3    H226740   4.224   6.134   1.408  3.1720  1.4676 -0.4125
 8926TIP3   OH226741   6.409   6.245   3.323 -0.0812  0.2717 -0.1223
 8926TIP3    H126742   6.337   6.196   3.363  0.8626 -0.1171  1.1553
 8926TIP3    H226743   6.488   6.205   3.359  0.7451  3.0816  1.4964
 8927TIP3   OH226744   6.462   2.174   0.326  0.5389 -0.0915 -0.2268
 8927TIP3    H126745   6.390   2.158   0.387  0.6333 -1.9241 -0.5400
 8927TIP3    H226746   6.476   2.090   0.283  1.6912  0.6947 -1.4684
 8928TIP3   OH226747   0.550   4.687   4.906  0.2775  0.4405 -0.2645
 8928TIP3    H126748   0.581   4.771   4.939  0.3788  0.2510  0.1294
 8928TIP3    H226749   0.601   4.622   4.954 -0.9472  0.1084  0.6412
 8929TIP3   OH226750   1.160   6.351   2.086  0.0025  0.3542 -0.0143
 8929TIP3    H126751   1.136   6.300   2.163  2.8357 -0.5148  0.3869
 8929TIP3    H226752   1.088   6.335   2.024 -0.6054 -1.8294  1.1384
 8930TIP3   OH226753   2.116   4.963   0.641  0.0830 -0.3902 -0.0166
 8930TIP3    H126754   2.206   4.981   0.614  0.0991  0.1234  0.3897
 8930TIP3    H226755   2.086   5.044   0.682  0.0891 -1.1944  1.6301
 8931TIP3   OH226756   2.196   2.551   0.158  0.3566  0.2217 -0.2208
 8931TIP3    H126757   2.186   2.603   0.238  2.2657 -0.7449  0.7135
 8931TIP3    H226758   2.170   2.462   0.184  2.3685 -0.4123 -0.2056
 8932TIP3   OH226759   4.841   6.019   4.957 -0.1978 -0.6599  0.0081
 8932TIP3    H126760   4.804   6.099   4.920 -0.9341 -0.7964  0.4214
 8932TIP3    H226761   4.796   6.008   5.041  1.8642 -0.0481  1.2668
 8933TIP3   OH226762   4.419   0.836   3.019 -0.3305  0.5873  0.4388
 8933TIP3    H126763   4.324   0.846   3.010 -0.7420 -2.5446  0.0941
 8933TIP3    H226764   4.455   0.883   2.944 -1.7567  0.5129 -0.3283
 8934TIP3   OH226765   3.050   2.783   0.868  0.0542 -0.0690  0.0539
 8934TIP3    H126766   3.138   2.799   0.901  0.4574 -0.0863 -0.9825
 8934TIP3    H226767   3.061   2.716   0.801 -0.8668 -0.6757  0.4862
 8935TIP3   OH226768   1.964   6.556   3.751  0.1050 -0.0581  0.0174
 8935TIP3    H126769   1.959   6.647   3.723  3.2840  0.1179 -0.3787
 8935TIP3    H226770   2.041   6.553   3.808 -0.0704 -2.4388  0.2182
 8936TIP3   OH226771   3.866   3.897   0.077 -0.0713 -0.5709 -0.1451
 8936TIP3    H126772   3.794   3.892   0.138 -0.1320 -1.8093 -0.3057
 8936TIP3    H226773   3.900   3.986   0.087 -1.4008 -0.0791  0.1576
 8937TIP3   OH226774   0.210   3.222   1.243 -0.4922 -0.1193  0.0927
 8937TIP3    H126775   0.135   3.167   1.221 -1.0570  0.5954  0.2026
 8937TIP3    H226776   0.173   3.308   1.264  0.3368  0.2013  0.3263
 8938TIP3   OH226777   6.161   1.693   1.932 -0.4301 -0.1910  0.2921
 8938TIP3    H126778   6.179   1.780   1.896  1.0185 -1.1723 -1.5024
 8938TIP3    H226779   6.248   1.658   1.954 -0.9662 -1.3175  0.6725
 8939TIP3   OH226780   1.634   1.819   1.538  0.2461  0.8499  0.1182
 8939TIP3    H126781   1.662   1.909   1.526 -0.1954  1.0511  0.5877
 8939TIP3    H226782   1.548   1.825   1.580  0.8540  0.1977  1.5304
 8940TIP3   OH226783   3.593   1.654   2.265  0.2411  0.2756 -0.1028
 8940TIP3    H126784   3.626   1.636   2.353  0.1186  0.3460 -0.0432
 8940TIP3    H226785   3.653   1.720   2.231 -0.1532  0.7925  0.2021
 8941TIP3   OH226786   5.340   4.655   3.853 -0.0353  0.0915  0.0522
 8941TIP3    H126787   5.395   4.729   3.829 -0.9452  0.3466 -1.3778
 8941TIP3    H226788   5.387   4.578   3.821 -1.7220  0.4659 -4.0396
 8942TIP3   OH226789   6.222   0.712   3.410  0.7537 -0.0558 -0.1998
 8942TIP3    H126790   6.169   0.717   3.331 -0.4210  0.1723  0.5638
 8942TIP3    H226791   6.200   0.792   3.458  1.0380 -0.4408  0.5899
 8943TIP3   OH226792   5.569   1.091   3.562  0.0526  0.2536 -0.1485
 8943TIP3    H126793   5.547   1.164   3.504  3.1899  0.9168 -0.7140
 8943TIP3    H226794   5.581   1.133   3.648  0.3829  0.1606 -0.1479
 8944TIP3   OH226795   2.203   6.210   0.285 -0.4432 -0.4290 -0.5741
 8944TIP3    H126796   2.264   6.277   0.316  0.7158 -2.0024  0.7452
 8944TIP3    H226797   2.118   6.253   0.283  0.1806  0.9326  0.7674
 8945TIP3   OH226798   6.778   6.569   2.407 -0.3183  0.2930 -0.8492
 8945TIP3    H126799   6.708   6.524   2.453  0.5904  1.1128  1.5145
 8945TIP3    H226800   6.816   6.628   2.473  0.4897  2.2688 -2.9417
 8946TIP3   OH226801   1.988   3.628   4.516  0.0315  0.3365 -0.0421
 8946TIP3    H126802   2.041   3.635   4.437 -0.9013  2.1624 -0.5570
 8946TIP3    H226803   1.901   3.603   4.486 -0.4664  1.5520  0.3147
 8947TIP3   OH226804   5.078   6.287   2.608 -0.1807  0.1346 -0.1593
 8947TIP3    H126805   4.994   6.255   2.643 -0.6207  1.6697  0.2526
 8947TIP3    H226806   5.075   6.264   2.515  0.2541 -2.4433  0.3670
 8948TIP3   OH226807   6.368   1.172   5.345  0.2883  0.0001  0.3261
 8948TIP3    H126808   6.341   1.156   5.436  0.6544  1.8467  0.8144
 8948TIP3    H226809   6.296   1.138   5.292 -0.5422  0.0621  1.3830
 8949TIP3   OH226810   1.018   2.401   0.558  0.5135  0.2458 -0.6001
 8949TIP3    H126811   0.961   2.476   0.540  2.1140  1.2628 -1.6665
 8949TIP3    H226812   1.107   2.437   0.553  1.2680 -1.2389  1.2566
 8950TIP3   OH226813   5.466   6.211   1.295  0.3444 -0.2573  0.1175
 8950TIP3    H126814   5.533   6.145   1.309 -0.7797 -1.3461  0.5642
 8950TIP3    H226815   5.430   6.192   1.208  2.6157  2.2287 -1.5468
 8951TIP3   OH226816   1.982   3.787   4.741 -0.5014  0.6079  0.4417
 8951TIP3    H126817   1.896   3.830   4.740 -0.7407  0.2581  2.3669
 8951TIP3    H226818   1.975   3.719   4.674 -1.8960  0.2822  0.8823
 8952TIP3   OH226819   0.807   1.984   2.473 -0.2615 -0.1582  0.2345
 8952TIP3    H126820   0.827   1.969   2.380 -2.4965 -0.8027 -0.2016
 8952TIP3    H226821   0.855   2.064   2.495  2.5215 -1.4454 -0.6754
 8953TIP3   OH226822   6.640   1.113   4.122  0.1671  0.0832  0.0158
 8953TIP3    H126823   6.678   1.119   4.034 -0.5303 -1.1112 -0.3963
 8953TIP3    H226824   6.705   1.064   4.172  0.0203 -0.3257 -0.1844
 8954TIP3   OH226825   0.567   5.475   4.068  0.7544 -0.1955  0.2527
 8954TIP3    H126826   0.545   5.559   4.107 -1.2072 -1.9782  3.5042
 8954TIP3    H226827   0.550   5.486   3.974 -0.1686  2.7563  0.6633
 8955TIP3   OH226828   4.675   0.740   4.270 -0.2353  0.3692 -0.1482
 8955TIP3    H126829   4.598   0.797   4.261 -0.5527  0.0936  0.7111
 8955TIP3    H226830   4.659   0.669   4.208 -0.6273  0.3693 -0.0547
 8956TIP3   OH226831   3.156   1.642   1.780 -0.5816 -0.4065 -0.3046
 8956TIP3    H126832   3.152   1.548   1.763 -0.7535 -0.8339  1.8668
 8956TIP3    H226833   3.237   1.654   1.829  0.0175  0.7835 -1.5281
 8957TIP3   OH226834   6.194   0.935   5.287  0.3671  0.1320  0.1305
 8957TIP3    H126835   6.233   0.857   5.325  1.2537  0.4681 -0.0813
 8957TIP3    H226836   6.129   0.963   5.352  0.9777 -0.0246  0.8242
 8958TIP3   OH226837   6.476   4.550   1.151 -0.8046  0.1833  0.2132
 8958TIP3    H126838   6.455   4.551   1.244 -0.3435  1.7542  0.3232
 8958TIP3    H226839   6.494   4.458   1.131 -1.8878 -0.3176  1.4365
 8959TIP3   OH226840   5.616   4.637   2.685  0.0172  0.0747  0.4110
 8959TIP3    H126841   5.604   4.732   2.684  0.0500  0.0797 -0.1849
 8959TIP3    H226842   5.595   4.611   2.775  1.5632  0.8326  1.0163
 8960TIP3   OH226843   3.875   4.001   4.243 -0.1028  0.5070 -0.4529
 8960TIP3    H126844   3.793   3.953   4.255 -1.1592  2.1498 -0.7197
 8960TIP3    H226845   3.942   3.944   4.279 -1.3969 -0.8005 -0.0311
 8961TIP3   OH226846   3.867   5.546   2.285  0.3099 -0.7430 -0.5961
 8961TIP3    H126847   3.930   5.533   2.356 -0.3666 -0.4502  0.0774
 8961TIP3    H226848   3.835   5.636   2.297 -0.3029 -0.9170 -0.8636
 8962TIP3   OH226849   6.610   3.825   3.880 -0.0114 -0.4063  0.3893
 8962TIP3    H126850   6.549   3.898   3.868 -0.0184  0.5263  4.7915
 8962TIP3    H226851   6.696   3.861   3.857 -0.2482  0.4010  0.7353
 8963TIP3   OH226852   3.616   6.409   4.968 -0.3460  0.0057 -0.2212
 8963TIP3    H126853   3.697   6.448   5.001  0.1172 -0.6426 -0.5751
 8963TIP3    H226854   3.573   6.480   4.921  1.9303 -0.5476 -3.4976
 8964TIP3   OH226855   0.265   6.437   4.544  0.1668  0.4895 -0.2801
 8964TIP3    H126856   0.195   6.385   4.506 -0.6015  2.6770 -2.0571
 8964TIP3    H226857   0.334   6.436   4.478 -0.7248  3.3991 -1.3817
 8965TIP3   OH226858   1.114   6.234   5.433  0.3201 -0.1934  0.8889
 8965TIP3    H126859   1.114   6.179   5.355  1.3826 -1.3547  1.6847
 8965TIP3    H226860   1.162   6.313   5.406  0.9802 -0.7325  0.4505
 8966TIP3   OH226861   2.700   5.172   3.698 -0.3345  0.1775  0.1419
 8966TIP3    H126862   2.762   5.245   3.693  0.1920 -0.2723 -0.1085
 8966TIP3    H226863   2.622   5.209   3.739 -0.5564  1.2091 -1.1238
 8967TIP3   OH226864   3.638   4.981   5.713  0.0652 -0.3631 -0.6532
 8967TIP3    H126865   3.635   4.886   5.728  1.7563 -0.4400 -0.5939
 8967TIP3    H226866   3.705   5.013   5.774 -1.2098  1.0437  0.0640
 8968TIP3   OH226867   0.088   3.425   2.831  0.1358 -0.2327 -0.1921
 8968TIP3    H126868  -0.005   3.400   2.830  0.4471 -1.5177 -1.2720
 8968TIP3    H226869   0.100   3.472   2.913 -1.4008 -0.3497  0.1301
 8969TIP3   OH226870   2.398   6.573   1.432 -0.1263  0.0013  0.1193
 8969TIP3    H126871   2.445   6.493   1.407 -0.1433  0.3714 -1.1872
 8969TIP3    H226872   2.306   6.549   1.427 -0.2487  0.6527 -2.5908
 8970TIP3   OH226873   3.787   4.705   2.499  0.3716 -0.0673 -0.2530
 8970TIP3    H126874   3.759   4.722   2.589 -0.1223 -0.2040 -0.3746
 8970TIP3    H226875   3.710   4.667   2.457  0.9026 -0.9449 -0.4630
 8971TIP3   OH226876   4.426   3.463   0.946  0.4553  0.4253  0.6163
 8971TIP3    H126877   4.436   3.557   0.959  0.5770  0.5667 -0.4526
 8971TIP3    H226878   4.352   3.454   0.886  1.1879 -0.1048 -0.2162
 8972TIP3   OH226879   3.042   1.615   4.000 -0.3304 -0.9250 -0.1634
 8972TIP3    H126880   3.000   1.601   3.915 -0.0103 -1.0160 -0.3086
 8972TIP3    H226881   2.971   1.645   4.058 -0.3410  0.2878 -0.7618
 8973TIP3   OH226882   3.249   2.438   2.796  0.3640  0.3335 -0.8231
 8973TIP3    H126883   3.173   2.433   2.738  0.1892 -1.4465 -0.5076
 8973TIP3    H226884   3.309   2.371   2.764  0.5532 -0.2350  0.6284
 8974TIP3   OH226885   6.177   3.535   4.395  0.2136 -0.1687 -0.6074
 8974TIP3    H126886   6.094   3.548   4.350 -0.0168 -0.4650 -0.2743
 8974TIP3    H226887   6.237   3.596   4.353  0.4543 -1.6096 -2.5089
 8975TIP3   OH226888   0.625   2.983   2.582 -0.6351 -0.0612  0.1464
 8975TIP3    H126889   0.681   2.938   2.644  0.3305  1.2315  0.2695
 8975TIP3    H226890   0.659   3.073   2.580 -1.6616  0.3357 -1.0317
 8976TIP3   OH226891   2.631   3.891   2.354  0.7167  0.1758  0.4823
 8976TIP3    H126892   2.624   3.828   2.281  1.3160  1.2375 -0.5231
 8976TIP3    H226893   2.656   3.837   2.429  0.3588 -0.9150 -0.1505
 8977TIP3   OH226894   5.820   0.894   4.288  0.7269  0.3987 -0.8057
 8977TIP3    H126895   5.873   0.882   4.366  0.9542  1.4560 -0.7771
 8977TIP3    H226896   5.743   0.840   4.303  2.1947 -1.9636 -1.2837
 8978TIP3   OH226897   0.798   4.645   5.677 -0.2236  0.2525  0.4272
 8978TIP3    H126898   0.847   4.628   5.758 -2.7624 -1.6924  1.6973
 8978TIP3    H226899   0.792   4.740   5.672 -1.7513  0.4680  3.7795
 8979TIP3   OH226900   5.360   5.708   3.131  0.7730  0.2481 -0.2888
 8979TIP3    H126901   5.356   5.699   3.226 -0.5713 -0.3061 -0.3618
 8979TIP3    H226902   5.417   5.637   3.102 -1.7921 -2.0605 -0.1135
 8980TIP3   OH226903   1.358   0.410   2.389 -0.0030 -0.0423 -0.2264
 8980TIP3    H126904   1.335   0.381   2.301  0.0212 -0.9985  0.0658
 8980TIP3    H226905   1.273   0.427   2.431 -0.1701 -1.8490  0.2826
 8981TIP3   OH226906   2.333   2.058   1.119  0.0491 -0.3756 -0.2655
 8981TIP3    H126907   2.353   2.034   1.210  1.4104 -1.2816 -0.7615
 8981TIP3    H226908   2.390   2.001   1.067  0.5343  1.3018 -1.6447
 8982TIP3   OH226909   6.080   5.461   2.707 -0.4773 -0.4798  0.7963
 8982TIP3    H126910   6.123   5.411   2.775 -3.1754 -1.2882  2.0436
 8982TIP3    H226911   6.063   5.547   2.747  0.4092  0.0256  0.1263
 8983TIP3   OH226912   1.105   0.210   2.467 -0.4498 -0.1049 -1.4060
 8983TIP3    H126913   1.069   0.234   2.552 -1.4981 -1.0003 -1.5850
 8983TIP3    H226914   1.086   0.285   2.410  1.4740  1.1013 -0.5511
 8984TIP3   OH226915   3.282   0.857   3.754  0.0958 -0.2981 -0.2485
 8984TIP3    H126916   3.249   0.864   3.664 -1.7827  0.5320  0.4627
 8984TIP3    H226917   3.322   0.942   3.772 -0.0751 -0.2498 -0.0954
 8985TIP3   OH226918   3.312   3.022   0.767  0.1476 -0.7032  0.1269
 8985TIP3    H126919   3.351   3.106   0.744 -2.1820  0.6226  0.6457
 8985TIP3    H226920   3.336   3.009   0.859  2.1121 -1.6107 -0.4787
 8986TIP3   OH226921   2.972   3.055   1.619 -0.0019 -0.3933  0.2068
 8986TIP3    H126922   2.985   3.087   1.708 -0.8467 -1.2646  0.6666
 8986TIP3    H226923   2.982   3.132   1.563  2.9959 -0.2421  0.7956
 8987TIP3   OH226924   3.210   4.581   4.694 -0.1760  0.4912  0.7056
 8987TIP3    H126925   3.277   4.568   4.761  0.4854  1.8386  0.3379
 8987TIP3    H226926   3.231   4.666   4.655 -0.7383 -0.1034 -0.9884
 8988TIP3   OH226927   2.960   1.846   4.437 -0.1336 -0.0396  0.0306
 8988TIP3    H126928   3.035   1.905   4.443 -0.3335  0.1868  0.3221
 8988TIP3    H226929   2.884   1.903   4.436 -0.3064 -0.2677 -0.3058
 8989TIP3   OH226930   6.491   4.566   3.330  0.1474  0.2940  0.4393
 8989TIP3    H126931   6.516   4.628   3.261  1.4509  1.0740  1.5630
 8989TIP3    H226932   6.398   4.548   3.314  0.1030  1.4424 -0.7509
 8990TIP3   OH226933   2.463   2.626   1.717 -0.6453  0.1217 -0.0183
 8990TIP3    H126934   2.544   2.613   1.667 -1.1681  0.1437 -0.8852
 8990TIP3    H226935   2.450   2.543   1.763  0.2233  0.3468  0.6718
 8991TIP3   OH226936   2.716   6.612   5.045  0.0567 -0.0541 -0.0128
 8991TIP3    H126937   2.752   6.541   5.098 -0.6930 -0.1045  0.4479
 8991TIP3    H226938   2.756   6.691   5.081  1.2520 -0.2623 -0.8289
 8992TIP3   OH226939   5.873   3.613   1.273 -0.1308 -0.4004 -0.3366
 8992TIP3    H126940   5.870   3.692   1.218 -0.0571  0.5677  1.0031
 8992TIP3    H226941   5.827   3.638   1.353 -0.6856 -1.9446 -0.1416
 8993TIP3   OH226942   6.066   2.278   4.986 -0.5677  0.3391 -0.5020
 8993TIP3    H126943   6.078   2.340   4.914 -0.4653  1.0192  0.0880
 8993TIP3    H226944   5.989   2.310   5.033 -1.3128 -0.7399 -0.9486
 8994TIP3   OH226945   0.837   1.143   5.820  0.2462  0.3707  0.4026
 8994TIP3    H126946   0.871   1.064   5.862 -0.2838 -0.1819 -0.1882
 8994TIP3    H226947   0.745   1.147   5.848 -0.0802  0.0653 -0.5745
 8995TIP3   OH226948   4.169   3.934   2.360 -0.1742  0.3855  0.2469
 8995TIP3    H126949   4.115   3.989   2.304 -1.4809 -3.1015 -2.3507
 8995TIP3    H226950   4.116   3.856   2.375  1.5002 -0.2954  3.6843
 8996TIP3   OH226951   5.484   2.783   2.822  0.8998 -0.1780 -0.2688
 8996TIP3    H126952   5.458   2.779   2.730 -0.2116 -0.1053  0.0359
 8996TIP3    H226953   5.529   2.700   2.838 -0.8607 -1.1784 -0.3046
 8997TIP3   OH226954   5.483   1.349   5.166 -0.1523  0.0602  0.4045
 8997TIP3    H126955   5.507   1.417   5.103 -0.4514  0.2736  0.5158
 8997TIP3    H226956   5.387   1.350   5.167 -0.2332 -1.5082 -0.8369
 8998TIP3   OH226957   1.005   0.373   5.475 -0.3879  0.4679 -0.0027
 8998TIP3    H126958   1.096   0.361   5.499 -0.6105 -0.0601  0.6103
 8998TIP3    H226959   0.955   0.344   5.551 -1.0540  3.3957  0.8337
 8999TIP3   OH226960   2.238   2.838   2.925  0.2181  0.2515 -0.1998
 8999TIP3    H126961   2.275   2.872   2.843  0.7161  0.2814  0.0311
 8999TIP3    H226962   2.201   2.914   2.969 -1.1817  0.0373 -0.9693
 9000TIP3   OH226963   0.418   1.248   0.452 -0.0782 -0.0211  0.4056
 9000TIP3    H126964   0.471   1.328   0.458  2.1082 -1.4074  0.3906
 9000TIP3    H226965   0.364   1.249   0.531  0.0647  1.3540  0.5144
 9001TIP3   OH226966   2.769   5.415   4.010  0.1403  0.7791  0.7700
 9001TIP3    H126967   2.783   5.366   4.091  3.0996  0.2703  0.0811
 9001TIP3    H226968   2.719   5.356   3.954  0.6267 -0.0710  1.2076
 9002TIP3   OH226969   4.996   1.278   4.355 -0.1175 -1.0321  0.5112
 9002TIP3    H126970   4.943   1.237   4.423  0.3419 -1.7894  0.4293
 9002TIP3    H226971   4.996   1.214   4.283 -0.1035 -0.5078  0.0349
 9003TIP3   OH226972   3.441   2.966   1.539 -0.4121 -0.0169 -0.2011
 9003TIP3    H126973   3.450   3.055   1.573 -0.3728 -0.5745  1.3277
 9003TIP3    H226974   3.445   2.910   1.617  0.4094 -1.4180 -1.2094
 9004TIP3   OH226975   1.170   2.075   2.387  0.4524  0.2592  0.0659
 9004TIP3    H126976   1.257   2.066   2.426  0.1192  1.0112  1.0172
 9004TIP3    H226977   1.165   2.167   2.363 -0.3989  0.4207  0.8142
 9005TIP3   OH226978   2.731   6.646   1.289  0.4267 -0.2116  0.2643
 9005TIP3    H126979   2.787   6.662   1.214  0.4544 -0.1468  0.2995
 9005TIP3    H226980   2.735   6.726   1.341 -0.0133 -0.0520  0.0637
 9006TIP3   OH226981   5.255   0.652   4.930 -0.5398 -0.0578  0.1811
 9006TIP3    H126982   5.281   0.725   4.986  0.6922  0.9986 -1.6576
 9006TIP3    H226983   5.278   0.574   4.980 -0.6033  0.8120  1.6234
 9007TIP3   OH226984   4.169   4.133   3.746 -0.0799 -0.6309 -0.1468
 9007TIP3    H126985   4.077   4.153   3.727  0.3371  1.2428 -0.3463
 9007TIP3    H226986   4.203   4.095   3.665 -0.4040 -0.3417 -0.4174
 9008TIP3   OH226987   3.917   2.476   2.160 -0.5005  0.1816 -0.1302
 9008TIP3    H126988   3.924   2.569   2.138 -0.6825  0.7191  1.8492
 9008TIP3    H226989   4.006   2.443   2.147 -0.6058  0.4050 -1.6326
 9009TIP3   OH226990   2.985   4.084   1.653 -0.9009  0.5015  0.6211
 9009TIP3    H126991   2.955   4.168   1.618  0.2296  0.8571  0.4979
 9009TIP3    H226992   2.990   4.098   1.748  0.9194  1.1290  0.4671
 9010TIP3   OH226993   3.702   3.491   4.707 -0.2952 -0.5264 -0.5005
 9010TIP3    H126994   3.689   3.431   4.780 -0.6553  0.4101  0.2243
 9010TIP3    H226995   3.623   3.481   4.653 -0.7606 -0.0638  0.0890
 9011TIP3   OH226996   2.121   6.422   4.965  0.1971  0.2742 -0.0792
 9011TIP3    H126997   2.204   6.430   4.918 -0.3257  2.2321 -0.7969
 9011TIP3    H226998   2.114   6.329   4.987  2.0576 -0.1154 -0.9390
 9012TIP3   OH226999   6.353   1.308   1.566 -0.1361  0.1938 -0.4956
 9012TIP3    H127000   6.422   1.363   1.602  0.1168  1.8980 -3.2773
 9012TIP3    H227001   6.377   1.219   1.592  0.9876  1.0767  1.7665
 9013TIP3   OH227002   2.385   3.975   0.018  0.1700 -0.3189  0.0090
 9013TIP3    H127003   2.321   3.918   0.061 -0.2194 -0.2454 -0.4630
 9013TIP3    H227004   2.425   4.025   0.089 -0.4269 -0.2343  0.2895
 9014TIP3   OH227005   0.731   5.910   2.404 -0.0367  0.6023  0.0827
 9014TIP3    H127006   0.653   5.854   2.408 -0.2063  0.5548 -2.3734
 9014TIP3    H227007   0.781   5.888   2.482 -0.3889 -2.5706 -0.4569
 9015TIP3   OH227008   3.559   1.240   5.634 -0.0944  0.0525 -0.0985
 9015TIP3    H127009   3.573   1.198   5.718  1.9887  1.1702  0.1919
 9015TIP3    H227010   3.647   1.265   5.605 -0.8967  0.9597 -1.9359
 9016TIP3   OH227011   4.558   6.039   3.568  0.4202 -0.2036 -0.0593
 9016TIP3    H127012   4.562   6.128   3.531 -0.3607  0.4006  1.2614
 9016TIP3    H227013   4.470   6.031   3.603  0.6929 -1.2769  0.4287
 9017TIP3   OH227014   0.565   6.763   1.220  0.0027 -0.0571 -0.5561
 9017TIP3    H127015   0.506   6.810   1.160 -0.9226  0.5224  0.7657
 9017TIP3    H227016   0.621   6.711   1.162  0.8145  2.3586 -2.0684
 9018TIP3   OH227017   6.683   5.777   4.672  0.6778 -0.1106 -0.1413
 9018TIP3    H127018   6.671   5.795   4.579  2.0104  0.6985 -0.1809
 9018TIP3    H227019   6.594   5.765   4.706  0.2006 -0.8587 -1.5859
 9019TIP3   OH227020   2.787   6.144   5.568  0.9264  0.1006 -0.3260
 9019TIP3    H127021   2.785   6.055   5.532  1.0978 -0.1782  0.3297
 9019TIP3    H227022   2.702   6.182   5.544  1.1898  0.0541 -1.3327
 9020TIP3   OH227023   4.092   0.979   1.105 -0.4693  0.3779  0.2594
 9020TIP3    H127024   4.030   0.910   1.080 -0.6709  0.1656  1.2743
 9020TIP3    H227025   4.140   0.941   1.179 -0.1268  1.0827  0.4056
 9021TIP3   OH227026   6.914   1.134   1.658  0.2822 -0.0262 -0.5382
 9021TIP3    H127027   6.974   1.122   1.583 -0.7616 -0.4436 -1.3296
 9021TIP3    H227028   6.969   1.173   1.726  1.5697 -0.8458 -1.0754
 9022TIP3   OH227029   6.757   1.622   2.111  0.2334  0.0201  0.5136
 9022TIP3    H127030   6.833   1.679   2.110  0.1325  0.1536  0.4650
 9022TIP3    H227031   6.745   1.595   2.020 -1.0196  1.6517  0.1554
 9023TIP3   OH227032   1.793   1.672   3.628  0.4315  0.2935 -0.4530
 9023TIP3    H127033   1.827   1.591   3.666 -1.0578 -0.2097 -0.1369
 9023TIP3    H227034   1.776   1.728   3.704  0.1238  0.3578 -0.5685
 9024TIP3   OH227035   5.367   0.223   1.444  0.6613  0.4867 -0.1216
 9024TIP3    H127036   5.422   0.215   1.366  1.8847 -0.7021  0.8054
 9024TIP3    H227037   5.427   0.256   1.511 -0.2819  1.1437  0.4058
 9025TIP3   OH227038   6.102   2.179   0.541 -0.3142  0.3243 -0.0191
 9025TIP3    H127039   6.026   2.237   0.537 -0.9715  0.0903  4.3489
 9025TIP3    H227040   6.177   2.238   0.528 -1.0152  2.1571  3.1769
 9026TIP3   OH227041   3.844   0.064   3.166  0.3086 -0.1904  0.0186
 9026TIP3    H127042   3.807   0.121   3.098  0.1131  0.1147  0.3741
 9026TIP3    H227043   3.890  -0.004   3.117  1.9390  1.1524 -0.4346
 9027TIP3   OH227044   5.603   0.742   4.339  0.1788 -0.1342  0.3754
 9027TIP3    H127045   5.537   0.732   4.408 -1.4732  0.2568 -1.0811
 9027TIP3    H227046   5.602   0.659   4.293  0.1371  0.1440 -0.1308
 9028TIP3   OH227047   7.208   3.337   0.622  0.3893 -0.1238 -0.2079
 9028TIP3    H127048   7.139   3.277   0.652 -1.4500  2.6975  1.6824
 9028TIP3    H227049   7.201   3.336   0.526 -1.4164 -0.8833 -0.1010
 9029TIP3   OH227050   4.884   3.212   4.960 -0.1550  0.0264 -0.1601
 9029TIP3    H127051   4.903   3.237   5.050  2.2618 -1.1223 -0.2663
 9029TIP3    H227052   4.880   3.295   4.912 -0.8136  0.6033  0.8547
 9030TIP3   OH227053   5.689   0.822   5.690 -0.3493  0.2837 -0.2371
 9030TIP3    H127054   5.750   0.837   5.762 -1.0416  2.2379  0.0160
 9030TIP3    H227055   5.628   0.756   5.724 -0.3327  0.7659  0.7706
 9031TIP3   OH227056   2.039   3.319   1.239 -0.6554  0.3225 -0.0440
 9031TIP3    H127057   2.104   3.257   1.272 -0.4630 -0.4968 -1.8356
 9031TIP3    H227058   1.956   3.272   1.242 -0.6241  0.2141 -0.7666
 9032TIP3   OH227059   6.318   1.353   4.590  0.5126 -0.0580  0.2453
 9032TIP3    H127060   6.367   1.325   4.668  0.7036 -1.7029 -0.4293
 9032TIP3    H227061   6.297   1.272   4.544 -3.0501  0.5252  0.5632
 9033TIP3   OH227062   7.060   2.393   4.556  0.3593 -0.5570  0.2807
 9033TIP3    H127063   7.096   2.482   4.559  0.7677 -0.7336  1.5048
 9033TIP3    H227064   6.998   2.394   4.483  1.4115  0.3166 -0.6212
 9034TIP3   OH227065   0.372   3.305   3.434 -0.0955 -0.2452 -0.7472
 9034TIP3    H127066   0.402   3.249   3.506 -0.3732  0.1904 -0.2907
 9034TIP3    H227067   0.277   3.309   3.445 -0.1985 -0.5844 -1.4418
 9035TIP3   OH227068   2.891   6.058   1.974 -0.0771  0.5124  0.2305
 9035TIP3    H127069   2.915   6.123   1.908  0.7315 -0.5715 -0.5968
 9035TIP3    H227070   2.874   5.978   1.924 -0.1484 -0.1588  1.2823
 9036TIP3   OH227071   6.050   5.787   4.975 -0.1636  0.0429 -0.2174
 9036TIP3    H127072   5.958   5.768   4.954  0.1945  0.3308 -2.2178
 9036TIP3    H227073   6.051   5.881   4.993  0.0167  0.4535 -2.1498
 9037TIP3   OH227074   5.197   1.866   2.891 -0.3657  0.2498  0.0034
 9037TIP3    H127075   5.112   1.900   2.919 -0.0333  1.2136 -0.1221
 9037TIP3    H227076   5.251   1.944   2.878 -0.1333 -0.2086 -2.1694
 9038TIP3   OH227077   5.067   0.497   2.641  0.5435  0.6031  0.2439
 9038TIP3    H127078   5.108   0.538   2.718  0.8211  1.4839 -0.3684
 9038TIP3    H227079   5.021   0.421   2.677  1.5596  0.3787  1.1472
 9039TIP3   OH227080   5.239   3.145   0.853 -0.3345 -0.5618  0.2082
 9039TIP3    H127081   5.234   3.052   0.874 -0.5381 -0.6271 -0.1206
 9039TIP3    H227082   5.151   3.168   0.824  0.0859 -0.6389 -1.2042
 9040TIP3   OH227083   4.338   1.656   5.573 -0.0131 -0.3554 -0.0175
 9040TIP3    H127084   4.353   1.614   5.658 -0.6859  1.8105  1.2550
 9040TIP3    H227085   4.403   1.725   5.568 -0.0434 -0.3886 -1.2503
 9041TIP3   OH227086   2.912   4.546   0.503  0.0376  0.2264 -0.7618
 9041TIP3    H127087   2.866   4.467   0.476  0.9442 -0.1373 -1.2780
 9041TIP3    H227088   2.966   4.519   0.576 -1.2599  0.8741  0.4845
 9042TIP3   OH227089   0.730   3.714   1.042  0.1492  0.4424  0.4884
 9042TIP3    H127090   0.817   3.754   1.046 -0.5667  1.9420  1.9403
 9042TIP3    H227091   0.706   3.721   0.949  1.7431 -0.4427 -0.0324
 9043TIP3   OH227092   6.383   1.858   5.711  0.0622  0.2934  0.4663
 9043TIP3    H127093   6.302   1.807   5.716  0.0772 -0.0100 -1.4079
 9043TIP3    H227094   6.359   1.934   5.658  0.9290  0.3207  0.1020
 9044TIP3   OH227095   0.792   2.412   4.746 -0.5819 -0.2115 -0.2357
 9044TIP3    H127096   0.728   2.474   4.711 -2.1484 -1.2472  0.6817
 9044TIP3    H227097   0.776   2.411   4.841  1.4517  0.1959  0.1671
 9045TIP3   OH227098   1.924   2.052   0.534  0.0693  0.2773 -0.0345
 9045TIP3    H127099   1.858   2.052   0.603  0.3396  1.4487  0.2432
 9045TIP3    H227100   1.926   2.142   0.502  0.8299  0.0321 -0.7234
 9046TIP3   OH227101   4.173   5.591   4.849  0.3248 -0.4111  0.1782
 9046TIP3    H127102   4.198   5.535   4.922 -0.0558  0.5665  1.0920
 9046TIP3    H227103   4.083   5.617   4.868 -0.1593 -0.9571 -1.1880
 9047TIP3   OH227104   3.619   0.949   2.619  0.7512 -0.6517 -0.7992
 9047TIP3    H127105   3.708   0.985   2.616  0.8720 -0.9669 -1.0370
 9047TIP3    H227106   3.570   1.010   2.674  1.2833 -0.8314 -0.1113
 9048TIP3   OH227107   5.302   3.267   1.558 -0.3016 -0.0739  0.2773
 9048TIP3    H127108   5.391   3.265   1.593  0.7124 -1.5790 -2.0977
 9048TIP3    H227109   5.260   3.190   1.597 -0.0764 -0.2064  0.2609
 9049TIP3   OH227110   3.456   4.201   4.297 -0.1229  0.5502 -0.1985
 9049TIP3    H127111   3.363   4.212   4.278 -0.3936  0.2809  0.8821
 9049TIP3    H227112   3.463   4.217   4.391  1.0709  1.4575 -0.4148
 9050TIP3   OH227113   7.097   1.952   2.492 -0.0682 -0.6061  0.2201
 9050TIP3    H127114   7.017   1.966   2.442  0.6154  1.7922 -0.3203
 9050TIP3    H227115   7.161   1.920   2.428  0.2823  0.6348 -0.0684
 9051TIP3   OH227116   4.745   0.475   0.959  0.2575  0.6806 -0.2309
 9051TIP3    H127117   4.679   0.507   0.897 -1.0789 -3.3304 -1.2036
 9051TIP3    H227118   4.786   0.401   0.913  0.2079 -1.6065  3.0901
 9052TIP3   OH227119   6.402   1.180   2.717  0.1742  0.6782 -0.1014
 9052TIP3    H127120   6.355   1.262   2.733 -1.9294 -0.3876 -0.4538
 9052TIP3    H227121   6.478   1.206   2.666 -0.8642  2.3489 -0.9112
 9053TIP3   OH227122   0.273   3.853   4.166  0.1165  0.1098 -0.4990
 9053TIP3    H127123   0.261   3.804   4.084 -0.9069 -0.5571  0.0330
 9053TIP3    H227124   0.361   3.832   4.194  0.1620 -0.3640 -0.9741
 9054TIP3   OH227125   6.885   4.831  -0.011  0.3467 -0.5282 -0.4243
 9054TIP3    H127126   6.821   4.893  -0.046  1.4141  0.5598 -0.5175
 9054TIP3    H227127   6.874   4.836   0.084 -0.0843 -0.7606 -0.4622
 9055TIP3   OH227128   2.883   2.033   1.351 -0.2072 -0.1798  0.0606
 9055TIP3    H127129   2.840   1.995   1.275 -1.0620  1.4924 -0.3353
 9055TIP3    H227130   2.822   2.016   1.423 -0.4136  0.1068 -0.0449
 9056TIP3   OH227131   1.309   0.242   2.801  0.2568 -0.3632 -0.2153
 9056TIP3    H127132   1.304   0.214   2.710  2.9216  0.0402 -0.5660
 9056TIP3    H227133   1.283   0.334   2.800  1.1117 -0.1172 -0.7359
 9057TIP3   OH227134   6.451   1.308   4.855 -0.2157  0.3961 -0.5985
 9057TIP3    H127135   6.449   1.361   4.935 -0.7898  1.2287 -1.1520
 9057TIP3    H227136   6.448   1.217   4.886  5.0531  0.3449  0.6163
 9058TIP3   OH227137   4.195   5.050   3.594  0.5729 -0.0200 -0.2386
 9058TIP3    H127138   4.115   4.997   3.595  1.2562 -1.0685 -0.1472
 9058TIP3    H227139   4.168   5.133   3.633 -0.4477 -0.4051 -0.0760
 9059TIP3   OH227140   3.744   1.710   3.714  0.2858 -0.0138 -0.9754
 9059TIP3    H127141   3.822   1.654   3.709  1.2107  1.0867  0.4710
 9059TIP3    H227142   3.722   1.712   3.807 -0.7476  0.6856 -1.2215
 9060TIP3   OH227143   5.810   2.872   5.678  0.3385  0.1415 -0.2459
 9060TIP3    H127144   5.830   2.964   5.658 -0.3434  0.0686 -1.3548
 9060TIP3    H227145   5.738   2.877   5.742 -0.6546  0.3984 -1.3494
 9061TIP3   OH227146   0.387   3.143   1.548  0.0849 -0.8757 -0.1274
 9061TIP3    H127147   0.394   3.238   1.536 -1.5590 -0.6368  0.5673
 9061TIP3    H227148   0.320   3.116   1.485  0.2907 -1.5279 -0.0725
 9062TIP3   OH227149   1.815   1.516   3.380  0.0301 -0.3715 -0.2147
 9062TIP3    H127150   1.786   1.547   3.466 -0.7583 -0.4445 -0.4482
 9062TIP3    H227151   1.859   1.592   3.341  2.1567 -0.8905  1.0111
 9063TIP3   OH227152   6.415   1.965   1.321 -0.2077 -0.3475 -0.0119
 9063TIP3    H127153   6.506   1.986   1.339 -0.3726 -0.6046  1.1851
 9063TIP3    H227154   6.402   1.878   1.358 -0.6956 -0.7404 -1.0414
 9064TIP3   OH227155   6.835   2.852   3.509 -0.1053  0.0014 -0.3340
 9064TIP3    H127156   6.901   2.847   3.440 -1.1958  0.2674 -1.4437
 9064TIP3    H227157   6.875   2.807   3.584  1.1201 -0.2811 -1.1217
 9065TIP3   OH227158   5.593   0.523   0.716  0.4527 -0.2688 -0.6055
 9065TIP3    H127159   5.615   0.584   0.786  0.3870 -1.5441  0.5751
 9065TIP3    H227160   5.500   0.504   0.729  0.7163 -1.4163 -0.2766
 9066TIP3   OH227161   4.263   1.481   0.584  0.0497 -0.5261 -0.2099
 9066TIP3    H127162   4.310   1.564   0.588 -0.4198 -0.1935 -1.1904
 9066TIP3    H227163   4.272   1.444   0.671 -0.5344  1.0074  0.5421
 9067TIP3   OH227164   6.273   0.703   1.815  0.1751  0.2665  0.2316
 9067TIP3    H127165   6.346   0.746   1.770 -0.4724 -0.0418 -1.1856
 9067TIP3    H227166   6.276   0.613   1.783 -2.5709  0.9117 -2.2691
 9068TIP3   OH227167   7.163   6.657   1.422 -0.3397  0.7938 -0.0469
 9068TIP3    H127168   7.214   6.714   1.479 -0.4490  0.6286  0.2185
 9068TIP3    H227169   7.201   6.670   1.335  2.2964 -1.6356  0.5789
 9069TIP3   OH227170   2.762   2.646   1.289 -0.1809 -0.1467  0.0291
 9069TIP3    H127171   2.819   2.659   1.214  0.4160  0.3603  0.5667
 9069TIP3    H227172   2.736   2.554   1.283  0.0440 -0.1733 -0.6574
 9070TIP3   OH227173   5.151   4.225   5.393  0.3251  0.0224 -0.3475
 9070TIP3    H127174   5.166   4.257   5.304 -0.6847 -0.7344 -0.8117
 9070TIP3    H227175   5.128   4.132   5.382  1.4393 -0.4229  0.8128
 9071TIP3   OH227176   0.475   0.335   4.168 -0.1494 -0.9264  0.0232
 9071TIP3    H127177   0.425   0.385   4.233 -0.1975 -2.4071  1.1901
 9071TIP3    H227178   0.566   0.352   4.191 -0.0794  0.7873 -1.3323
 9072TIP3   OH227179   5.962   1.647   0.242  0.4710 -0.0288 -0.4730
 9072TIP3    H127180   5.972   1.597   0.161  1.5363 -0.5978 -0.0123
 9072TIP3    H227181   6.036   1.708   0.243  0.7345 -0.3480  0.2894
 9073TIP3   OH227182   5.337   2.979   2.297 -0.1227 -0.1340 -0.3470
 9073TIP3    H127183   5.426   2.949   2.281 -0.3593 -0.2558 -1.4800
 9073TIP3    H227184   5.334   3.067   2.259 -0.1086  0.4223  0.8870
 9074TIP3   OH227185   1.183   2.507   3.149 -0.0543  0.4569 -0.7484
 9074TIP3    H127186   1.200   2.471   3.062  1.6287 -1.2673  0.1888
 9074TIP3    H227187   1.118   2.448   3.187 -0.2943  0.8086 -0.6125
 9075TIP3   OH227188   5.624   5.360   0.761 -0.3438 -0.2376  0.3308
 9075TIP3    H127189   5.696   5.320   0.809 -0.9475 -0.0654  1.4352
 9075TIP3    H227190   5.586   5.289   0.710 -0.6658 -0.8164  1.3523
 9076TIP3   OH227191   5.501   1.805   1.227  0.3249  0.1408  0.5069
 9076TIP3    H127192   5.567   1.814   1.296 -0.4799 -1.6107  1.5776
 9076TIP3    H227193   5.548   1.762   1.155  0.9596  1.2073  0.2665
 9077TIP3   OH227194   3.253   4.926   2.859 -0.6513  0.3157  0.1168
 9077TIP3    H127195   3.323   4.862   2.871 -1.1390 -0.4481 -0.9126
 9077TIP3    H227196   3.174   4.880   2.887 -1.0237  0.4094 -0.7642
 9078TIP3   OH227197   6.921   3.687   4.337 -0.0482  0.1445  0.3211
 9078TIP3    H127198   6.870   3.729   4.268 -0.4060 -2.0741 -0.8336
 9078TIP3    H227199   6.953   3.605   4.298  0.2442 -0.9009  2.5907
 9079TIP3   OH227200   1.289   3.707   2.691  0.1026 -0.3150  0.3595
 9079TIP3    H127201   1.384   3.699   2.688  0.1668  0.6996 -0.7737
 9079TIP3    H227202   1.261   3.705   2.600 -0.6432  2.5882  0.4348
 9080TIP3   OH227203   1.883   5.819   0.816  0.3252  0.2663 -0.1902
 9080TIP3    H127204   1.958   5.846   0.868 -0.5673 -0.5203  1.5878
 9080TIP3    H227205   1.880   5.724   0.826 -0.5436  0.2269 -0.7368
 9081TIP3   OH227206   4.843   6.199   2.705 -0.3498 -0.4599  0.4181
 9081TIP3    H127207   4.819   6.128   2.765 -2.0371 -0.2303  0.0822
 9081TIP3    H227208   4.853   6.157   2.620 -0.4314 -0.4390  0.3974
 9082TIP3   OH227209   1.026   5.520   1.053 -0.2469  0.2265  0.3603
 9082TIP3    H127210   0.970   5.456   1.097 -1.0286 -0.9426 -2.1437
 9082TIP3    H227211   1.087   5.466   1.002  0.6271  1.4936  0.0249
 9083TIP3   OH227212   4.315   3.082   3.772 -0.6012  0.2360  0.5208
 9083TIP3    H127213   4.366   3.076   3.691 -1.6008  1.5213 -0.2358
 9083TIP3    H227214   4.285   2.992   3.788 -0.7608  0.0303 -0.7894
 9084TIP3   OH227215   5.022   4.792   2.546 -0.1469  0.4425  0.4309
 9084TIP3    H127216   5.078   4.716   2.564 -0.2231 -0.2348 -1.8334
 9084TIP3    H227217   4.933   4.758   2.550 -0.2294  0.6756  0.5631
 9085TIP3   OH227218   0.681   0.313   0.109  0.0614  0.4035  0.5202
 9085TIP3    H127219   0.646   0.293   0.196 -0.9806  0.8644  0.2266
 9085TIP3    H227220   0.652   0.241   0.054  1.2912 -0.2341  0.6738
 9086TIP3   OH227221   1.530   1.131   2.242  0.6430 -0.0008 -0.3154
 9086TIP3    H127222   1.518   1.036   2.250 -1.3053  0.2966  1.3594
 9086TIP3    H227223   1.529   1.148   2.148  1.3130 -1.6500 -0.6498
 9087TIP3   OH227224   0.680   5.226   5.464  0.0965  0.1983  0.1521
 9087TIP3    H127225   0.596   5.184   5.448  0.7970 -1.1918  0.0035
 9087TIP3    H227226   0.690   5.224   5.560 -0.3037  0.9269  0.2171
 9088TIP3   OH227227   6.858   3.493   0.840 -0.0493 -0.2251  0.0869
 9088TIP3    H127228   6.881   3.418   0.895  3.4647 -0.0616 -0.9311
 9088TIP3    H227229   6.876   3.570   0.895 -1.3398 -0.0684  0.3191
 9089TIP3   OH227230   6.233   4.522   3.240 -0.1883  0.3853 -0.1346
 9089TIP3    H127231   6.229   4.483   3.153 -0.8197  1.0827 -0.4222
 9089TIP3    H227232   6.160   4.583   3.243  2.0645  3.3411 -0.5696
 9090TIP3   OH227233   5.021   2.093   5.677 -0.0438 -0.8634  0.3731
 9090TIP3    H127234   5.076   2.047   5.740 -1.1424 -2.2063  0.4012
 9090TIP3    H227235   4.954   2.136   5.731  0.4067 -0.0144  0.2740
 9091TIP3   OH227236   7.082   4.391   3.920 -0.1784 -0.0192 -0.1681
 9091TIP3    H127237   7.028   4.463   3.952 -0.2216 -0.9379  1.9877
 9091TIP3    H227238   7.172   4.423   3.928 -0.2265  0.0179  0.2758
 9092TIP3   OH227239   5.893   4.871   2.425  0.4362 -0.0217  0.0182
 9092TIP3    H127240   5.804   4.872   2.390  0.7818 -0.0535 -0.8713
 9092TIP3    H227241   5.900   4.787   2.471  0.2385 -0.3394 -0.5240
 9093TIP3   OH227242   0.115   5.791   2.757 -0.3866  0.0139  0.1480
 9093TIP3    H127243   0.109   5.695   2.754 -1.3580  0.0942 -0.9696
 9093TIP3    H227244   0.051   5.817   2.823  0.5209 -0.1375  1.1164
 9094TIP3   OH227245   2.131   6.760   5.792 -0.5776  0.0964 -0.6175
 9094TIP3    H127246   2.121   6.683   5.846  0.4712 -0.4785 -1.1988
 9094TIP3    H227247   2.117   6.729   5.702 -0.2659  0.5983 -0.8478
 9095TIP3   OH227248   2.587   4.519   0.569  0.0282 -0.1757  0.4222
 9095TIP3    H127249   2.560   4.521   0.478 -3.0588  1.1437  1.2216
 9095TIP3    H227250   2.588   4.426   0.593 -0.7629 -0.4478 -0.5515
 9096TIP3   OH227251   3.529   0.209   1.533 -0.1626 -0.9155  0.5565
 9096TIP3    H127252   3.485   0.281   1.578  0.0208  0.6122 -1.5763
 9096TIP3    H227253   3.459   0.150   1.506 -0.2753 -1.8920  2.7521
 9097TIP3   OH227254   4.826   4.769   4.912 -0.2069 -0.1719 -0.0571
 9097TIP3    H127255   4.768   4.792   4.839 -0.7145  0.0796  0.4210
 9097TIP3    H227256   4.772   4.716   4.971  0.0173  0.1480  0.4437
 9098TIP3   OH227257   2.174   4.997   4.409  0.7775 -0.1931  0.3824
 9098TIP3    H127258   2.267   5.009   4.428  0.6063  1.0136  0.5662
 9098TIP3    H227259   2.153   5.069   4.350 -0.1849 -0.0692  0.8655
 9099TIP3   OH227260   2.594   4.761   3.276  0.4751  0.5442 -0.3709
 9099TIP3    H127261   2.588   4.856   3.286  1.6291  0.6274 -0.3206
 9099TIP3    H227262   2.537   4.726   3.344  1.7718  1.1881  1.0979
 9100TIP3   OH227263   3.906   4.349   2.205 -0.1175  0.2951 -0.3445
 9100TIP3    H127264   3.989   4.327   2.247 -0.3424 -0.1348 -0.1183
 9100TIP3    H227265   3.848   4.276   2.227 -0.0298 -0.3245 -2.0588
 9101TIP3   OH227266   1.299   2.381   2.582  0.1787  0.9521  0.0231
 9101TIP3    H127267   1.266   2.370   2.493 -0.4525 -0.6681  0.4195
 9101TIP3    H227268   1.228   2.349   2.638  1.1649  0.4592  1.0326
 9102TIP3   OH227269   1.174   6.019   3.262  0.0206  0.5499 -0.2293
 9102TIP3    H127270   1.193   6.032   3.355  2.2969 -2.5647 -0.0811
 9102TIP3    H227271   1.215   6.093   3.218  0.2304  1.2868  1.1342
 9103TIP3   OH227272   4.799   3.841   3.649  0.4376  0.5459  0.1964
 9103TIP3    H127273   4.755   3.909   3.699 -0.2437  0.2622 -0.0154
 9103TIP3    H227274   4.828   3.777   3.715  1.0501  1.0137  0.3918
 9104TIP3   OH227275   2.459   1.363   2.898 -0.0066 -0.1631 -0.5519
 9104TIP3    H127276   2.452   1.457   2.882  1.0729  0.3264  1.5847
 9104TIP3    H227277   2.550   1.342   2.879  0.3693 -0.2740  1.2764
 9105TIP3   OH227278   6.747   1.692   3.205 -0.4789 -0.2615 -0.3016
 9105TIP3    H127279   6.781   1.602   3.201 -1.7188 -0.9276  2.2029
 9105TIP3    H227280   6.778   1.726   3.289  1.5802  2.4422 -2.0016
 9106TIP3   OH227281   3.193   4.303   0.094  0.7398 -0.3166 -0.0800
 9106TIP3    H127282   3.242   4.245   0.036  1.2483 -0.1798  0.2016
 9106TIP3    H227283   3.259   4.336   0.155  0.4051  0.3326 -0.0597
 9107TIP3   OH227284   4.489   6.031   3.932 -0.1154  0.3115 -0.4954
 9107TIP3    H127285   4.410   6.073   3.898 -0.5144 -0.4791 -0.5596
 9107TIP3    H227286   4.466   5.939   3.939 -0.0919  0.4548  2.1180
 9108TIP3   OH227287   0.075   5.027   3.612  0.2170 -0.1465  0.1852
 9108TIP3    H127288   0.052   5.070   3.529  1.2424  1.1302  0.5230
 9108TIP3    H227289   0.118   4.947   3.586  1.4407  0.7266 -0.5704
 9109TIP3   OH227290   6.861   2.155   5.760  0.1671 -0.5207  1.0217
 9109TIP3    H127291   6.909   2.160   5.843 -1.1626 -0.6221  1.8196
 9109TIP3    H227292   6.853   2.061   5.743 -0.3735 -0.5209  1.2680
 9110TIP3   OH227293   5.614   0.335   5.487 -0.9671 -0.2820 -0.2845
 9110TIP3    H127294   5.594   0.427   5.470  0.8949 -0.0121 -1.3209
 9110TIP3    H227295   5.575   0.288   5.414  0.6078  0.0547 -1.3922
 9111TIP3   OH227296   5.901   3.654   5.586  0.0474  0.1768  0.0557
 9111TIP3    H127297   5.980   3.653   5.640 -0.5799  1.1507  1.0378
 9111TIP3    H227298   5.846   3.722   5.626 -1.5819 -0.9614 -0.1773
 9112TIP3   OH227299   1.126   4.889   4.196 -0.1518  0.2899 -0.2629
 9112TIP3    H127300   1.101   4.808   4.239 -0.3168 -0.6802 -2.0857
 9112TIP3    H227301   1.217   4.904   4.223 -0.1759 -0.4226  0.2155
 9113TIP3   OH227302   6.486   6.256   5.217 -0.3895 -0.2291  0.4591
 9113TIP3    H127303   6.529   6.252   5.132  1.3052 -1.9418  1.3087
 9113TIP3    H227304   6.518   6.336   5.258  0.6428 -0.5832  0.3689
 9114TIP3   OH227305   1.743   5.423   4.722  0.6671 -0.7080 -0.0922
 9114TIP3    H127306   1.748   5.518   4.733  0.1693 -0.6374 -0.4474
 9114TIP3    H227307   1.690   5.393   4.796 -0.6152 -0.5093 -0.9062
 9115TIP3   OH227308   5.350   4.500   4.415 -0.2701  0.2121  0.3448
 9115TIP3    H127309   5.262   4.522   4.446 -2.2012 -2.9748 -2.1440
 9115TIP3    H227310   5.377   4.426   4.470  0.0772  0.0753 -0.0007
 9116TIP3   OH227311   2.170   6.089   4.222 -0.1853  0.4200 -0.0409
 9116TIP3    H127312   2.173   6.063   4.314  1.2320 -1.6209 -0.6033
 9116TIP3    H227313   2.100   6.154   4.218 -3.0292 -2.2368  1.8072
 9117TIP3   OH227314   6.933   1.575   3.586 -0.0506 -0.1065  0.1961
 9117TIP3    H127315   6.839   1.572   3.566  0.0085 -1.5525  0.0636
 9117TIP3    H227316   6.958   1.484   3.597  1.5607  0.1816 -0.7936
 9118TIP3   OH227317   1.517   5.330   2.319  0.0465  0.5323 -0.3626
 9118TIP3    H127318   1.430   5.296   2.299  0.3617  0.4708 -1.7091
 9118TIP3    H227319   1.502   5.422   2.342 -0.5742  0.0362  1.3353
 9119TIP3   OH227320   3.943   1.211   4.953 -0.2582  0.1270  0.0476
 9119TIP3    H127321   3.910   1.222   4.864 -1.5957 -1.9521  0.2330
 9119TIP3    H227322   3.921   1.121   4.976 -1.2924  1.0191  3.0120
 9120TIP3   OH227323   5.675   5.801   5.336 -0.1151  0.0453  0.0816
 9120TIP3    H127324   5.583   5.777   5.345  0.1088 -0.7476  0.3762
 9120TIP3    H227325   5.722   5.717   5.333  0.7318  0.4358  1.4322
 9121TIP3   OH227326   2.502   1.300   1.439  0.5121  0.1812  0.1931
 9121TIP3    H127327   2.413   1.333   1.427 -0.1493 -0.3332  2.9341
 9121TIP3    H227328   2.493   1.205   1.434  1.0136  0.1404  0.0050
 9122TIP3   OH227329   6.438   0.160   5.384 -0.7641 -0.6147  0.9460
 9122TIP3    H127330   6.365   0.172   5.445 -1.2346  0.1848  0.2378
 9122TIP3    H227331   6.415   0.081   5.334 -0.7000 -0.8834  1.3315
 9123TIP3   OH227332   5.650   3.651   0.872  0.0649 -0.0589  0.4607
 9123TIP3    H127333   5.663   3.722   0.935  0.4890  0.5494 -0.2871
 9123TIP3    H227334   5.733   3.645   0.825 -0.9045  1.0567 -1.5555
 9124TIP3   OH227335   0.340   4.348   2.448  0.7880 -0.4446 -0.2979
 9124TIP3    H127336   0.424   4.373   2.411  1.1006 -2.1009 -0.8170
 9124TIP3    H227337   0.275   4.382   2.386  1.0515  0.7812  0.0704
 9125TIP3   OH227338   3.313   6.461   4.068  0.5989  0.6692 -0.4342
 9125TIP3    H127339   3.357   6.460   3.983  4.8946  1.1571  1.5492
 9125TIP3    H227340   3.293   6.369   4.086 -3.7386  0.7616 -3.2555
 9126TIP3   OH227341   1.684   4.226   4.826  0.1084 -0.0992  0.8782
 9126TIP3    H127342   1.592   4.215   4.851  0.1019 -1.1289  0.4298
 9126TIP3    H227343   1.727   4.253   4.907 -0.5652  0.2798  1.1190
 9127TIP3   OH227344   1.900   6.635   5.469 -0.3474 -0.0212  0.1062
 9127TIP3    H127345   1.812   6.598   5.473 -1.1458  1.6395 -1.0002
 9127TIP3    H227346   1.932   6.612   5.382 -0.1122  0.3031  0.1063
 9128TIP3   OH227347   2.341   1.614   2.857  0.5794  0.0537 -0.5096
 9128TIP3    H127348   2.262   1.609   2.803  0.7393 -1.7920 -0.6168
 9128TIP3    H227349   2.317   1.675   2.927 -0.6897  0.0973 -0.9493
 9129TIP3   OH227350   6.398   2.654   4.390 -0.5009  0.1252 -0.3754
 9129TIP3    H127351   6.418   2.579   4.334 -1.1933 -1.0480  0.8622
 9129TIP3    H227352   6.355   2.717   4.332  1.2530  0.1427 -1.7285
 9130TIP3   OH227353   0.157   1.763   2.783 -0.0898  0.0020 -0.2495
 9130TIP3    H127354   0.185   1.852   2.806 -0.3251 -0.0443  0.2419
 9130TIP3    H227355   0.230   1.726   2.735  0.1656  0.3344 -0.1198
 9131TIP3   OH227356   5.867   2.062   3.924  0.0550  0.5824 -0.0866
 9131TIP3    H127357   5.923   2.040   3.999 -0.3657  0.1109  0.0926
 9131TIP3    H227358   5.892   2.152   3.902  1.5232  0.0818 -0.5845
 9132TIP3   OH227359   1.830   0.071   1.289 -0.1926  0.0162 -0.3407
 9132TIP3    H127360   1.753   0.022   1.316 -1.1228  2.3952  1.7332
 9132TIP3    H227361   1.888   0.069   1.365  0.7799  0.1565 -1.0625
 9133TIP3   OH227362   6.968   2.581   0.830  0.0183  0.9793  0.1319
 9133TIP3    H127363   6.960   2.514   0.763  0.0739  0.3009  0.7869
 9133TIP3    H227364   7.030   2.544   0.893  0.9110  2.1112 -0.0501
 9134TIP3   OH227365   7.145   3.817   4.406  0.8377 -0.2713  0.3162
 9134TIP3    H127366   7.062   3.779   4.381  1.6264 -0.9974 -1.3175
 9134TIP3    H227367   7.124   3.875   4.479 -1.1574 -0.0874 -0.3610
 9135TIP3   OH227368   5.476   3.699   0.657  0.2615 -0.1118 -0.9501
 9135TIP3    H127369   5.527   3.684   0.737 -0.2731 -0.5208 -0.6826
 9135TIP3    H227370   5.387   3.671   0.679  0.0025  0.2326 -1.5375
 9136TIP3   OH227371   2.148   2.699   1.687 -0.1237  0.0234 -0.1279
 9136TIP3    H127372   2.232   2.655   1.700  0.0553  0.0662 -1.0524
 9136TIP3    H227373   2.089   2.630   1.658 -0.0655  0.2313 -0.7474
 9137TIP3   OH227374   6.680   6.470   0.331  0.4881  0.3755  0.2233
 9137TIP3    H127375   6.610   6.424   0.378 -0.6823  1.5737 -0.2555
 9137TIP3    H227376   6.690   6.422   0.249  1.2522 -0.6464  0.8996
 9138TIP3   OH227377   1.863   4.107   0.662 -0.0957 -0.1976  0.5342
 9138TIP3    H127378   1.890   4.064   0.581 -1.0971 -1.0943  0.6647
 9138TIP3    H227379   1.767   4.101   0.662 -0.0870 -0.6908  2.0320
 9139TIP3   OH227380   5.367   2.498   2.053  0.5853  0.3480  0.1110
 9139TIP3    H127381   5.378   2.462   1.965 -1.1975  0.1566 -0.0622
 9139TIP3    H227382   5.457   2.508   2.086  1.2763  0.1119 -1.5875
 9140TIP3   OH227383   3.637   4.708   5.724  0.1093  0.0265 -0.3831
 9140TIP3    H127384   3.562   4.694   5.667 -0.6900 -1.5105  0.9422
 9140TIP3    H227385   3.709   4.663   5.681 -0.5112 -1.2108 -0.1770
 9141TIP3   OH227386   7.195   4.990   3.149 -0.3491  0.2264  0.2471
 9141TIP3    H127387   7.170   5.048   3.221 -0.5064  1.0398 -0.4438
 9141TIP3    H227388   7.119   4.990   3.090 -0.3946 -0.7759  0.2822
 9142TIP3   OH227389   0.877   5.766   1.640 -0.4574  0.5342  1.0290
 9142TIP3    H127390   0.814   5.838   1.644 -0.4870  0.7241 -1.6318
 9142TIP3    H227391   0.961   5.808   1.624 -0.4450  0.0105 -0.3666
 9143TIP3   OH227392   1.031   1.370   4.933 -0.2981  0.5462 -0.4176
 9143TIP3    H127393   1.008   1.419   5.012 -1.9753  0.6457 -0.9237
 9143TIP3    H227394   1.043   1.280   4.964  2.0765  1.0830  0.3950
 9144TIP3   OH227395   1.352   2.964   1.366 -0.7708  0.1020  0.1516
 9144TIP3    H127396   1.363   2.869   1.369  0.1119  0.1924 -0.0602
 9144TIP3    H227397   1.335   2.982   1.273 -0.9661  0.1499  0.1969
 9145TIP3   OH227398   1.755   1.977   4.309 -0.1932  0.1367  0.4083
 9145TIP3    H127399   1.794   2.035   4.245 -2.7100 -1.4727 -2.8687
 9145TIP3    H227400   1.808   1.897   4.306 -0.7550 -0.2187 -0.2887
 9146TIP3   OH227401   0.588   0.947   4.931  0.8530 -0.2563  0.1897
 9146TIP3    H127402   0.519   0.905   4.879  1.4338 -1.1432  0.1205
 9146TIP3    H227403   0.558   1.038   4.940 -0.7109 -0.7988  0.8427
 9147TIP3   OH227404   6.473   1.351   2.354  0.5988 -0.2146  0.2591
 9147TIP3    H127405   6.525   1.277   2.387  1.1243 -0.0503 -0.1842
 9147TIP3    H227406   6.537   1.418   2.332  0.2274 -0.1445 -0.6472
 9148TIP3   OH227407   6.176   3.718   1.925 -0.5237  0.3985 -0.2386
 9148TIP3    H127408   6.249   3.743   1.981 -0.6783  0.1477  0.0817
 9148TIP3    H227409   6.122   3.662   1.980 -0.8641  0.4353 -0.5296
 9149TIP3   OH227410   2.441   1.705   3.281 -0.0723  0.2725  0.6820
 9149TIP3    H127411   2.471   1.626   3.325  0.8946 -0.0924 -0.5728
 9149TIP3    H227412   2.513   1.729   3.222 -0.8499  1.3886  0.1472
 9150TIP3   OH227413   4.252   2.590   2.901  0.0033  0.0584 -0.4418
 9150TIP3    H127414   4.310   2.665   2.912 -0.2520  0.1610  0.3025
 9150TIP3    H227415   4.269   2.558   2.812 -1.1132  2.0577 -1.4437
 9151TIP3   OH227416   4.312   4.022   0.493 -0.3240 -0.2169 -0.1075
 9151TIP3    H127417   4.279   4.111   0.484 -0.3489 -0.3583 -1.8030
 9151TIP3    H227418   4.327   3.992   0.403 -1.9361 -2.5524  0.2980
 9152TIP3   OH227419   4.016   3.428   1.752 -0.1743  0.2524 -0.5912
 9152TIP3    H127420   3.966   3.447   1.832  0.1730 -1.9721  0.2472
 9152TIP3    H227421   4.089   3.373   1.782 -0.3184 -1.0669 -2.4662
 9153TIP3   OH227422   6.679   2.413   5.578 -0.3020  0.0689  0.5415
 9153TIP3    H127423   6.606   2.391   5.635 -0.0767 -0.6337  0.5718
 9153TIP3    H227424   6.642   2.415   5.490 -0.3920 -0.1055  0.5765
 9154TIP3   OH227425   0.882   6.065   4.922  0.0489  0.0099 -0.1503
 9154TIP3    H127426   0.930   5.988   4.891 -0.8497 -0.6307  0.0343
 9154TIP3    H227427   0.951   6.124   4.954  0.8282 -0.2309 -1.3248
 9155TIP3   OH227428   5.518   1.149   1.285 -0.6225 -0.2356  0.1464
 9155TIP3    H127429   5.501   1.100   1.204 -1.6774 -0.6028  0.5651
 9155TIP3    H227430   5.467   1.103   1.352 -1.3946  1.2408  0.6184
 9156TIP3   OH227431   2.827   0.012   4.312 -0.2788  0.3247 -0.1344
 9156TIP3    H127432   2.847  -0.010   4.222 -0.2698  0.1831 -0.0982
 9156TIP3    H227433   2.861   0.101   4.324 -1.3716  0.8321 -0.6318
 9157TIP3   OH227434   5.339   2.837   4.919  0.4922  0.7402 -0.0986
 9157TIP3    H127435   5.414   2.865   4.867  0.5280 -0.0507 -0.4778
 9157TIP3    H227436   5.265   2.842   4.859  0.9925 -3.2539 -1.2905
 9158TIP3   OH227437   1.860   3.785   4.106 -0.3606  0.2913 -0.3612
 9158TIP3    H127438   1.881   3.810   4.016 -0.9591  0.7924 -0.3650
 9158TIP3    H227439   1.944   3.757   4.143 -0.3310 -1.2112 -1.4774
 9159TIP3   OH227440   2.427   6.384   4.026 -0.3373  0.2286 -0.2394
 9159TIP3    H127441   2.501   6.387   3.965 -0.9825  2.6356 -0.9942
 9159TIP3    H227442   2.448   6.449   4.093 -1.0743 -0.1832  0.4118
 9160TIP3   OH227443   4.515   4.489   2.870 -0.0094  0.5954  0.2961
 9160TIP3    H127444   4.459   4.520   2.799 -0.1226 -0.6472 -0.1713
 9160TIP3    H227445   4.469   4.516   2.950 -0.3840  1.1147 -0.0858
 9161TIP3   OH227446   4.287   1.864   1.434  0.4597 -0.2143 -0.4013
 9161TIP3    H127447   4.339   1.852   1.354 -0.4453 -1.7373 -0.7911
 9161TIP3    H227448   4.256   1.777   1.456 -0.6186  0.4278  0.7341
 9162TIP3   OH227449   5.097   1.075   4.957 -0.1583  0.1198  0.1732
 9162TIP3    H127450   5.100   1.166   4.928  1.4635  0.2593  0.6486
 9162TIP3    H227451   5.189   1.048   4.963 -0.5966 -1.6324 -0.1742
 9163TIP3   OH227452   5.670   1.434   1.455  0.3461 -0.4309 -0.2156
 9163TIP3    H127453   5.754   1.415   1.414  0.0085  0.6138 -1.4730
 9163TIP3    H227454   5.625   1.490   1.392 -0.1122  1.4727  1.6912
 9164TIP3   OH227455   4.386   3.490   4.354  0.5446 -0.0769  0.5757
 9164TIP3    H127456   4.430   3.544   4.288 -0.7399  0.7718  0.3764
 9164TIP3    H227457   4.293   3.509   4.342  0.2594 -0.1783  2.4039
 9165TIP3   OH227458   5.982   3.987   3.243  0.6513 -0.4020  0.1938
 9165TIP3    H127459   5.929   3.920   3.199 -1.8528  2.2074 -1.0833
 9165TIP3    H227460   5.922   4.026   3.307  1.9405  0.8764  0.6696
 9166TIP3   OH227461   0.346   3.834   5.681  0.1175  0.0816  0.3536
 9166TIP3    H127462   0.333   3.827   5.775  0.8505  1.4476  0.5859
 9166TIP3    H227463   0.271   3.885   5.650 -1.2110 -2.0276 -0.1665
 9167TIP3   OH227464   3.474   5.598   1.117  0.3903  0.3670  0.0217
 9167TIP3    H127465   3.512   5.651   1.047  2.2691 -1.4300 -0.4279
 9167TIP3    H227466   3.466   5.510   1.079 -3.5913  0.4014  0.3849
 9168TIP3   OH227467   0.172   3.629   2.662  0.2033 -0.3251 -0.2611
 9168TIP3    H127468   0.202   3.681   2.737 -0.0705  0.8867 -0.9734
 9168TIP3    H227469   0.108   3.568   2.700 -1.0745  1.2821  0.3058
 9169TIP3   OH227470   3.440   1.932   5.322  0.0786  0.5106 -0.3087
 9169TIP3    H127471   3.413   1.973   5.240 -1.5113 -0.2515 -0.2169
 9169TIP3    H227472   3.392   1.980   5.390  1.4681  1.2106  0.2195
 9170TIP3   OH227473   3.633   0.970   0.661 -0.2197 -0.3230 -0.3665
 9170TIP3    H127474   3.572   0.911   0.617  0.0391 -1.3380  0.5873
 9170TIP3    H227475   3.578   1.039   0.698 -0.9992 -1.8041  1.4305
 9171TIP3   OH227476   5.817   5.103   3.954  0.1766  0.4356  0.1633
 9171TIP3    H127477   5.774   5.103   3.868  0.3079 -0.1831  0.0971
 9171TIP3    H227478   5.758   5.054   4.011  0.4754  0.1561  0.2334
 9172TIP3   OH227479   3.999   4.025   1.769  0.1709 -0.0620  0.3065
 9172TIP3    H127480   3.926   4.066   1.723 -0.3705 -2.1640 -0.8381
 9172TIP3    H227481   3.962   3.998   1.853  0.0899  0.3216  0.3965
 9173TIP3   OH227482   1.599   0.529   2.351  0.3162 -0.0549 -0.7579
 9173TIP3    H127483   1.508   0.498   2.348  1.1727 -2.6489 -2.4025
 9173TIP3    H227484   1.612   0.573   2.267  0.3128  1.3854 -0.0465
 9174TIP3   OH227485   5.268   3.231   3.985  0.0049 -0.0952 -0.2497
 9174TIP3    H127486   5.286   3.279   3.905 -1.4719 -0.6305 -0.9418
 9174TIP3    H227487   5.178   3.256   4.009  0.2891 -0.2321  1.0234
 9175TIP3   OH227488   3.993   1.395   1.888  0.1006  0.2366 -0.3557
 9175TIP3    H127489   4.012   1.485   1.860 -1.6167  0.9692  0.7018
 9175TIP3    H227490   3.939   1.359   1.817  1.6085 -0.3588 -1.2625
 9176TIP3   OH227491   6.410   5.856   0.900 -0.3417 -0.0174  0.1434
 9176TIP3    H127492   6.414   5.764   0.927 -1.2503  0.5927  2.6328
 9176TIP3    H227493   6.317   5.874   0.891 -0.1590  0.6048 -0.5735
 9177TIP3   OH227494   6.695   1.708   1.326  0.0519 -0.4422 -0.2406
 9177TIP3    H127495   6.730   1.624   1.298 -0.7406 -1.2217  1.0285
 9177TIP3    H227496   6.612   1.716   1.280 -0.9652 -1.4489  1.3165
 9178TIP3   OH227497   7.010   1.008   0.132 -0.3871 -0.5800 -0.2742
 9178TIP3    H127498   6.965   1.090   0.152  0.1109 -0.3817  0.0647
 9178TIP3    H227499   6.999   0.955   0.211 -0.6667 -0.8209 -0.4744
 9179TIP3   OH227500   6.007   6.204   5.768  0.2300 -0.2577 -0.6170
 9179TIP3    H127501   6.066   6.221   5.841 -1.2220 -0.7777  0.7423
 9179TIP3    H227502   5.924   6.180   5.810 -1.4262  1.9303 -2.3888
 9180TIP3   OH227503   3.012   3.080   0.974  0.0519 -0.3831  0.5020
 9180TIP3    H127504   3.067   3.043   0.905  0.7325  0.6510  0.4747
 9180TIP3    H227505   3.074   3.112   1.040 -0.5773 -2.7842  2.4330
 9181TIP3   OH227506   5.099   5.735   3.267 -0.0973 -0.6105 -0.0209
 9181TIP3    H127507   5.174   5.727   3.327 -0.7352  0.7428  1.0080
 9181TIP3    H227508   5.138   5.756   3.182  0.7414  5.3548  1.4145
 9182TIP3   OH227509   0.898   0.758   2.950  0.0472  0.0302 -0.3856
 9182TIP3    H127510   0.819   0.754   3.003 -0.4658  0.9996 -1.0444
 9182TIP3    H227511   0.969   0.764   3.014 -0.6268  2.4915  0.2676
 9183TIP3   OH227512   3.856   0.327   4.733 -0.2053 -0.0399  0.2249
 9183TIP3    H127513   3.947   0.327   4.762 -0.1452 -1.0674  0.0832
 9183TIP3    H227514   3.832   0.234   4.728 -1.5898  0.2135  1.2756
 9184TIP3   OH227515   6.289   4.150   3.680  0.0649 -0.4344 -0.0318
 9184TIP3    H127516   6.236   4.154   3.600  1.2274 -1.0972 -0.8641
 9184TIP3    H227517   6.362   4.210   3.663 -0.4443  0.5779  1.1565
 9185TIP3   OH227518   3.712   0.161   5.055 -0.4413  0.9232  0.3079
 9185TIP3    H127519   3.627   0.177   5.015 -0.5569  1.0236  0.5899
 9185TIP3    H227520   3.770   0.224   5.015  0.6382 -2.0487 -3.3988
 9186TIP3   OH227521   3.094   4.480   5.268  0.5243  0.0857  0.8509
 9186TIP3    H127522   3.135   4.492   5.353  0.0220  0.5095  1.0391
 9186TIP3    H227523   3.053   4.565   5.249 -1.1282 -0.6048  1.1312
 9187TIP3   OH227524   4.979   0.774   2.660  0.8874  0.2575  0.4678
 9187TIP3    H127525   4.895   0.755   2.702  0.5072 -0.9031 -0.7534
 9187TIP3    H227526   5.006   0.691   2.621  2.3067  0.7654  0.2891
 9188TIP3   OH227527   4.363   1.437   4.964 -0.3604  0.2374 -0.5708
 9188TIP3    H127528   4.364   1.400   4.876  0.2834 -2.1419  0.3437
 9188TIP3    H227529   4.433   1.502   4.965 -1.4289  1.4799 -2.2263
 9189TIP3   OH227530   5.922   5.490   1.760 -0.0230  0.5822 -0.6319
 9189TIP3    H127531   5.903   5.553   1.829 -2.1772  0.1792 -0.7670
 9189TIP3    H227532   6.003   5.521   1.720  0.9785  1.1419  1.6666
 9190TIP3   OH227533   6.205   2.934   0.966 -0.1308 -0.0791 -0.2412
 9190TIP3    H127534   6.242   2.984   0.894  0.4347  1.0704  0.8144
 9190TIP3    H227535   6.224   2.843   0.944 -1.8384  0.0579 -2.5584
 9191TIP3   OH227536   2.960   2.668   2.278 -0.5389  0.1130 -0.1063
 9191TIP3    H127537   2.915   2.742   2.236 -0.4746 -0.3418 -0.9990
 9191TIP3    H227538   3.052   2.694   2.279 -0.3040 -0.5174 -1.7222
 9192TIP3   OH227539   0.073   2.165   5.570  0.2882  0.1976 -0.0649
 9192TIP3    H127540   0.125   2.128   5.499 -1.4271 -0.9355 -0.7972
 9192TIP3    H227541  -0.007   2.112   5.572 -1.4396  2.6355  0.1802
 9193TIP3   OH227542   3.776   0.730   2.390 -0.2166  0.5476 -0.0861
 9193TIP3    H127543   3.821   0.805   2.350 -0.6556  1.4848  1.0982
 9193TIP3    H227544   3.744   0.764   2.474 -0.1418 -1.0776  0.6377
 9194TIP3   OH227545   4.887   1.249   2.607 -0.3828 -0.1840 -0.3272
 9194TIP3    H127546   4.916   1.305   2.534  0.1471  0.2067  0.1712
 9194TIP3    H227547   4.820   1.300   2.651  1.1532  0.7725  1.0413
 9195TIP3   OH227548   1.065   1.249   0.156 -0.4300  0.2354 -0.5982
 9195TIP3    H127549   1.135   1.272   0.216 -0.7126  0.8228 -0.4790
 9195TIP3    H227550   1.032   1.334   0.125 -1.1414 -0.0271 -0.5840
 9196TIP3   OH227551   5.359   4.352   0.877  0.6085  1.0000  0.6307
 9196TIP3    H127552   5.422   4.283   0.896  0.7295  1.1820  0.8952
 9196TIP3    H227553   5.308   4.362   0.958 -0.1541  0.4489  0.2370
 9197TIP3   OH227554   7.217   6.261   3.832  0.3010  0.1072 -0.4132
 9197TIP3    H127555   7.129   6.277   3.863  0.6521 -0.3077  0.8440
 9197TIP3    H227556   7.235   6.333   3.772 -0.3629  0.9997  0.4352
 9198TIP3   OH227557   2.176   4.718   5.058  0.8003 -0.0439  0.1849
 9198TIP3    H127558   2.132   4.726   5.143 -0.3566 -2.5305 -0.0976
 9198TIP3    H227559   2.108   4.737   4.994  1.0760 -0.3829 -0.2137
 9199TIP3   OH227560   2.340   5.827   3.841  0.5473  0.3072 -0.4415
 9199TIP3    H127561   2.372   5.777   3.916  0.2785  1.6042  0.5821
 9199TIP3    H227562   2.246   5.836   3.856  0.7773  2.2399  0.1535
 9200TIP3   OH227563   5.728   5.613   0.672 -0.1217  0.3266  0.4166
 9200TIP3    H127564   5.688   5.527   0.685 -1.3598  0.8941  0.4801
 9200TIP3    H227565   5.762   5.637   0.759 -0.4252  0.2250  0.5629
 9201TIP3   OH227566   1.299   3.531   1.328  0.5704 -0.0044  0.9750
 9201TIP3    H127567   1.344   3.583   1.261  0.5322  0.4189  1.2720
 9201TIP3    H227568   1.222   3.584   1.351  1.5317  0.7457  2.6560
 9202TIP3   OH227569   3.953   6.441   3.745 -0.4325 -0.2888  0.3772
 9202TIP3    H127570   3.989   6.366   3.698 -0.7544  0.3127 -0.8713
 9202TIP3    H227571   4.015   6.457   3.817  0.2502 -1.0142 -0.0381
 9203TIP3   OH227572   3.743   6.703   1.252  0.3128  0.2986  0.0509
 9203TIP3    H127573   3.814   6.696   1.189 -0.6195 -0.9213 -0.9245
 9203TIP3    H227574   3.690   6.624   1.238 -1.4075  1.3037  0.5062
 9204TIP3   OH227575   0.767   1.814   0.657 -0.6447 -0.2677  0.2675
 9204TIP3    H127576   0.728   1.900   0.670 -0.5453 -0.0946 -0.5056
 9204TIP3    H227577   0.822   1.824   0.579 -0.3716 -0.9452  0.3617
 9205TIP3   OH227578   0.334   4.524   4.782  0.2110 -0.2126 -0.3018
 9205TIP3    H127579   0.417   4.558   4.816  2.0426 -2.5445 -2.0273
 9205TIP3    H227580   0.275   4.523   4.857  2.4240 -0.4021  1.5450
 9206TIP3   OH227581   1.357   3.326   2.316 -0.6474 -0.0611  0.5264
 9206TIP3    H127582   1.274   3.374   2.312  0.5056  2.0479  0.4988
 9206TIP3    H227583   1.370   3.293   2.227 -1.7693 -1.0084  0.6957
 9207TIP3   OH227584   1.585   4.204   3.871 -0.6616 -0.1673 -0.0154
 9207TIP3    H127585   1.597   4.281   3.927 -0.6387  0.0684 -0.3381
 9207TIP3    H227586   1.547   4.138   3.928  2.8480 -1.2590  1.3615
 9208TIP3   OH227587   7.095   4.376   2.979  0.3663  0.5785  0.3484
 9208TIP3    H127588   7.174   4.376   3.033 -0.1051  0.6206  1.0473
 9208TIP3    H227589   7.104   4.453   2.923 -0.4401  2.2444  2.3473
 9209TIP3   OH227590   0.763   3.888   0.798 -0.2752  0.8967  0.2940
 9209TIP3    H127591   0.828   3.929   0.855 -0.5810  1.3233  0.3377
 9209TIP3    H227592   0.810   3.873   0.716  0.5797 -1.0148  1.0837
 9210TIP3   OH227593   6.801   1.907   1.757 -0.5009 -0.3945 -0.1584
 9210TIP3    H127594   6.891   1.908   1.790 -0.7927  0.4286  0.6923
 9210TIP3    H227595   6.781   2.000   1.741 -1.3910 -0.5016  0.2540
 9211TIP3   OH227596   5.363   6.743   1.599  0.2296 -0.7514  0.0631
 9211TIP3    H127597   5.268   6.758   1.607  0.1667 -0.7497 -0.6336
 9211TIP3    H227598   5.380   6.669   1.656 -0.0076 -0.0853  1.0314
 9212TIP3   OH227599   1.172   0.148   0.787  0.1331 -0.2630 -0.2364
 9212TIP3    H127600   1.118   0.071   0.803  0.9393 -1.0059 -0.9429
 9212TIP3    H227601   1.254   0.112   0.751  1.2170  0.7911  1.0858
 9213TIP3   OH227602   7.200   5.428   1.370 -0.4881  0.2740 -0.3894
 9213TIP3    H127603   7.152   5.504   1.337  0.1211 -0.0189 -2.0636
 9213TIP3    H227604   7.133   5.370   1.405 -1.1733  0.6837 -0.9991
 9214TIP3   OH227605   2.978  -0.002   2.454 -0.2797 -0.0847 -0.2432
 9214TIP3    H127606   2.963   0.091   2.443 -1.6249 -0.1896  0.3874
 9214TIP3    H227607   2.993  -0.013   2.548 -3.0467 -0.7960  0.2107
 9215TIP3   OH227608   7.142   1.768   3.521 -0.2098  0.4793  0.1974
 9215TIP3    H127609   7.067   1.709   3.529 -0.8416  1.0423 -1.2270
 9215TIP3    H227610   7.132   1.808   3.434  2.4727 -0.4199 -0.6324
 9216TIP3   OH227611   1.542   1.902   0.518 -0.4683  0.3458 -0.3149
 9216TIP3    H127612   1.558   1.959   0.592  0.9394 -0.7608  0.2790
 9216TIP3    H227613   1.621   1.909   0.464 -0.0777 -1.3257 -0.0114
 9217TIP3   OH227614   5.135   6.618   5.771  0.2763 -0.1058 -0.4287
 9217TIP3    H127615   5.042   6.596   5.772 -0.7638  3.4088  2.3118
 9217TIP3    H227616   5.149   6.660   5.686 -0.4285 -1.1467 -1.0857
 9218TIP3   OH227617   4.470   3.323   2.131  0.4755 -0.0656  0.4925
 9218TIP3    H127618   4.495   3.384   2.061  0.9554 -0.5762  0.2119
 9218TIP3    H227619   4.383   3.353   2.159  0.8614  0.9611  0.6073
 9219TIP3   OH227620   4.167   3.284   1.972  0.0742  0.2998  0.0781
 9219TIP3    H127621   4.096   3.315   2.029  0.8940  2.3381  0.0801
 9219TIP3    H227622   4.183   3.194   2.000 -0.9084  0.5822  1.6680
 9220TIP3   OH227623   2.128   0.530   1.017 -0.3931 -0.0687  0.3224
 9220TIP3    H127624   2.110   0.494   1.104 -1.7345  0.4972  0.3136
 9220TIP3    H227625   2.062   0.598   1.006  0.7037  0.8890 -0.5447
 9221TIP3   OH227626   5.751   3.414   1.547 -0.2157  0.4769 -0.0591
 9221TIP3    H127627   5.718   3.464   1.621 -1.6402 -1.2270  0.5478
 9221TIP3    H227628   5.840   3.389   1.573 -0.0903  1.3093  0.3301
 9222TIP3   OH227629   4.518   0.271   3.613  0.1619  0.2380 -0.0241
 9222TIP3    H127630   4.515   0.347   3.671  0.7079  0.0445  0.2626
 9222TIP3    H227631   4.603   0.276   3.571  0.6595 -0.8096  0.8175
 9223TIP3   OH227632   3.227   0.826   5.326 -0.0236  0.0905 -0.4515
 9223TIP3    H127633   3.261   0.810   5.238  0.3176 -0.0599 -0.2944
 9223TIP3    H227634   3.193   0.915   5.323  2.1055  0.9829 -0.0927
 9224TIP3   OH227635   6.147   6.754   1.208  0.2771  0.0248  0.8078
 9224TIP3    H127636   6.059   6.735   1.176  0.2503  0.6708  0.4878
 9224TIP3    H227637   6.154   6.705   1.290 -0.9265  1.1142  1.6107
 9225TIP3   OH227638   0.293   2.533   2.063  0.4590 -0.5832 -0.2753
 9225TIP3    H127639   0.353   2.470   2.022  0.2216  0.6792 -2.7650
 9225TIP3    H227640   0.348   2.611   2.079  0.0039 -0.2116 -0.4907
 9226TIP3   OH227641   5.637   6.013   1.195 -0.1896  0.2886  0.0802
 9226TIP3    H127642   5.581   5.936   1.205 -1.1636  0.7872 -1.2499
 9226TIP3    H227643   5.716   5.992   1.245 -1.4524 -0.5273  1.8321
 9227TIP3   OH227644   2.357   6.647   2.604 -0.0848 -0.0847 -0.0369
 9227TIP3    H127645   2.377   6.561   2.642 -0.3383  0.1319  0.5891
 9227TIP3    H227646   2.420   6.707   2.644 -1.4290  0.4594  1.3669
 9228TIP3   OH227647   0.804   3.241   1.851 -0.3136  0.6237  0.1148
 9228TIP3    H127648   0.847   3.319   1.886 -1.3478  1.9945 -1.5104
 9228TIP3    H227649   0.726   3.274   1.807 -1.3695 -1.4625  0.2832
 9229TIP3   OH227650   1.677   0.229   5.173 -0.1581  0.0040 -0.5378
 9229TIP3    H127651   1.667   0.182   5.255  2.8701 -0.0685 -0.1099
 9229TIP3    H227652   1.730   0.306   5.195 -1.6333  1.5264 -1.9610
 9230TIP3   OH227653   1.209   5.243   0.585  0.7696 -0.0023 -0.0264
 9230TIP3    H127654   1.248   5.156   0.597  0.9923  0.1971  0.7348
 9230TIP3    H227655   1.189   5.247   0.492  1.1556 -0.7040 -0.1500
 9231TIP3   OH227656   2.811   4.825   3.092  0.4722  0.0345 -0.1327
 9231TIP3    H127657   2.762   4.763   3.146  1.4390 -0.4617  0.2103
 9231TIP3    H227658   2.787   4.911   3.127 -0.1185 -0.2022  0.0515
 9232TIP3   OH227659   5.932   1.182   0.599  0.5397  0.6854 -0.5210
 9232TIP3    H127660   5.980   1.155   0.677  0.6432  3.1704  0.3610
 9232TIP3    H227661   5.996   1.176   0.528  1.0631  0.4187 -0.0330
 9233TIP3   OH227662   3.878   1.629   0.751  0.0350  0.0874 -0.1915
 9233TIP3    H127663   3.927   1.698   0.795  1.2882 -0.6562 -0.3894
 9233TIP3    H227664   3.929   1.608   0.673 -1.7142  0.7847 -1.5831
 9234TIP3   OH227665   1.851   1.182   4.173 -0.1399  0.2445 -0.5128
 9234TIP3    H127666   1.864   1.243   4.246 -0.3718  0.7257 -0.8618
 9234TIP3    H227667   1.781   1.223   4.121  0.7869  0.4751 -1.6042
 9235TIP3   OH227668   4.178   2.332   1.698  0.1967 -0.2470 -0.6655
 9235TIP3    H127669   4.258   2.354   1.747 -0.0621  0.1552 -0.4173
 9235TIP3    H227670   4.210   2.301   1.613  0.5934  1.3167 -1.1272
 9236TIP3   OH227671   3.316   4.569   1.380 -0.1471  0.1095  0.3223
 9236TIP3    H127672   3.318   4.532   1.469  0.1816  0.5640  0.5065
 9236TIP3    H227673   3.407   4.564   1.351 -0.0950  0.8273  0.3669
 9237TIP3   OH227674   1.285   2.915   5.003 -0.2270  0.4545 -0.0338
 9237TIP3    H127675   1.311   2.875   5.086  1.2454  0.1218 -0.6259
 9237TIP3    H227676   1.240   2.845   4.955  1.5806 -0.3081 -0.7120
 9238TIP3   OH227677   2.858   4.751   4.754 -0.1968  0.5962  0.3181
 9238TIP3    H127678   2.775   4.799   4.753 -0.9538 -0.6670  0.5832
 9238TIP3    H227679   2.833   4.659   4.751  1.2570  0.1954 -2.5684
 9239TIP3   OH227680   4.872   5.311   2.165 -0.4270 -0.1726 -0.8172
 9239TIP3    H127681   4.800   5.266   2.210 -0.4133 -0.1365 -0.7589
 9239TIP3    H227682   4.950   5.289   2.216 -0.4670  0.1810 -0.5946
 9240TIP3   OH227683   1.276   5.797   3.948 -0.0556 -0.0411  0.1343
 9240TIP3    H127684   1.203   5.736   3.955 -0.2042  0.2929  1.9265
 9240TIP3    H227685   1.334   5.775   4.021  0.4486  1.2140  0.1455
 9241TIP3   OH227686   0.753   2.607   1.607  0.0775 -0.3617  0.0278
 9241TIP3    H127687   0.729   2.689   1.650 -1.3432 -0.0693 -1.2628
 9241TIP3    H227688   0.673   2.556   1.604  0.6285 -1.2371 -0.4044
 9242TIP3   OH227689   2.850   4.037   3.146  0.2372 -0.0404  0.6857
 9242TIP3    H127690   2.845   4.125   3.109 -2.1982 -0.3712  0.0438
 9242TIP3    H227691   2.919   3.994   3.096  0.2698  0.9734 -0.1811
 9243TIP3   OH227692   2.589   4.824   0.302 -0.4100  0.1456 -0.1667
 9243TIP3    H127693   2.527   4.752   0.316 -1.9768  1.0169 -2.0981
 9243TIP3    H227694   2.536   4.894   0.264  1.3277  1.8700  0.4318
 9244TIP3   OH227695   3.914   5.912   5.322 -0.1663 -0.2904  0.4973
 9244TIP3    H127696   3.841   5.851   5.333 -0.8961  0.2893 -0.8652
 9244TIP3    H227697   3.880   5.995   5.356 -0.2661  0.0482 -0.3970
 9245TIP3   OH227698   2.189   6.010   1.458 -0.1285 -0.0370  0.2818
 9245TIP3    H127699   2.273   6.046   1.430  0.6014 -2.4945 -0.9545
 9245TIP3    H227700   2.202   5.988   1.550  1.0775 -1.6150 -0.2297
 9246TIP3   OH227701   2.668   1.249   5.449  0.0614 -0.3497 -0.1487
 9246TIP3    H127702   2.717   1.195   5.511 -0.0033  0.4443  0.6247
 9246TIP3    H227703   2.639   1.324   5.502 -1.5946 -0.5771 -0.6850
 9247TIP3   OH227704   6.071   4.518   3.585  0.3011 -0.0595 -0.2682
 9247TIP3    H127705   6.065   4.606   3.549 -0.3487 -0.1862 -0.4955
 9247TIP3    H227706   6.164   4.502   3.596  0.3948  1.0415  0.7263
 9248TIP3   OH227707   6.496   3.872   3.233 -0.2868  0.1651 -0.0069
 9248TIP3    H127708   6.561   3.937   3.261 -0.4260 -0.1997  1.2263
 9248TIP3    H227709   6.541   3.822   3.164 -0.2916  1.7324 -1.2052
 9249TIP3   OH227710   4.605   1.986   4.743  0.4834 -0.2651 -0.2466
 9249TIP3    H127711   4.516   2.014   4.724 -0.6301 -2.0236  1.9464
 9249TIP3    H227712   4.660   2.055   4.707 -1.6630  0.3326 -2.6791
 9250TIP3   OH227713   6.597   5.416   5.304  0.3346 -0.5222 -0.0388
 9250TIP3    H127714   6.652   5.461   5.241 -0.8280 -0.5745 -1.1298
 9250TIP3    H227715   6.646   5.420   5.386  0.8694  1.5769 -0.3872
 9251TIP3   OH227716   3.293   2.652   1.317  0.3423  0.5757  0.0971
 9251TIP3    H127717   3.273   2.571   1.365  0.6049 -0.5754 -1.6433
 9251TIP3    H227718   3.207   2.691   1.299  0.2041  0.6092  0.8054
 9252TIP3   OH227719   3.946   0.089   0.212 -0.2159  0.4490 -0.0522
 9252TIP3    H127720   3.964   0.176   0.248 -0.8654 -0.4206  2.5095
 9252TIP3    H227721   3.853   0.090   0.190  0.3444  1.2959 -2.9100
 9253TIP3   OH227722   0.262   6.603   5.256 -0.1914  0.1216 -0.0181
 9253TIP3    H127723   0.174   6.606   5.216 -0.6416  0.9172  0.9788
 9253TIP3    H227724   0.259   6.529   5.315 -0.2474  0.2334  0.1207
 9254TIP3   OH227725   2.643   3.230   3.926 -0.3783 -0.0175 -0.5578
 9254TIP3    H127726   2.620   3.275   4.008 -1.1458 -0.2623 -0.6329
 9254TIP3    H227727   2.625   3.295   3.858 -0.0405  0.0803 -0.5510
 9255TIP3   OH227728   2.963   2.907   3.184 -0.5158  0.0745 -0.1431
 9255TIP3    H127729   2.886   2.894   3.128 -0.7889 -0.4751  0.3597
 9255TIP3    H227730   2.927   2.943   3.265 -0.1288  0.7775 -0.2774
 9256TIP3   OH227731   4.896   6.077   2.468 -0.4725  0.1045 -0.5335
 9256TIP3    H127732   4.931   6.002   2.421 -1.5737  0.7031 -2.4164
 9256TIP3    H227733   4.918   6.153   2.413 -0.6628  1.0006  0.5796
 9257TIP3   OH227734   5.222   4.589   2.012 -0.0946 -0.7713 -0.0737
 9257TIP3    H127735   5.141   4.563   1.969 -1.5868  1.4542  1.2046
 9257TIP3    H227736   5.249   4.669   1.965  0.1068 -0.2399  0.9277
 9258TIP3   OH227737   4.615   1.874   0.425 -0.3626 -0.2746 -0.5464
 9258TIP3    H127738   4.670   1.807   0.463 -1.0766 -1.2093 -1.1008
 9258TIP3    H227739   4.569   1.829   0.353 -1.6931  0.4994 -0.2206
 9259TIP3   OH227740   2.648   2.388   4.789  1.0244  0.0793 -0.2484
 9259TIP3    H127741   2.580   2.387   4.857  1.0059 -0.2803 -0.2731
 9259TIP3    H227742   2.675   2.297   4.781  0.8281  0.0791 -0.9215
 9260TIP3   OH227743   4.941   2.403   4.760  0.3489  0.1108 -0.3666
 9260TIP3    H127744   4.929   2.407   4.855 -0.0938  0.4201 -0.4347
 9260TIP3    H227745   4.888   2.475   4.726 -0.3665 -0.6747 -0.9369
 9261TIP3   OH227746   2.731   1.946   1.132 -0.5423 -0.0975  0.3616
 9261TIP3    H127747   2.742   2.020   1.072  1.2829  0.0038  0.7686
 9261TIP3    H227748   2.672   1.886   1.086  0.2086  0.3180 -1.2079
 9262TIP3   OH227749   4.769   1.860   4.401 -0.1767 -0.1258  0.1289
 9262TIP3    H127750   4.727   1.776   4.419  0.3000 -0.5350 -0.6075
 9262TIP3    H227751   4.820   1.879   4.480  0.1627 -0.8056  0.0779
 9263TIP3   OH227752   2.248   2.161   5.404 -0.1777 -0.7688  0.6680
 9263TIP3    H127753   2.176   2.222   5.389 -0.1509 -0.8494  0.1696
 9263TIP3    H227754   2.292   2.193   5.483 -0.4811 -0.4512  0.7066
 9264TIP3   OH227755   1.312   4.227   1.989  0.0921  0.3948  0.0738
 9264TIP3    H127756   1.307   4.190   1.900  0.6884 -0.2187  0.2891
 9264TIP3    H227757   1.402   4.210   2.017 -0.0866  0.6094  0.7942
 9265TIP3   OH227758   4.326   0.483   2.747  0.7536 -0.6175  0.6057
 9265TIP3    H127759   4.374   0.411   2.705  2.0511 -0.4204  1.6847
 9265TIP3    H227760   4.302   0.448   2.833  2.0536  0.4310  1.4434
 9266TIP3   OH227761   3.782   4.814   2.247  0.2396 -0.0859 -0.4787
 9266TIP3    H127762   3.785   4.785   2.338  2.2144  0.1129 -0.4220
 9266TIP3    H227763   3.701   4.863   2.240 -0.4360 -0.9425  0.8999
 9267TIP3   OH227764   2.933   2.525   4.492 -0.0095 -0.3856 -0.7212
 9267TIP3    H127765   2.886   2.556   4.570  1.9936 -0.1472  0.4575
 9267TIP3    H227766   2.871   2.539   4.420 -1.8653 -0.4377  0.7676
 9268TIP3   OH227767   5.024   0.958   4.406 -0.6384 -0.5425  0.2546
 9268TIP3    H127768   4.979   0.985   4.486 -0.4790 -0.0752  0.1912
 9268TIP3    H227769   5.116   0.979   4.422 -0.5823 -0.5931  0.0079
 9269TIP3   OH227770   3.164   3.193   4.388  0.0848 -0.0965  0.1470
 9269TIP3    H127771   3.163   3.172   4.481 -0.4723 -1.1738 -0.0798
 9269TIP3    H227772   3.128   3.115   4.346  0.4093  0.3402 -0.9779
 9270TIP3   OH227773   1.831   5.989   2.169  0.2327 -0.1195  0.8756
 9270TIP3    H127774   1.737   5.975   2.169  0.3708 -1.1333  1.3576
 9270TIP3    H227775   1.867   5.912   2.125  0.9265 -0.4968  2.0562
 9271TIP3   OH227776   5.361   4.221   1.342  0.3216  0.1248 -0.1860
 9271TIP3    H127777   5.364   4.164   1.420  1.0845  1.9819  1.2094
 9271TIP3    H227778   5.416   4.295   1.364 -2.4325  2.6002 -0.9628
 9272TIP3   OH227779   0.402   1.686   2.334 -0.3974  0.0333 -0.8720
 9272TIP3    H127780   0.481   1.726   2.299 -0.3781  0.4069 -0.4128
 9272TIP3    H227781   0.338   1.691   2.263 -0.0405 -0.1766 -1.2087
 9273TIP3   OH227782   0.777   5.206   5.732 -0.2234  0.4461  0.6195
 9273TIP3    H127783   0.859   5.211   5.780  0.4635  2.2069 -0.6551
 9273TIP3    H227784   0.726   5.281   5.763 -0.5119  0.5397 -0.0621
 9274TIP3   OH227785   5.445   4.132   5.619 -0.1108  0.0141  0.7152
 9274TIP3    H127786   5.486   4.217   5.609  2.3962 -1.1664  0.2306
 9274TIP3    H227787   5.351   4.150   5.614  0.3553  2.6078 -0.2279
 9275TIP3   OH227788   4.935   5.979   0.563  0.5560 -0.4688 -0.6163
 9275TIP3    H127789   4.948   5.905   0.503  0.4229 -1.5745  0.6711
 9275TIP3    H227790   4.870   5.948   0.626  1.6798  0.1298  0.9103
 9276TIP3   OH227791   4.622   2.533   3.070  0.6499  0.1520  0.3872
 9276TIP3    H127792   4.705   2.528   3.022  0.6762  1.8829  0.1843
 9276TIP3    H227793   4.634   2.606   3.130  0.4939 -1.7464  2.8680
 9277TIP3   OH227794   4.304   5.618   0.348  0.2676 -0.0454 -0.4101
 9277TIP3    H127795   4.283   5.531   0.312 -0.5053 -0.5685  1.2002
 9277TIP3    H227796   4.220   5.652   0.378  0.1304  2.2990 -3.0145
 9278TIP3   OH227797   6.315   0.673   2.626  0.2414 -0.0231  0.2688
 9278TIP3    H127798   6.247   0.674   2.693 -0.3514 -2.1225 -0.2324
 9278TIP3    H227799   6.278   0.725   2.554 -0.9806 -1.3678 -0.1065
 9279TIP3   OH227800   2.872   3.818   1.723  0.5730 -0.5231 -0.1586
 9279TIP3    H127801   2.827   3.828   1.639  0.6460  0.1703 -0.1224
 9279TIP3    H227802   2.866   3.905   1.763  0.1899 -0.9459  0.7279
 9280TIP3   OH227803   2.416   1.996   2.782 -0.2263 -0.2934 -0.6794
 9280TIP3    H127804   2.433   2.074   2.729  0.7077 -1.6120 -2.4468
 9280TIP3    H227805   2.365   1.939   2.725 -3.6659  0.1867  1.6791
 9281TIP3   OH227806   0.515   3.987   0.881 -0.0046  0.1671  0.3265
 9281TIP3    H127807   0.597   3.945   0.856 -0.1150  0.3494 -0.3583
 9281TIP3    H227808   0.447   3.927   0.851 -0.1553  0.6806 -0.3738
 9282TIP3   OH227809   5.218   0.541   0.864  0.1415  0.4921 -0.1119
 9282TIP3    H127810   5.251   0.623   0.899 -1.6321 -0.1313  3.3468
 9282TIP3    H227811   5.261   0.473   0.916 -0.9705 -0.6285 -0.5897
 9283TIP3   OH227812   5.926   6.622   0.037  0.4563 -0.2904 -0.4012
 9283TIP3    H127813   5.998   6.581   0.085  1.1556 -0.0249 -1.2163
 9283TIP3    H227814   5.963   6.645  -0.048  0.3719  2.8527  0.2861
 9284TIP3   OH227815   2.012   4.849   2.724 -0.6136  0.1147 -0.0412
 9284TIP3    H127816   1.936   4.889   2.683 -1.6647 -2.7117 -1.0851
 9284TIP3    H227817   1.984   4.828   2.813  0.3858  2.6731  0.9941
 9285TIP3   OH227818   5.840   3.937   0.478  0.2556 -0.3286 -0.6244
 9285TIP3    H127819   5.795   4.004   0.428 -1.0771  0.7002  1.7681
 9285TIP3    H227820   5.927   3.972   0.494 -0.2619  0.6523  0.1605
 9286TIP3   OH227821   2.188   4.354   0.594 -0.5199  0.3496  0.1791
 9286TIP3    H127822   2.247   4.370   0.521 -0.3747  0.7573  0.3872
 9286TIP3    H227823   2.141   4.436   0.607 -1.4298 -0.0833 -0.2466
 9287TIP3   OH227824   0.956   1.364   5.338  0.0478  0.5779  0.2536
 9287TIP3    H127825   1.007   1.440   5.366  2.3852 -0.5029 -0.8017
 9287TIP3    H227826   0.936   1.318   5.420  0.5761  1.1480  0.7157
 9288TIP3   OH227827   3.201   4.343   0.429  0.2546 -0.3520  0.6220
 9288TIP3    H127828   3.182   4.333   0.522  0.6212 -0.3720  0.6952
 9288TIP3    H227829   3.145   4.278   0.386 -1.0820  0.7049  0.6989
 9289TIP3   OH227830   4.577   3.817   1.331 -0.2990 -0.5420 -0.2700
 9289TIP3    H127831   4.608   3.780   1.414  1.1888 -1.2793 -1.1197
 9289TIP3    H227832   4.498   3.766   1.310 -0.0798 -1.0754  0.1693
 9290TIP3   OH227833   3.076   5.394   3.232  0.0564 -0.0520 -0.4320
 9290TIP3    H127834   3.054   5.302   3.240 -0.8520  0.0352 -1.6298
 9290TIP3    H227835   3.059   5.415   3.140 -1.2356  1.6610  0.1348
 9291TIP3   OH227836   3.516   6.374   1.533 -0.0068  0.3837 -0.7662
 9291TIP3    H127837   3.481   6.295   1.573 -1.0762  0.6811 -1.0850
 9291TIP3    H227838   3.597   6.345   1.491  1.0380  0.0278  1.3790
 9292TIP3   OH227839   5.337   1.547   1.584  0.3001  0.1941 -0.4589
 9292TIP3    H127840   5.259   1.601   1.595  0.0336 -0.1862 -0.4619
 9292TIP3    H227841   5.408   1.601   1.618 -0.3429 -0.5652  2.4158
 9293TIP3   OH227842   6.272   2.635   1.946 -0.0875  0.0571 -0.0350
 9293TIP3    H127843   6.353   2.585   1.943  0.8201  1.5024 -1.3577
 9293TIP3    H227844   6.249   2.648   1.854 -1.6501 -0.0240  0.3140
 9294TIP3   OH227845   1.944   1.017   1.777 -0.0299  0.1829 -0.2777
 9294TIP3    H127846   1.879   1.051   1.716  0.5105  1.5411 -0.1357
 9294TIP3    H227847   2.028   1.032   1.733  0.1882 -2.6904 -1.0245
 9295TIP3   OH227848   3.267   6.738   0.548 -0.2997 -0.4148 -0.3105
 9295TIP3    H127849   3.263   6.737   0.644 -1.5983  0.8807 -0.3184
 9295TIP3    H227850   3.352   6.778   0.528  0.5461 -1.8412  0.2566
 9296TIP3   OH227851   0.297   2.995   3.963  0.1016 -0.1015 -0.1440
 9296TIP3    H127852   0.368   2.959   3.909  0.5020  1.8466 -0.9997
 9296TIP3    H227853   0.217   2.959   3.926  0.5274 -0.9286 -0.2827
 9297TIP3   OH227854   1.756   6.666   0.148  0.0836  0.1086 -0.3625
 9297TIP3    H127855   1.727   6.590   0.098 -0.7896 -0.1603  0.5167
 9297TIP3    H227856   1.680   6.724   0.151  0.2682  0.3316  0.2430
 9298TIP3   OH227857   4.608   5.853   0.967 -0.1916  0.0214  0.7134
 9298TIP3    H127858   4.515   5.834   0.984 -0.2378 -1.0033 -0.4868
 9298TIP3    H227859   4.644   5.768   0.941  0.4097  0.9410 -1.6560
 9299TIP3   OH227860   3.748   6.328   4.422 -0.4670 -0.2819  0.3065
 9299TIP3    H127861   3.812   6.395   4.401 -0.5553 -0.2346  0.1882
 9299TIP3    H227862   3.664   6.366   4.397 -0.4577 -0.6693 -0.3249
 9300TIP3   OH227863   3.356   6.409   5.175 -0.4126 -0.0409  0.4408
 9300TIP3    H127864   3.406   6.332   5.148 -0.0284  0.3817 -0.0803
 9300TIP3    H227865   3.296   6.425   5.103 -0.8008 -0.1113  0.7445
 9301TIP3   OH227866   2.605   2.443   5.715  0.1996  0.3820  0.5509
 9301TIP3    H127867   2.692   2.478   5.697  0.6480 -1.0080 -0.0358
 9301TIP3    H227868   2.571   2.501   5.784  1.1191  1.6287  0.0045
 9302TIP3   OH227869   6.654   2.421   3.287 -0.3548 -0.4403  0.5040
 9302TIP3    H127870   6.659   2.513   3.310  0.9819 -0.0563 -1.1290
 9302TIP3    H227871   6.715   2.377   3.346 -0.6465 -0.2266  0.9680
 9303TIP3   OH227872   4.012   5.470   5.826  0.2949 -0.0883  0.5036
 9303TIP3    H127873   4.095   5.479   5.873  1.3397  1.4980 -1.4838
 9303TIP3    H227874   4.037   5.445   5.737 -1.4674 -1.0572  0.2338
 9304TIP3   OH227875   5.934   1.597   5.696  0.0093 -0.0379  0.2574
 9304TIP3    H127876   5.896   1.685   5.703  1.6262  0.9166 -1.6997
 9304TIP3    H227877   5.870   1.548   5.643 -0.0791  0.5287 -0.1754
 9305TIP3   OH227878   2.902   3.171   4.031 -0.1070 -0.0457  0.2734
 9305TIP3    H127879   2.835   3.181   3.964  0.0659 -0.3585  0.0494
 9305TIP3    H227880   2.885   3.085   4.069  1.7444 -1.3473 -1.5835
 9306TIP3   OH227881   0.398   0.452   2.422  0.1026  0.3419 -0.3374
 9306TIP3    H127882   0.449   0.458   2.503 -1.3831 -0.9837  0.7628
 9306TIP3    H227883   0.410   0.537   2.380  1.1843  0.9460  1.1029
 9307TIP3   OH227884   1.312   2.483   0.764  0.1066  0.1354  1.0573
 9307TIP3    H127885   1.340   2.391   0.764 -0.2834 -0.0109 -0.3075
 9307TIP3    H227886   1.295   2.502   0.671 -1.5835  1.0358  1.5163
 9308TIP3   OH227887   4.565   0.614   4.545 -0.5551 -0.2148  0.3630
 9308TIP3    H127888   4.523   0.639   4.628  0.2564  0.2623  0.6347
 9308TIP3    H227889   4.608   0.694   4.514 -0.0038 -0.6467 -0.0095
 9309TIP3   OH227890   0.514   6.547   2.350 -0.7103 -0.0320 -0.2054
 9309TIP3    H127891   0.464   6.521   2.427 -1.9828  0.6596 -0.7673
 9309TIP3    H227892   0.563   6.624   2.378 -3.1642  1.8509 -0.7223
 9310TIP3   OH227893   5.024   4.647   0.049  0.1222  0.1134  0.6314
 9310TIP3    H127894   5.027   4.741   0.033  0.4591  0.2524  1.4430
 9310TIP3    H227895   4.962   4.637   0.121 -1.2855 -0.4767 -0.6158
 9311TIP3   OH227896   4.733   2.881   3.563  0.3408  0.0108  0.4359
 9311TIP3    H127897   4.722   2.794   3.525 -0.2911  0.1018  0.3884
 9311TIP3    H227898   4.643   2.914   3.572  0.6217  1.3540 -1.2042
 9312TIP3   OH227899   4.606   2.754   5.807  0.1121  0.0033 -0.7564
 9312TIP3    H127900   4.580   2.821   5.870  2.6877 -0.6464  1.1653
 9312TIP3    H227901   4.620   2.803   5.726 -2.4401  0.9993 -0.6944
 9313TIP3   OH227902   2.188   0.349   5.285 -0.3195  0.2191  0.3271
 9313TIP3    H127903   2.232   0.396   5.213 -0.5209  0.5937  0.4432
 9313TIP3    H227904   2.254   0.344   5.354  0.1740 -0.9318 -0.1976
 9314TIP3   OH227905   6.309   5.511   5.681 -0.1061 -0.1911 -0.1975
 9314TIP3    H127906   6.281   5.516   5.590  0.5245  1.9322 -0.3382
 9314TIP3    H227907   6.402   5.533   5.679 -0.1393  0.1490  0.9668
 9315TIP3   OH227908   4.034   4.657   4.221 -0.3760  0.4152 -0.0476
 9315TIP3    H127909   4.030   4.747   4.253  1.3283 -0.1307  1.9692
 9315TIP3    H227910   3.953   4.645   4.172 -2.6215  1.8520  2.9580
 9316TIP3   OH227911   4.227   3.380   2.262  0.0652 -0.1952 -0.4400
 9316TIP3    H127912   4.157   3.419   2.210  0.7065 -1.3660 -2.2825
 9316TIP3    H227913   4.192   3.379   2.352 -1.0611  1.9331 -0.7709
 9317TIP3   OH227914   1.498   5.102   5.597 -0.0717 -0.2598 -0.5687
 9317TIP3    H127915   1.455   5.094   5.682  0.7574  2.2206  0.1502
 9317TIP3    H227916   1.437   5.154   5.544  0.2369 -0.2365 -0.9049
 9318TIP3   OH227917   1.958   5.083   4.589 -0.2475 -0.4119  0.0973
 9318TIP3    H127918   1.976   5.027   4.664  0.6079  2.4074  2.1633
 9318TIP3    H227919   2.019   5.053   4.521  1.8426 -0.5752  1.9217
 9319TIP3   OH227920   2.803   1.513   5.494  0.1655 -0.0882 -0.0222
 9319TIP3    H127921   2.708   1.503   5.490  0.2510 -1.0374 -0.0277
 9319TIP3    H227922   2.831   1.518   5.402  0.3128 -2.1711 -0.1494
 9320TIP3   OH227923   5.682   1.341   1.714 -0.1609  0.0521 -0.1738
 9320TIP3    H127924   5.687   1.248   1.693 -0.7035  0.1143 -0.5838
 9320TIP3    H227925   5.694   1.386   1.630  1.2371  0.3900  0.1743
 9321TIP3   OH227926   6.622   4.625   0.362 -0.5595  0.3187 -0.7352
 9321TIP3    H127927   6.708   4.662   0.342  0.5482  0.6819  3.6643
 9321TIP3    H227928   6.627   4.535   0.330  1.7875  0.1049  0.0649
 9322TIP3   OH227929   5.493   2.270   3.555  0.0499 -0.4427  0.1949
 9322TIP3    H127930   5.533   2.187   3.581 -0.9610 -1.3136 -0.8752
 9322TIP3    H227931   5.516   2.280   3.463 -0.0959  0.3156  0.2346
 9323TIP3   OH227932   1.943   4.112   1.188 -0.0330  0.0799  0.0339
 9323TIP3    H127933   1.861   4.158   1.207  0.3311  0.8146 -0.1353
 9323TIP3    H227934   1.955   4.122   1.094  0.2078 -0.1103  0.0422
 9324TIP3   OH227935   1.083   3.694   5.680  0.2476  0.2150  0.1623
 9324TIP3    H127936   1.163   3.726   5.721  0.6131  0.9747 -1.0682
 9324TIP3    H227937   1.109   3.673   5.590 -0.5668 -1.1621  0.2298
 9325TIP3   OH227938   6.779   6.188   2.912 -0.2083  0.6446 -0.3973
 9325TIP3    H127939   6.761   6.148   2.997  1.0712  2.3516  0.7595
 9325TIP3    H227940   6.853   6.138   2.877 -0.5683  0.1046 -0.3937
 9326TIP3   OH227941   4.366   6.142   0.572 -0.2423  0.1055 -0.6633
 9326TIP3    H127942   4.420   6.084   0.626  0.7044 -0.2733 -1.9648
 9326TIP3    H227943   4.304   6.084   0.528  0.0157  0.2166 -1.1735
 9327TIP3   OH227944   1.743   4.129   1.480 -0.2500  0.2540 -0.2156
 9327TIP3    H127945   1.746   4.126   1.575 -0.6649  1.1413 -0.1621
 9327TIP3    H227946   1.816   4.187   1.456  0.8561 -1.2098 -0.5429
 9328TIP3   OH227947   3.110   2.447   5.645  0.0577  1.0094  0.0552
 9328TIP3    H127948   3.049   2.432   5.572  1.8666 -0.4691 -1.2565
 9328TIP3    H227949   3.158   2.526   5.619 -0.0177  1.0974  0.1815
 9329TIP3   OH227950   1.096   4.706   4.435  0.9034  0.3261 -0.1694
 9329TIP3    H127951   1.060   4.784   4.478  0.3992  0.4499 -0.8099
 9329TIP3    H227952   1.029   4.680   4.372  0.9543 -0.7774  0.2055
 9330TIP3   OH227953   2.596   5.112   4.880 -0.1238 -0.4803 -0.1324
 9330TIP3    H127954   2.508   5.144   4.860 -0.6497 -2.5282 -1.3957
 9330TIP3    H227955   2.655   5.179   4.845 -1.1700  0.0244 -0.9865
 9331TIP3   OH227956   7.106   5.286   1.592 -0.0712 -0.4133 -0.3810
 9331TIP3    H127957   7.020   5.247   1.576 -1.0927  1.4007  0.4498
 9331TIP3    H227958   7.088   5.374   1.624  2.0904 -0.2060  0.4793
 9332TIP3   OH227959   0.466   1.460   1.555  0.1923  0.2764 -0.2076
 9332TIP3    H127960   0.503   1.428   1.473  1.4256  0.7935  0.1192
 9332TIP3    H227961   0.536   1.512   1.595 -0.6851  0.7878  0.7479
 9333TIP3   OH227962   6.035   5.381   1.346  0.3436 -0.0893 -0.0179
 9333TIP3    H127963   6.072   5.317   1.405  0.8639 -0.7308 -1.0140
 9333TIP3    H227964   5.946   5.350   1.329 -0.2372  0.7322  1.3158
 9334TIP3   OH227965   4.731   3.688   5.308 -0.2777 -0.2510 -0.3537
 9334TIP3    H127966   4.702   3.657   5.222  1.7727 -0.9707 -0.8582
 9334TIP3    H227967   4.766   3.610   5.351  1.1471  0.5661  0.0364
 9335TIP3   OH227968   4.886   2.639   0.948 -0.1355  0.9893  0.5197
 9335TIP3    H127969   4.881   2.671   0.858 -1.9710  1.8583  0.8821
 9335TIP3    H227970   4.952   2.694   0.990  1.3510  0.0369 -0.4544
 9336TIP3   OH227971   1.301   2.800   0.319  0.1475  0.0058  0.3978
 9336TIP3    H127972   1.379   2.816   0.372  2.4917  2.5307 -3.2968
 9336TIP3    H227973   1.275   2.886   0.287 -2.7157 -1.0559 -0.5419
 9337TIP3   OH227974   2.045   4.247   3.974  0.7646  0.3012 -0.2892
 9337TIP3    H127975   2.039   4.168   4.027  0.5941 -0.1016 -0.9017
 9337TIP3    H227976   2.081   4.313   4.033  0.8831 -0.2256  0.2337
 9338TIP3   OH227977   4.294   0.800   2.080 -0.0901 -0.0485  0.3384
 9338TIP3    H127978   4.355   0.728   2.061 -1.4652 -1.3762  0.7761
 9338TIP3    H227979   4.211   0.757   2.097 -0.9033  1.6578  0.8783
 9339TIP3   OH227980   5.719   0.367   2.897  0.2083  0.1291 -0.1526
 9339TIP3    H127981   5.637   0.317   2.895  0.2616  0.0089  0.4669
 9339TIP3    H227982   5.709   0.427   2.970  0.8044 -0.1109  0.1332
 9340TIP3   OH227983   0.186   4.857   4.795  0.7299  0.0112 -0.3866
 9340TIP3    H127984   0.225   4.945   4.800 -0.5798  0.5656  0.6331
 9340TIP3    H227985   0.178   4.830   4.887 -1.5316  0.0655 -0.5088
 9341TIP3   OH227986   2.969   4.714   3.377  0.2697  0.1289  0.2220
 9341TIP3    H127987   3.002   4.762   3.301 -1.5712 -1.1676 -1.5102
 9341TIP3    H227988   2.957   4.624   3.345 -0.0601 -0.5858  2.2177
 9342TIP3   OH227989   3.555   5.686   0.131  0.1500  0.3483 -0.2265
 9342TIP3    H127990   3.475   5.634   0.136  0.0055  0.6702  0.9252
 9342TIP3    H227991   3.624   5.625   0.157 -0.2435  1.1910  3.1549
 9343TIP3   OH227992   4.091   5.095   4.716  0.4436  0.3112  0.0819
 9343TIP3    H127993   4.132   5.180   4.703  1.5440 -0.1116  0.6215
 9343TIP3    H227994   4.163   5.038   4.745 -0.5124 -0.4987  0.9170
 9344TIP3   OH227995   6.181   0.320   2.834  0.1290  0.1070 -0.1608
 9344TIP3    H127996   6.237   0.295   2.907 -1.3657 -0.2343  0.9189
 9344TIP3    H227997   6.097   0.278   2.853 -0.9486  1.8115 -0.9316
 9345TIP3   OH227998   5.580   3.405   4.247 -0.0057  0.4288 -0.3096
 9345TIP3    H127999   5.623   3.352   4.180 -0.8152 -0.1106 -0.4191
 9345TIP3    H228000   5.532   3.472   4.198 -0.9524 -0.2346 -0.2967
 9346TIP3   OH228001   5.897   3.984   0.171 -0.3187 -0.3330 -0.1546
 9346TIP3    H128002   5.814   4.001   0.216 -0.2981 -0.9546  0.1294
 9346TIP3    H228003   5.875   3.991   0.078 -0.4491  0.5546 -0.0676
 9347TIP3   OH228004   2.615   5.137   5.574  0.1311  0.2355 -0.4341
 9347TIP3    H128005   2.531   5.106   5.540  1.1074 -1.8375 -1.1044
 9347TIP3    H228006   2.605   5.131   5.669  0.4315 -2.9207 -0.4948
 9348TIP3   OH228007   0.440   6.524   1.884  0.1557 -0.4231  0.1989
 9348TIP3    H128008   0.395   6.604   1.856  1.4178  0.4317  0.4964
 9348TIP3    H228009   0.533   6.548   1.883  0.5431 -1.8446  0.4677
 9349TIP3   OH228010   1.250   2.165   3.529  0.7003  0.0476  0.5038
 9349TIP3    H128011   1.251   2.144   3.623  0.9192  3.7104  1.4705
 9349TIP3    H228012   1.166   2.131   3.498  0.8957 -1.7950  1.8177
 9350TIP3   OH228013   0.273   1.012   0.717  0.4337  0.0225  0.2328
 9350TIP3    H128014   0.181   1.007   0.743  0.4574 -0.6936  0.1950
 9350TIP3    H228015   0.291   1.106   0.713 -0.2650  0.1704  0.3400
 9351TIP3   OH228016   1.837   6.380   5.816 -0.4787  0.5005 -1.0345
 9351TIP3    H128017   1.752   6.335   5.819 -0.3963  0.3983  0.6225
 9351TIP3    H228018   1.825   6.459   5.869  1.4283 -1.4139  2.6918
 9352TIP3   OH228019   1.073   5.509   1.929  0.1103 -0.4360  0.3202
 9352TIP3    H128020   0.980   5.517   1.909 -0.0548 -0.4913  1.0216
 9352TIP3    H228021   1.075   5.480   2.021  0.8189 -0.3325  0.3425
 9353TIP3   OH228022   3.589   4.497   5.519 -0.4264 -0.1336  0.2115
 9353TIP3    H128023   3.660   4.433   5.512  1.9113  2.2276  0.5672
 9353TIP3    H228024   3.526   4.457   5.579  1.0123 -2.0052  0.5689
 9354TIP3   OH228025   0.627   1.811   2.218  0.1871  0.2203 -0.0573
 9354TIP3    H128026   0.711   1.769   2.233  1.3913  2.3647 -0.4417
 9354TIP3    H228027   0.628   1.836   2.125 -0.3778  1.2542  0.1935
 9355TIP3   OH228028   0.268   1.654   2.097  0.0417  0.2240  0.5844
 9355TIP3    H128029   0.252   1.559   2.099 -0.1941  0.2739  2.5426
 9355TIP3    H228030   0.307   1.669   2.011  0.1191 -1.6575  0.2388
 9356TIP3   OH228031   3.491   5.746   4.095  0.4908 -0.1557 -0.3242
 9356TIP3    H128032   3.535   5.741   4.010  1.6922  2.1570  0.0755
 9356TIP3    H228033   3.562   5.744   4.159 -0.1970  0.5243  0.4967
 9357TIP3   OH228034   5.856   0.758   3.621 -0.0887 -0.1146  0.3943
 9357TIP3    H128035   5.933   0.723   3.666 -0.6747 -1.8871  0.1080
 9357TIP3    H228036   5.852   0.707   3.540 -0.5660  1.1878 -0.4226
 9358TIP3   OH228037   2.596   0.136   4.689 -0.5284  0.3392 -0.0837
 9358TIP3    H128038   2.610   0.072   4.620 -0.3049  1.4318 -1.0845
 9358TIP3    H228039   2.520   0.186   4.661 -1.1216  0.1015  1.0201
 9359TIP3   OH228040   6.113   1.622   3.524 -0.1416 -0.2646  0.9060
 9359TIP3    H128041   6.179   1.572   3.475 -0.1785  1.9561 -1.6354
 9359TIP3    H228042   6.156   1.703   3.547 -1.4997  0.5979  0.5252
 9360TIP3   OH228043   6.015   2.324   2.642 -0.2750 -0.4491 -0.8705
 9360TIP3    H128044   6.018   2.332   2.738  0.3389  1.4667 -0.9922
 9360TIP3    H228045   6.076   2.253   2.622 -0.2440 -0.7316  0.1467
 9361TIP3   OH228046   1.334   4.069   0.709 -0.1811  0.6454  0.0701
 9361TIP3    H128047   1.326   4.108   0.796 -1.0982 -1.9861  1.2700
 9361TIP3    H228048   1.248   4.031   0.692  0.5737 -0.6111 -1.1027
 9362TIP3   OH228049   4.835   5.869   1.665  0.2351  0.5163  0.0847
 9362TIP3    H128050   4.890   5.814   1.609  0.5345  2.3089 -1.4391
 9362TIP3    H228051   4.820   5.815   1.743  2.8294 -0.6593 -0.1271
 9363TIP3   OH228052   0.114   3.091   0.837  0.5521 -0.4472 -0.1997
 9363TIP3    H128053   0.094   3.178   0.871  0.3822 -1.4769  2.5417
 9363TIP3    H228054   0.210   3.087   0.835  0.5598 -0.1765 -0.4473
 9364TIP3   OH228055   1.660   1.617   0.677  0.0272 -0.4285 -0.2141
 9364TIP3    H128056   1.732   1.676   0.656 -0.0053 -0.5003 -0.5299
 9364TIP3    H228057   1.699   1.530   0.677 -0.0282 -0.4532 -0.2278
 9365TIP3   OH228058   4.178   1.276   0.396  0.4577 -0.0051  0.0411
 9365TIP3    H128059   4.208   1.302   0.483 -0.1696 -1.1135  0.6059
 9365TIP3    H228060   4.141   1.356   0.359 -2.3301 -0.2138  2.1174
 9366TIP3   OH228061   5.385   0.762   0.831 -0.2870 -0.1913  0.3856
 9366TIP3    H128062   5.344   0.712   0.760  1.6508  0.3668 -1.2268
 9366TIP3    H228063   5.334   0.843   0.836  0.3685  0.3925 -1.4314
 9367TIP3   OH228064   5.971   6.267   5.214 -0.1307 -0.1791 -0.0728
 9367TIP3    H128065   5.973   6.362   5.222 -0.1672 -0.0201 -1.5631
 9367TIP3    H228066   5.882   6.242   5.238  0.1194  0.0502  1.1601
 9368TIP3   OH228067   7.089   6.537   3.020 -0.1551 -0.0617  0.2480
 9368TIP3    H128068   7.154   6.490   3.072 -1.3250  0.5302  2.3533
 9368TIP3    H228069   7.140   6.594   2.963  1.1768 -0.4530  1.0166
 9369TIP3   OH228070   0.140   5.500   3.043 -0.0061  0.5134 -0.0840
 9369TIP3    H128071   0.145   5.548   2.960 -0.1726 -0.3088 -0.5874
 9369TIP3    H228072   0.229   5.464   3.055  0.1503  1.0337  0.3488
 9370TIP3   OH228073   1.875   3.751   2.061 -0.0108 -0.1753  0.0781
 9370TIP3    H128074   1.835   3.683   2.006  0.1299 -1.1919  1.1805
 9370TIP3    H228075   1.838   3.736   2.148 -0.6238  1.7334  0.1724
 9371TIP3   OH228076   1.942   6.763   4.686 -0.0932 -0.4574  0.0995
 9371TIP3    H128077   1.934   6.756   4.591  0.3310  0.2468 -0.0034
 9371TIP3    H228078   1.865   6.813   4.713  0.3995  0.3989 -0.0361
 9372TIP3   OH228079   6.588   2.399   0.614 -0.2253 -0.0300  0.0249
 9372TIP3    H128080   6.610   2.483   0.574 -1.7052  1.3410  1.9299
 9372TIP3    H228081   6.507   2.372   0.572  0.7573 -1.0835 -1.3015
 9373TIP3   OH228082   3.940   2.490   1.539 -0.1853  0.1305  0.2198
 9373TIP3    H128083   3.876   2.561   1.537  1.2299  1.4797  0.3944
 9373TIP3    H228084   4.012   2.522   1.485 -0.0429 -1.7501 -0.7869
 9374TIP3   OH228085   6.038   2.380   3.384  0.0725  0.6096 -0.3040
 9374TIP3    H128086   6.080   2.420   3.461 -2.3658  2.2530  0.2837
 9374TIP3    H228087   6.062   2.437   3.311  1.3686 -0.2567 -0.5988
 9375TIP3   OH228088   0.261   2.759   1.713  0.1587 -0.1468 -0.2660
 9375TIP3    H128089   0.177   2.736   1.752 -0.1874  1.5638  0.0715
 9375TIP3    H228090   0.325   2.744   1.783  0.2211 -1.8409 -0.6504
 9376TIP3   OH228091   3.044   1.696   4.930 -0.4574 -0.2396 -0.1235
 9376TIP3    H128092   3.104   1.721   4.860 -0.0899 -0.9059 -0.0505
 9376TIP3    H228093   3.098   1.690   5.009 -0.7169 -0.3189  0.0537
 9377TIP3   OH228094   4.629   4.743   1.382  0.1690  0.8601  0.2949
 9377TIP3    H128095   4.547   4.717   1.424 -0.6901  0.6053 -1.4455
 9377TIP3    H228096   4.611   4.828   1.344  1.9872  2.7273  3.2112
 9378TIP3   OH228097   3.404   6.637   5.520  0.2492  0.3892 -0.2756
 9378TIP3    H128098   3.347   6.713   5.533  0.3163  0.2736  0.7133
 9378TIP3    H228099   3.484   6.674   5.483 -0.3994  0.5680 -1.5576
 9379TIP3   OH228100   2.155   3.559   1.339  0.1535  0.3432  0.2857
 9379TIP3    H128101   2.151   3.607   1.256  1.0270 -0.6246 -0.3479
 9379TIP3    H228102   2.083   3.497   1.334  0.2351  0.2524  0.2200
 9380TIP3   OH228103   4.834   4.911   0.490  0.3973  0.2097 -0.2708
 9380TIP3    H128104   4.767   4.846   0.512  1.3692 -0.4672  0.8322
 9380TIP3    H228105   4.805   4.948   0.406 -0.7851 -0.8136 -0.3490
 9381TIP3   OH228106   6.690   3.851   0.817  0.1415 -0.0699 -0.2010
 9381TIP3    H128107   6.629   3.924   0.828 -0.9521 -0.9978 -0.0077
 9381TIP3    H228108   6.642   3.787   0.765  1.4908 -0.2076 -1.3468
 9382TIP3   OH228109   0.955   3.946   3.398 -0.3522 -0.0873 -0.4354
 9382TIP3    H128110   0.991   3.859   3.415  0.1926  0.1274 -0.4863
 9382TIP3    H228111   1.031   4.003   3.395 -0.7147  0.4005 -0.3569
 9383TIP3   OH228112   3.455   4.629   4.131 -0.1553  0.5624  0.2081
 9383TIP3    H128113   3.481   4.708   4.178  1.7937  0.6342 -0.8777
 9383TIP3    H228114   3.411   4.662   4.052  0.9773  0.6063 -0.4230
 9384TIP3   OH228115   3.775   5.493   2.039  0.2331 -1.0087  0.2685
 9384TIP3    H128116   3.803   5.402   2.023 -1.4830 -1.3710 -1.0347
 9384TIP3    H228117   3.809   5.514   2.126  1.2808 -2.6531  0.3028
 9385TIP3   OH228118   6.375   0.828   3.770 -0.3103 -0.0769 -0.2805
 9385TIP3    H128119   6.415   0.857   3.852  1.4042 -0.0551 -1.0743
 9385TIP3    H228120   6.448   0.824   3.708 -1.6610  0.4933 -1.9834
 9386TIP3   OH228121   5.716   5.720   1.653 -0.1406  1.0536  0.1820
 9386TIP3    H128122   5.750   5.657   1.589 -0.2545  0.5821  0.5830
 9386TIP3    H228123   5.793   5.763   1.689 -0.0258  0.7012  0.3563
 9387TIP3   OH228124   6.694   6.517   4.910 -0.3405 -0.4572 -0.3633
 9387TIP3    H128125   6.671   6.598   4.864 -0.4854 -1.6308 -2.5173
 9387TIP3    H228126   6.772   6.485   4.863  1.2271 -0.3609  2.0164
 9388TIP3   OH228127   1.532   4.244   4.502  0.8292  0.6077 -0.3184
 9388TIP3    H128128   1.568   4.332   4.514  1.4083  0.2512  0.7063
 9388TIP3    H228129   1.607   4.186   4.519  0.3566 -0.0952 -0.6028
 9389TIP3   OH228130   4.073   3.607   1.391 -0.0126  0.3782 -0.7970
 9389TIP3    H128131   4.032   3.663   1.458 -0.3455  0.2229 -0.8680
 9389TIP3    H228132   4.167   3.612   1.410  0.0024  1.3265 -1.0773
 9390TIP3   OH228133   3.679   5.443   3.482 -0.2180  0.0059 -0.1621
 9390TIP3    H128134   3.591   5.438   3.519  0.1165 -1.8782  0.5291
 9390TIP3    H228135   3.711   5.529   3.508 -1.0675 -0.1208  1.4932
 9391TIP3   OH228136   4.021   4.570   2.983 -0.4047  0.2930  0.0005
 9391TIP3    H128137   3.946   4.529   3.027 -0.0560 -0.7850 -0.3727
 9391TIP3    H228138   4.007   4.664   2.995 -1.9337  0.1289 -0.2496
 9392TIP3   OH228139   3.322   0.396   5.823 -0.1063  0.0802  0.1182
 9392TIP3    H128140   3.375   0.369   5.748 -0.8119 -0.0950 -0.3345
 9392TIP3    H228141   3.246   0.440   5.783  0.1105  1.0728  0.7756
 9393TIP3   OH228142   0.965   2.859   4.950 -0.3086 -0.0852 -0.0486
 9393TIP3    H128143   1.021   2.863   4.872 -0.2120 -1.3056 -0.0540
 9393TIP3    H228144   0.886   2.816   4.919 -0.7796  0.5428  0.2547
 9394TIP3   OH228145   0.965   6.328   4.757 -0.1524 -0.6318  0.1450
 9394TIP3    H128146   0.937   6.419   4.773  0.1140 -0.1336 -1.9505
 9394TIP3    H228147   0.939   6.310   4.667  0.6260 -2.3399  0.2170
 9395TIP3   OH228148   1.947   6.301   0.245  0.0912  0.0924 -0.0455
 9395TIP3    H128149   1.898   6.248   0.307 -0.8902  0.1611 -0.7417
 9395TIP3    H228150   1.884   6.322   0.176  1.7074 -1.8391 -2.2354
 9396TIP3   OH228151   0.072   4.367   5.650  0.5614 -0.3059  0.5977
 9396TIP3    H128152   0.022   4.355   5.569  0.7021 -3.5574  0.8586
 9396TIP3    H228153   0.160   4.393   5.621 -0.1050  1.3621 -0.0648
 9397TIP3   OH228154   6.544   4.044   5.709  0.4876 -0.0444 -0.1200
 9397TIP3    H128155   6.541   4.101   5.785 -1.6455  1.0911 -0.9787
 9397TIP3    H228156   6.619   4.076   5.658  1.3119 -0.1717  0.9619
 9398TIP3   OH228157   5.274   2.153   0.533  0.0547  0.0264  0.3440
 9398TIP3    H128158   5.272   2.081   0.596 -2.4570 -0.8843 -0.6218
 9398TIP3    H228159   5.333   2.123   0.463  1.9483  0.5679  1.6323
 9399TIP3   OH228160   0.907   5.119   4.661 -0.2050  0.4080 -0.1312
 9399TIP3    H128161   0.977   5.073   4.615 -2.2612 -2.4879 -0.6056
 9399TIP3    H228162   0.945   5.140   4.747  1.1637 -1.3508 -0.2559
 9400TIP3   OH228163   1.358   1.080   3.016  0.4175 -0.4570  0.8335
 9400TIP3    H128164   1.387   1.063   2.926  0.2814  0.1477  0.6673
 9400TIP3    H228165   1.341   0.994   3.052 -0.4824 -0.6714 -0.0472
 9401TIP3   OH228166   6.750   6.290   4.188 -0.0614 -0.0014  0.2571
 9401TIP3    H128167   6.717   6.378   4.209 -0.3535 -0.1974  0.6388
 9401TIP3    H228168   6.839   6.289   4.223  1.0501  1.1261 -2.2954
 9402TIP3   OH228169   1.113   5.707   5.609  0.1274 -0.0469  0.2743
 9402TIP3    H128170   1.125   5.733   5.700  0.8693 -1.0235  0.4687
 9402TIP3    H228171   1.052   5.634   5.612  0.4964 -0.3687  0.0374
 9403TIP3   OH228172   2.659   0.542   0.276  0.1551 -0.0080  0.1993
 9403TIP3    H128173   2.669   0.595   0.355  0.2723  0.0639  0.1363
 9403TIP3    H228174   2.618   0.460   0.307 -0.2329  0.2065  0.2605
 9404TIP3   OH228175   4.701   6.426   2.700  0.1231  0.0404  0.0572
 9404TIP3    H128176   4.753   6.351   2.729 -0.5489 -0.9814 -1.2877
 9404TIP3    H228177   4.679   6.473   2.781 -0.6129 -1.9809  1.0816
 9405TIP3   OH228178   1.962   6.102   1.840 -0.2148  0.5486 -0.5080
 9405TIP3    H128179   2.032   6.113   1.905  0.5290 -0.6214 -1.0868
 9405TIP3    H228180   1.927   6.190   1.829  2.4887  1.6064 -1.6678
 9406TIP3   OH228181   1.778   0.923   1.351 -0.1054 -0.4874 -0.1794
 9406TIP3    H128182   1.694   0.877   1.356 -0.4910  0.3031  0.9711
 9406TIP3    H228183   1.775   0.970   1.267 -0.0248 -1.8984 -1.0112
 9407TIP3   OH228184   6.061   5.091   2.321  0.1733  0.5334 -0.1900
 9407TIP3    H128185   5.996   5.034   2.361  1.4213  0.7482  2.3943
 9407TIP3    H228186   6.032   5.102   2.230 -3.0228  0.1975  0.6782
 9408TIP3   OH228187   5.072   3.516   0.242 -0.0133  0.0055  0.4365
 9408TIP3    H128188   5.165   3.498   0.230 -0.3756 -0.4087 -2.8139
 9408TIP3    H228189   5.029   3.433   0.225 -1.0645  0.7392 -0.6585
 9409TIP3   OH228190   3.638   5.878   2.100 -0.1907  0.1620  0.7316
 9409TIP3    H128191   3.690   5.900   2.022  1.0284 -0.4290  1.3562
 9409TIP3    H228192   3.580   5.809   2.070 -1.0281  1.1825 -0.1124
 9410TIP3   OH228193   2.837   5.158   1.018 -0.4289 -0.0868 -0.1568
 9410TIP3    H128194   2.745   5.134   1.012 -0.6898  0.3160  1.5766
 9410TIP3    H228195   2.875   5.090   1.074 -0.0766  0.7289  0.6119
 9411TIP3   OH228196   6.173   1.897   3.876 -0.3260  0.2432 -0.1390
 9411TIP3    H128197   6.112   1.833   3.839  1.5551 -0.7183 -1.7873
 9411TIP3    H228198   6.220   1.932   3.800  0.1901  2.0098  0.9292
 9412TIP3   OH228199   7.052   6.646   3.451  0.0173 -0.4850 -0.0754
 9412TIP3    H128200   7.015   6.704   3.384  1.3140 -0.3547 -0.7051
 9412TIP3    H228201   7.069   6.564   3.405  0.2524 -0.6281  0.2621
 9413TIP3   OH228202   3.086   5.114   4.509  0.5236  0.4684  0.2327
 9413TIP3    H128203   3.001   5.085   4.541  0.4445  0.5538  0.0949
 9413TIP3    H228204   3.114   5.181   4.571  0.1306  1.0145 -0.1811
 9414TIP3   OH228205   4.632   1.877   1.873 -0.4286 -0.0739 -0.4816
 9414TIP3    H128206   4.667   1.788   1.868  0.2087  0.1550 -0.2166
 9414TIP3    H228207   4.540   1.866   1.897  0.1458 -0.5812  1.6521
 9415TIP3   OH228208   5.956   4.713   4.221 -0.5316 -0.2767 -0.2995
 9415TIP3    H128209   5.890   4.752   4.278  0.1392  0.5193 -0.0513
 9415TIP3    H228210   5.923   4.625   4.203 -2.0673  0.3746 -0.8423
 9416TIP3   OH228211   0.345   5.520   3.329 -0.2763  0.0570 -0.1611
 9416TIP3    H128212   0.343   5.491   3.420 -1.6208 -1.1213 -0.5406
 9416TIP3    H228213   0.436   5.545   3.314  0.0078  0.0933  1.4432
 9417TIP3   OH228214   5.738   5.518   1.183  0.2743  0.5885  0.2643
 9417TIP3    H128215   5.663   5.462   1.167 -0.1679  1.0304  0.7484
 9417TIP3    H228216   5.777   5.484   1.264 -0.1382  1.1048  0.6961
 9418TIP3   OH228217   3.364   0.453   5.305  0.2376  0.7316 -0.1533
 9418TIP3    H128218   3.270   0.465   5.292 -0.0834 -0.8071  0.5670
 9418TIP3    H228219   3.385   0.373   5.258  0.7426 -0.1147  1.4388
 9419TIP3   OH228220   2.091   5.236   0.715 -0.0650 -0.0989 -0.2254
 9419TIP3    H128221   2.031   5.308   0.693  0.9523  0.9714  0.3611
 9419TIP3    H228222   2.104   5.245   0.810  0.0290 -1.1072 -0.1376
 9420TIP3   OH228223   5.824   0.231   0.178 -0.3120 -0.3440 -0.0447
 9420TIP3    H128224   5.764   0.300   0.149 -0.2067 -0.3888 -0.3631
 9420TIP3    H228225   5.814   0.161   0.114  0.9331  0.1092 -0.7729
 9421TIP3   OH228226   6.269   2.626   1.422  0.1480  0.0925 -0.1037
 9421TIP3    H128227   6.228   2.662   1.501  1.3206  0.4649  0.3485
 9421TIP3    H228228   6.208   2.648   1.352  0.6248  2.7055  0.1969
 9422TIP3   OH228229   4.336   0.445   4.824 -0.3395 -0.0419  0.6531
 9422TIP3    H128230   4.283   0.405   4.754 -0.3818 -0.4969  0.9386
 9422TIP3    H228231   4.359   0.531   4.790 -1.3510  0.2063  0.5667
 9423TIP3   OH228232   0.424   6.489   1.560 -0.2066 -0.3474  0.0796
 9423TIP3    H128233   0.430   6.415   1.620  0.0107  0.9890  1.7745
 9423TIP3    H228234   0.509   6.532   1.565 -0.0158 -0.4562 -1.5764
 9424TIP3   OH228235   5.154   5.367   1.972  0.3650 -0.3170  0.5904
 9424TIP3    H128236   5.087   5.432   1.993 -0.1940 -0.3792 -0.8834
 9424TIP3    H228237   5.190   5.341   2.056 -1.0483  0.1663  1.3692
 9425TIP3   OH228238   0.117   3.871   2.552 -0.3344  0.2855  0.7617
 9425TIP3    H128239   0.124   3.918   2.635  0.3146  0.8373  0.4006
 9425TIP3    H228240   0.138   3.780   2.575 -1.0807  0.2524  1.3657
 9426TIP3   OH228241   0.669   4.928   4.896  0.7453 -0.1404 -0.1825
 9426TIP3    H128242   0.664   4.982   4.974 -0.0806 -1.5094  0.7539
 9426TIP3    H228243   0.639   4.985   4.825  1.0181  0.9618  0.5707
 9427TIP3   OH228244   1.183   4.063   0.358  0.0069 -0.1867  0.0143
 9427TIP3    H128245   1.242   4.020   0.420 -0.3842  1.3268  1.5180
 9427TIP3    H228246   1.192   4.012   0.277  2.9681 -0.3437  0.3163
 9428TIP3   OH228247   7.042   4.332   1.391  0.4072 -0.3044 -0.3933
 9428TIP3    H128248   7.023   4.250   1.437 -0.9397  0.0732 -0.2252
 9428TIP3    H228249   7.066   4.394   1.460  1.0351 -0.4423 -0.4816
 9429TIP3   OH228250   5.632   1.245   2.492  0.1642 -0.2296 -0.1551
 9429TIP3    H128251   5.610   1.253   2.585  2.1447 -1.1154  0.4360
 9429TIP3    H228252   5.717   1.288   2.484  0.3426 -0.7837 -1.4223
 9430TIP3   OH228253   5.334   4.481   3.571  0.0337 -0.2219 -0.5824
 9430TIP3    H128254   5.390   4.449   3.642 -0.7413  0.4748  0.3665
 9430TIP3    H228255   5.245   4.479   3.607 -0.2818  0.9110 -1.2492
 9431TIP3   OH228256   4.559   0.247   5.832 -0.0990 -0.2897 -0.1198
 9431TIP3    H128257   4.630   0.244   5.768  0.8440 -0.9126  0.9086
 9431TIP3    H228258   4.524   0.157   5.833 -0.1815 -0.2562  0.1444
 9432TIP3   OH228259   4.501   2.916   1.638  0.5665 -0.3787 -0.1993
 9432TIP3    H128260   4.436   2.942   1.572 -0.8271 -1.2963  0.7576
 9432TIP3    H228261   4.484   2.974   1.712  2.7280  1.2770 -0.8769
 9433TIP3   OH228262   3.725   3.284   3.263  0.2031 -0.0887  0.6192
 9433TIP3    H128263   3.679   3.360   3.300  0.8626  0.5931  0.0797
 9433TIP3    H228264   3.813   3.288   3.302  0.5312 -0.0378 -0.1066
 9434TIP3   OH228265   5.244   4.017   2.878  0.0800  0.1885 -0.2014
 9434TIP3    H128266   5.286   3.973   2.952 -0.7566 -1.1532 -0.4977
 9434TIP3    H228267   5.197   3.947   2.832 -2.8150  1.6540  0.3277
 9435TIP3   OH228268   5.019   5.946   4.779  0.0020 -0.2247 -0.3601
 9435TIP3    H128269   5.105   5.962   4.817 -0.1118  0.0727 -0.2194
 9435TIP3    H228270   4.957   5.973   4.847 -0.2028  0.2404 -0.7181
 9436TIP3   OH228271   5.587   4.490   5.814  0.2072  0.0935 -0.8570
 9436TIP3    H128272   5.515   4.549   5.835  1.2910  1.2903 -0.2991
 9436TIP3    H228273   5.660   4.549   5.794  1.8169 -1.0078  1.3765
 9437TIP3   OH228274   4.494   4.809   2.105 -0.1602  0.3741  0.1256
 9437TIP3    H128275   4.501   4.714   2.113  2.1955  0.5988  1.6030
 9437TIP3    H228276   4.574   4.843   2.145 -1.0137  3.0079 -0.1924
 9438TIP3   OH228277   6.897   1.733   2.759 -0.3454  0.1114  0.1677
 9438TIP3    H128278   6.822   1.682   2.790  0.1730 -1.2257 -0.7043
 9438TIP3    H228279   6.956   1.737   2.834 -0.3321 -0.7122  0.2070
 9439TIP3   OH228280   0.767   6.619   3.064  0.3167  0.0771 -0.3577
 9439TIP3    H128281   0.829   6.553   3.032  1.7867  0.9753  0.5213
 9439TIP3    H228282   0.762   6.603   3.158 -0.6628  0.1427 -0.3903
 9440TIP3   OH228283   2.711   6.285   0.283 -0.1602  0.1544  0.2810
 9440TIP3    H128284   2.675   6.243   0.205 -0.4967 -0.9279  0.9911
 9440TIP3    H228285   2.763   6.358   0.249 -0.2218 -0.3473 -0.9537
 9441TIP3   OH228286   5.167   5.953   4.207 -0.0813  0.0521  0.6389
 9441TIP3    H128287   5.237   5.893   4.234 -0.6032 -1.0180 -0.2975
 9441TIP3    H228288   5.212   6.023   4.159  0.2398 -1.5047 -1.4538
 9442TIP3   OH228289   3.223   5.978   4.036 -0.8292 -0.0710 -0.0704
 9442TIP3    H128290   3.201   5.997   3.945  0.5255  0.5411 -0.3089
 9442TIP3    H228291   3.184   5.893   4.054 -1.1430 -0.1822 -1.2098
 9443TIP3   OH228292   2.299   5.342   4.538  0.2689  0.6172  0.4645
 9443TIP3    H128293   2.310   5.257   4.580  0.4306  0.3713 -0.0629
 9443TIP3    H228294   2.373   5.348   4.477 -0.5662  0.4680 -0.5962
 9444TIP3   OH228295   0.527   5.109   1.001  0.3740  0.5432  0.2436
 9444TIP3    H128296   0.599   5.151   1.046  1.2117  0.2347 -0.7717
 9444TIP3    H228297   0.449   5.132   1.053  1.1852  0.8733  1.3456
 9445TIP3   OH228298   0.977   3.084   2.964  0.0306 -0.0226  0.1986
 9445TIP3    H128299   1.021   3.005   2.994  2.3199 -0.4957 -3.7284
 9445TIP3    H228300   1.044   3.152   2.971 -1.6929  1.5995  2.8712
 9446TIP3   OH228301   4.974   0.452   5.135  0.7561  0.4149 -0.2419
 9446TIP3    H128302   4.923   0.448   5.054  0.2729 -0.9552  0.1009
 9446TIP3    H228303   5.065   0.452   5.105  0.6391  2.9414 -0.8589
 9447TIP3   OH228304   0.308   5.526   2.665 -0.2391 -0.1986  0.3482
 9447TIP3    H128305   0.386   5.483   2.630 -0.2827 -0.5794  0.7065
 9447TIP3    H228306   0.259   5.552   2.588  1.0606  1.6103  0.0689
 9448TIP3   OH228307   6.163   3.847   3.704 -0.1823  0.0854 -0.2606
 9448TIP3    H128308   6.095   3.797   3.659  0.4414  0.0722 -1.2245
 9448TIP3    H228309   6.123   3.873   3.787 -0.7607 -1.3951 -0.0484
 9449TIP3   OH228310   2.119   2.454   1.192 -0.2366 -0.6589 -0.0353
 9449TIP3    H128311   2.139   2.385   1.256 -1.2552 -2.2403 -1.3344
 9449TIP3    H228312   2.136   2.413   1.107 -1.1182  0.6116 -0.8513
 9450TIP3   OH228313   0.960   2.480   5.105  0.3653  0.0530  0.0779
 9450TIP3    H128314   1.044   2.449   5.071  0.3655 -0.2308  0.3389
 9450TIP3    H228315   0.973   2.486   5.200 -0.1708 -0.8076  0.2196
 9451TIP3   OH228316   3.045   1.963   5.140  0.6594 -0.2668 -0.3928
 9451TIP3    H128317   3.123   1.975   5.087  0.5883  1.5340 -0.1573
 9451TIP3    H228318   2.976   2.010   5.092  0.6254  1.5315  1.2984
 9452TIP3   OH228319   5.393   6.699   1.936  0.0371 -0.1172  0.1449
 9452TIP3    H128320   5.488   6.707   1.925  0.3078 -0.6080  1.8068
 9452TIP3    H228321   5.368   6.627   1.878  1.1475 -1.8326  1.6918
 9453TIP3   OH228322   3.539   5.489   5.450  0.2117 -0.6062 -0.0019
 9453TIP3    H128323   3.539   5.475   5.355 -0.3173 -1.3052  0.0921
 9453TIP3    H228324   3.631   5.481   5.475  0.4948  0.6376 -0.5934
 9454TIP3   OH228325   7.040   4.571   2.789  0.0017 -0.2543 -0.4524
 9454TIP3    H128326   7.005   4.485   2.768  1.2912 -0.2491 -2.9754
 9454TIP3    H228327   7.104   4.589   2.719  0.8392  2.1163  0.8122
 9455TIP3   OH228328   4.466   4.190   2.710 -0.0522 -0.0914 -0.0871
 9455TIP3    H128329   4.443   4.099   2.733 -0.3148  0.2031  0.8640
 9455TIP3    H228330   4.486   4.231   2.794  1.1739  0.4447 -0.6150
 9456TIP3   OH228331   2.146   5.715   1.201 -0.5931 -0.2695 -0.1869
 9456TIP3    H128332   2.127   5.663   1.123 -0.5209 -1.8554  0.7866
 9456TIP3    H228333   2.110   5.663   1.273 -0.4967  1.0565  0.8586
 9457TIP3   OH228334   4.446   5.958   1.713 -0.3818  0.0373  0.2205
 9457TIP3    H128335   4.420   5.871   1.744  0.2302  0.0787  0.8782
 9457TIP3    H228336   4.500   5.993   1.784 -1.9455  1.6176  0.7094
 9458TIP3   OH228337   3.700   2.084   2.424  0.4611 -0.5722  0.0591
 9458TIP3    H128338   3.682   2.053   2.336  0.7301  0.0509 -0.2234
 9458TIP3    H228339   3.617   2.072   2.471  0.3634 -1.0517 -0.2276
 9459TIP3   OH228340   2.389   1.121   4.440 -0.1358 -0.0409  0.7861
 9459TIP3    H128341   2.394   1.201   4.388  0.3678 -0.5189  0.0819
 9459TIP3    H228342   2.297   1.117   4.468 -0.4258  0.2370 -0.0625
 9460TIP3   OH228343   4.373   2.999   5.228  0.5664  0.2542  0.0335
 9460TIP3    H128344   4.381   2.965   5.317  2.1879 -0.6609 -0.4251
 9460TIP3    H228345   4.363   3.093   5.239  0.6329  0.1390  1.1813
 9461TIP3   OH228346   0.593   5.944   4.389 -0.0163  0.3003 -0.2145
 9461TIP3    H128347   0.650   6.015   4.418  0.8440  1.1340 -3.5987
 9461TIP3    H228348   0.531   5.985   4.329 -0.8800 -1.4774 -0.6107
 9462TIP3   OH228349   1.228   1.971   0.609  0.4065  0.0477  0.2719
 9462TIP3    H128350   1.300   1.973   0.546  0.7141 -0.5933  0.5871
 9462TIP3    H228351   1.249   1.897   0.666  0.0347  0.4916  1.0027
 9463TIP3   OH228352   6.868   6.319   0.740 -0.5588 -0.4874  0.4024
 9463TIP3    H128353   6.909   6.250   0.793  0.4199 -1.4327 -1.4910
 9463TIP3    H228354   6.863   6.395   0.798  0.9721 -1.3100  1.6681
 9464TIP3   OH228355   1.362   1.336   3.625 -0.3780 -0.0421  0.2100
 9464TIP3    H128356   1.271   1.304   3.627 -1.0770  1.6931 -1.3857
 9464TIP3    H228357   1.409   1.271   3.573 -0.5368 -1.2414  1.4979
 9465TIP3   OH228358   6.314   2.848   5.785 -0.1136  0.3531  0.1826
 9465TIP3    H128359   6.228   2.852   5.828 -0.0939 -0.1230  0.2776
 9465TIP3    H228360   6.318   2.926   5.731 -0.3331  0.7272  0.6961
 9466TIP3   OH228361   1.330   3.686   2.025  0.4469 -0.3673  0.2883
 9466TIP3    H128362   1.291   3.772   2.015 -1.0132 -0.7604  2.0776
 9466TIP3    H228363   1.277   3.628   1.971 -0.8869 -0.7151  1.8881
 9467TIP3   OH228364   2.153   5.177   5.320  0.1288  0.5277  0.1665
 9467TIP3    H128365   2.117   5.213   5.239 -1.5153  1.7172  1.3639
 9467TIP3    H228366   2.225   5.121   5.291  0.9421  2.5065 -1.9953
 9468TIP3   OH228367   0.473   0.196   5.749  0.4340  0.0264 -0.2917
 9468TIP3    H128368   0.429   0.138   5.812 -1.4200  0.1647 -1.3989
 9468TIP3    H228369   0.473   0.281   5.792  0.7082 -0.2266  0.2179
 9469TIP3   OH228370   5.318   6.459   4.264  0.2481 -0.3345 -0.0499
 9469TIP3    H128371   5.306   6.439   4.357  0.8245 -1.4566 -0.2092
 9469TIP3    H228372   5.257   6.532   4.248  0.5282  0.2379  1.3235
 9470TIP3   OH228373   4.699   5.254   4.503 -0.6955  0.1229  0.3161
 9470TIP3    H128374   4.684   5.207   4.585  0.4051 -0.2503  0.3168
 9470TIP3    H228375   4.667   5.193   4.435 -1.2232  0.2618  0.4355
 9471TIP3   OH228376   4.655   0.669   1.534 -0.4889 -0.6202  0.0894
 9471TIP3    H128377   4.694   0.589   1.498 -1.8348 -1.1545 -0.2333
 9471TIP3    H228378   4.561   0.654   1.531 -0.7556  0.7632  0.5532
 9472TIP3   OH228379   2.512   0.356   3.097 -0.0121  0.0132  0.1091
 9472TIP3    H128380   2.473   0.418   3.159  1.0405  1.6306 -0.7777
 9472TIP3    H228381   2.461   0.276   3.107 -2.4953  1.5197  0.1183
 9473TIP3   OH228382   0.371   0.779   3.587  0.3960 -0.3523  0.0958
 9473TIP3    H128383   0.279   0.752   3.581  0.3843  0.0761 -2.7650
 9473TIP3    H228384   0.368   0.874   3.579  0.9334  0.0709  3.4889
 9474TIP3   OH228385   5.367   2.240   5.263 -0.2618  0.1794  0.3504
 9474TIP3    H128386   5.357   2.324   5.309 -1.4242  0.7153 -0.8366
 9474TIP3    H228387   5.305   2.182   5.307 -1.1361  0.6007 -0.3064
 9475TIP3   OH228388   2.556   3.284   0.347  0.0562 -0.0093  0.1967
 9475TIP3    H128389   2.473   3.329   0.334  0.4552  0.5710 -0.4092
 9475TIP3    H228390   2.543   3.198   0.307 -0.8160 -0.5948  1.6481
 9476TIP3   OH228391   1.806   3.579   4.897 -0.1870 -0.1933 -0.4424
 9476TIP3    H128392   1.773   3.651   4.950 -0.1095  0.0942 -0.7811
 9476TIP3    H228393   1.865   3.620   4.834  0.4186 -0.6450 -0.1797
 9477TIP3   OH228394   2.544   5.239   0.448  0.0865 -0.1294  0.7127
 9477TIP3    H128395   2.597   5.319   0.444 -0.2618  0.0862  0.2997
 9477TIP3    H228396   2.454   5.270   0.437  0.0178 -0.6636 -0.3842
 9478TIP3   OH228397   2.856   3.202   0.705 -0.2951  0.4362 -0.3502
 9478TIP3    H128398   2.931   3.227   0.759 -0.2139  0.4617 -0.4739
 9478TIP3    H228399   2.888   3.126   0.655 -0.4974  0.1632 -0.0691
 9479TIP3   OH228400   2.511   1.235   1.996  0.3594  0.2408  0.2425
 9479TIP3    H128401   2.480   1.244   2.086 -0.7147  3.4142 -0.3438
 9479TIP3    H228402   2.604   1.213   2.005  0.2541  0.4419  2.1126
 9480TIP3   OH228403   2.227   5.167   2.601 -0.0513 -0.0095 -0.1322
 9480TIP3    H128404   2.272   5.242   2.640 -2.6708  2.1900 -1.0107
 9480TIP3    H228405   2.140   5.167   2.641 -0.9616 -1.0240 -1.9433
 9481TIP3   OH228406   6.231   4.722   4.262  0.4492  0.0457  0.4384
 9481TIP3    H128407   6.146   4.688   4.232  0.2935  0.9725 -0.2329
 9481TIP3    H228408   6.209   4.795   4.320  0.7753  0.8073 -0.3706
 9482TIP3   OH228409   4.527   0.311   3.255 -0.0591  0.0943  0.1333
 9482TIP3    H128410   4.504   0.239   3.314 -0.6093 -0.2119 -0.4386
 9482TIP3    H228411   4.485   0.388   3.293 -1.8460 -0.3965 -0.7181
 9483TIP3   OH228412   5.948   5.452   0.504 -0.5196 -0.6007  0.3590
 9483TIP3    H128413   5.986   5.474   0.419 -0.3673 -0.2492  0.5136
 9483TIP3    H228414   5.869   5.505   0.508 -0.8192 -1.0324  0.2057
 9484TIP3   OH228415   6.652   0.299   0.725 -0.2189  0.3506 -0.0647
 9484TIP3    H128416   6.625   0.283   0.815  1.6118 -1.1922  0.2709
 9484TIP3    H228417   6.697   0.384   0.728 -0.4857  0.4803  0.3910
 9485TIP3   OH228418   6.870   3.531   0.543  0.2909  0.1276 -0.1113
 9485TIP3    H128419   6.848   3.559   0.632  0.2386 -0.0296 -0.0744
 9485TIP3    H228420   6.912   3.607   0.503 -0.3583  0.4509 -0.1985
 9486TIP3   OH228421   1.386   0.618   4.047 -0.1382 -0.3363  0.3939
 9486TIP3    H128422   1.480   0.621   4.064 -0.1511  2.6206  0.4407
 9486TIP3    H228423   1.379   0.595   3.954  0.5659 -1.3505  0.5768
 9487TIP3   OH228424   4.070   3.886   5.436  0.1505 -0.4244  0.2359
 9487TIP3    H128425   4.121   3.857   5.359  2.7789  0.2304  1.6076
 9487TIP3    H228426   4.046   3.804   5.480  1.1821 -0.7525  0.2278
 9488TIP3   OH228427   6.693   1.382   4.145  0.3817  0.2178 -0.2255
 9488TIP3    H128428   6.653   1.296   4.131  1.1999 -0.3254  0.7023
 9488TIP3    H228429   6.623   1.444   4.126  0.3114 -0.5421 -2.8932
 9489TIP3   OH228430   0.812   1.278   2.318  0.4116 -0.1411 -0.5570
 9489TIP3    H128431   0.864   1.198   2.306 -0.5230 -1.1549  1.6547
 9489TIP3    H228432   0.863   1.330   2.380  0.3243  0.3491 -0.8883
 9490TIP3   OH228433   2.998   2.971   0.619 -0.1792 -0.1234  0.3752
 9490TIP3    H128434   3.035   2.899   0.670  1.2139 -1.7676 -2.6479
 9490TIP3    H228435   2.930   2.930   0.566  0.2408  0.8508 -0.9881
 9491TIP3   OH228436   2.648   5.697   0.049 -0.0136 -0.2087 -0.2796
 9491TIP3    H128437   2.716   5.648   0.003 -1.0017 -1.5291 -0.3716
 9491TIP3    H228438   2.689   5.781   0.069  1.5904 -0.9142 -0.4627
 9492TIP3   OH228439   1.982   0.378   3.094 -1.3158  0.1502 -0.6655
 9492TIP3    H128440   2.055   0.316   3.090 -2.2103 -0.9659 -0.4491
 9492TIP3    H228441   1.993   0.433   3.017  0.9202  1.4160  0.4514
 9493TIP3   OH228442   4.137   1.637   0.935  0.1769 -0.0181 -0.2186
 9493TIP3    H128443   4.096   1.715   0.972 -0.2157  0.3488 -1.3906
 9493TIP3    H228444   4.091   1.563   0.976  2.0701  0.2521  2.6560
 9494TIP3   OH228445   5.724   1.137   3.282  0.0413  0.0797  0.1047
 9494TIP3    H128446   5.809   1.095   3.286  0.1308 -0.0675 -1.9979
 9494TIP3    H228447   5.661   1.067   3.298  0.2677 -0.1810 -0.1528
 9495TIP3   OH228448   2.824   4.271   0.730  0.2416 -0.1245  0.3760
 9495TIP3    H128449   2.801   4.364   0.739  2.5753  0.6048 -0.4897
 9495TIP3    H228450   2.862   4.247   0.814  1.5399  0.3299 -0.0595
 9496TIP3   OH228451   0.822   4.108   4.557  0.0152  0.4554  0.3061
 9496TIP3    H128452   0.856   4.141   4.640  1.2616  0.1661 -0.0650
 9496TIP3    H228453   0.811   4.186   4.503  0.4123  0.5237  0.3207
 9497TIP3   OH228454   2.692   4.701   5.110 -0.5926 -0.8627  0.2997
 9497TIP3    H128455   2.598   4.682   5.115 -1.0776  0.6397 -1.6472
 9497TIP3    H228456   2.730   4.625   5.066 -1.3414 -0.4350 -1.1551
 9498TIP3   OH228457   1.505   1.141   5.217 -0.0900  0.0208  0.1436
 9498TIP3    H128458   1.473   1.141   5.127  1.2602  0.1754 -0.3643
 9498TIP3    H228459   1.493   1.051   5.247  2.3855 -0.8879 -1.3300
 9499TIP3   OH228460   4.019   1.737   5.833  0.6006 -0.1724  0.4956
 9499TIP3    H128461   3.964   1.659   5.825 -0.8395  0.9665 -1.6960
 9499TIP3    H228462   3.982   1.784   5.909  0.4628 -0.8343  0.8508
 9500TIP3   OH228463   4.601   4.404   0.273 -0.5116  0.3809 -0.3525
 9500TIP3    H128464   4.583   4.421   0.366 -0.3511  1.2240 -0.4722
 9500TIP3    H228465   4.640   4.316   0.272 -1.4846 -0.0832  0.2631
 9501TIP3   OH228466   7.048   6.733   2.675 -0.0408  0.4228  0.2206
 9501TIP3    H128467   6.958   6.702   2.669  0.9501 -2.4559 -1.8254
 9501TIP3    H228468   7.055   6.801   2.608 -0.5162  0.1354 -0.1247
 9502TIP3   OH228469   6.707   5.983   2.326 -0.5975  0.1771 -0.1058
 9502TIP3    H128470   6.619   5.990   2.290 -0.3195 -0.9635 -1.0518
 9502TIP3    H228471   6.694   5.985   2.421 -1.5641  0.7527 -0.2395
 9503TIP3   OH228472   1.851   2.639   1.780  0.1689  0.4907  0.7997
 9503TIP3    H128473   1.798   2.686   1.716 -0.9798  0.4919  1.7224
 9503TIP3    H228474   1.807   2.555   1.792  1.2572 -0.1548  0.4386
 9504TIP3   OH228475   6.138   1.014   2.232  0.2728  0.1873  0.2280
 9504TIP3    H128476   6.084   0.977   2.162 -0.4364  1.4159  0.0901
 9504TIP3    H228477   6.178   1.092   2.192  0.6322  0.3591  0.9104
 9505TIP3   OH228478   0.925   2.694   1.855  0.6935  0.0004  0.6661
 9505TIP3    H128479   0.853   2.735   1.806  0.0549 -1.3076  0.4681
 9505TIP3    H228480   0.981   2.768   1.881  0.8516  0.7730 -1.6825
 9506TIP3   OH228481   5.688   5.348   0.179  0.3143  0.5944  0.0798
 9506TIP3    H128482   5.641   5.350   0.096  0.0325 -0.1164  0.2076
 9506TIP3    H228483   5.777   5.374   0.157  0.0462  1.2197 -0.2989
 9507TIP3   OH228484   6.220   3.060   5.544  0.7332  0.4122  0.4915
 9507TIP3    H128485   6.197   3.152   5.534 -0.0908  0.3402  1.5734
 9507TIP3    H228486   6.145   3.012   5.511  1.3926  0.1017 -0.6085
 9508TIP3   OH228487   3.513   2.468   0.115  0.3389 -0.3008  0.0784
 9508TIP3    H128488   3.444   2.502   0.172 -0.2372 -2.9937  1.1145
 9508TIP3    H228489   3.504   2.519   0.034 -0.4069  1.9463  1.4757
 9509TIP3   OH228490   0.271   0.941   1.684 -0.3646  0.1142  0.5012
 9509TIP3    H128491   0.194   0.968   1.735 -0.9198  0.0823 -0.3019
 9509TIP3    H228492   0.332   0.907   1.750 -0.3260  1.7292  1.3465
 9510TIP3   OH228493   4.348   1.948   3.667  0.4701  0.5225  0.2699
 9510TIP3    H128494   4.367   1.922   3.757  0.6869 -0.7823 -0.1442
 9510TIP3    H228495   4.419   1.911   3.615 -0.0218  0.6803 -0.5335
 9511TIP3   OH228496   3.131   0.479   5.642  0.4956 -0.0237 -0.1052
 9511TIP3    H128497   3.074   0.448   5.572  0.7595  0.7959 -0.6919
 9511TIP3    H228498   3.178   0.553   5.604  2.4636 -1.0893  0.1624
 9512TIP3   OH228499   1.655   2.671   0.802 -0.1392 -0.1472  0.3019
 9512TIP3    H128500   1.714   2.743   0.822 -0.3920  1.1721 -3.0554
 9512TIP3    H228501   1.570   2.698   0.837 -0.1331  1.0626 -0.5625
 9513TIP3   OH228502   1.496   1.742   1.928  0.3632  0.0916 -0.2556
 9513TIP3    H128503   1.461   1.772   1.844  1.7208  3.3214  0.1863
 9513TIP3    H228504   1.577   1.698   1.906  0.6893  0.8843 -0.6838
 9514TIP3   OH228505   5.568   3.785   5.582 -0.2473  0.4087  0.3459
 9514TIP3    H128506   5.596   3.848   5.516  0.3181 -1.3177 -1.1285
 9514TIP3    H228507   5.569   3.835   5.664  1.5566  1.9445 -0.5327
 9515TIP3   OH228508   2.926   4.723   5.391 -0.6072 -0.1736  0.9111
 9515TIP3    H128509   2.947   4.814   5.410 -0.1031  0.2151 -1.3214
 9515TIP3    H228510   2.909   4.720   5.297 -0.8091 -2.3482  0.9504
 9516TIP3   OH228511   3.315   3.968   1.068  0.2827 -0.1337  0.4642
 9516TIP3    H128512   3.349   4.055   1.092  2.0218  0.0157 -2.0993
 9516TIP3    H228513   3.389   3.925   1.025 -2.0008 -0.7632 -3.2940
 9517TIP3   OH228514   6.067   4.110   0.795 -0.4340 -0.1272  0.3024
 9517TIP3    H128515   6.149   4.143   0.758 -0.9042  0.4813 -0.2119
 9517TIP3    H228516   6.088   4.092   0.887  0.2722  0.0285  0.1793
 9518TIP3   OH228517   0.416   6.057   4.202 -0.0988 -0.2819  0.1322
 9518TIP3    H128518   0.356   5.982   4.194  0.8456 -1.0010 -0.5559
 9518TIP3    H228519   0.450   6.069   4.113  1.1691 -0.2408  0.6047
 9519TIP3   OH228520   6.139   4.272   2.741 -0.2189  0.4809  0.0107
 9519TIP3    H128521   6.105   4.232   2.661  0.7178  0.1725 -0.2393
 9519TIP3    H228522   6.187   4.349   2.711  0.2520  0.2884  0.2512
 9520TIP3   OH228523   5.258   5.396   3.677 -0.1075  0.7659 -0.0358
 9520TIP3    H128524   5.339   5.369   3.720 -0.4970 -0.8970 -0.2825
 9520TIP3    H228525   5.277   5.388   3.583 -1.2389 -2.0726 -0.1278
 9521TIP3   OH228526   0.099   5.850   2.152 -0.3147 -0.8151  0.4112
 9521TIP3    H128527   0.028   5.913   2.165  0.2089  0.2301 -1.4634
 9521TIP3    H228528   0.054   5.770   2.125 -0.8441 -0.5373  0.4541
 9522TIP3   OH228529   1.045   1.840   4.151 -0.4527 -0.1919  0.0721
 9522TIP3    H128530   0.988   1.763   4.147  0.2320 -0.7883  1.1626
 9522TIP3    H228531   1.097   1.826   4.230  0.3631  0.9251 -0.2524
 9523TIP3   OH228532   6.236   3.168   0.068  0.4331  0.4037  0.1656
 9523TIP3    H128533   6.173   3.096   0.076  1.7613 -0.7901  0.3678
 9523TIP3    H228534   6.183   3.247   0.063 -1.1210 -0.6638 -1.0330
 9524TIP3   OH228535   6.039   2.996   0.023  0.6117 -0.1368 -0.1391
 9524TIP3    H128536   6.059   2.903   0.018  1.0918  0.0198 -1.5208
 9524TIP3    H228537   5.961   3.007  -0.031  0.3316  0.2114  0.3291
 9525TIP3   OH228538   1.633   2.674   2.048 -0.0324  0.1530  0.1166
 9525TIP3    H128539   1.575   2.714   2.113  0.0286  0.0752  0.2190
 9525TIP3    H228540   1.583   2.677   1.966 -0.2298 -0.0283  0.2304
 9526TIP3   OH228541   6.082   4.837   4.007  0.5039  0.7277 -0.3876
 9526TIP3    H128542   6.111   4.754   3.970  0.2857  0.9397 -1.0540
 9526TIP3    H228543   6.019   4.813   4.074  0.4427  0.3565 -0.5778
 9527TIP3   OH228544   0.053   2.178   3.521 -0.5392 -0.3605 -0.2178
 9527TIP3    H128545   0.037   2.252   3.579 -1.0781 -1.7077  1.4658
 9527TIP3    H228546  -0.026   2.124   3.528  0.1444 -1.4829 -0.7593
 9528TIP3   OH228547   2.761   2.955   3.386  0.4476  0.6652 -0.4318
 9528TIP3    H128548   2.733   3.019   3.451  2.0528  1.0340 -0.0597
 9528TIP3    H228549   2.694   2.887   3.389  0.5233  0.6094  1.7174
 9529TIP3   OH228550   4.385   5.620   3.299  0.5742  0.2041  0.0429
 9529TIP3    H128551   4.432   5.702   3.312  0.6077 -0.0962  2.1626
 9529TIP3    H228552   4.320   5.617   3.370 -0.4596 -0.9062 -0.8910
 9530TIP3   OH228553   6.338   5.692   2.716 -0.0268  0.3213 -0.3082
 9530TIP3    H128554   6.283   5.682   2.639 -1.0574  0.7219  0.3565
 9530TIP3    H228555   6.368   5.783   2.713 -0.2278  0.3940 -0.1351
 9531TIP3   OH228556   4.401   2.847   4.109  0.1692  0.1985 -0.3474
 9531TIP3    H128557   4.444   2.912   4.054  0.1804 -0.1965 -0.8095
 9531TIP3    H228558   4.379   2.776   4.050 -1.1329  0.3870 -0.1328
 9532TIP3   OH228559   3.674   2.793   3.860 -0.3364  0.0170 -0.5099
 9532TIP3    H128560   3.586   2.813   3.830  0.1868  2.2453 -0.7083
 9532TIP3    H228561   3.670   2.803   3.955 -0.3314 -0.0627 -0.5010
 9533TIP3   OH228562   5.927   0.241   2.549  0.5750  0.4413 -0.1176
 9533TIP3    H128563   5.895   0.257   2.638  1.1137 -2.8448  0.8044
 9533TIP3    H228564   5.962   0.326   2.521  0.8288  1.4979  2.9917
 9534TIP3   OH228565   2.227   1.202   1.997 -0.1337  0.1189  0.0924
 9534TIP3    H128566   2.257   1.217   2.087 -0.3955 -2.7100  0.7466
 9534TIP3    H228567   2.305   1.215   1.943  0.4831  0.0798  0.9552
 9535TIP3   OH228568   5.237   2.521   1.037  0.4928 -0.3336 -0.5518
 9535TIP3    H128569   5.180   2.448   1.062  1.5681 -0.7192  0.8947
 9535TIP3    H228570   5.263   2.560   1.121  1.0042  0.8865 -1.2614
 9536TIP3   OH228571   2.309   1.647   2.569  0.1400 -0.1358 -0.3788
 9536TIP3    H128572   2.244   1.610   2.509  1.4158 -1.8980 -0.7594
 9536TIP3    H228573   2.383   1.587   2.564  1.6169  1.5290  0.4211
 9537TIP3   OH228574   6.989   0.762   3.152  0.3517 -0.6291  0.4928
 9537TIP3    H128575   7.016   0.677   3.188 -1.9168 -1.1699  1.0832
 9537TIP3    H228576   6.911   0.742   3.100 -0.1495  1.0789  0.5514
 9538TIP3   OH228577   5.184   3.893   5.705  0.4197  0.0047  0.3103
 9538TIP3    H128578   5.234   3.914   5.784  1.4736 -3.0114  0.5749
 9538TIP3    H228579   5.108   3.843   5.736 -0.2606  0.5103 -0.4643
 9539TIP3   OH228580   3.086   6.144   5.470  0.7149 -0.0126  0.0411
 9539TIP3    H128581   3.096   6.070   5.409  0.5863 -1.4383  1.6713
 9539TIP3    H228582   3.021   6.114   5.533 -1.1058  2.4349 -0.5349
 9540TIP3   OH228583   6.953   2.837   5.329 -0.6567  0.1053  0.0303
 9540TIP3    H128584   7.028   2.779   5.345  0.7310  1.4353 -1.3566
 9540TIP3    H228585   6.968   2.912   5.386  0.3307  1.4068 -1.8388
 9541TIP3   OH228586   3.632   1.574   4.705  0.1850  0.2678 -1.1639
 9541TIP3    H128587   3.703   1.621   4.747  1.3459 -1.5164 -0.9992
 9541TIP3    H228588   3.560   1.577   4.768  1.3678 -1.0203  0.3310
 9542TIP3   OH228589   4.014   6.171   0.033 -0.9014  0.2490  0.3556
 9542TIP3    H128590   3.930   6.216   0.029 -0.2299  1.8588  2.5642
 9542TIP3    H228591   4.023   6.144   0.124  1.6208  1.4994  0.5749
 9543TIP3   OH228592   1.934   5.842   0.015 -0.2258 -0.4392  0.1002
 9543TIP3    H128593   1.842   5.870   0.012  0.6654  2.9704 -2.0883
 9543TIP3    H228594   1.974   5.900   0.080  0.3739 -2.1753  1.3426
 9544TIP3   OH228595   6.191   2.107   2.155  0.0730 -0.0877  0.2579
 9544TIP3    H128596   6.218   2.016   2.167  0.6495 -0.1231 -1.0336
 9544TIP3    H228597   6.257   2.158   2.202  0.9673 -0.2782 -0.7511
 9545TIP3   OH228598   3.092   0.520   5.225 -0.2600 -0.1389  0.2583
 9545TIP3    H128599   3.085   0.545   5.132 -1.0658 -0.8955  0.0955
 9545TIP3    H228600   3.018   0.564   5.267 -0.9401 -1.1942  0.2007
 9546TIP3   OH228601   2.875   1.669   1.788 -0.4328  0.3919  0.2590
 9546TIP3    H128602   2.859   1.617   1.867  0.1168  1.3159  0.9917
 9546TIP3    H228603   2.970   1.665   1.777 -0.4557  0.7143 -0.0494
 9547TIP3   OH228604   2.504   2.460   1.121 -0.2286 -0.0977 -0.5309
 9547TIP3    H128605   2.535   2.541   1.080  0.7059 -0.5258 -0.6945
 9547TIP3    H228606   2.421   2.484   1.162  0.6754  1.2779  0.5864
 9548TIP3   OH228607   4.121   6.295   0.358 -0.0188  0.5361  0.3997
 9548TIP3    H128608   4.080   6.367   0.406  1.0112  0.4920  1.3617
 9548TIP3    H228609   4.140   6.332   0.272  0.5312  1.4432  0.8941
 9549TIP3   OH228610   2.949   1.431   5.182 -0.4630  0.0742 -0.1839
 9549TIP3    H128611   3.039   1.400   5.186 -0.3153  0.5927  0.6211
 9549TIP3    H228612   2.956   1.526   5.194 -1.1375  0.0845  0.1492
 9550TIP3   OH228613   6.676   3.451   0.333  0.2210 -0.0055  0.5933
 9550TIP3    H128614   6.748   3.448   0.396  0.8373  0.4057 -0.0682
 9550TIP3    H228615   6.607   3.397   0.371  0.7330 -0.0749  1.4277
 9551TIP3   OH228616   0.026   1.763   1.955 -0.1725 -0.1916  0.5227
 9551TIP3    H128617   0.089   1.778   1.884  0.4185  1.5073  1.3577
 9551TIP3    H228618   0.071   1.703   2.015 -0.8479 -2.0057 -0.6985
 9552TIP3   OH228619   4.296   4.602   4.246 -0.3264 -0.1488  0.0830
 9552TIP3    H128620   4.297   4.614   4.341 -0.9880 -1.5577  0.2964
 9552TIP3    H228621   4.207   4.626   4.220  0.2305  1.5159 -0.3957
 9553TIP3   OH228622   5.921   2.278   4.566 -0.0853  0.3540 -0.0705
 9553TIP3    H128623   5.863   2.235   4.504 -0.3738  0.2351  0.2847
 9553TIP3    H228624   5.962   2.207   4.615 -0.0943  0.4606  0.0928
 9554TIP3   OH228625   7.058   6.004   4.172  0.0338  0.5304 -0.5035
 9554TIP3    H128626   6.969   5.972   4.160  0.4466 -0.4644 -1.1094
 9554TIP3    H228627   7.113   5.940   4.126  1.0523  1.1726 -0.2301
 9555TIP3   OH228628   6.254   3.316   3.043 -0.5123  0.3692 -0.3015
 9555TIP3    H128629   6.330   3.257   3.039 -1.5628 -1.2011  1.5830
 9555TIP3    H228630   6.188   3.273   2.989 -0.4115  1.2891 -1.2022
 9556TIP3   OH228631   1.629   0.754   3.818 -0.0432 -0.1978  0.4293
 9556TIP3    H128632   1.614   0.837   3.865  0.0704 -0.0398  0.1898
 9556TIP3    H228633   1.545   0.709   3.822 -0.9634  1.1453 -1.8070
 9557TIP3   OH228634   0.331   6.551   1.155  0.0150 -0.2496  0.1080
 9557TIP3    H128635   0.330   6.634   1.203  0.9626 -0.5313  0.6537
 9557TIP3    H228636   0.411   6.507   1.185 -1.2722 -2.0856  1.0671
 9558TIP3   OH228637   3.982   4.561   1.536 -0.5858 -0.2180  0.0925
 9558TIP3    H128638   4.041   4.488   1.523  1.4452  1.5246 -1.1638
 9558TIP3    H228639   3.896   4.527   1.512  0.2063 -2.2938  0.0461
 9559TIP3   OH228640   4.159   1.562   5.081  0.5133  0.0524 -0.2111
 9559TIP3    H128641   4.190   1.615   5.155 -1.1478  0.2568  0.3903
 9559TIP3    H228642   4.238   1.528   5.041  1.4893  0.2966  1.4097
 9560TIP3   OH228643   4.858   5.097   4.920  0.6413 -0.4297  0.2660
 9560TIP3    H128644   4.824   5.066   4.836  0.7309 -1.5317  0.6261
 9560TIP3    H228645   4.953   5.089   4.911  0.7628  1.1395 -0.1585
 9561TIP3   OH228646   4.409   1.710   1.930  0.3125 -0.0776  0.1031
 9561TIP3    H128647   4.350   1.739   1.860  1.1362 -0.1727 -0.6386
 9561TIP3    H228648   4.378   1.622   1.951  0.6422 -0.4332 -0.8222
 9562TIP3   OH228649   5.046   1.038   2.585  0.0118 -0.0758  0.4397
 9562TIP3    H128650   4.979   1.107   2.589  0.4052  0.3149  0.3599
 9562TIP3    H228651   4.998   0.957   2.605 -0.3265  0.3061  1.2269
 9563TIP3   OH228652   1.460   1.930   4.630 -0.1336  0.0979  0.7776
 9563TIP3    H128653   1.423   2.017   4.643 -0.3348 -0.2009  2.4958
 9563TIP3    H228654   1.448   1.911   4.537 -1.1223  1.4270  0.6181
 9564TIP3   OH228655   4.567   4.157   2.462  0.6465 -0.1104  0.4357
 9564TIP3    H128656   4.535   4.155   2.552 -2.5967 -0.0335 -0.5604
 9564TIP3    H228657   4.600   4.246   2.450  0.8573 -0.0429  1.4440
 9565TIP3   OH228658   6.565   6.422   2.591 -0.4216  0.0046  0.6158
 9565TIP3    H128659   6.518   6.359   2.644 -0.2919 -1.3621 -0.8176
 9565TIP3    H228660   6.618   6.369   2.531 -0.7447  1.4493 -1.0443
 9566TIP3   OH228661   2.432   4.713   3.730  0.1080 -0.2764  0.1674
 9566TIP3    H128662   2.436   4.668   3.814  0.2157  0.4287  0.5447
 9566TIP3    H228663   2.414   4.805   3.752 -0.3442 -0.1678 -0.5970
 9567TIP3   OH228664   2.280   2.727   5.202 -0.7254 -0.6831  0.1690
 9567TIP3    H128665   2.223   2.655   5.227 -0.9620 -1.3565 -2.1276
 9567TIP3    H228666   2.221   2.800   5.184 -0.5154  0.0054  2.0323
 9568TIP3   OH228667   0.424   2.889   4.652  0.2152 -0.8311 -0.0233
 9568TIP3    H128668   0.501   2.869   4.704 -0.5780 -0.1377  1.5084
 9568TIP3    H228669   0.366   2.814   4.664  0.3273 -1.0082 -0.5475
 9569TIP3   OH228670   3.712   5.669   3.951  0.5228 -0.4625  0.9169
 9569TIP3    H128671   3.771   5.700   4.020  1.2341  0.2519  0.0088
 9569TIP3    H228672   3.759   5.687   3.869  0.1345 -2.1934  0.2585
 9570TIP3   OH228673   1.618   5.347   5.674  0.1815  0.2916  0.1522
 9570TIP3    H128674   1.695   5.329   5.621 -0.7732 -1.9180 -0.5740
 9570TIP3    H228675   1.554   5.281   5.647 -1.5576  1.3080  1.5818
 9571TIP3   OH228676   4.853   2.109   4.990 -0.2006 -0.5109  0.0549
 9571TIP3    H128677   4.907   2.114   5.068 -1.0749 -0.9580  0.7094
 9571TIP3    H228678   4.777   2.057   5.017 -1.9605  1.7400 -0.2447
 9572TIP3   OH228679   7.137   1.171   3.513  0.0467  0.3941 -0.2317
 9572TIP3    H128680   7.094   1.134   3.590 -0.5708 -0.3248 -0.9077
 9572TIP3    H228681   7.205   1.229   3.549  0.2324 -0.4665  0.8495
 9573TIP3   OH228682   6.524   0.655   3.413 -0.4784 -0.2159 -0.1453
 9573TIP3    H128683   6.463   0.672   3.341  0.4905  0.9293 -0.7312
 9573TIP3    H228684   6.468   0.648   3.490 -1.3149  1.8268 -0.4981
 9574TIP3   OH228685   4.968   2.396   5.270 -0.1251 -0.2400 -0.7543
 9574TIP3    H128686   5.042   2.454   5.255  0.0668 -0.9860 -3.1818
 9574TIP3    H228687   4.988   2.352   5.352  0.6308  1.6951  0.1618
 9575TIP3   OH228688   1.931   6.519   4.222 -0.1484 -0.7326  0.1796
 9575TIP3    H128689   1.888   6.509   4.136  1.3045  0.5020 -0.7332
 9575TIP3    H228690   2.023   6.535   4.201  0.1029  0.3799  1.9457
 9576TIP3   OH228691   6.202   2.960   5.176  0.4729  0.3472 -0.0341
 9576TIP3    H128692   6.146   2.938   5.102  0.7529  1.0699 -0.4769
 9576TIP3    H228693   6.291   2.962   5.139  1.0907 -2.6362  1.0327
 9577TIP3   OH228694   1.017   0.994   4.177 -0.2199 -0.2924 -0.3193
 9577TIP3    H128695   1.054   0.999   4.265 -1.8434  0.3124  0.3536
 9577TIP3    H228696   1.066   0.923   4.135 -0.2267 -1.4059  1.4438
 9578TIP3   OH228697   2.229   4.671   2.802  0.5787 -0.1197 -0.1346
 9578TIP3    H128698   2.203   4.591   2.756 -1.2623 -0.2891  1.0594
 9578TIP3    H228699   2.196   4.742   2.747 -1.0589 -0.3060  0.5424
 9579TIP3   OH228700   1.753   0.929   0.300  0.4925 -0.3801 -0.3416
 9579TIP3    H128701   1.734   0.843   0.263 -0.9233 -0.4130  0.3714
 9579TIP3    H228702   1.814   0.912   0.372  1.2399 -0.6216 -1.0258
 9580TIP3   OH228703   7.157   5.801   5.844 -0.2340  0.6546  0.2455
 9580TIP3    H128704   7.167   5.833   5.934  1.2954  0.0893  0.3008
 9580TIP3    H228705   7.123   5.876   5.795  1.6709  1.8792  0.7066
 9581TIP3   OH228706   0.191   1.740   1.583  0.0614 -0.4917  0.0925
 9581TIP3    H128707   0.221   1.764   1.495 -1.9117 -3.0283 -1.4224
 9581TIP3    H228708   0.108   1.786   1.593  0.5421  0.2322  0.9258
 9582TIP3   OH228709   0.593   4.244   1.346  0.2478 -0.1281  0.2494
 9582TIP3    H128710   0.537   4.191   1.403 -0.8049 -0.2757 -0.8942
 9582TIP3    H228711   0.609   4.189   1.269  1.8818 -0.0382  0.4789
 9583TIP3   OH228712   0.093   0.676   0.133 -0.0834 -0.1272 -0.1801
 9583TIP3    H128713   0.046   0.672   0.216  0.9308 -0.5786  0.3928
 9583TIP3    H228714   0.043   0.738   0.080 -1.9207 -1.3912 -0.0103
 9584TIP3   OH228715   2.527   1.465   3.392  0.5691 -0.5023 -0.7037
 9584TIP3    H128716   2.604   1.438   3.342  0.9322  1.5332 -1.3229
 9584TIP3    H228717   2.555   1.463   3.483  1.7918  1.3911 -0.9907
 9585TIP3   OH228718   1.876   5.624   2.947  0.0049 -0.2223 -0.3697
 9585TIP3    H128719   1.962   5.657   2.972 -0.4704  0.2360  0.7090
 9585TIP3    H228720   1.830   5.611   3.030 -0.6669 -1.3086 -0.8870
 9586TIP3   OH228721   0.764   0.231   4.379  0.0625  0.4740  0.0205
 9586TIP3    H128722   0.756   0.214   4.285  2.0072  2.4336 -0.5796
 9586TIP3    H228723   0.720   0.315   4.392 -0.4390  0.0872  0.9498
 9587TIP3   OH228724   6.845   1.050   4.537 -0.4119  0.1369  0.4584
 9587TIP3    H128725   6.851   1.120   4.472 -0.8238  1.1071  1.4481
 9587TIP3    H228726   6.927   1.001   4.526 -1.4035 -1.1256 -2.3022
 9588TIP3   OH228727   6.183   1.125   0.177  0.2721 -0.5765  0.1121
 9588TIP3    H128728   6.128   1.047   0.167 -2.9928  1.7708 -2.3456
 9588TIP3    H228729   6.136   1.178   0.242 -0.6890  1.5619 -2.1691
 9589TIP3   OH228730   6.976   2.117   3.578  0.2389  0.1803  0.4145
 9589TIP3    H128731   6.994   2.100   3.671 -1.4556 -0.2862  0.6991
 9589TIP3    H228732   6.934   2.203   3.577  0.8570  0.4827 -0.0076
 9590TIP3   OH228733   1.878   2.775   3.692  0.5346 -0.1661  0.7476
 9590TIP3    H128734   1.836   2.693   3.717  0.7931 -0.6265 -0.2687
 9590TIP3    H228735   1.812   2.842   3.708 -0.6111 -0.8638 -0.7666
 9591TIP3   OH228736   1.468   1.988   4.364  0.6371  0.1599  0.0378
 9591TIP3    H128737   1.424   2.008   4.281 -0.6703  1.7101  1.0403
 9591TIP3    H228738   1.561   1.988   4.343  0.2812 -1.6253 -1.8431
 9592TIP3   OH228739   6.425   0.765   4.441 -0.0630  0.6330  0.2311
 9592TIP3    H128740   6.490   0.722   4.497 -0.5999  1.5686  1.6447
 9592TIP3    H228741   6.408   0.849   4.485 -2.1293  0.4575 -0.1371
 9593TIP3   OH228742   4.425   1.626   3.822  0.1268  0.2628  0.2322
 9593TIP3    H128743   4.513   1.589   3.813  0.3325  0.7172  0.3420
 9593TIP3    H228744   4.368   1.562   3.779  0.4895 -0.1162  0.3010
 9594TIP3   OH228745   2.768   5.719   3.619 -0.0754  0.0909  0.3257
 9594TIP3    H128746   2.806   5.653   3.562  0.1367 -0.1864  0.7900
 9594TIP3    H228747   2.777   5.801   3.570 -0.0914 -0.1776 -0.1296
 9595TIP3   OH228748   1.397   4.857   0.959 -0.0666 -0.6120 -0.1541
 9595TIP3    H128749   1.433   4.930   1.009  1.1747 -0.3786 -1.3270
 9595TIP3    H228750   1.454   4.783   0.981 -0.3398 -0.8304 -0.1880
 9596TIP3   OH228751   2.480   3.790   0.364 -0.2419  0.2621 -0.4041
 9596TIP3    H128752   2.565   3.778   0.406 -0.3983 -0.7237 -0.3567
 9596TIP3    H228753   2.486   3.742   0.282 -0.7309  0.2409 -0.4325
 9597TIP3   OH228754   1.879   2.383   0.616 -0.9060  0.1889  0.2756
 9597TIP3    H128755   1.865   2.444   0.688  0.8536 -0.7862  1.5085
 9597TIP3    H228756   1.913   2.439   0.545 -1.3753  0.9543  0.6379
 9598TIP3   OH228757   1.510   4.970   4.040  0.0469 -0.6485  0.6700
 9598TIP3    H128758   1.581   5.033   4.026 -0.9353  0.3980  0.2606
 9598TIP3    H228759   1.472   4.995   4.124 -1.7846  0.8116 -0.5049
 9599TIP3   OH228760   1.030   2.137   5.300 -0.0174  0.2848 -0.4349
 9599TIP3    H128761   0.994   2.226   5.302  1.1068  0.7639 -0.2266
 9599TIP3    H228762   1.125   2.150   5.312  0.1517 -0.9495 -0.3125
 9600TIP3   OH228763   1.199   2.521   4.177  0.0709  0.1730  0.0531
 9600TIP3    H128764   1.111   2.501   4.208  0.1275  1.0401  0.8035
 9600TIP3    H228765   1.186   2.558   4.089 -0.1431 -1.5374 -0.6736
 9601TIP3   OH228766   4.687   5.098   3.985 -0.3363 -0.0880  0.2884
 9601TIP3    H128767   4.617   5.036   4.007 -0.7761 -0.2862 -1.5375
 9601TIP3    H228768   4.662   5.134   3.901  0.4184  1.8889  0.8535
 9602TIP3   OH228769   1.273   2.479   0.494  0.4648 -0.4573  0.4331
 9602TIP3    H128770   1.362   2.488   0.462  0.0880  0.1680 -0.4723
 9602TIP3    H228771   1.218   2.511   0.423 -0.4778 -0.6691  1.0428
 9603TIP3   OH228772   1.119   4.623   0.334 -0.3496 -0.3863 -0.3560
 9603TIP3    H128773   1.040   4.676   0.348 -0.0141 -0.2620  1.1729
 9603TIP3    H228774   1.086   4.538   0.304 -1.0225 -0.1519 -0.2987
 9604TIP3   OH228775   3.528   1.231   4.975  0.2293  0.6197  0.2559
 9604TIP3    H128776   3.588   1.214   5.048  1.5805  0.6274 -0.8125
 9604TIP3    H228777   3.517   1.146   4.933 -0.1836  0.7042  0.1906
 9605TIP3   OH228778   0.084   2.937   2.884 -0.0898  0.5366  0.2226
 9605TIP3    H128779   0.088   2.845   2.856  0.1904  0.5064  0.3545
 9605TIP3    H228780   0.146   2.982   2.826 -0.5337  0.7177 -0.1167
 9606TIP3   OH228781   5.502   1.226   5.742  0.2667  0.0025  0.4608
 9606TIP3    H128782   5.466   1.314   5.757 -2.1024 -0.8106 -0.0583
 9606TIP3    H228783   5.471   1.174   5.816  1.1031 -0.5663  0.4270
 9607TIP3   OH228784   3.937   3.590   3.090  0.3196  0.2381  0.0839
 9607TIP3    H128785   3.914   3.679   3.117  2.4402  0.9679 -0.3681
 9607TIP3    H228786   4.031   3.593   3.073  0.4315 -2.0850 -0.0291
 9608TIP3   OH228787   0.273   1.949   0.588  0.0579  0.0538 -0.6527
 9608TIP3    H128788   0.298   1.857   0.577  1.3497  0.4927 -1.8097
 9608TIP3    H228789   0.288   1.967   0.681  0.6866 -0.6689 -0.6000
 9609TIP3   OH228790   4.573   2.279   3.896  0.0595 -0.3335  0.2212
 9609TIP3    H128791   4.506   2.211   3.903 -0.3844 -0.0312 -0.9008
 9609TIP3    H228792   4.599   2.295   3.987 -0.7602 -1.0684  0.6121
 9610TIP3   OH228793   3.247   1.921   1.231 -1.1973  0.1422  0.3602
 9610TIP3    H128794   3.284   1.976   1.300  0.6731  0.1116 -0.5631
 9610TIP3    H228795   3.320   1.904   1.172 -2.5132 -0.6576 -1.1126
 9611TIP3   OH228796   7.067   5.566   4.915  0.1867  0.4244  0.3360
 9611TIP3    H128797   7.063   5.605   5.002  0.7571 -1.1969  1.1298
 9611TIP3    H228798   7.155   5.588   4.883  0.5835 -0.3641  0.8663
 9612TIP3   OH228799   4.289   0.032   4.018  0.2708  0.2661 -0.5089
 9612TIP3    H128800   4.208  -0.002   4.057 -0.5160  2.5950  0.0232
 9612TIP3    H228801   4.357  -0.026   4.052 -0.5873  1.0931  3.0709
 9613TIP3   OH228802   0.340   0.011   5.577 -0.1508  0.3082 -0.0204
 9613TIP3    H128803   0.387   0.001   5.495  0.9291  0.6605  0.5320
 9613TIP3    H228804   0.395   0.070   5.629 -0.3862 -0.5668  1.2631
 9614TIP3   OH228805   0.971   2.002   5.085 -0.3748 -0.4134 -0.1818
 9614TIP3    H128806   0.989   2.054   5.164  0.0525  0.9308 -1.1238
 9614TIP3    H228807   0.893   2.044   5.047 -2.4746 -2.8958  1.0447
 9615TIP3   OH228808   7.184   4.913   5.477  0.2463 -0.2089  0.5869
 9615TIP3    H128809   7.129   4.837   5.460  0.1788 -0.2829  1.1237
 9615TIP3    H228810   7.274   4.882   5.464  0.2961 -0.7090  1.9681
 9616TIP3   OH228811   4.006   0.545   2.670  0.5052 -0.1998 -0.7577
 9616TIP3    H128812   4.016   0.477   2.736 -0.1066 -0.8697 -1.3274
 9616TIP3    H228813   3.995   0.626   2.720 -1.0283 -0.8372 -0.0008
 9617TIP3   OH228814   1.682   5.958   0.961  0.5495  0.4181 -0.9801
 9617TIP3    H128815   1.719   6.045   0.977  0.6434  0.3316 -0.7300
 9617TIP3    H228816   1.736   5.922   0.891  1.2349  0.1051 -0.2875
 9618TIP3   OH228817   6.997   2.125   0.334 -0.7179 -0.4333  0.2279
 9618TIP3    H128818   7.058   2.198   0.333 -1.1801 -0.0228  1.0266
 9618TIP3    H228819   6.910   2.165   0.325 -0.8928 -1.0084 -0.8859
 9619TIP3   OH228820   5.022   0.668   1.813  0.0740 -0.2788  0.3209
 9619TIP3    H128821   5.057   0.686   1.725 -1.0235 -1.9766 -0.5316
 9619TIP3    H228822   5.059   0.737   1.868 -0.9843  2.2384 -1.8921
 9620TIP3   OH228823   4.919   3.784   2.792 -0.2318  0.1333  0.1372
 9620TIP3    H128824   4.939   3.732   2.714 -0.9863  2.4659 -1.7644
 9620TIP3    H228825   4.931   3.724   2.865  4.6176 -1.1359 -1.3488
 9621TIP3   OH228826   2.333   3.534   3.750 -0.3667  0.2612  0.1521
 9621TIP3    H128827   2.334   3.618   3.795  2.2135  0.4841 -0.1287
 9621TIP3    H228828   2.300   3.472   3.816  0.0431  1.1274  1.2051
 9622TIP3   OH228829   1.433   1.636   3.277 -0.0390 -0.3303 -0.1463
 9622TIP3    H128830   1.486   1.700   3.228  0.3953 -0.8036 -0.3112
 9622TIP3    H228831   1.371   1.689   3.326  0.1007  0.2044 -0.5310
 9623TIP3   OH228832   5.419   0.191   0.027 -0.4294 -0.2360  0.3403
 9623TIP3    H128833   5.394   0.196   0.119  0.4344  0.0701  0.5695
 9623TIP3    H228834   5.496   0.247   0.020  1.4723 -2.6979  0.1314
 9624TIP3   OH228835   6.709   1.753   3.899 -0.1593 -0.0233  0.1573
 9624TIP3    H128836   6.782   1.798   3.857 -0.1218  1.1487  1.4079
 9624TIP3    H228837   6.744   1.668   3.924  1.0246  0.7691  1.3415
 9625TIP3   OH228838   3.095   5.445   0.103 -0.3692 -0.0632  0.0843
 9625TIP3    H128839   3.109   5.352   0.119 -2.4086 -0.7460 -1.7572
 9625TIP3    H228840   3.020   5.468   0.158  0.2337  0.5984  0.6726
 9626TIP3   OH228841   0.832   2.323   0.222  0.3007  0.5402 -0.4098
 9626TIP3    H128842   0.894   2.362   0.160 -0.6108  1.8120 -0.5550
 9626TIP3    H228843   0.813   2.392   0.285  0.8321 -0.5823  1.0547
 9627TIP3   OH228844   2.924   5.937   1.474  0.0019 -0.0288  0.3963
 9627TIP3    H128845   2.913   6.031   1.458  0.3425 -0.3811 -2.5741
 9627TIP3    H228846   2.872   5.895   1.405  2.1548 -1.9663 -0.1602
 9628TIP3   OH228847   3.087   5.436   0.674  0.3024 -0.0614 -0.5424
 9628TIP3    H128848   3.170   5.450   0.720  0.4734  0.8877 -1.1150
 9628TIP3    H228849   3.075   5.341   0.676  1.1002 -0.1686  0.0652
 9629TIP3   OH228850   4.007   3.826   4.024 -0.0218 -0.5450  0.1886
 9629TIP3    H128851   3.924   3.874   4.017 -0.6486 -1.6858 -0.4477
 9629TIP3    H228852   4.006   3.766   3.949  1.0722 -1.0570  0.5729
 9630TIP3   OH228853   2.396   5.638   4.031  0.0995  0.2941 -0.2000
 9630TIP3    H128854   2.373   5.684   4.112 -0.0539  0.3596 -0.2810
 9630TIP3    H228855   2.450   5.565   4.060  0.9100  0.9058 -0.1280
 9631TIP3   OH228856   6.521   1.579   4.120  0.4296  0.0340  0.5712
 9631TIP3    H128857   6.445   1.567   4.177 -0.3196  1.0002 -0.1753
 9631TIP3    H228858   6.483   1.597   4.034  1.4803  1.3188  0.3531
 9632TIP3   OH228859   4.320   0.435   3.032  0.0897 -0.3912  0.3966
 9632TIP3    H128860   4.229   0.433   3.062 -0.3290  0.1809 -0.7525
 9632TIP3    H228861   4.368   0.380   3.094 -0.8601  0.1002  1.5929
 9633TIP3   OH228862   1.219   5.427   1.681  0.2439  0.2275  0.0974
 9633TIP3    H128863   1.190   5.452   1.768  2.1345 -0.4123  0.9581
 9633TIP3    H228864   1.274   5.501   1.652  1.8543 -0.7267  0.6215
 9634TIP3   OH228865   3.397   4.156   3.308  0.7412  0.1180  0.1685
 9634TIP3    H128866   3.488   4.126   3.304  1.0495  0.9415  0.6636
 9634TIP3    H228867   3.348   4.081   3.340  1.3856 -0.0805  0.7193
 9635TIP3   OH228868   6.061   6.706   4.684 -0.6248 -0.0145  0.3069
 9635TIP3    H128869   6.028   6.618   4.701 -1.4268  0.4977  1.4579
 9635TIP3    H228870   6.025   6.729   4.599  0.0444 -0.9942 -0.2701
 9636TIP3   OH228871   4.612   3.368   3.689 -0.2623  0.1401 -0.1442
 9636TIP3    H128872   4.624   3.459   3.717 -0.1115  0.1885 -0.3554
 9636TIP3    H228873   4.603   3.374   3.594  0.9907 -0.1723 -0.3009
 9637TIP3   OH228874   5.939   1.530   4.049 -0.1025 -0.4439 -0.5493
 9637TIP3    H128875   5.946   1.465   4.118 -0.0146 -0.8496 -0.9384
 9637TIP3    H228876   5.862   1.583   4.073  0.8039  0.3724  0.6526
 9638TIP3   OH228877   4.161   1.080   0.207 -0.1995 -0.1122 -0.4095
 9638TIP3    H128878   4.153   1.160   0.258  1.9846 -0.4511  0.5753
 9638TIP3    H228879   4.089   1.025   0.238 -1.8326  1.4558 -1.2159
 9639TIP3   OH228880   3.304   0.782   5.035 -0.2791 -0.0947  0.5069
 9639TIP3    H128881   3.289   0.689   5.015 -0.8078  0.2993 -1.0925
 9639TIP3    H228882   3.239   0.828   4.982  1.5373  1.3110 -0.5820
 9640TIP3   OH228883   0.726   2.075   5.121 -0.1725 -0.4518 -0.7500
 9640TIP3    H128884   0.643   2.031   5.102  0.7330 -3.1325  0.9753
 9640TIP3    H228885   0.734   2.072   5.216  1.6188  0.3045 -0.8387
 9641TIP3   OH228886   6.755   1.135   2.905  0.5873  0.1046  0.5809
 9641TIP3    H128887   6.782   1.122   2.997  1.0678  0.6791  0.5261
 9641TIP3    H228888   6.758   1.230   2.893 -0.3043  0.0917  0.2096
 9642TIP3   OH228889   4.585   4.392   3.793 -0.2295  0.2479 -0.1475
 9642TIP3    H128890   4.578   4.336   3.716 -0.5102  0.4881 -0.3006
 9642TIP3    H228891   4.494   4.406   3.821 -0.2275  1.3080 -0.6114
 9643TIP3   OH228892   1.214   5.397   3.866 -0.2906  0.2584 -0.5297
 9643TIP3    H128893   1.288   5.416   3.809  1.4809 -3.1011  0.3834
 9643TIP3    H228894   1.161   5.334   3.817  1.2311 -2.6419  1.2757
 9644TIP3   OH228895   2.469   6.629   4.140 -0.0411 -0.2279 -0.8255
 9644TIP3    H128896   2.564   6.631   4.155 -0.1854 -0.7978  0.2440
 9644TIP3    H228897   2.435   6.701   4.193 -0.1016  0.7909 -2.1974
 9645TIP3   OH228898   3.373   3.054   2.397  0.1130  0.1520 -0.1323
 9645TIP3    H128899   3.278   3.059   2.400  0.1720  0.9668  0.7839
 9645TIP3    H228900   3.399   3.024   2.485  0.6753 -0.5693 -0.5325
 9646TIP3   OH228901   3.039   4.490   4.375 -0.2458 -0.1085 -0.0079
 9646TIP3    H128902   3.134   4.484   4.372 -0.1880  0.9806 -1.0761
 9646TIP3    H228903   3.011   4.460   4.288 -0.8373  0.0978  0.1080
 9647TIP3   OH228904   1.500   3.362   1.159  0.3335  0.0519 -0.1376
 9647TIP3    H128905   1.531   3.278   1.192 -0.4029 -0.4262 -0.6248
 9647TIP3    H228906   1.427   3.386   1.216  0.8934  0.6479  0.3466
 9648TIP3   OH228907   5.657   6.349   3.140  0.0072 -0.2607  0.1198
 9648TIP3    H128908   5.707   6.291   3.198  1.5421  0.1531 -0.7582
 9648TIP3    H228909   5.629   6.421   3.196 -1.3661 -1.4708  1.0772
 9649TIP3   OH228910   0.858   3.689   1.850  0.4840 -0.2586 -0.3404
 9649TIP3    H128911   0.951   3.710   1.843  0.9429 -1.9767  0.2961
 9649TIP3    H228912   0.825   3.693   1.760  0.9155  1.3621 -0.4533
 9650TIP3   OH228913   4.581   4.260   4.153 -0.2161 -0.0021  0.4575
 9650TIP3    H128914   4.632   4.330   4.112  0.7268 -1.8146 -1.6763
 9650TIP3    H228915   4.490   4.283   4.134 -0.1014  1.7977  1.8363
 9651TIP3   OH228916   0.750   2.101   1.914 -0.0109  0.1957  0.1913
 9651TIP3    H128917   0.771   2.056   1.832  0.1709  0.0636  0.3089
 9651TIP3    H228918   0.694   2.039   1.961 -1.6310  0.9994 -0.6068
 9652TIP3   OH228919   1.485   4.898   1.370 -0.6405  0.3216 -0.0744
 9652TIP3    H128920   1.502   4.986   1.403 -0.1536  0.3372 -0.3703
 9652TIP3    H228921   1.474   4.845   1.449 -2.0323  0.8470  0.1211
 9653TIP3   OH228922   4.770   5.436   2.589  0.0887  0.1999  0.3357
 9653TIP3    H128923   4.754   5.525   2.619 -0.0001  0.2283  0.2089
 9653TIP3    H228924   4.735   5.435   2.500  1.2362  0.3938 -0.1295
 9654TIP3   OH228925   2.990   1.356   3.847  0.1798  0.0380  0.6421
 9654TIP3    H128926   2.901   1.380   3.872  0.8201  3.1794  0.3280
 9654TIP3    H228927   3.044   1.388   3.919  1.4083  2.8903 -1.3772
 9655TIP3   OH228928   3.263   4.692   2.597 -0.4868 -0.6145  0.4231
 9655TIP3    H128929   3.215   4.774   2.611  0.0129 -0.4662  1.3589
 9655TIP3    H228930   3.197   4.623   2.605 -0.5379 -0.4292  1.9872
 9656TIP3   OH228931   2.593   1.539   2.637 -0.1402 -0.3488  0.3618
 9656TIP3    H128932   2.633   1.547   2.723  0.2106  0.7042  0.1205
 9656TIP3    H228933   2.593   1.445   2.618 -0.4428 -0.6076  1.5987
 9657TIP3   OH228934   0.813   2.220   0.570 -0.1105  0.5537 -0.0247
 9657TIP3    H128935   0.903   2.250   0.587 -0.2423  0.0073  1.9567
 9657TIP3    H228936   0.784   2.272   0.496  1.7477  0.9356 -0.5479
 9658TIP3   OH228937   0.893   3.042   4.556  0.0524 -0.1070 -0.0423
 9658TIP3    H128938   0.820   3.091   4.593 -0.2393 -0.2923 -0.3694
 9658TIP3    H228939   0.930   3.099   4.489 -0.3000 -0.3377 -0.4375
 9659TIP3   OH228940   5.121   2.235   5.445  0.2570 -0.2111  0.0109
 9659TIP3    H128941   5.172   2.294   5.501 -0.3169  0.6977 -0.4191
 9659TIP3    H228942   5.059   2.193   5.505  1.1866 -1.0013  0.4609
 9660TIP3   OH228943   3.605   6.118   0.830  0.1409 -0.0532 -0.0963
 9660TIP3    H128944   3.668   6.078   0.769 -0.1540  0.3959 -0.7043
 9660TIP3    H228945   3.581   6.046   0.889  1.3199 -0.1949  0.2304
 9661TIP3   OH228946   0.412   2.073   4.289 -0.4689  0.3054  0.7990
 9661TIP3    H128947   0.485   2.127   4.258  0.3184 -0.6357  0.9734
 9661TIP3    H228948   0.409   2.089   4.383 -0.6255  0.5001  0.7620
 9662TIP3   OH228949   2.602   6.673   3.645  0.5719 -0.0460  0.2904
 9662TIP3    H128950   2.669   6.698   3.708  1.4673 -0.9327 -0.2743
 9662TIP3    H228951   2.650   6.654   3.565 -0.5754  1.4019 -0.7952
 9663TIP3   OH228952   5.114   6.576   2.593 -0.4506 -0.1059  0.1720
 9663TIP3    H128953   5.123   6.490   2.634  0.4495 -0.2431 -0.3050
 9663TIP3    H228954   5.152   6.637   2.656  1.7270 -0.4097 -0.7672
 9664TIP3   OH228955   4.940   3.302   2.994  0.1592  0.5233  0.8598
 9664TIP3    H128956   4.923   3.257   3.076  0.5338 -0.8385  0.2109
 9664TIP3    H228957   4.975   3.235   2.936 -0.6571  1.3196 -0.6117
 9665TIP3   OH228958   6.691   5.018   1.344 -0.3412 -0.9764  0.0732
 9665TIP3    H128959   6.688   4.961   1.267 -0.0413  0.2910 -0.9068
 9665TIP3    H228960   6.610   5.069   1.340 -0.4654 -1.1028  0.7750
 9666TIP3   OH228961   5.880   1.348   0.142  0.2925  0.3193 -0.0480
 9666TIP3    H128962   5.784   1.347   0.137  0.2558 -2.4584 -0.4565
 9666TIP3    H228963   5.908   1.328   0.053  1.2233 -0.1234  0.3368
 9667TIP3   OH228964   5.185   4.916   5.280  0.5486  0.3527  0.1200
 9667TIP3    H128965   5.165   4.837   5.330  1.7284 -0.1022 -0.0993
 9667TIP3    H228966   5.133   4.908   5.200 -0.0438  0.2673  0.5032
 9668TIP3   OH228967   0.296   6.341   4.815 -0.4018 -0.1620  0.2078
 9668TIP3    H128968   0.259   6.385   4.738 -1.6301 -0.4089  0.6314
 9668TIP3    H228969   0.284   6.403   4.886 -1.4642 -0.8551  0.6614
 9669TIP3   OH228970   2.405   1.050   5.587 -0.0083 -0.5850 -0.0691
 9669TIP3    H128971   2.487   1.092   5.611 -0.3302  0.5813 -0.9102
 9669TIP3    H228972   2.351   1.055   5.666 -0.2629  1.2067 -0.3054
 9670TIP3   OH228973   2.816   0.542   3.462  0.0245  0.5179 -0.3529
 9670TIP3    H128974   2.804   0.637   3.464 -0.5272  0.4365  1.3712
 9670TIP3    H228975   2.897   0.529   3.412 -0.2593  1.8366 -1.1953
 9671TIP3   OH228976   3.830   3.908   3.013 -0.3028  0.0809 -0.1611
 9671TIP3    H128977   3.803   3.856   2.937  1.7279 -1.2664 -0.0581
 9671TIP3    H228978   3.778   3.874   3.085  0.3559 -1.2643 -0.2797
 9672TIP3   OH228979   6.127   4.024   1.060 -0.0502  0.1130 -0.3675
 9672TIP3    H128980   6.054   4.020   1.122  0.6944  1.0888  0.6040
 9672TIP3    H228981   6.201   3.986   1.108  0.2722 -0.1682 -1.0748
 9673TIP3   OH228982   1.941   6.307   2.536 -0.4268 -0.3346  0.3484
 9673TIP3    H128983   1.949   6.317   2.631 -1.0468 -0.9832  0.4767
 9673TIP3    H228984   2.012   6.360   2.501 -2.0671  2.5097  1.0450
 9674TIP3   OH228985   4.154   2.387   0.586 -0.0456 -0.1662  0.2116
 9674TIP3    H128986   4.236   2.357   0.545  1.0896  0.9948  1.5294
 9674TIP3    H228987   4.095   2.312   0.577  0.9114 -0.7911 -1.3945
 9675TIP3   OH228988   2.845   2.438   2.716  0.0281  0.1374 -0.0406
 9675TIP3    H128989   2.857   2.375   2.787  0.6120  0.8136  0.4786
 9675TIP3    H228990   2.883   2.520   2.750 -1.8022  1.1079 -0.2066
 9676TIP3   OH228991   0.250   2.802   2.438 -0.3423  0.1466 -0.5850
 9676TIP3    H128992   0.303   2.775   2.513 -0.6586  0.5021 -0.2321
 9676TIP3    H228993   0.292   2.882   2.407  1.1486 -1.1551 -2.1943
 9677TIP3   OH228994   0.453   3.581   4.008  0.0761 -0.0663  0.1251
 9677TIP3    H128995   0.496   3.499   4.035  1.0321  0.3220 -0.1714
 9677TIP3    H228996   0.495   3.648   4.061 -0.1406  0.3358 -0.2106
 9678TIP3   OH228997   6.290   0.305   5.150 -0.6003  0.1321  0.1646
 9678TIP3    H128998   6.203   0.314   5.187 -0.5105 -0.6840  0.6045
 9678TIP3    H228999   6.336   0.245   5.209 -0.2610 -0.7193 -0.9217
 9679TIP3   OH229000   1.088   5.593   4.039 -0.7218  0.3719  0.1078
 9679TIP3    H129001   1.061   5.543   4.116  0.7092 -0.7392 -0.0577
 9679TIP3    H229002   1.131   5.528   3.983  0.4620  1.6339 -0.5022
 9680TIP3   OH229003   6.254   2.903   2.009 -0.0022  0.1917 -0.1050
 9680TIP3    H129004   6.272   2.810   1.998  1.0079  0.2587  0.8599
 9680TIP3    H229005   6.264   2.918   2.103  1.7664  1.6571 -0.4813
 9681TIP3   OH229006   1.706   0.060   1.760  0.1822 -0.0280  0.4170
 9681TIP3    H129007   1.702  -0.017   1.816 -0.1177 -0.3796 -0.0824
 9681TIP3    H229008   1.751   0.126   1.813 -1.1879  0.0453  1.5339
 9682TIP3   OH229009   0.751   2.791   3.737 -0.2166 -0.7597 -0.2647
 9682TIP3    H129010   0.790   2.711   3.704  1.1325 -0.7299  1.1679
 9682TIP3    H229011   0.799   2.862   3.693  0.3727 -0.7260  0.4359
 9683TIP3   OH229012   6.912   3.228   4.119  0.5732  0.0063 -0.1358
 9683TIP3    H129013   6.953   3.237   4.033  0.0018 -0.6872 -0.5006
 9683TIP3    H229014   6.934   3.139   4.147  0.6388  0.1814  0.3694
 9684TIP3   OH229015   5.689   0.603   3.825 -0.4252 -0.0470 -0.0571
 9684TIP3    H129016   5.748   0.636   3.758  1.8838  2.7413  3.0227
 9684TIP3    H229017   5.615   0.664   3.826  0.0818  0.5683  0.6086
 9685TIP3   OH229018   6.355   6.787   1.000  0.2094 -0.2399 -0.0053
 9685TIP3    H129019   6.414   6.713   1.017  0.1998 -0.2647 -0.0825
 9685TIP3    H229020   6.285   6.776   1.065  1.6055  1.2285  1.8499
 9686TIP3   OH229021   5.183   2.366   2.286  0.2254 -0.0053  0.5264
 9686TIP3    H129022   5.137   2.300   2.234  1.6698 -1.2750  0.7819
 9686TIP3    H229023   5.152   2.450   2.252 -2.1960 -0.7789  0.6547
 9687TIP3   OH229024   6.217   5.445   3.626 -0.4670  0.7047  0.3296
 9687TIP3    H129025   6.152   5.376   3.616  0.2194 -0.5827  3.4450
 9687TIP3    H229026   6.276   5.434   3.551 -1.5129 -0.7810 -0.3141
 9688TIP3   OH229027   0.433   0.622   2.065 -0.2059 -0.0296  0.2901
 9688TIP3    H129028   0.373   0.548   2.054  0.7815 -0.5240 -2.3416
 9688TIP3    H229029   0.379   0.690   2.105 -1.1066 -2.1391  2.9796
 9689TIP3   OH229030   4.451   0.138   1.856 -0.4824  0.0666 -0.2783
 9689TIP3    H129031   4.487   0.082   1.925  0.6989  1.1200  0.0051
 9689TIP3    H229032   4.499   0.113   1.777 -1.2984 -0.6113 -0.5754
 9690TIP3   OH229033   0.829   6.359   1.366 -0.3521  0.2404 -0.7528
 9690TIP3    H129034   0.743   6.362   1.409 -0.1035  0.9631 -0.2893
 9690TIP3    H229035   0.844   6.266   1.350 -0.2157 -0.1230  1.2196
 9691TIP3   OH229036   2.893   2.622   1.041 -0.0356  0.4747 -0.3055
 9691TIP3    H129037   2.945   2.688   0.997  1.5704  1.8999  3.3159
 9691TIP3    H229038   2.934   2.539   1.017  0.9081  1.1809 -1.2276
 9692TIP3   OH229039   2.865   1.920   3.112 -0.2481  0.2374 -0.4322
 9692TIP3    H129040   2.878   1.984   3.041  0.5849  1.6880  0.9632
 9692TIP3    H229041   2.953   1.906   3.147 -0.4639 -1.5001 -0.5156
 9693TIP3   OH229042   4.923   0.703   4.360  0.7118 -0.1936 -0.7201
 9693TIP3    H129043   4.979   0.781   4.364  0.0484  0.3656 -1.8618
 9693TIP3    H229044   4.835   0.738   4.353  0.2457 -1.0690  0.5421
 9694TIP3   OH229045   6.719   1.447   0.161 -0.0858  0.1961  0.5058
 9694TIP3    H129046   6.777   1.411   0.228 -0.1396 -0.4333  0.2241
 9694TIP3    H229047   6.710   1.539   0.184  1.4683  0.4423  0.2489
 9695TIP3   OH229048   3.101   5.562   4.624  0.3408  0.0379  0.2467
 9695TIP3    H129049   3.144   5.644   4.600  1.6399 -0.5140  0.5988
 9695TIP3    H229050   3.049   5.584   4.701  0.1789  0.6652 -0.0353
 9696TIP3   OH229051   6.829   4.396   5.802 -0.2731 -0.0884  0.4947
 9696TIP3    H129052   6.916   4.388   5.764 -0.6705 -1.2454 -0.2124
 9696TIP3    H229053   6.821   4.489   5.825  0.8406  0.1796 -0.1452
 9697TIP3   OH229054   7.164   5.987   1.833  0.4554  0.2947  0.2182
 9697TIP3    H129055   7.114   6.061   1.801  1.5364  1.2451  0.6736
 9697TIP3    H229056   7.099   5.928   1.871 -0.6607 -0.0204 -2.0547
 9698TIP3   OH229057   0.986   5.742   2.918  0.0989 -0.0113 -0.5511
 9698TIP3    H129058   0.937   5.692   2.853 -1.8992  0.1491  0.7386
 9698TIP3    H229059   0.966   5.698   3.001  0.9820  0.9623  0.1958
 9699TIP3   OH229060   4.654   4.036   3.784 -0.7996  0.0991 -0.3311
 9699TIP3    H129061   4.587   4.078   3.730  0.3985  0.4437 -1.6187
 9699TIP3    H229062   4.612   4.024   3.869 -3.1000 -1.3680 -1.5693
 9700TIP3   OH229063   2.810   0.996   0.086  0.5936  0.4159 -0.4590
 9700TIP3    H129064   2.763   0.920   0.053 -1.8484  1.4386  0.3705
 9700TIP3    H229065   2.856   1.031   0.010 -2.6861  1.1860 -2.2790
 9701TIP3   OH229066   2.782   1.396   3.287  0.1628 -0.2270  0.1635
 9701TIP3    H129067   2.817   1.412   3.199 -0.6240  0.8082  0.0204
 9701TIP3    H229068   2.859   1.393   3.344  0.5992  0.3165 -0.3867
 9702TIP3   OH229069   3.347  -0.030   1.034 -0.4896 -0.2094  0.1550
 9702TIP3    H129070   3.381   0.023   1.106 -0.4125 -0.5350  0.3583
 9702TIP3    H229071   3.301   0.033   0.979  0.0436  0.1639  0.1189
 9703TIP3   OH229072   2.852   3.378   1.672 -0.1809  0.4061 -0.2246
 9703TIP3    H129073   2.828   3.304   1.728  1.6737  0.3168  0.5246
 9703TIP3    H229074   2.813   3.454   1.714  0.9175  0.2957  1.0282
 9704TIP3   OH229075   3.688   1.709   0.548  0.1131  0.1270  0.6334
 9704TIP3    H129076   3.638   1.791   0.554  0.2581  0.5352 -2.1390
 9704TIP3    H229077   3.758   1.719   0.613  0.2674  2.3685  0.2327
 9705TIP3   OH229078   6.439   6.088   2.196 -0.7844  0.5989 -0.4320
 9705TIP3    H129079   6.400   6.135   2.269  2.8433  0.3555  1.9174
 9705TIP3    H229080   6.404   6.000   2.203 -0.6002  0.6125  0.9998
 9706TIP3   OH229081   1.249   3.805   5.476  0.6847 -0.0648 -0.6448
 9706TIP3    H129082   1.165   3.848   5.460  0.5174 -0.9071 -2.1791
 9706TIP3    H229083   1.264   3.816   5.570 -1.5766 -0.6477 -0.1633
 9707TIP3   OH229084   6.819   3.578   3.871  0.2735 -0.3677 -0.1580
 9707TIP3    H129085   6.904   3.608   3.902  0.3376 -1.9485  1.3281
 9707TIP3    H229086   6.840   3.506   3.811 -0.0000 -0.1231 -0.5518
 9708TIP3   OH229087   3.920   4.266   2.830 -0.4556  0.2560  0.0496
 9708TIP3    H129088   3.826   4.280   2.820 -0.7473 -1.0983  0.6702
 9708TIP3    H229089   3.955   4.352   2.855 -1.4000  0.9517 -0.9417
 9709TIP3   OH229090   4.794   3.332   4.225  0.2229  0.2546 -0.3810
 9709TIP3    H129091   4.763   3.245   4.249 -1.1191  0.7119 -0.3597
 9709TIP3    H229092   4.718   3.375   4.185  0.8466  1.4139 -0.3770
 9710TIP3   OH229093   7.016   2.078   3.851 -0.2904  0.6109 -0.1636
 9710TIP3    H129094   7.108   2.098   3.869 -0.6383  2.3007 -0.1511
 9710TIP3    H229095   6.976   2.068   3.937 -0.1382 -0.1080 -0.1688
 9711TIP3   OH229096   6.799   6.680   5.310  0.4588 -0.3101 -0.0779
 9711TIP3    H129097   6.875   6.625   5.333  0.3288  0.0206  1.2497
 9711TIP3    H229098   6.734   6.658   5.377  0.2048  1.0342  0.1330
 9712TIP3   OH229099   4.865   1.643   1.644  0.1113 -0.3777  0.1283
 9712TIP3    H129100   4.796   1.671   1.703  0.0386  1.1459 -0.6338
 9712TIP3    H229101   4.841   1.681   1.559  0.3368 -2.3033 -0.8459
 9713TIP3   OH229102   2.070   1.322   4.413 -0.5069  0.5016 -0.1314
 9713TIP3    H129103   2.075   1.258   4.484  0.0949  1.3363  0.6076
 9713TIP3    H229104   1.989   1.370   4.429 -1.4709 -0.6744 -1.2474
 9714TIP3   OH229105   1.689   2.635   4.179 -0.4630 -0.0039 -0.2270
 9714TIP3    H129106   1.610   2.651   4.229 -0.3254  0.8629 -0.2776
 9714TIP3    H229107   1.755   2.612   4.245 -0.6337 -0.2793 -0.1481
 9715TIP3   OH229108   6.855   4.536   1.724 -0.4206 -0.7628 -0.2039
 9715TIP3    H129109   6.894   4.449   1.736  1.4242  0.1721  1.1038
 9715TIP3    H229110   6.928   4.592   1.699 -1.3986  0.6002 -0.1182
 9716TIP3   OH229111   5.155   4.264   1.714 -0.1244  0.1697 -0.1650
 9716TIP3    H129112   5.170   4.173   1.693 -0.7944  0.0245 -0.0541
 9716TIP3    H229113   5.064   4.280   1.687  0.0943  0.8921 -0.4976
 9717TIP3   OH229114   0.419   5.145   5.430 -0.7733  0.0159 -0.4073
 9717TIP3    H129115   0.394   5.052   5.424  1.5232 -0.7088  0.1202
 9717TIP3    H229116   0.404   5.179   5.342 -0.1546 -1.2990 -1.0537
 9718TIP3   OH229117   4.188   4.229   2.099  0.8412  0.1036  0.0771
 9718TIP3    H129118   4.279   4.201   2.096  1.8669  3.0655 -0.2418
 9718TIP3    H229119   4.171   4.265   2.012 -0.8379 -0.8908 -0.0468
 9719TIP3   OH229120   5.315   4.775   1.192 -0.0613  0.2908 -0.4113
 9719TIP3    H129121   5.350   4.857   1.157 -2.6193  1.1350 -1.2816
 9719TIP3    H229122   5.292   4.724   1.114  0.4850 -0.7876  0.1201
 9720TIP3   OH229123   3.360   3.653   4.482 -0.2987  0.3307 -0.1604
 9720TIP3    H129124   3.383   3.681   4.571 -3.5158  0.5725  0.7205
 9720TIP3    H229125   3.356   3.735   4.432  0.3235  0.3292 -0.2119
 9721TIP3   OH229126   5.238   1.641   4.420  0.3138 -0.3694 -0.4877
 9721TIP3    H129127   5.188   1.607   4.346 -0.9037  1.3683 -0.5185
 9721TIP3    H229128   5.187   1.616   4.497 -1.3473  2.3895 -0.5766
 9722TIP3   OH229129   1.717   5.597   3.641  0.1602 -0.1552 -0.1140
 9722TIP3    H129130   1.791   5.605   3.581 -1.5555 -1.0018 -2.4859
 9722TIP3    H229131   1.693   5.688   3.660  1.7708  0.1314  0.7245
 9723TIP3   OH229132   3.226   6.331   1.437  0.4545  0.7342 -0.1952
 9723TIP3    H129133   3.235   6.237   1.425  0.5922  0.9423 -1.9550
 9723TIP3    H229134   3.311   6.367   1.411  0.5200  1.3313  0.7946
 9724TIP3   OH229135   5.517   0.530   2.156  0.8199  0.1074  0.5227
 9724TIP3    H129136   5.500   0.441   2.127  0.3699  0.5227 -0.5154
 9724TIP3    H229137   5.445   0.582   2.121  2.0371  1.1994 -0.4660
 9725TIP3   OH229138   0.045   6.443   1.988  0.1686  0.7494 -0.2863
 9725TIP3    H129139   0.131   6.455   2.029  0.7478 -0.5586 -1.0420
 9725TIP3    H229140   0.040   6.349   1.971 -1.2285  0.8774 -0.6834
 9726TIP3   OH229141   6.853   6.318   5.219  0.1113 -0.1864  0.2869
 9726TIP3    H129142   6.894   6.264   5.152 -1.2349  0.3710 -1.0405
 9726TIP3    H229143   6.888   6.405   5.205  0.9661 -0.3444  1.3110
 9727TIP3   OH229144   5.043   5.932   1.998  0.1195 -0.2175  0.2874
 9727TIP3    H129145   5.068   5.903   1.910  1.2042  1.8471 -0.1300
 9727TIP3    H229146   5.117   5.984   2.028  0.1966 -1.6108  2.8477
 9728TIP3   OH229147   2.220   0.692   0.696 -0.3746  0.1912 -0.0977
 9728TIP3    H129148   2.242   0.745   0.773 -0.0567  0.5382 -0.4262
 9728TIP3    H229149   2.131   0.659   0.714  0.2848 -1.0365  1.1442
 9729TIP3   OH229150   5.008   1.989   1.497 -0.6963  0.0066 -0.3869
 9729TIP3    H129151   4.929   2.000   1.549  0.2885  0.2967  1.1218
 9729TIP3    H229152   5.014   2.070   1.445 -0.1424  1.1112  1.3025
 9730TIP3   OH229153   3.585   1.668   5.145 -0.1893 -0.1792  0.2555
 9730TIP3    H129154   3.509   1.718   5.173  0.0837 -0.1984  1.0448
 9730TIP3    H229155   3.553   1.616   5.070 -1.0286 -0.3961  0.7473
 9731TIP3   OH229156   7.093   1.476   4.595 -0.1891 -0.1465 -0.1813
 9731TIP3    H129157   7.002   1.457   4.619 -0.4826  4.5055  3.9549
 9731TIP3    H229158   7.144   1.449   4.672  1.3728  0.6241 -0.9037
 9732TIP3   OH229159   2.019   4.726   3.316  0.2560  0.5219 -0.0512
 9732TIP3    H129160   2.040   4.817   3.335 -1.4193  1.3682 -1.8731
 9732TIP3    H229161   2.099   4.690   3.278  1.4920  0.6753  2.2439
 9733TIP3   OH229162   5.143   6.331   0.744 -0.4285  0.0445  0.0554
 9733TIP3    H129163   5.159   6.304   0.835 -2.3847 -0.8075  0.1963
 9733TIP3    H229164   5.107   6.253   0.702 -1.0341  0.8763 -1.0197
 9734TIP3   OH229165   3.328   0.039   2.696 -0.2567 -0.3577  0.3469
 9734TIP3    H129166   3.250  -0.017   2.693 -0.9156  0.4869  1.0136
 9734TIP3    H229167   3.360   0.030   2.786  0.1221 -0.3241  0.2130
 9735TIP3   OH229168   2.486   1.394   0.673 -0.1925  0.1992 -0.5733
 9735TIP3    H129169   2.537   1.348   0.739 -0.0165  1.8607  0.5008
 9735TIP3    H229170   2.404   1.416   0.717  0.1036  1.7164 -0.7082
 9736TIP3   OH229171   3.932   1.319   4.665 -0.0003  0.5257  0.0226
 9736TIP3    H129172   4.011   1.343   4.616  1.2488 -0.8130  1.2970
 9736TIP3    H229173   3.933   1.376   4.742  0.8576 -0.8570  1.0685
 9737TIP3   OH229174   1.072   0.869   3.866  0.4002  0.1262 -0.2228
 9737TIP3    H129175   1.109   0.855   3.953 -1.3163 -0.1034  0.5151
 9737TIP3    H229176   1.040   0.783   3.839 -3.2677  0.8901  1.0156
 9738TIP3   OH229177   3.782   3.753   2.738  0.7615  0.2349 -0.3085
 9738TIP3    H129178   3.754   3.671   2.697 -2.7061  0.2703  1.6223
 9738TIP3    H229179   3.874   3.760   2.715  0.8159 -3.3318 -1.9537
 9739TIP3   OH229180   2.562   3.194   1.158 -0.0607 -0.4196 -0.1617
 9739TIP3    H129181   2.636   3.173   1.102  0.6801  0.3697  0.4979
 9739TIP3    H229182   2.512   3.258   1.108  0.2383 -0.2109 -0.1955
 9740TIP3   OH229183   6.295   2.212   4.688 -0.7190  0.2848  0.4285
 9740TIP3    H129184   6.304   2.245   4.777  0.9151  0.2683  0.2928
 9740TIP3    H229185   6.360   2.142   4.681 -0.2151  0.8560 -1.0315
 9741TIP3   OH229186   6.117   6.288   1.405 -0.3097  0.3344  0.3318
 9741TIP3    H129187   6.205   6.299   1.442  0.0576  1.2661 -0.7677
 9741TIP3    H229188   6.060   6.333   1.468 -0.0811 -0.6547  1.2839
 9742TIP3   OH229189   3.529   0.298   3.970  0.4850  0.5587 -0.0883
 9742TIP3    H129190   3.601   0.348   4.009  1.9226 -0.8285 -0.8330
 9742TIP3    H229191   3.570   0.250   3.897 -1.3524  0.2586 -0.9829
 9743TIP3   OH229192   0.408   2.728   5.100  0.4508 -0.0548  1.1090
 9743TIP3    H129193   0.419   2.649   5.152  0.2189 -1.2952 -0.6428
 9743TIP3    H229194   0.338   2.707   5.038 -0.9944  2.2038  1.8192
 9744TIP3   OH229195   6.559   0.660   4.071  0.5219 -0.4592 -0.2399
 9744TIP3    H129196   6.527   0.628   4.156  0.4575 -1.2616 -0.5620
 9744TIP3    H229197   6.623   0.594   4.043 -1.3365 -1.6125 -2.0282
 9745TIP3   OH229198   5.569   1.244   2.769  0.0534  0.0898 -0.4860
 9745TIP3    H129199   5.598   1.295   2.844  1.3229 -0.4328 -0.6094
 9745TIP3    H229200   5.474   1.258   2.766 -0.1921 -0.7680  1.8757
 9746TIP3   OH229201   7.029   5.951   5.661 -0.5752 -0.1159 -0.1042
 9746TIP3    H129202   6.946   5.997   5.669 -0.0179  0.9361 -0.2344
 9746TIP3    H229203   7.042   5.938   5.567  0.3484  1.5230 -0.2319
 9747TIP3   OH229204   5.846   3.159   0.210  0.5847  0.4945  0.8683
 9747TIP3    H129205   5.927   3.112   0.190  1.0010  1.3505  0.5086
 9747TIP3    H229206   5.860   3.196   0.297  1.2564  2.0313  0.1412
 9748TIP3   OH229207   6.655   1.780   1.587  0.1018 -0.3051 -0.2108
 9748TIP3    H129208   6.724   1.838   1.621  1.5278 -0.2271 -2.9966
 9748TIP3    H229209   6.682   1.760   1.498 -2.3895 -2.1303 -0.6565
 9749TIP3   OH229210   0.842   0.564   1.372  0.0756  0.1743  0.1111
 9749TIP3    H129211   0.864   0.640   1.426  1.1859  0.1266 -0.2507
 9749TIP3    H229212   0.832   0.600   1.284 -0.9497  0.1267  0.1877
   7.19676   6.78517   5.87612   0.00000   0.00000  -2.39892   0.00000  -2.39892  -3.39259
