        90  EXT
         1         1  ASP       N               4.8590000000        9.8710000000       17.2820000000  PROA      1              87.4200000000
         2         1  ASP       CA              5.0490000000        8.6390000000       16.5220000000  PROA      1              89.6600000000
         3         1  ASP       C               3.9170000000        8.4330000000       15.5180000000  PROA      1              91.2000000000
         4         1  ASP       CB              5.1420000000        7.4370000000       17.4640000000  PROA      1              83.1900000000
         5         1  ASP       O               2.7540000000        8.7050000000       15.8210000000  PROA      1              86.4400000000
         6         1  ASP       CG              6.3030000000        7.5340000000       18.4370000000  PROA      1              71.5200000000
         7         1  ASP       OD1             7.3570000000        8.1010000000       18.0750000000  PROA      1              62.6200000000
         8         1  ASP       OD2             6.1660000000        7.0360000000       19.5750000000  PROA      1              71.7300000000
         9         2  SER       N               3.9330000000        8.2470000000       14.3350000000  PROA      2              88.5500000000
        10         2  SER       CA              2.9630000000        8.0600000000       13.2610000000  PROA      2              88.8600000000
        11         2  SER       C               2.2850000000        6.6980000000       13.3600000000  PROA      2              89.1600000000
        12         2  SER       CB              3.6390000000        8.2040000000       11.8970000000  PROA      2              84.9300000000
        13         2  SER       O               2.8760000000        5.7390000000       13.8620000000  PROA      2              84.6800000000
        14         2  SER       OG              4.5330000000        7.1300000000       11.6620000000  PROA      2              71.4400000000
        15         3  GLY       N               1.0290000000        6.5430000000       13.4680000000  PROA      3              90.1000000000
        16         3  GLY       CA              0.1940000000        5.3530000000       13.4430000000  PROA      3              89.6300000000
        17         3  GLY       C               0.6670000000        4.3140000000       12.4440000000  PROA      3              89.9800000000
        18         3  GLY       O               1.5060000000        4.6040000000       11.5890000000  PROA      3              87.1600000000
        19         4  ASP       N               0.3260000000        3.0120000000       12.7240000000  PROA      4              89.4000000000
        20         4  ASP       CA              0.6040000000        1.9070000000       11.8130000000  PROA      4              89.4800000000
        21         4  ASP       C               0.0250000000        2.1800000000       10.4260000000  PROA      4              89.4700000000
        22         4  ASP       CB              0.0410000000        0.5970000000       12.3690000000  PROA      4              86.9500000000
        23         4  ASP       O              -1.0070000000        2.8420000000       10.2970000000  PROA      4              87.2200000000
        24         4  ASP       CG              0.7260000000        0.1540000000       13.6500000000  PROA      4              81.2200000000
        25         4  ASP       OD1             1.9010000000        0.5170000000       13.8700000000  PROA      4              78.9000000000
        26         4  ASP       OD2             0.0850000000       -0.5680000000       14.4440000000  PROA      4              82.5300000000
        27         5  SER       N               0.6770000000        1.8890000000        9.5010000000  PROA      5              90.9200000000
        28         5  SER       CA              0.1590000000        1.9440000000        8.1370000000  PROA      5              91.1800000000
        29         5  SER       C              -1.1790000000        1.2220000000        8.0250000000  PROA      5              92.3700000000
        30         5  SER       CB              1.1620000000        1.3340000000        7.1570000000  PROA      5              89.4000000000
        31         5  SER       O              -1.4620000000        0.3030000000        8.7970000000  PROA      5              91.4300000000
        32         5  SER       OG              2.4340000000        1.9440000000        7.2940000000  PROA      5              83.9300000000
        33         6  GLY       N              -2.1590000000        1.8950000000        7.3690000000  PROA      6              90.8700000000
        34         6  GLY       CA             -3.4190000000        1.2290000000        7.0810000000  PROA      6              90.8800000000
        35         6  GLY       C              -3.2440000000       -0.0940000000        6.3600000000  PROA      6              92.5000000000
        36         6  GLY       O              -2.1230000000       -0.4810000000        6.0250000000  PROA      6              91.5900000000
        37         7  PRO       N              -4.3790000000       -0.8310000000        6.1290000000  PROA      7              94.7500000000
        38         7  PRO       CA             -4.3510000000       -2.0540000000        5.3230000000  PROA      7              95.0400000000
        39         7  PRO       C              -3.9630000000       -1.7930000000        3.8690000000  PROA      7              95.8200000000
        40         7  PRO       CB             -5.7870000000       -2.5730000000        5.4210000000  PROA      7              93.8100000000
        41         7  PRO       O              -4.1070000000       -0.6700000000        3.3800000000  PROA      7              95.2600000000
        42         7  PRO       CG             -6.4180000000       -1.7520000000        6.4990000000  PROA      7              90.1100000000
        43         7  PRO       CD             -5.6250000000       -0.4880000000        6.6610000000  PROA      7              88.9400000000
        44         8  GLY       N              -3.3980000000       -2.8260000000        3.1690000000  PROA      8              94.3500000000
        45         8  GLY       CA             -3.0650000000       -2.6970000000        1.7590000000  PROA      8              94.4000000000
        46         8  GLY       C              -4.2860000000       -2.5770000000        0.8670000000  PROA      8              95.5200000000
        47         8  GLY       O              -5.4060000000       -2.8630000000        1.2960000000  PROA      8              94.9900000000
        48         9  ASP       N              -4.0890000000       -1.9950000000       -0.4060000000  PROA      9              93.9600000000
        49         9  ASP       CA             -5.1290000000       -1.9170000000       -1.4270000000  PROA      9              94.4100000000
        50         9  ASP       C              -5.6730000000       -3.3030000000       -1.7650000000  PROA      9              95.5400000000
        51         9  ASP       CB             -4.5920000000       -1.2410000000       -2.6900000000  PROA      9              92.7100000000
        52         9  ASP       O              -4.9530000000       -4.2990000000       -1.6630000000  PROA      9              95.0900000000
        53         9  ASP       CG             -4.2840000000        0.2330000000       -2.4880000000  PROA      9              87.7600000000
        54         9  ASP       OD1            -4.7730000000        0.8290000000       -1.5050000000  PROA      9              87.3300000000
        55         9  ASP       OD2            -3.5490000000        0.8030000000       -3.3230000000  PROA      9              89.1500000000
        56        10  PRO       N              -6.8400000000       -3.4680000000       -2.2270000000  PROA      10             91.8200000000
        57        10  PRO       CA             -7.3020000000       -4.7450000000       -2.7760000000  PROA      10             91.1400000000
        58        10  PRO       C              -6.5580000000       -5.1450000000       -4.0480000000  PROA      10             91.3700000000
        59        10  PRO       CB             -8.7830000000       -4.4880000000       -3.0670000000  PROA      10             89.4100000000
        60        10  PRO       O              -6.1330000000       -4.2780000000       -4.8160000000  PROA      10             89.3100000000
        61        10  PRO       CG             -9.0980000000       -3.2160000000       -2.3500000000  PROA      10             85.6000000000
        62        10  PRO       CD             -7.8210000000       -2.4510000000       -2.1510000000  PROA      10             86.1900000000
        63        11  GLY       N              -5.9700000000       -6.3130000000       -4.2680000000  PROA      11             91.6700000000
        64        11  GLY       CA             -5.2890000000       -6.8200000000       -5.4490000000  PROA      11             91.4100000000
        65        11  GLY       C              -6.0740000000       -6.6060000000       -6.7290000000  PROA      11             92.6900000000
        66        11  GLY       O              -7.2780000000       -6.3450000000       -6.6890000000  PROA      11             91.9600000000
        67        12  ASP       N              -5.4650000000       -6.5360000000       -7.9580000000  PROA      12             90.8800000000
        68        12  ASP       CA             -6.0600000000       -6.4190000000       -9.2860000000  PROA      12             91.0000000000
        69        12  ASP       C              -7.0450000000       -7.5560000000       -9.5490000000  PROA      12             91.2300000000
        70        12  ASP       CB             -4.9730000000       -6.4050000000      -10.3620000000  PROA      12             87.9600000000
        71        12  ASP       O              -6.8150000000       -8.6920000000       -9.1300000000  PROA      12             89.1000000000
        72        12  ASP       CG             -4.1250000000       -5.1450000000      -10.3320000000  PROA      12             81.0200000000
        73        12  ASP       OD1            -4.5840000000       -4.1130000000       -9.7960000000  PROA      12             79.8500000000
        74        12  ASP       OD2            -2.9880000000       -5.1840000000      -10.8500000000  PROA      12             83.2300000000
        75        13  SER       N              -8.1600000000       -7.3710000000      -10.1720000000  PROA      13             89.0600000000
        76        13  SER       CA             -9.1260000000       -8.3690000000      -10.6190000000  PROA      13             87.3700000000
        77        13  SER       C              -8.5820000000       -9.1780000000      -11.7910000000  PROA      13             86.5800000000
        78        13  SER       CB            -10.4420000000       -7.6990000000      -11.0190000000  PROA      13             84.5900000000
        79        13  SER       O              -7.9560000000       -8.6250000000      -12.6970000000  PROA      13             82.9500000000
        80        13  SER       OG            -10.2480000000       -6.8210000000      -12.1140000000  PROA      13             77.3500000000
        81        14  GLY       N              -8.1220000000      -10.3340000000      -11.7400000000  PROA      14             90.6500000000
        82        14  GLY       CA             -7.6300000000      -11.3060000000      -12.7030000000  PROA      14             89.7700000000
        83        14  GLY       C              -8.2040000000      -11.1120000000      -14.0940000000  PROA      14             90.8300000000
        84        14  GLY       O              -9.3040000000      -10.5770000000      -14.2480000000  PROA      14             89.0700000000
        85        15  SER       N              -7.5310000000      -10.6520000000      -14.9880000000  PROA      15             88.8000000000
        86        15  SER       CA             -8.0060000000      -10.5800000000      -16.3660000000  PROA      15             88.1500000000
        87        15  SER       C              -8.6080000000      -11.9070000000      -16.8140000000  PROA      15             88.5800000000
        88        15  SER       CB             -6.8650000000      -10.1850000000      -17.3050000000  PROA      15             82.9700000000
        89        15  SER       O              -8.2750000000      -12.9610000000      -16.2690000000  PROA      15             84.8500000000
        90        15  SER       OG             -5.6220000000      -10.6550000000      -16.8130000000  PROA      15             70.4800000000
