* GENERATED BY CHARMM-GUI (HTTP://WWW.CHARMM-GUI.ORG) V3.7 ON JUN, 13. 2026. JOB
* READ PDB, MANIPULATE STRUCTURE IF NEEDED, AND GENERATE TOPOLOGY FILE
*  DATE:     6/13/26      6:40:44      CREATED BY USER: charmm-gui
*
       158  EXT
         1         1  ASP       N               4.8590000000        9.8710000000       17.2820000000  PROA      1              87.4200000000
         2         1  ASP       HT1             4.9527609554       10.6888900634       16.6464964773  PROA      1               0.0000000000
         3         1  ASP       HT2             5.5775069666        9.9302333547       18.0315590602  PROA      1               0.0000000000
         4         1  ASP       HT3             3.9112244682        9.8715236828       17.7101599037  PROA      1               0.0000000000
         5         1  ASP       CA              5.0490000000        8.6390000000       16.5220000000  PROA      1              89.6600000000
         6         1  ASP       HA              5.9584639777        8.7410204662       15.9487653146  PROA      1               0.0000000000
         7         1  ASP       CB              5.1420000000        7.4370000000       17.4640000000  PROA      1              83.1900000000
         8         1  ASP       HB1             5.2679947961        6.5145782742       16.8582523445  PROA      1               0.0000000000
         9         1  ASP       HB2             4.1999745094        7.3642825497       18.0479237095  PROA      1               0.0000000000
        10         1  ASP       CG              6.3030000000        7.5340000000       18.4370000000  PROA      1              71.5200000000
        11         1  ASP       OD1             7.3570000000        8.1010000000       18.0750000000  PROA      1              62.6200000000
        12         1  ASP       OD2             6.1660000000        7.0360000000       19.5750000000  PROA      1              71.7300000000
        13         1  ASP       C               3.9170000000        8.4330000000       15.5180000000  PROA      1              91.2000000000
        14         1  ASP       O               2.7540000000        8.7050000000       15.8210000000  PROA      1              86.4400000000
        15         2  SER       N               3.9330000000        8.2470000000       14.3350000000  PROA      2              88.5500000000
        16         2  SER       HN              4.8367662056        8.2022456688       13.9450734274  PROA      2               0.0000000000
        17         2  SER       CA              2.9630000000        8.0600000000       13.2610000000  PROA      2              88.8600000000
        18         2  SER       HA              2.1879750997        8.8031067606       13.3763069505  PROA      2               0.0000000000
        19         2  SER       CB              3.6390000000        8.2040000000       11.8970000000  PROA      2              84.9300000000
        20         2  SER       HB1             4.2101374597        9.1562932801       11.8628850939  PROA      2               0.0000000000
        21         2  SER       HB2             2.8677929173        8.2064304864       11.0973387941  PROA      2               0.0000000000
        22         2  SER       OG              4.5330000000        7.1300000000       11.6620000000  PROA      2              71.4400000000
        23         2  SER       HG1             4.0009980627        6.3314575683       11.6920653198  PROA      2               0.0000000000
        24         2  SER       C               2.2850000000        6.6980000000       13.3600000000  PROA      2              89.1600000000
        25         2  SER       O               2.8760000000        5.7390000000       13.8620000000  PROA      2              84.6800000000
        26         3  GLY       N               1.0290000000        6.5430000000       13.4680000000  PROA      3              90.1000000000
        27         3  GLY       HN              0.4819469156        7.3605727876       13.5938611959  PROA      3               0.0000000000
        28         3  GLY       CA              0.1940000000        5.3530000000       13.4430000000  PROA      3              89.6300000000
        29         3  GLY       HA1            -0.8086558897        5.6586720244       13.1831214474  PROA      3               0.0000000000
        30         3  GLY       HA2             0.2067730832        4.9199233999       14.4322282793  PROA      3               0.0000000000
        31         3  GLY       C               0.6670000000        4.3140000000       12.4440000000  PROA      3              89.9800000000
        32         3  GLY       O               1.5060000000        4.6040000000       11.5890000000  PROA      3              87.1600000000
        33         4  ASP       N               0.3260000000        3.0120000000       12.7240000000  PROA      4              89.4000000000
        34         4  ASP       HN             -0.1322993730        2.7639637085       13.5735998271  PROA      4               0.0000000000
        35         4  ASP       CA              0.6040000000        1.9070000000       11.8130000000  PROA      4              89.4800000000
        36         4  ASP       HA              1.6746069938        1.8339845489       11.6920320180  PROA      4               0.0000000000
        37         4  ASP       CB              0.0410000000        0.5970000000       12.3690000000  PROA      4              86.9500000000
        38         4  ASP       HB1             0.1697169749       -0.2015283500       11.6077742571  PROA      4               0.0000000000
        39         4  ASP       HB2            -1.0416336278        0.7308524397       12.5779693022  PROA      4               0.0000000000
        40         4  ASP       CG              0.7260000000        0.1540000000       13.6500000000  PROA      4              81.2200000000
        41         4  ASP       OD1             1.9010000000        0.5170000000       13.8700000000  PROA      4              78.9000000000
        42         4  ASP       OD2             0.0850000000       -0.5680000000       14.4440000000  PROA      4              82.5300000000
        43         4  ASP       C               0.0250000000        2.1800000000       10.4260000000  PROA      4              89.4700000000
        44         4  ASP       O              -1.0070000000        2.8420000000       10.2970000000  PROA      4              87.2200000000
        45         5  SER       N               0.6770000000        1.8890000000        9.5010000000  PROA      5              90.9200000000
        46         5  SER       HN              1.6223894165        1.5876462175        9.5963047042  PROA      5               0.0000000000
        47         5  SER       CA              0.1590000000        1.9440000000        8.1370000000  PROA      5              91.1800000000
        48         5  SER       HA             -0.0251362008        2.9790316693        7.8900813265  PROA      5               0.0000000000
        49         5  SER       CB              1.1620000000        1.3340000000        7.1570000000  PROA      5              89.4000000000
        50         5  SER       HB1             0.8050209985        1.4852405692        6.1158856620  PROA      5               0.0000000000
        51         5  SER       HB2             1.2653586044        0.2463126638        7.3581965201  PROA      5               0.0000000000
        52         5  SER       OG              2.4340000000        1.9440000000        7.2940000000  PROA      5              83.9300000000
        53         5  SER       HG1             2.3021894384        2.8760294226        7.1054605313  PROA      5               0.0000000000
        54         5  SER       C              -1.1790000000        1.2220000000        8.0250000000  PROA      5              92.3700000000
        55         5  SER       O              -1.4620000000        0.3030000000        8.7970000000  PROA      5              91.4300000000
        56         6  GLY       N              -2.1590000000        1.8950000000        7.3690000000  PROA      6              90.8700000000
        57         6  GLY       HN             -2.0635863158        2.8401234044        7.0662863590  PROA      6               0.0000000000
        58         6  GLY       CA             -3.4190000000        1.2290000000        7.0810000000  PROA      6              90.8800000000
        59         6  GLY       HA1            -4.0077539552        1.8901593608        6.4625151148  PROA      6               0.0000000000
        60         6  GLY       HA2            -3.9211221038        1.0524612803        8.0206775759  PROA      6               0.0000000000
        61         6  GLY       C              -3.2440000000       -0.0940000000        6.3600000000  PROA      6              92.5000000000
        62         6  GLY       O              -2.1230000000       -0.4810000000        6.0250000000  PROA      6              91.5900000000
        63         7  PRO       N              -4.3790000000       -0.8310000000        6.1290000000  PROA      7              94.7500000000
        64         7  PRO       CD             -5.6250000000       -0.4880000000        6.6610000000  PROA      7              88.9400000000
        65         7  PRO       HD1            -6.0692867422        0.3513344622        6.0861748096  PROA      7               0.0000000000
        66         7  PRO       HD2            -5.5206123916       -0.2034289372        7.7289042961  PROA      7               0.0000000000
        67         7  PRO       CA             -4.3510000000       -2.0540000000        5.3230000000  PROA      7              95.0400000000
        68         7  PRO       HA             -3.6002460443       -2.7324923398        5.6952214712  PROA      7               0.0000000000
        69         7  PRO       CB             -5.7870000000       -2.5730000000        5.4210000000  PROA      7              93.8100000000
        70         7  PRO       HB1            -5.7990532007       -3.6511324727        5.6885132430  PROA      7               0.0000000000
        71         7  PRO       HB2            -6.3221417976       -2.4363333040        4.4571412374  PROA      7               0.0000000000
        72         7  PRO       CG             -6.4180000000       -1.7520000000        6.4990000000  PROA      7              90.1100000000
        73         7  PRO       HG1            -7.4660484873       -1.5075758835        6.2230539369  PROA      7               0.0000000000
        74         7  PRO       HG2            -6.4216504725       -2.3205039932        7.4535076710  PROA      7               0.0000000000
        75         7  PRO       C              -3.9630000000       -1.7930000000        3.8690000000  PROA      7              95.8200000000
        76         7  PRO       O              -4.1070000000       -0.6700000000        3.3800000000  PROA      7              95.2600000000
        77         8  GLY       N              -3.3980000000       -2.8260000000        3.1690000000  PROA      8              94.3500000000
        78         8  GLY       HN             -3.1917700947       -3.7048932600        3.5919040243  PROA      8               0.0000000000
        79         8  GLY       CA             -3.0650000000       -2.6970000000        1.7590000000  PROA      8              94.4000000000
        80         8  GLY       HA1            -2.5045939909       -3.5739517849        1.4705697699  PROA      8               0.0000000000
        81         8  GLY       HA2            -2.4573402336       -1.8118035500        1.6429475171  PROA      8               0.0000000000
        82         8  GLY       C              -4.2860000000       -2.5770000000        0.8670000000  PROA      8              95.5200000000
        83         8  GLY       O              -5.4060000000       -2.8630000000        1.2960000000  PROA      8              94.9900000000
        84         9  ASP       N              -4.0890000000       -1.9950000000       -0.4060000000  PROA      9              93.9600000000
        85         9  ASP       HN             -3.2095912687       -1.6042546718       -0.6648672021  PROA      9               0.0000000000
        86         9  ASP       CA             -5.1290000000       -1.9170000000       -1.4270000000  PROA      9              94.4100000000
        87         9  ASP       HA             -5.9550997299       -1.3521516910       -1.0212033581  PROA      9               0.0000000000
        88         9  ASP       CB             -4.5920000000       -1.2410000000       -2.6900000000  PROA      9              92.7100000000
        89         9  ASP       HB1            -5.3490871371       -1.3340892177       -3.4973634130  PROA      9               0.0000000000
        90         9  ASP       HB2            -3.6587111631       -1.7549274557       -3.0038992410  PROA      9               0.0000000000
        91         9  ASP       CG             -4.2840000000        0.2330000000       -2.4880000000  PROA      9              87.7600000000
        92         9  ASP       OD1            -4.7730000000        0.8290000000       -1.5050000000  PROA      9              87.3300000000
        93         9  ASP       OD2            -3.5490000000        0.8030000000       -3.3230000000  PROA      9              89.1500000000
        94         9  ASP       C              -5.6730000000       -3.3030000000       -1.7650000000  PROA      9              95.5400000000
        95         9  ASP       O              -4.9530000000       -4.2990000000       -1.6630000000  PROA      9              95.0900000000
        96        10  PRO       N              -6.8400000000       -3.4680000000       -2.2270000000  PROA      10             91.8200000000
        97        10  PRO       CD             -7.8210000000       -2.4510000000       -2.1510000000  PROA      10             86.1900000000
        98        10  PRO       HD1            -7.6610603234       -1.7010071950       -2.9535094168  PROA      10              0.0000000000
        99        10  PRO       HD2            -7.7874850528       -1.9571740946       -1.1574689258  PROA      10              0.0000000000
       100        10  PRO       CA             -7.3020000000       -4.7450000000       -2.7760000000  PROA      10             91.1400000000
       101        10  PRO       HA             -7.1120278521       -5.5448979297       -2.0784282968  PROA      10              0.0000000000
       102        10  PRO       CB             -8.7830000000       -4.4880000000       -3.0670000000  PROA      10             89.4100000000
       103        10  PRO       HB1            -9.4102523022       -5.3215587356       -2.6851510486  PROA      10              0.0000000000
       104        10  PRO       HB2            -8.9571045293       -4.3787283083       -4.1587057975  PROA      10              0.0000000000
       105        10  PRO       CG             -9.0980000000       -3.2160000000       -2.3500000000  PROA      10             85.6000000000
       106        10  PRO       HG1            -9.8108605938       -2.6109984619       -2.9500795490  PROA      10              0.0000000000
       107        10  PRO       HG2            -9.5598959138       -3.4421980499       -1.3652263410  PROA      10              0.0000000000
       108        10  PRO       C              -6.5580000000       -5.1450000000       -4.0480000000  PROA      10             91.3700000000
       109        10  PRO       O              -6.1330000000       -4.2780000000       -4.8160000000  PROA      10             89.3100000000
       110        11  GLY       N              -5.9700000000       -6.3130000000       -4.2680000000  PROA      11             91.6700000000
       111        11  GLY       HN             -5.9732510444       -6.9783189455       -3.5310890595  PROA      11              0.0000000000
       112        11  GLY       CA             -5.2890000000       -6.8200000000       -5.4490000000  PROA      11             91.4100000000
       113        11  GLY       HA1            -5.1292216295       -7.8787902779       -5.3085712076  PROA      11              0.0000000000
       114        11  GLY       HA2            -4.3416593755       -6.3077036145       -5.5289023196  PROA      11              0.0000000000
       115        11  GLY       C              -6.0740000000       -6.6060000000       -6.7290000000  PROA      11             92.6900000000
       116        11  GLY       O              -7.2780000000       -6.3450000000       -6.6890000000  PROA      11             91.9600000000
       117        12  ASP       N              -5.4650000000       -6.5360000000       -7.9580000000  PROA      12             90.8800000000
       118        12  ASP       HN             -4.4725571581       -6.5662210633       -7.9926155366  PROA      12              0.0000000000
       119        12  ASP       CA             -6.0600000000       -6.4190000000       -9.2860000000  PROA      12             91.0000000000
       120        12  ASP       HA             -6.6312919479       -5.5031435389       -9.3175877121  PROA      12              0.0000000000
       121        12  ASP       CB             -4.9730000000       -6.4050000000      -10.3620000000  PROA      12             87.9600000000
       122        12  ASP       HB1            -5.4541958992       -6.4805913246      -11.3602047898  PROA      12              0.0000000000
       123        12  ASP       HB2            -4.3063454227       -7.2804742868      -10.2110271815  PROA      12              0.0000000000
       124        12  ASP       CG             -4.1250000000       -5.1450000000      -10.3320000000  PROA      12             81.0200000000
       125        12  ASP       OD1            -4.5840000000       -4.1130000000       -9.7960000000  PROA      12             79.8500000000
       126        12  ASP       OD2            -2.9880000000       -5.1840000000      -10.8500000000  PROA      12             83.2300000000
       127        12  ASP       C              -7.0450000000       -7.5560000000       -9.5490000000  PROA      12             91.2300000000
       128        12  ASP       O              -6.8150000000       -8.6920000000       -9.1300000000  PROA      12             89.1000000000
       129        13  SER       N              -8.1600000000       -7.3710000000      -10.1720000000  PROA      13             89.0600000000
       130        13  SER       HN             -8.4346081856       -6.4420479875      -10.3961716296  PROA      13              0.0000000000
       131        13  SER       CA             -9.1260000000       -8.3690000000      -10.6190000000  PROA      13             87.3700000000
       132        13  SER       HA             -9.2893667965       -9.0639355790       -9.8087254267  PROA      13              0.0000000000
       133        13  SER       CB            -10.4420000000       -7.6990000000      -11.0190000000  PROA      13             84.5900000000
       134        13  SER       HB1           -10.8387600843       -7.1153466310      -10.1610060990  PROA      13              0.0000000000
       135        13  SER       HB2           -11.1811643113       -8.4749541804      -11.3118388372  PROA      13              0.0000000000
       136        13  SER       OG            -10.2480000000       -6.8210000000      -12.1140000000  PROA      13             77.3500000000
       137        13  SER       HG1            -9.7683944306       -7.3249618895      -12.7755141055  PROA      13              0.0000000000
       138        13  SER       C              -8.5820000000       -9.1780000000      -11.7910000000  PROA      13             86.5800000000
       139        13  SER       O              -7.9560000000       -8.6250000000      -12.6970000000  PROA      13             82.9500000000
       140        14  GLY       N              -8.1220000000      -10.3340000000      -11.7400000000  PROA      14             90.6500000000
       141        14  GLY       HN             -8.0614723691      -10.7200007459      -10.8332105701  PROA      14              0.0000000000
       142        14  GLY       CA             -7.6300000000      -11.3060000000      -12.7030000000  PROA      14             89.7700000000
       143        14  GLY       HA1            -7.8995436062      -12.2891145187      -12.3464632430  PROA      14              0.0000000000
       144        14  GLY       HA2            -6.5554977624      -11.2086070757      -12.7503912591  PROA      14              0.0000000000
       145        14  GLY       C              -8.2040000000      -11.1120000000      -14.0940000000  PROA      14             90.8300000000
       146        14  GLY       O              -9.3040000000      -10.5770000000      -14.2480000000  PROA      14             89.0700000000
       147        15  SER       N              -7.5310000000      -10.6520000000      -14.9880000000  PROA      15             88.8000000000
       148        15  SER       HN             -6.6135543951      -10.2975244033      -14.8260644086  PROA      15              0.0000000000
       149        15  SER       CA             -8.0060000000      -10.5800000000      -16.3660000000  PROA      15             88.1500000000
       150        15  SER       HA             -8.7989472618       -9.8482186482      -16.4096036156  PROA      15              0.0000000000
       151        15  SER       CB             -6.8650000000      -10.1850000000      -17.3050000000  PROA      15             82.9700000000
       152        15  SER       HB1            -6.8185088048       -9.0782659250      -17.3898657752  PROA      15              0.0000000000
       153        15  SER       HB2            -7.0396546625      -10.6259457954      -18.3096325190  PROA      15              0.0000000000
       154        15  SER       OG             -5.6220000000      -10.6550000000      -16.8130000000  PROA      15             70.4800000000
       155        15  SER       HG1            -5.7016126386      -11.6103525786      -16.7623711718  PROA      15              0.0000000000
       156        15  SER       C              -8.6080000000      -11.9070000000      -16.8140000000  PROA      15             88.5800000000
       157        15  SER       OT1            -8.6241480668      -12.8581687678      -15.9877934791  PROA      15              0.0000000000
       158        15  SER       OT2            -9.0590325374      -11.9856462850      -17.9878758077  PROA      15              0.0000000000
