* SET NIONTYPES = 1
* SET NPOSTOT = 46
* SET NNEGTOT = 42
* SET NIONTOT = 88
*  DATE:     6/13/26      6:43:27      CREATED BY USER: charmm-gui
*
        88  EXT
         1         1  LIT       LIT           -19.6158629780        2.1565944685       14.5761651010  IONS      1               1.0000000000
         2         2  LIT       LIT            22.3266340650       17.8545592083      -17.9380692866  IONS      2               1.0000000000
         3         3  LIT       LIT            18.1073883202       12.4615935960       24.3299753316  IONS      3               1.0000000000
         4         4  LIT       LIT           -16.5069052959      -24.8376580198      -16.1119144944  IONS      4               1.0000000000
         5         5  LIT       LIT            -0.8729307519      -34.3532721007      -31.9535257917  IONS      5               1.0000000000
         6         6  LIT       LIT            45.0888655694        2.6263148401       17.1314435338  IONS      6               1.0000000000
         7         7  LIT       LIT            18.6355804880       -7.2892369177        4.9593485645  IONS      7               1.0000000000
         8         8  LIT       LIT           -36.9911879724      -10.9598798881      -11.0714660981  IONS      8               1.0000000000
         9         9  LIT       LIT            24.4642652327       12.9153681003      -33.6582316347  IONS      9               1.0000000000
        10        10  LIT       LIT            37.4526592151      -18.6271386646       11.4917787057  IONS      10              1.0000000000
        11        11  LIT       LIT             6.0414415895       38.1916292363        1.7853055881  IONS      11              1.0000000000
        12        12  LIT       LIT           -19.3831635033       -9.8749187615      -34.5158956544  IONS      12              1.0000000000
        13        13  LIT       LIT            33.9612961786      -13.4889652742      -21.4967061731  IONS      13              1.0000000000
        14        14  LIT       LIT            25.5606494419      -38.6284529813       -8.6223095240  IONS      14              1.0000000000
        15        15  LIT       LIT             9.6244575708        1.0774020459       34.9586993995  IONS      15              1.0000000000
        16        16  LIT       LIT            -5.5764810858       11.4384117929        0.9798575797  IONS      16              1.0000000000
        17        17  LIT       LIT           -26.5192564037       10.7940786271      -27.5284367456  IONS      17              1.0000000000
        18        18  LIT       LIT           -18.2540688361       -7.0988141128      -17.5307101071  IONS      18              1.0000000000
        19        19  LIT       LIT             2.1053865540       21.9778393600       14.5052670324  IONS      19              1.0000000000
        20        20  LIT       LIT            -8.6936420408       21.2502529349      -11.9864994819  IONS      20              1.0000000000
        21        21  LIT       LIT            -9.5331123974       35.0056398914      -13.1878380639  IONS      21              1.0000000000
        22        22  LIT       LIT            24.4742221761      -12.3641408688        0.1341975277  IONS      22              1.0000000000
        23        23  LIT       LIT           -16.1557999521       13.0488055679       42.2878296370  IONS      23              1.0000000000
        24        24  LIT       LIT            -9.1354729117       27.6173890758        2.7087335518  IONS      24              1.0000000000
        25        25  LIT       LIT           -24.1645703424       35.1310670040        4.4267994892  IONS      25              1.0000000000
        26        26  LIT       LIT             7.2494446420        2.3468603696       21.1807408367  IONS      26              1.0000000000
        27        27  LIT       LIT            41.8342258852       -4.8728102285       29.2967267040  IONS      27              1.0000000000
        28        28  LIT       LIT           -11.7503085941      -44.0410737301       -6.3234096439  IONS      28              1.0000000000
        29        29  LIT       LIT             7.4040805603       14.0547509412       40.6524163283  IONS      29              1.0000000000
        30        30  LIT       LIT             5.0795464336      -28.5123355821      -37.5055221871  IONS      30              1.0000000000
        31        31  LIT       LIT            20.7837886199      -34.6034419997       22.5755644169  IONS      31              1.0000000000
        32        32  LIT       LIT            17.6279035397      -32.2029407532      -32.4122276032  IONS      32              1.0000000000
        33        33  LIT       LIT             5.1141850838       34.1296965494       17.7860309766  IONS      33              1.0000000000
        34        34  LIT       LIT            31.0428669462      -16.0362979372      -29.4036713622  IONS      34              1.0000000000
        35        35  LIT       LIT           -32.7731440445      -29.4443807983       -2.0310611529  IONS      35              1.0000000000
        36        36  LIT       LIT           -11.0162601923      -20.7821300090      -16.0980647274  IONS      36              1.0000000000
        37        37  LIT       LIT           -23.7494845152        6.3732339434       -3.6745476369  IONS      37              1.0000000000
        38        38  LIT       LIT            -5.6369621303       -7.4607532280       31.8100846019  IONS      38              1.0000000000
        39        39  LIT       LIT           -34.3786869877        6.1816830306       14.2428014507  IONS      39              1.0000000000
        40        40  LIT       LIT            15.2350593913       -6.9589873879       36.8219598223  IONS      40              1.0000000000
        41        41  LIT       LIT            15.9955557190      -20.1508449140      -39.3605626169  IONS      41              1.0000000000
        42        42  LIT       LIT            16.5719263139      -32.5766556971       -4.5218340673  IONS      42              1.0000000000
        43        43  LIT       LIT           -38.1643396655       15.2363460670      -23.2896812120  IONS      43              1.0000000000
        44        44  LIT       LIT            -9.4464815010      -13.2631890147      -30.3154300674  IONS      44              1.0000000000
        45        45  LIT       LIT            22.1235934749       43.3648424140        6.7670336936  IONS      45              1.0000000000
        46        46  LIT       LIT           -14.7366678266       39.8399212101       24.1520605271  IONS      46              1.0000000000
        47        47  CLA       CLA             3.6132189108       42.4308856546       20.1844390603  IONS      47             -1.0000000000
        48        48  CLA       CLA           -29.9680966809      -38.4432162103        3.2598440898  IONS      48             -1.0000000000
        49        49  CLA       CLA           -20.4567490077       11.8130234929       14.5775920920  IONS      49             -1.0000000000
        50        50  CLA       CLA           -24.3870076836      -32.1638196943       12.8705132683  IONS      50             -1.0000000000
        51        51  CLA       CLA            10.4773054098       31.7974917562        1.2445443098  IONS      51             -1.0000000000
        52        52  CLA       CLA             5.9783377978      -22.5979380432      -40.4575612554  IONS      52             -1.0000000000
        53        53  CLA       CLA           -15.3848289728       35.4363438718      -16.1997368789  IONS      53             -1.0000000000
        54        54  CLA       CLA            32.5992548610      -25.7728690188        2.9790483177  IONS      54             -1.0000000000
        55        55  CLA       CLA            -0.0233348476       26.6607304171       14.7104227340  IONS      55             -1.0000000000
        56        56  CLA       CLA            43.5041402560        6.2341392470       23.6040943481  IONS      56             -1.0000000000
        57        57  CLA       CLA             7.3587293249       27.8561748190       23.4635193004  IONS      57             -1.0000000000
        58        58  CLA       CLA           -13.3822470951      -42.3977560273       -8.8735698564  IONS      58             -1.0000000000
        59        59  CLA       CLA           -22.2463810419      -20.1865123843       29.9583015076  IONS      59             -1.0000000000
        60        60  CLA       CLA             0.8995036399       44.3601611426        7.3542584585  IONS      60             -1.0000000000
        61        61  CLA       CLA            -7.1695466087       -7.6493954330       20.8545613921  IONS      61             -1.0000000000
        62        62  CLA       CLA           -12.0301425187      -34.8095362670       29.9996397236  IONS      62             -1.0000000000
        63        63  CLA       CLA            -9.9477043540       15.7238589949      -13.6068296780  IONS      63             -1.0000000000
        64        64  CLA       CLA             2.6509937491       -1.0109295108       42.4538277277  IONS      64             -1.0000000000
        65        65  CLA       CLA           -33.7220412132       -0.0609067583       -9.3901659025  IONS      65             -1.0000000000
        66        66  CLA       CLA             5.7619540782       38.3119459243      -32.2471749269  IONS      66             -1.0000000000
        67        67  CLA       CLA             7.9888290741        6.5141552805       16.8771121718  IONS      67             -1.0000000000
        68        68  CLA       CLA             7.6468623250      -14.8350474469      -20.8358055562  IONS      68             -1.0000000000
        69        69  CLA       CLA           -34.4312331330       -0.5101132058      -30.7358315182  IONS      69             -1.0000000000
        70        70  CLA       CLA           -28.2852571724        8.0354000966       15.8808796512  IONS      70             -1.0000000000
        71        71  CLA       CLA            14.4554818191        2.2257714937       42.1616041009  IONS      71             -1.0000000000
        72        72  CLA       CLA           -10.4438692102      -11.8403693367       34.9601051071  IONS      72             -1.0000000000
        73        73  CLA       CLA             1.8323942984        4.7136400520      -35.3619327868  IONS      73             -1.0000000000
        74        74  CLA       CLA           -29.7365758812       34.2028107275       -0.5474778911  IONS      74             -1.0000000000
        75        75  CLA       CLA           -20.0759601122       31.4053376328       12.6713592950  IONS      75             -1.0000000000
        76        76  CLA       CLA            11.1385579862      -30.9815345266      -24.8132119193  IONS      76             -1.0000000000
        77        77  CLA       CLA           -42.7602149265        3.1310065416       -9.1173437858  IONS      77             -1.0000000000
        78        78  CLA       CLA             3.2744670357      -29.5385575718      -30.4917458547  IONS      78             -1.0000000000
        79        79  CLA       CLA            24.7317937025      -29.9863812185       23.3731723887  IONS      79             -1.0000000000
        80        80  CLA       CLA            -9.6262437443      -30.0457118432      -12.0646319490  IONS      80             -1.0000000000
        81        81  CLA       CLA           -11.4711560807      -22.1157601762      -22.9183437558  IONS      81             -1.0000000000
        82        82  CLA       CLA            17.4531103450       13.2054104363       19.7284874814  IONS      82             -1.0000000000
        83        83  CLA       CLA            -7.1621041697       -8.1941943182       -6.9877632277  IONS      83             -1.0000000000
        84        84  CLA       CLA            -5.5455740193      -25.9459688572        7.6195964709  IONS      84             -1.0000000000
        85        85  CLA       CLA            -8.7416358594       36.8205082003      -26.3402314614  IONS      85             -1.0000000000
        86        86  CLA       CLA            16.1029114489       14.1782637592      -31.6756197838  IONS      86             -1.0000000000
        87        87  CLA       CLA           -13.5551643724        3.5963314986       41.9115990580  IONS      87             -1.0000000000
        88        88  CLA       CLA            28.2406830026       40.9718175062        3.1197077487  IONS      88             -1.0000000000
