Title t= 16460.00000 step= 8230000
44463
    1GLY      N    1   3.090   3.121   3.278
    1GLY    HT1    2   3.077   3.168   3.186
    1GLY    HT2    3   3.167   3.051   3.270
    1GLY    HT3    4   3.116   3.193   3.349
    1GLY     CA    5   2.967   3.048   3.317
    1GLY    HA1    6   2.960   2.961   3.252
    1GLY    HA2    7   2.884   3.115   3.297
    1GLY      C    8   2.968   2.991   3.457
    1GLY      O    9   3.070   2.983   3.526
    2PRO      N   10   2.853   2.947   3.514
    2PRO     CD   11   2.720   2.958   3.441
    2PRO    HD1   12   2.700   2.887   3.358
    2PRO    HD2   13   2.701   3.062   3.408
    2PRO     CA   14   2.832   2.875   3.642
    2PRO     HA   15   2.836   2.954   3.716
    2PRO     CB   16   2.688   2.820   3.643
    2PRO    HB1   17   2.643   2.814   3.744
    2PRO    HB2   18   2.685   2.722   3.591
    2PRO     CG   19   2.614   2.913   3.543
    2PRO    HG1   20   2.525   2.863   3.501
    2PRO    HG2   21   2.583   3.009   3.590
    2PRO      C   22   2.940   2.772   3.674
    2PRO      O   23   2.996   2.705   3.587
    3GLY      N   24   2.977   2.777   3.801
    3GLY     HN   25   2.916   2.824   3.864
    3GLY     CA   26   3.092   2.708   3.848
    3GLY    HA1   27   3.102   2.737   3.952
    3GLY    HA2   28   3.177   2.742   3.791
    3GLY      C   29   3.088   2.555   3.849
    3GLY      O   30   2.989   2.491   3.826
    4ASP      N   31   3.203   2.498   3.882
    4ASP     HN   32   3.274   2.567   3.896
    4ASP     CA   33   3.231   2.355   3.893
    4ASP     HA   34   3.192   2.304   3.807
    4ASP     CB   35   3.375   2.332   3.920
    4ASP    HB1   36   3.394   2.223   3.930
    4ASP    HB2   37   3.431   2.386   3.999
    4ASP     CG   38   3.447   2.361   3.788
    4ASP    OD1   39   3.569   2.348   3.781
    4ASP    OD2   40   3.385   2.383   3.677
    4ASP      C   41   3.166   2.299   4.015
    4ASP      O   42   3.151   2.379   4.110
    5PRO      N   43   3.125   2.171   4.023
    5PRO     CD   44   3.099   2.089   3.906
    5PRO    HD1   45   3.191   2.033   3.880
    5PRO    HD2   46   3.047   2.145   3.826
    5PRO     CA   47   3.084   2.104   4.147
    5PRO     HA   48   3.002   2.151   4.197
    5PRO     CB   49   3.029   1.969   4.105
    5PRO    HB1   50   2.939   1.939   4.163
    5PRO    HB2   51   3.099   1.883   4.101
    5PRO     CG   52   2.989   2.003   3.962
    5PRO    HG1   53   2.971   1.914   3.898
    5PRO    HG2   54   2.891   2.054   3.969
    5PRO      C   55   3.197   2.090   4.254
    5PRO      O   56   3.315   2.077   4.228
    6GLY      N   57   3.152   2.088   4.379
    6GLY     HN   58   3.056   2.099   4.402
    6GLY     CA   59   3.235   2.071   4.502
    6GLY    HA1   60   3.176   2.099   4.588
    6GLY    HA2   61   3.323   2.134   4.503
    6GLY      C   62   3.274   1.924   4.534
    6GLY      O   63   3.261   1.839   4.444
    7PRO      N   64   3.317   1.893   4.655
    7PRO     CD   65   3.368   1.993   4.754
    7PRO    HD1   66   3.293   2.062   4.796
    7PRO    HD2   67   3.445   2.061   4.711
    7PRO     CA   68   3.329   1.756   4.703
    7PRO     HA   69   3.418   1.715   4.659
    7PRO     CB   70   3.345   1.776   4.857
    7PRO    HB1   71   3.396   1.692   4.909
    7PRO    HB2   72   3.246   1.795   4.902
    7PRO     CG   73   3.418   1.903   4.870
    7PRO    HG1   74   3.419   1.968   4.961
    7PRO    HG2   75   3.526   1.881   4.859
    7PRO      C   76   3.215   1.665   4.684
    7PRO      O   77   3.098   1.702   4.670
    8GLY      N   78   3.246   1.535   4.685
    8GLY     HN   79   3.343   1.512   4.688
    8GLY     CA   80   3.145   1.430   4.693
    8GLY    HA1   81   3.092   1.442   4.786
    8GLY    HA2   82   3.196   1.335   4.697
    8GLY      C   83   3.049   1.416   4.582
    8GLY      O   84   3.054   1.476   4.475
    9ASP      N   85   2.967   1.323   4.612
    9ASP     HN   86   2.976   1.279   4.701
    9ASP     CA   87   2.850   1.292   4.528
    9ASP     HA   88   2.885   1.258   4.432
    9ASP     CB   89   2.776   1.169   4.585
    9ASP    HB1   90   2.687   1.141   4.525
    9ASP    HB2   91   2.741   1.197   4.686
    9ASP     CG   92   2.867   1.051   4.594
    9ASP    OD1   93   2.968   1.042   4.524
    9ASP    OD2   94   2.829   0.949   4.661
    9ASP      C   95   2.747   1.407   4.508
    9ASP      O   96   2.736   1.485   4.601
   10PRO      N   97   2.675   1.417   4.395
   10PRO     CD   98   2.700   1.347   4.273
   10PRO    HD1   99   2.656   1.247   4.296
   10PRO    HD2  100   2.809   1.338   4.258
   10PRO     CA  101   2.569   1.519   4.373
   10PRO     HA  102   2.619   1.614   4.366
   10PRO     CB  103   2.515   1.489   4.236
   10PRO    HB1  104   2.479   1.585   4.191
   10PRO    HB2  105   2.429   1.420   4.246
   10PRO     CG  106   2.630   1.415   4.160
   10PRO    HG1  107   2.587   1.345   4.085
   10PRO    HG2  108   2.694   1.485   4.102
   10PRO      C  109   2.463   1.535   4.484
   10PRO      O  110   2.438   1.447   4.567
   11GLY      N  111   2.397   1.645   4.489
   11GLY     HN  112   2.425   1.716   4.424
   11GLY     CA  113   2.304   1.681   4.601
   11GLY    HA1  114   2.215   1.623   4.582
   11GLY    HA2  115   2.287   1.787   4.588
   11GLY      C  116   2.344   1.677   4.743
   11GLY      O  117   2.461   1.680   4.779
   12PRO      N  118   2.245   1.680   4.835
   12PRO     CD  119   2.105   1.717   4.808
   12PRO    HD1  120   2.060   1.621   4.775
   12PRO    HD2  121   2.102   1.800   4.735
   12PRO     CA  122   2.257   1.637   4.977
   12PRO     HA  123   2.320   1.711   5.023
   12PRO     CB  124   2.116   1.639   5.036
   12PRO    HB1  125   2.115   1.675   5.142
   12PRO    HB2  126   2.066   1.543   5.015
   12PRO     CG  127   2.049   1.746   4.945
   12PRO    HG1  128   1.938   1.740   4.942
   12PRO    HG2  129   2.078   1.847   4.980
   12PRO      C  130   2.333   1.507   4.999
   12PRO      O  131   2.306   1.414   4.928
   13GLY      N  132   2.439   1.508   5.081
   13GLY     HN  133   2.470   1.598   5.113
   13GLY     CA  134   2.517   1.389   5.119
   13GLY    HA1  135   2.604   1.410   5.179
   13GLY    HA2  136   2.549   1.335   5.031
   13GLY      C  137   2.431   1.304   5.213
   13GLY      O  138   2.320   1.335   5.264
   14ASP      N  139   2.478   1.184   5.239
   14ASP     HN  140   2.574   1.170   5.214
   14ASP     CA  141   2.410   1.083   5.317
   14ASP     HA  142   2.309   1.076   5.280
   14ASP     CB  143   2.486   0.947   5.301
   14ASP    HB1  144   2.455   0.860   5.363
   14ASP    HB2  145   2.585   0.980   5.340
   14ASP     CG  146   2.503   0.901   5.152
   14ASP    OD1  147   2.617   0.864   5.107
   14ASP    OD2  148   2.406   0.897   5.073
   14ASP      C  149   2.398   1.119   5.465
   14ASP      O  150   2.490   1.180   5.521
   15PRO      N  151   2.288   1.088   5.532
   15PRO     CD  152   2.188   0.996   5.482
   15PRO    HD1  153   2.221   0.894   5.451
   15PRO    HD2  154   2.133   1.040   5.396
   15PRO     CA  155   2.276   1.115   5.672
   15PRO     HA  156   2.295   1.220   5.688
   15PRO     CB  157   2.128   1.090   5.698
   15PRO    HB1  158   2.069   1.178   5.668
   15PRO    HB2  159   2.098   1.060   5.801
   15PRO     CG  160   2.098   0.972   5.604
   15PRO    HG1  161   2.136   0.875   5.643
   15PRO    HG2  162   1.993   0.962   5.570
   15PRO      C  163   2.369   1.031   5.763
   15PRO    OT1  164   2.385   0.905   5.757
   15PRO    OT2  165   2.416   1.086   5.867
   16LIT    LIT  166   2.549   0.947   5.867
   17LIT    LIT  167   0.930   3.300   5.236
   18LIT    LIT  168   2.803   6.159   2.934
   19LIT    LIT  169   6.420   4.376   1.353
   20LIT    LIT  170   1.697   5.104   3.354
   21LIT    LIT  171   7.194   3.593   2.697
   22LIT    LIT  172   0.670   2.510   5.219
   23LIT    LIT  173   1.281   1.060   3.783
   24LIT    LIT  174   1.760   1.437   4.977
   25LIT    LIT  175   1.630   6.242   4.949
   26LIT    LIT  176   7.054   0.884   3.956
   27LIT    LIT  177   2.155   6.650   0.426
   28LIT    LIT  178   5.614   0.663   6.502
   29LIT    LIT  179   2.426   5.890   1.126
   30LIT    LIT  180   6.971   6.037   6.560
   31LIT    LIT  181   6.154   5.787   5.025
   32LIT    LIT  182   4.715   4.363   0.090
   33LIT    LIT  183   7.051   1.201   1.399
   34LIT    LIT  184   4.354   7.814   2.538
   35LIT    LIT  185   8.279   3.735   1.549
   36LIT    LIT  186   3.127   1.063   4.418
   37LIT    LIT  187   0.689   5.366   1.581
   38LIT    LIT  188   3.688   7.754   3.403
   39LIT    LIT  189   8.276   7.667   3.257
   40LIT    LIT  190   5.527   6.345   1.530
   41LIT    LIT  191   2.896   4.661   2.829
   42LIT    LIT  192   0.620   4.343   6.482
   43LIT    LIT  193   6.272   2.452   0.930
   44LIT    LIT  194   6.738   2.958   6.351
   45LIT    LIT  195   7.204   5.450   3.568
   46LIT    LIT  196   7.057   4.330   2.059
   47LIT    LIT  197   3.999   5.147   5.782
   48LIT    LIT  198   7.202   3.940   5.533
   49LIT    LIT  199   2.121   5.988   2.240
   50LIT    LIT  200   0.352   0.778   4.059
   51LIT    LIT  201   1.805   0.295   3.029
   52LIT    LIT  202   6.421   4.946   0.862
   53LIT    LIT  203   8.302   2.912   2.483
   54LIT    LIT  204   1.610   2.702   1.815
   55LIT    LIT  205   0.633   0.767   2.604
   56LIT    LIT  206   6.315   5.763   2.761
   57LIT    LIT  207   5.447   4.523   3.538
   58LIT    LIT  208   2.553   0.852   4.931
   59LIT    LIT  209   1.990   5.802   6.692
   60LIT    LIT  210   3.278   5.829   4.998
   61CLA    CLA  211   6.902   7.157   4.831
   62CLA    CLA  212   2.998   4.815   5.253
   63CLA    CLA  213   2.324   1.378   0.224
   64CLA    CLA  214   7.774   6.520   6.761
   65CLA    CLA  215   5.377   5.190   3.049
   66CLA    CLA  216   0.102   0.444   3.191
   67CLA    CLA  217   2.511   0.468   5.761
   68CLA    CLA  218   2.845   6.536   3.724
   69CLA    CLA  219   2.148   3.223   4.816
   70CLA    CLA  220   5.708   5.651   4.923
   71CLA    CLA  221   7.909   5.362   3.969
   72CLA    CLA  222   2.078   5.181   2.527
   73CLA    CLA  223   1.415   7.618   4.952
   74CLA    CLA  224   7.401   7.623   2.624
   75CLA    CLA  225   6.561   2.334   6.611
   76CLA    CLA  226   1.121   6.961   0.029
   77CLA    CLA  227   4.222   4.485   4.187
   78CLA    CLA  228   4.714   4.730   0.363
   79CLA    CLA  229   0.614   5.639   0.085
   80CLA    CLA  230   8.063   4.306   1.002
   81CLA    CLA  231   4.678   7.726   5.049
   82CLA    CLA  232   0.607   0.427   5.705
   83CLA    CLA  233   1.360   4.618   1.421
   84CLA    CLA  234   8.244   7.465   0.185
   85CLA    CLA  235   1.038   4.007   0.126
   86CLA    CLA  236   7.240   4.861   5.334
   87CLA    CLA  237   3.380   5.810   0.377
   88CLA    CLA  238   6.547   4.503   0.589
   89CLA    CLA  239   7.675   5.348   4.350
   90CLA    CLA  240   6.546   3.372   0.569
   91CLA    CLA  241   3.293   2.887   3.213
   92CLA    CLA  242   1.886   0.703   4.311
   93CLA    CLA  243   4.277   2.235   4.966
   94CLA    CLA  244   3.059   6.939   1.524
   95CLA    CLA  245   2.380   5.980   4.928
   96CLA    CLA  246   0.495   0.504   2.108
   97CLA    CLA  247   7.342   1.173   3.821
   98CLA    CLA  248   7.985   6.349   2.616
   99CLA    CLA  249   6.980   0.993   1.456
  100CLA    CLA  250   8.272   4.335   2.999
  101CLA    CLA  251   7.502   3.630   3.021
  102CLA    CLA  252   0.375   2.352   4.646
  103TIP3   OH2  253   2.735   5.092   3.524
  103TIP3    H1  254   2.653   5.107   3.478
  103TIP3    H2  255   2.730   5.002   3.554
  104TIP3   OH2  256   2.981   2.018   0.317
  104TIP3    H1  257   3.015   2.035   0.229
  104TIP3    H2  258   3.029   1.941   0.347
  105TIP3   OH2  259   7.248   2.408   2.279
  105TIP3    H1  260   7.190   2.473   2.319
  105TIP3    H2  261   7.296   2.457   2.212
  106TIP3   OH2  262   4.957   5.344   0.864
  106TIP3    H1  263   4.866   5.325   0.838
  106TIP3    H2  264   4.972   5.287   0.940
  107TIP3   OH2  265   3.130   5.829   2.877
  107TIP3    H1  266   3.135   5.836   2.782
  107TIP3    H2  267   3.147   5.737   2.895
  108TIP3   OH2  268   1.091   4.463   1.535
  108TIP3    H1  269   1.167   4.435   1.586
  108TIP3    H2  270   1.128   4.514   1.463
  109TIP3   OH2  271   0.355   3.245   1.108
  109TIP3    H1  272   0.450   3.231   1.111
  109TIP3    H2  273   0.318   3.163   1.140
  110TIP3   OH2  274   6.798   5.654   4.510
  110TIP3    H1  275   6.718   5.673   4.461
  110TIP3    H2  276   6.821   5.565   4.484
  111TIP3   OH2  277   5.031   5.311   5.838
  111TIP3    H1  278   5.038   5.406   5.843
  111TIP3    H2  279   5.119   5.281   5.816
  112TIP3   OH2  280   0.868   5.089   4.428
  112TIP3    H1  281   0.826   5.090   4.342
  112TIP3    H2  282   0.799   5.115   4.489
  113TIP3   OH2  283   7.115   1.329   3.956
  113TIP3    H1  284   7.081   1.312   4.044
  113TIP3    H2  285   7.162   1.248   3.933
  114TIP3   OH2  286   3.196   6.305   5.929
  114TIP3    H1  287   3.246   6.331   6.006
  114TIP3    H2  288   3.123   6.255   5.963
  115TIP3   OH2  289   6.171   4.924   1.812
  115TIP3    H1  290   6.199   4.996   1.868
  115TIP3    H2  291   6.087   4.897   1.847
  116TIP3   OH2  292   3.298   5.750   0.880
  116TIP3    H1  293   3.268   5.829   0.835
  116TIP3    H2  294   3.384   5.774   0.915
  117TIP3   OH2  295   3.893   5.428   5.416
  117TIP3    H1  296   3.879   5.466   5.503
  117TIP3    H2  297   3.976   5.465   5.387
  118TIP3   OH2  298   1.130   7.045   1.331
  118TIP3    H1  299   1.181   6.976   1.373
  118TIP3    H2  300   1.063   6.998   1.281
  119TIP3   OH2  301   0.074   2.775   3.068
  119TIP3    H1  302   0.149   2.761   3.010
  119TIP3    H2  303   0.112   2.775   3.156
  120TIP3   OH2  304   5.463   4.224   1.062
  120TIP3    H1  305   5.392   4.253   1.005
  120TIP3    H2  306   5.533   4.198   1.002
  121TIP3   OH2  307   7.572   0.628   0.450
  121TIP3    H1  308   7.547   0.606   0.539
  121TIP3    H2  309   7.589   0.723   0.452
  122TIP3   OH2  310   3.954   5.006   4.363
  122TIP3    H1  311   4.027   5.020   4.422
  122TIP3    H2  312   3.877   5.000   4.420
  123TIP3   OH2  313   3.411   1.525   6.534
  123TIP3    H1  314   3.321   1.494   6.531
  123TIP3    H2  315   3.449   1.481   6.610
  124TIP3   OH2  316   2.671   0.958   3.759
  124TIP3    H1  317   2.759   0.993   3.743
  124TIP3    H2  318   2.686   0.873   3.800
  125TIP3   OH2  319   0.856   4.258   4.181
  125TIP3    H1  320   0.837   4.352   4.182
  125TIP3    H2  321   0.943   4.252   4.142
  126TIP3   OH2  322   4.011   6.116   6.403
  126TIP3    H1  323   4.009   6.068   6.321
  126TIP3    H2  324   3.955   6.066   6.463
  127TIP3   OH2  325   1.985   3.369   5.243
  127TIP3    H1  326   1.948   3.323   5.168
  127TIP3    H2  327   1.961   3.315   5.319
  128TIP3   OH2  328   5.629   7.622   5.718
  128TIP3    H1  329   5.673   7.657   5.640
  128TIP3    H2  330   5.684   7.650   5.791
  129TIP3   OH2  331   0.201   2.982   2.493
  129TIP3    H1  332   0.261   2.908   2.491
  129TIP3    H2  333   0.242   3.044   2.555
  130TIP3   OH2  334   1.853   0.739   1.683
  130TIP3    H1  335   1.910   0.815   1.666
  130TIP3    H2  336   1.907   0.663   1.659
  131TIP3   OH2  337   4.185   0.179   1.956
  131TIP3    H1  338   4.109   0.221   1.915
  131TIP3    H2  339   4.250   0.175   1.886
  132TIP3   OH2  340   3.510   4.913   5.356
  132TIP3    H1  341   3.505   4.924   5.451
  132TIP3    H2  342   3.445   4.846   5.336
  133TIP3   OH2  343   8.224   7.445   4.644
  133TIP3    H1  344   8.250   7.483   4.560
  133TIP3    H2  345   8.128   7.443   4.641
  134TIP3   OH2  346   3.668   3.073   4.935
  134TIP3    H1  347   3.612   3.128   4.991
  134TIP3    H2  348   3.672   2.989   4.981
  135TIP3   OH2  349   2.025   0.438   4.196
  135TIP3    H1  350   2.004   0.525   4.231
  135TIP3    H2  351   2.034   0.451   4.102
  136TIP3   OH2  352   1.512   5.503   2.597
  136TIP3    H1  353   1.550   5.432   2.546
  136TIP3    H2  354   1.419   5.479   2.606
  137TIP3   OH2  355   0.451   4.816   0.822
  137TIP3    H1  356   0.499   4.818   0.739
  137TIP3    H2  357   0.501   4.873   0.880
  138TIP3   OH2  358   3.680   3.495   6.176
  138TIP3    H1  359   3.716   3.483   6.264
  138TIP3    H2  360   3.752   3.532   6.125
  139TIP3   OH2  361   2.015   2.615   2.998
  139TIP3    H1  362   2.040   2.694   2.949
  139TIP3    H2  363   1.934   2.639   3.043
  140TIP3   OH2  364   2.230   1.925   0.837
  140TIP3    H1  365   2.185   1.873   0.770
  140TIP3    H2  366   2.265   1.860   0.898
  141TIP3   OH2  367   2.037   1.045   1.827
  141TIP3    H1  368   1.990   1.049   1.744
  141TIP3    H2  369   2.108   0.983   1.811
  142TIP3   OH2  370   6.818   5.281   3.524
  142TIP3    H1  371   6.762   5.324   3.460
  142TIP3    H2  372   6.821   5.342   3.598
  143TIP3   OH2  373   7.639   4.594   4.820
  143TIP3    H1  374   7.558   4.569   4.775
  143TIP3    H2  375   7.616   4.589   4.913
  144TIP3   OH2  376   7.412   6.958   1.278
  144TIP3    H1  377   7.381   6.873   1.307
  144TIP3    H2  378   7.378   6.968   1.189
  145TIP3   OH2  379   5.782   3.410   4.805
  145TIP3    H1  380   5.866   3.389   4.844
  145TIP3    H2  381   5.726   3.435   4.879
  146TIP3   OH2  382   7.254   3.906   2.561
  146TIP3    H1  383   7.208   3.948   2.634
  146TIP3    H2  384   7.188   3.850   2.520
  147TIP3   OH2  385   1.785   2.605   3.837
  147TIP3    H1  386   1.826   2.521   3.815
  147TIP3    H2  387   1.694   2.583   3.854
  148TIP3   OH2  388   3.455   7.129   2.832
  148TIP3    H1  389   3.491   7.047   2.865
  148TIP3    H2  390   3.429   7.110   2.742
  149TIP3   OH2  391   8.308   6.386   0.821
  149TIP3    H1  392   8.250   6.460   0.801
  149TIP3    H2  393   8.250   6.322   0.863
  150TIP3   OH2  394   4.238   3.621   2.569
  150TIP3    H1  395   4.150   3.582   2.567
  150TIP3    H2  396   4.265   3.613   2.661
  151TIP3   OH2  397   2.720   3.696   4.358
  151TIP3    H1  398   2.701   3.773   4.411
  151TIP3    H2  399   2.634   3.660   4.337
  152TIP3   OH2  400   1.646   7.442   5.782
  152TIP3    H1  401   1.730   7.488   5.778
  152TIP3    H2  402   1.629   7.418   5.691
  153TIP3   OH2  403   5.829   5.244   4.645
  153TIP3    H1  404   5.820   5.153   4.617
  153TIP3    H2  405   5.923   5.257   4.653
  154TIP3   OH2  406   6.952   0.753   4.345
  154TIP3    H1  407   6.913   0.740   4.259
  154TIP3    H2  408   7.037   0.794   4.327
  155TIP3   OH2  409   1.784   0.632   1.154
  155TIP3    H1  410   1.796   0.615   1.247
  155TIP3    H2  411   1.733   0.713   1.150
  156TIP3   OH2  412   2.892   3.933   4.600
  156TIP3    H1  413   2.934   4.009   4.560
  156TIP3    H2  414   2.805   3.929   4.559
  157TIP3   OH2  415   1.042   0.313   2.204
  157TIP3    H1  416   1.023   0.406   2.198
  157TIP3    H2  417   0.958   0.273   2.228
  158TIP3   OH2  418   4.548   0.704   1.532
  158TIP3    H1  419   4.500   0.627   1.564
  158TIP3    H2  420   4.500   0.779   1.567
  159TIP3   OH2  421   0.209   4.840   4.909
  159TIP3    H1  422   0.274   4.901   4.875
  159TIP3    H2  423   0.140   4.839   4.843
  160TIP3   OH2  424   1.561   3.814   3.645
  160TIP3    H1  425   1.600   3.792   3.730
  160TIP3    H2  426   1.631   3.796   3.582
  161TIP3   OH2  427   2.120   4.259   0.455
  161TIP3    H1  428   2.210   4.274   0.425
  161TIP3    H2  429   2.090   4.345   0.485
  162TIP3   OH2  430   1.485   7.363   5.229
  162TIP3    H1  431   1.498   7.419   5.152
  162TIP3    H2  432   1.526   7.280   5.205
  163TIP3   OH2  433   6.812   2.872   1.887
  163TIP3    H1  434   6.783   2.863   1.977
  163TIP3    H2  435   6.821   2.967   1.873
  164TIP3   OH2  436   2.911   1.847   6.008
  164TIP3    H1  437   2.841   1.787   6.034
  164TIP3    H2  438   2.925   1.828   5.915
  165TIP3   OH2  439   3.909   2.298   5.582
  165TIP3    H1  440   3.949   2.234   5.523
  165TIP3    H2  441   3.892   2.249   5.663
  166TIP3   OH2  442   6.873   5.928   1.849
  166TIP3    H1  443   6.881   5.832   1.846
  166TIP3    H2  444   6.904   5.957   1.763
  167TIP3   OH2  445   6.108   3.069   5.191
  167TIP3    H1  446   6.109   3.155   5.233
  167TIP3    H2  447   6.196   3.057   5.156
  168TIP3   OH2  448   6.958   3.721   3.026
  168TIP3    H1  449   7.053   3.725   3.028
  168TIP3    H2  450   6.931   3.748   3.114
  169TIP3   OH2  451   5.518   4.998   1.081
  169TIP3    H1  452   5.433   5.042   1.071
  169TIP3    H2  453   5.575   5.040   1.017
  170TIP3   OH2  454   0.795   4.266   6.492
  170TIP3    H1  455   0.847   4.243   6.415
  170TIP3    H2  456   0.817   4.197   6.556
  171TIP3   OH2  457   3.869   4.603   4.842
  171TIP3    H1  458   3.815   4.612   4.763
  171TIP3    H2  459   3.807   4.577   4.910
  172TIP3   OH2  460   4.619   3.913   2.098
  172TIP3    H1  461   4.565   3.949   2.169
  172TIP3    H2  462   4.597   3.966   2.022
  173TIP3   OH2  463   6.650   5.780   5.198
  173TIP3    H1  464   6.744   5.777   5.213
  173TIP3    H2  465   6.641   5.778   5.103
  174TIP3   OH2  466   7.808   7.702   3.679
  174TIP3    H1  467   7.845   7.739   3.759
  174TIP3    H2  468   7.798   7.609   3.698
  175TIP3   OH2  469   3.384   7.516   3.725
  175TIP3    H1  470   3.405   7.434   3.771
  175TIP3    H2  471   3.396   7.495   3.632
  176TIP3   OH2  472   4.433   5.245   4.948
  176TIP3    H1  473   4.485   5.315   4.988
  176TIP3    H2  474   4.361   5.232   5.009
  177TIP3   OH2  475   7.178   6.752   2.334
  177TIP3    H1  476   7.159   6.687   2.402
  177TIP3    H2  477   7.091   6.780   2.303
  178TIP3   OH2  478   0.764   0.510   6.023
  178TIP3    H1  479   0.723   0.547   5.944
  178TIP3    H2  480   0.715   0.550   6.095
  179TIP3   OH2  481   1.866   7.605   2.158
  179TIP3    H1  482   1.784   7.649   2.138
  179TIP3    H2  483   1.868   7.529   2.101
  180TIP3   OH2  484   4.626   6.326   4.165
  180TIP3    H1  485   4.574   6.248   4.147
  180TIP3    H2  486   4.605   6.386   4.094
  181TIP3   OH2  487   7.347   5.393   2.790
  181TIP3    H1  488   7.399   5.460   2.746
  181TIP3    H2  489   7.357   5.413   2.883
  182TIP3   OH2  490   5.643   2.239   6.318
  182TIP3    H1  491   5.719   2.275   6.363
  182TIP3    H2  492   5.568   2.267   6.370
  183TIP3   OH2  493   6.679   0.596   0.099
  183TIP3    H1  494   6.612   0.536   0.068
  183TIP3    H2  495   6.643   0.635   0.178
  184TIP3   OH2  496   5.985   7.388   2.794
  184TIP3    H1  497   6.080   7.383   2.783
  184TIP3    H2  498   5.964   7.480   2.776
  185TIP3   OH2  499   2.787   4.743   2.082
  185TIP3    H1  500   2.704   4.698   2.099
  185TIP3    H2  501   2.775   4.831   2.119
  186TIP3   OH2  502   7.589   2.898   6.371
  186TIP3    H1  503   7.533   2.858   6.305
  186TIP3    H2  504   7.548   2.877   6.455
  187TIP3   OH2  505   7.307   0.646   3.305
  187TIP3    H1  506   7.350   0.633   3.389
  187TIP3    H2  507   7.312   0.741   3.290
  188TIP3   OH2  508   1.941   5.620   1.573
  188TIP3    H1  509   1.920   5.673   1.496
  188TIP3    H2  510   1.923   5.530   1.545
  189TIP3   OH2  511   3.223   5.091   3.700
  189TIP3    H1  512   3.257   5.172   3.662
  189TIP3    H2  513   3.283   5.023   3.670
  190TIP3   OH2  514   3.302   0.154   0.600
  190TIP3    H1  515   3.357   0.187   0.670
  190TIP3    H2  516   3.215   0.187   0.620
  191TIP3   OH2  517   2.550   6.644   5.926
  191TIP3    H1  518   2.573   6.589   5.851
  191TIP3    H2  519   2.464   6.680   5.903
  192TIP3   OH2  520   4.060   6.358   4.598
  192TIP3    H1  521   4.119   6.401   4.660
  192TIP3    H2  522   4.081   6.398   4.514
  193TIP3   OH2  523   5.616   7.589   2.144
  193TIP3    H1  524   5.700   7.603   2.100
  193TIP3    H2  525   5.551   7.626   2.084
  194TIP3   OH2  526   6.333   4.958   4.469
  194TIP3    H1  527   6.417   4.965   4.422
  194TIP3    H2  528   6.271   4.928   4.403
  195TIP3   OH2  529   5.260   5.165   1.149
  195TIP3    H1  530   5.177   5.208   1.164
  195TIP3    H2  531   5.239   5.092   1.090
  196TIP3   OH2  532   1.688   4.998   0.008
  196TIP3    H1  533   1.690   5.088  -0.025
  196TIP3    H2  534   1.643   4.948  -0.060
  197TIP3   OH2  535   7.008   5.303   0.646
  197TIP3    H1  536   6.987   5.280   0.736
  197TIP3    H2  537   6.981   5.227   0.594
  198TIP3   OH2  538   3.946   5.593   1.264
  198TIP3    H1  539   3.926   5.683   1.290
  198TIP3    H2  540   3.935   5.541   1.343
  199TIP3   OH2  541   4.672   5.971   6.257
  199TIP3    H1  542   4.686   5.932   6.343
  199TIP3    H2  543   4.639   5.899   6.203
  200TIP3   OH2  544   4.425   7.230   4.285
  200TIP3    H1  545   4.423   7.223   4.380
  200TIP3    H2  546   4.457   7.144   4.256
  201TIP3   OH2  547   5.579   7.446   5.358
  201TIP3    H1  548   5.519   7.438   5.284
  201TIP3    H2  549   5.607   7.357   5.376
  202TIP3   OH2  550   4.957   5.665   6.700
  202TIP3    H1  551   5.016   5.595   6.729
  202TIP3    H2  552   4.970   5.735   6.764
  203TIP3   OH2  553   7.676   6.297   3.381
  203TIP3    H1  554   7.679   6.202   3.374
  203TIP3    H2  555   7.609   6.324   3.318
  204TIP3   OH2  556   1.828   5.444   4.812
  204TIP3    H1  557   1.905   5.407   4.770
  204TIP3    H2  558   1.805   5.519   4.758
  205TIP3   OH2  559   0.613   6.659   2.362
  205TIP3    H1  560   0.704   6.690   2.359
  205TIP3    H2  561   0.574   6.693   2.281
  206TIP3   OH2  562   2.769   5.010   5.194
  206TIP3    H1  563   2.833   4.943   5.218
  206TIP3    H2  564   2.742   5.048   5.278
  207TIP3   OH2  565   3.411   7.701   6.346
  207TIP3    H1  566   3.495   7.714   6.301
  207TIP3    H2  567   3.348   7.687   6.275
  208TIP3   OH2  568   7.076   2.534   4.701
  208TIP3    H1  569   7.050   2.565   4.788
  208TIP3    H2  570   7.047   2.443   4.697
  209TIP3   OH2  571   1.465   4.412   2.993
  209TIP3    H1  572   1.512   4.381   2.916
  209TIP3    H2  573   1.499   4.500   3.009
  210TIP3   OH2  574   0.827   4.488   4.691
  210TIP3    H1  575   0.772   4.560   4.722
  210TIP3    H2  576   0.766   4.418   4.671
  211TIP3   OH2  577   7.019   3.543   1.452
  211TIP3    H1  578   7.108   3.536   1.418
  211TIP3    H2  579   6.982   3.619   1.408
  212TIP3   OH2  580   1.989   6.788   1.763
  212TIP3    H1  581   2.053   6.740   1.817
  212TIP3    H2  582   1.967   6.727   1.692
  213TIP3   OH2  583   8.156   0.958   2.778
  213TIP3    H1  584   8.102   0.886   2.810
  213TIP3    H2  585   8.094   1.027   2.757
  214TIP3   OH2  586   7.810   3.649   6.039
  214TIP3    H1  587   7.898   3.618   6.017
  214TIP3    H2  588   7.784   3.597   6.115
  215TIP3   OH2  589   2.324   6.053   1.090
  215TIP3    H1  590   2.310   6.140   1.127
  215TIP3    H2  591   2.297   6.061   0.999
  216TIP3   OH2  592   1.512   1.390   3.614
  216TIP3    H1  593   1.571   1.452   3.571
  216TIP3    H2  594   1.544   1.386   3.704
  217TIP3   OH2  595   8.235   5.774   1.341
  217TIP3    H1  596   8.205   5.780   1.251
  217TIP3    H2  597   8.234   5.680   1.361
  218TIP3   OH2  598   0.723   1.885   3.446
  218TIP3    H1  599   0.722   1.940   3.368
  218TIP3    H2  600   0.808   1.842   3.443
  219TIP3   OH2  601   3.595   2.983   2.538
  219TIP3    H1  602   3.615   2.892   2.559
  219TIP3    H2  603   3.519   3.004   2.593
  220TIP3   OH2  604   2.874   3.416   1.721
  220TIP3    H1  605   2.932   3.342   1.738
  220TIP3    H2  606   2.844   3.404   1.631
  221TIP3   OH2  607   6.859   3.111   1.357
  221TIP3    H1  608   6.792   3.178   1.344
  221TIP3    H2  609   6.831   3.064   1.436
  222TIP3   OH2  610   3.600   2.050   0.468
  222TIP3    H1  611   3.599   2.119   0.402
  222TIP3    H2  612   3.537   2.079   0.534
  223TIP3   OH2  613   5.108   5.892   3.238
  223TIP3    H1  614   5.072   5.822   3.183
  223TIP3    H2  615   5.093   5.972   3.187
  224TIP3   OH2  616   3.414   3.627   4.097
  224TIP3    H1  617   3.430   3.656   4.187
  224TIP3    H2  618   3.487   3.568   4.077
  225TIP3   OH2  619   6.305   0.179   3.149
  225TIP3    H1  620   6.236   0.122   3.115
  225TIP3    H2  621   6.265   0.266   3.151
  226TIP3   OH2  622   0.456   4.949   6.636
  226TIP3    H1  623   0.522   4.918   6.699
  226TIP3    H2  624   0.505   5.008   6.578
  227TIP3   OH2  625   8.277   0.360   6.527
  227TIP3    H1  626   8.226   0.281   6.544
  227TIP3    H2  627   8.262   0.378   6.434
  228TIP3   OH2  628   8.066   5.688   2.565
  228TIP3    H1  629   8.011   5.613   2.545
  228TIP3    H2  630   8.031   5.724   2.646
  229TIP3   OH2  631   1.453   0.633   0.994
  229TIP3    H1  632   1.386   0.662   0.932
  229TIP3    H2  633   1.536   0.653   0.951
  230TIP3   OH2  634   7.412   0.933   2.368
  230TIP3    H1  635   7.349   0.879   2.321
  230TIP3    H2  636   7.495   0.886   2.360
  231TIP3   OH2  637   6.780   7.380   0.062
  231TIP3    H1  638   6.770   7.469   0.028
  231TIP3    H2  639   6.850   7.342   0.009
  232TIP3   OH2  640   0.813   6.333   2.654
  232TIP3    H1  641   0.886   6.290   2.698
  232TIP3    H2  642   0.851   6.413   2.617
  233TIP3   OH2  643   4.960   2.474   6.119
  233TIP3    H1  644   4.915   2.390   6.105
  233TIP3    H2  645   4.891   2.533   6.148
  234TIP3   OH2  646   0.533   0.777   5.097
  234TIP3    H1  647   0.618   0.740   5.122
  234TIP3    H2  648   0.486   0.704   5.058
  235TIP3   OH2  649   3.906   1.222   1.513
  235TIP3    H1  650   3.858   1.200   1.433
  235TIP3    H2  651   3.961   1.145   1.529
  236TIP3   OH2  652   6.107   2.267   4.611
  236TIP3    H1  653   6.032   2.319   4.637
  236TIP3    H2  654   6.082   2.177   4.631
  237TIP3   OH2  655   4.760   1.377   0.083
  237TIP3    H1  656   4.758   1.363  -0.012
  237TIP3    H2  657   4.797   1.465   0.093
  238TIP3   OH2  658   1.866   2.473   4.323
  238TIP3    H1  659   1.818   2.551   4.295
  238TIP3    H2  660   1.901   2.497   4.409
  239TIP3   OH2  661   3.957   6.193   0.784
  239TIP3    H1  662   4.047   6.214   0.812
  239TIP3    H2  663   3.957   6.208   0.690
  240TIP3   OH2  664   4.941   4.102   5.436
  240TIP3    H1  665   4.878   4.033   5.420
  240TIP3    H2  666   5.026   4.062   5.416
  241TIP3   OH2  667   0.122   6.194   0.621
  241TIP3    H1  668   0.217   6.185   0.617
  241TIP3    H2  669   0.104   6.280   0.584
  242TIP3   OH2  670   5.517   6.402   4.578
  242TIP3    H1  671   5.466   6.434   4.504
  242TIP3    H2  672   5.566   6.478   4.608
  243TIP3   OH2  673   1.601   5.733   1.927
  243TIP3    H1  674   1.553   5.741   2.009
  243TIP3    H2  675   1.534   5.728   1.860
  244TIP3   OH2  676   7.777   2.264   0.023
  244TIP3    H1  677   7.741   2.175   0.028
  244TIP3    H2  678   7.769   2.297   0.113
  245TIP3   OH2  679   2.292   3.626   4.354
  245TIP3    H1  680   2.329   3.552   4.307
  245TIP3    H2  681   2.339   3.627   4.438
  246TIP3   OH2  682   2.197   7.802   0.436
  246TIP3    H1  683   2.116   7.781   0.483
  246TIP3    H2  684   2.263   7.812   0.504
  247TIP3   OH2  685   0.167   2.063   0.455
  247TIP3    H1  686   0.100   2.131   0.463
  247TIP3    H2  687   0.133   1.990   0.506
  248TIP3   OH2  688   2.489   1.037   2.293
  248TIP3    H1  689   2.474   1.096   2.366
  248TIP3    H2  690   2.407   0.989   2.284
  249TIP3   OH2  691   4.908   5.746   0.813
  249TIP3    H1  692   4.900   5.819   0.751
  249TIP3    H2  693   4.971   5.687   0.773
  250TIP3   OH2  694   4.202   1.771   5.715
  250TIP3    H1  695   4.132   1.833   5.693
  250TIP3    H2  696   4.267   1.824   5.761
  251TIP3   OH2  697   1.368   3.705   5.791
  251TIP3    H1  698   1.450   3.741   5.757
  251TIP3    H2  699   1.325   3.667   5.715
  252TIP3   OH2  700   7.628   3.057   2.327
  252TIP3    H1  701   7.596   3.027   2.412
  252TIP3    H2  702   7.668   2.980   2.287
  253TIP3   OH2  703   0.979   0.000   1.178
  253TIP3    H1  704   1.037   0.037   1.245
  253TIP3    H2  705   0.910   0.066   1.168
  254TIP3   OH2  706   3.986   7.295   5.793
  254TIP3    H1  707   4.032   7.211   5.799
  254TIP3    H2  708   3.893   7.272   5.799
  255TIP3   OH2  709   0.701   7.101   2.877
  255TIP3    H1  710   0.715   7.076   2.968
  255TIP3    H2  711   0.610   7.130   2.874
  256TIP3   OH2  712   7.442   4.725   1.939
  256TIP3    H1  713   7.348   4.712   1.951
  256TIP3    H2  714   7.451   4.817   1.914
  257TIP3   OH2  715   5.626   5.987   2.833
  257TIP3    H1  716   5.697   5.946   2.883
  257TIP3    H2  717   5.639   5.956   2.744
  258TIP3   OH2  718   4.247   3.396   1.118
  258TIP3    H1  719   4.301   3.374   1.043
  258TIP3    H2  720   4.158   3.370   1.092
  259TIP3   OH2  721   4.403   7.718   5.730
  259TIP3    H1  722   4.455   7.760   5.798
  259TIP3    H2  723   4.380   7.789   5.670
  260TIP3   OH2  724   5.118   2.633   3.448
  260TIP3    H1  725   5.146   2.723   3.429
  260TIP3    H2  726   5.127   2.624   3.543
  261TIP3   OH2  727   5.096   2.679   6.403
  261TIP3    H1  728   5.011   2.721   6.419
  261TIP3    H2  729   5.135   2.729   6.332
  262TIP3   OH2  730   3.410   4.486   3.687
  262TIP3    H1  731   3.417   4.482   3.592
  262TIP3    H2  732   3.320   4.459   3.705
  263TIP3   OH2  733   1.526   1.571   2.568
  263TIP3    H1  734   1.439   1.585   2.604
  263TIP3    H2  735   1.527   1.478   2.545
  264TIP3   OH2  736   6.711   0.710   6.068
  264TIP3    H1  737   6.643   0.776   6.056
  264TIP3    H2  738   6.664   0.629   6.086
  265TIP3   OH2  739   1.253   5.121   5.457
  265TIP3    H1  740   1.295   5.066   5.391
  265TIP3    H2  741   1.237   5.204   5.413
  266TIP3   OH2  742   5.100   4.694   0.563
  266TIP3    H1  743   5.142   4.660   0.484
  266TIP3    H2  744   5.039   4.760   0.531
  267TIP3   OH2  745   0.547   0.444   2.886
  267TIP3    H1  746   0.516   0.357   2.861
  267TIP3    H2  747   0.471   0.485   2.927
  268TIP3   OH2  748   6.991   3.167   5.669
  268TIP3    H1  749   6.966   3.076   5.684
  268TIP3    H2  750   6.926   3.200   5.606
  269TIP3   OH2  751   7.141   5.240   2.724
  269TIP3    H1  752   7.136   5.271   2.634
  269TIP3    H2  753   7.212   5.292   2.763
  270TIP3   OH2  754   7.087   3.667   3.889
  270TIP3    H1  755   7.091   3.656   3.984
  270TIP3    H2  756   6.995   3.656   3.868
  271TIP3   OH2  757   1.795   5.807   1.720
  271TIP3    H1  758   1.829   5.763   1.797
  271TIP3    H2  759   1.834   5.760   1.646
  272TIP3   OH2  760   6.191   0.177   5.120
  272TIP3    H1  761   6.274   0.219   5.140
  272TIP3    H2  762   6.155   0.228   5.047
  273TIP3   OH2  763   4.816   0.326   4.726
  273TIP3    H1  764   4.741   0.385   4.719
  273TIP3    H2  765   4.802   0.262   4.656
  274TIP3   OH2  766   6.650   0.484   3.437
  274TIP3    H1  767   6.594   0.507   3.512
  274TIP3    H2  768   6.730   0.534   3.451
  275TIP3   OH2  769   4.776   5.977   5.475
  275TIP3    H1  770   4.778   6.045   5.408
  275TIP3    H2  771   4.826   5.905   5.437
  276TIP3   OH2  772   4.919   3.961   2.163
  276TIP3    H1  773   4.855   3.999   2.103
  276TIP3    H2  774   4.969   3.899   2.109
  277TIP3   OH2  775   8.021   4.853   1.144
  277TIP3    H1  776   8.004   4.774   1.093
  277TIP3    H2  777   8.030   4.923   1.079
  278TIP3   OH2  778   7.482   7.208   3.333
  278TIP3    H1  779   7.433   7.187   3.254
  278TIP3    H2  780   7.415   7.210   3.402
  279TIP3   OH2  781   2.944   1.332   1.187
  279TIP3    H1  782   3.021   1.369   1.231
  279TIP3    H2  783   2.922   1.396   1.119
  280TIP3   OH2  784   6.091   0.017   3.370
  280TIP3    H1  785   6.174   0.066   3.371
  280TIP3    H2  786   6.050   0.040   3.453
  281TIP3   OH2  787   4.505   2.403   5.575
  281TIP3    H1  788   4.585   2.416   5.626
  281TIP3    H2  789   4.529   2.427   5.486
  282TIP3   OH2  790   1.071   2.457   0.767
  282TIP3    H1  791   1.022   2.392   0.715
  282TIP3    H2  792   1.011   2.482   0.837
  283TIP3   OH2  793   3.986   3.927   1.317
  283TIP3    H1  794   3.918   3.982   1.276
  283TIP3    H2  795   3.939   3.880   1.386
  284TIP3   OH2  796   1.143   0.570   3.086
  284TIP3    H1  797   1.049   0.557   3.075
  284TIP3    H2  798   1.153   0.662   3.107
  285TIP3   OH2  799   5.719   6.120   5.629
  285TIP3    H1  800   5.738   6.214   5.629
  285TIP3    H2  801   5.785   6.082   5.687
  286TIP3   OH2  802   3.987   0.786   4.988
  286TIP3    H1  803   3.911   0.839   4.965
  286TIP3    H2  804   3.961   0.696   4.966
  287TIP3   OH2  805   0.332   2.547   4.901
  287TIP3    H1  806   0.355   2.630   4.860
  287TIP3    H2  807   0.365   2.481   4.841
  288TIP3   OH2  808   5.952   4.970   0.808
  288TIP3    H1  809   5.992   5.030   0.745
  288TIP3    H2  810   5.988   4.884   0.786
  289TIP3   OH2  811   1.217   6.387   4.906
  289TIP3    H1  812   1.172   6.381   4.821
  289TIP3    H2  813   1.146   6.397   4.970
  290TIP3   OH2  814   1.017   0.854   0.861
  290TIP3    H1  815   1.045   0.944   0.873
  290TIP3    H2  816   0.974   0.854   0.775
  291TIP3   OH2  817   8.257   5.521   4.224
  291TIP3    H1  818   8.188   5.519   4.290
  291TIP3    H2  819   8.338   5.501   4.272
  292TIP3   OH2  820   7.036   5.546   0.774
  292TIP3    H1  821   6.958   5.512   0.819
  292TIP3    H2  822   7.084   5.467   0.747
  293TIP3   OH2  823   0.760   2.566   4.697
  293TIP3    H1  824   0.827   2.577   4.764
  293TIP3    H2  825   0.738   2.473   4.700
  294TIP3   OH2  826   1.863   7.293   1.209
  294TIP3    H1  827   1.817   7.311   1.127
  294TIP3    H2  828   1.917   7.371   1.224
  295TIP3   OH2  829   3.513   6.993   4.814
  295TIP3    H1  830   3.429   6.948   4.823
  295TIP3    H2  831   3.576   6.922   4.801
  296TIP3   OH2  832   5.913   2.052   3.269
  296TIP3    H1  833   5.851   2.105   3.318
  296TIP3    H2  834   5.925   2.098   3.186
  297TIP3   OH2  835   6.407   5.294   2.128
  297TIP3    H1  836   6.407   5.327   2.038
  297TIP3    H2  837   6.361   5.210   2.122
  298TIP3   OH2  838   7.659   0.066   1.957
  298TIP3    H1  839   7.742   0.049   2.001
  298TIP3    H2  840   7.642  -0.013   1.907
  299TIP3   OH2  841   6.579   7.274   3.970
  299TIP3    H1  842   6.554   7.181   3.970
  299TIP3    H2  843   6.496   7.321   3.980
  300TIP3   OH2  844   7.906   0.915   5.424
  300TIP3    H1  845   7.881   0.873   5.506
  300TIP3    H2  846   7.826   0.958   5.394
  301TIP3   OH2  847   6.613   5.126   5.196
  301TIP3    H1  848   6.678   5.101   5.262
  301TIP3    H2  849   6.563   5.047   5.180
  302TIP3   OH2  850   3.902   3.416   2.296
  302TIP3    H1  851   3.826   3.366   2.324
  302TIP3    H2  852   3.937   3.368   2.221
  303TIP3   OH2  853   4.779   3.142   2.489
  303TIP3    H1  854   4.724   3.195   2.431
  303TIP3    H2  855   4.807   3.203   2.557
  304TIP3   OH2  856   2.539   2.811   1.805
  304TIP3    H1  857   2.511   2.748   1.738
  304TIP3    H2  858   2.634   2.815   1.795
  305TIP3   OH2  859   1.035   6.327   4.702
  305TIP3    H1  860   0.943   6.341   4.725
  305TIP3    H2  861   1.033   6.298   4.611
  306TIP3   OH2  862   3.144   3.282   3.484
  306TIP3    H1  863   3.187   3.296   3.568
  306TIP3    H2  864   3.122   3.370   3.453
  307TIP3   OH2  865   4.125   5.548   5.376
  307TIP3    H1  866   4.189   5.477   5.368
  307TIP3    H2  867   4.159   5.603   5.447
  308TIP3   OH2  868   4.576   7.028   5.135
  308TIP3    H1  869   4.665   7.063   5.123
  308TIP3    H2  870   4.540   7.079   5.209
  309TIP3   OH2  871   2.631   4.965   2.260
  309TIP3    H1  872   2.650   5.025   2.188
  309TIP3    H2  873   2.538   4.978   2.279
  310TIP3   OH2  874   2.844   0.904   4.290
  310TIP3    H1  875   2.903   0.934   4.359
  310TIP3    H2  876   2.770   0.866   4.337
  311TIP3   OH2  877   7.959   7.777   0.191
  311TIP3    H1  878   7.950   7.706   0.127
  311TIP3    H2  879   8.048   7.809   0.178
  312TIP3   OH2  880   8.024   6.206   3.562
  312TIP3    H1  881   8.047   6.181   3.651
  312TIP3    H2  882   8.093   6.168   3.507
  313TIP3   OH2  883   2.228   0.517   3.314
  313TIP3    H1  884   2.318   0.486   3.305
  313TIP3    H2  885   2.236   0.612   3.319
  314TIP3   OH2  886   3.656   0.638   3.837
  314TIP3    H1  887   3.590   0.572   3.817
  314TIP3    H2  888   3.733   0.609   3.789
  315TIP3   OH2  889   1.068   0.783   4.921
  315TIP3    H1  890   1.003   0.804   4.855
  315TIP3    H2  891   1.036   0.825   5.001
  316TIP3   OH2  892   7.084   4.831   3.205
  316TIP3    H1  893   7.126   4.870   3.281
  316TIP3    H2  894   7.062   4.742   3.231
  317TIP3   OH2  895   0.341   6.830   6.350
  317TIP3    H1  896   0.402   6.867   6.415
  317TIP3    H2  897   0.398   6.789   6.285
  318TIP3   OH2  898   0.734   0.808   1.633
  318TIP3    H1  899   0.780   0.804   1.717
  318TIP3    H2  900   0.646   0.840   1.655
  319TIP3   OH2  901   3.386   4.575   1.058
  319TIP3    H1  902   3.320   4.538   1.000
  319TIP3    H2  903   3.377   4.525   1.139
  320TIP3   OH2  904   4.657   1.852   1.781
  320TIP3    H1  905   4.720   1.846   1.852
  320TIP3    H2  906   4.572   1.834   1.822
  321TIP3   OH2  907   1.139   7.502   0.977
  321TIP3    H1  908   1.130   7.407   0.988
  321TIP3    H2  909   1.160   7.513   0.884
  322TIP3   OH2  910   5.280   0.263   0.741
  322TIP3    H1  911   5.269   0.250   0.835
  322TIP3    H2  912   5.373   0.279   0.729
  323TIP3   OH2  913   2.820   0.799   1.225
  323TIP3    H1  914   2.868   0.878   1.203
  323TIP3    H2  915   2.728   0.826   1.222
  324TIP3   OH2  916   3.992   2.250   2.613
  324TIP3    H1  917   4.013   2.174   2.666
  324TIP3    H2  918   3.930   2.300   2.666
  325TIP3   OH2  919   1.289   1.065   5.564
  325TIP3    H1  920   1.260   1.083   5.475
  325TIP3    H2  921   1.249   0.980   5.586
  326TIP3   OH2  922   0.932   0.797   6.071
  326TIP3    H1  923   0.891   0.814   5.986
  326TIP3    H2  924   0.871   0.739   6.116
  327TIP3   OH2  925   0.628   0.340   0.727
  327TIP3    H1  926   0.661   0.250   0.730
  327TIP3    H2  927   0.562   0.343   0.797
  328TIP3   OH2  928   3.695   4.379   6.706
  328TIP3    H1  929   3.750   4.457   6.699
  328TIP3    H2  930   3.632   4.401   6.775
  329TIP3   OH2  931   1.772   3.960   1.641
  329TIP3    H1  932   1.727   3.934   1.561
  329TIP3    H2  933   1.747   4.052   1.654
  330TIP3   OH2  934   4.948   6.350   5.882
  330TIP3    H1  935   4.945   6.431   5.934
  330TIP3    H2  936   5.032   6.309   5.906
  331TIP3   OH2  937   4.177   5.178   5.852
  331TIP3    H1  938   4.207   5.181   5.943
  331TIP3    H2  939   4.215   5.255   5.811
  332TIP3   OH2  940   8.086   7.600   3.255
  332TIP3    H1  941   8.070   7.534   3.188
  332TIP3    H2  942   8.018   7.666   3.241
  333TIP3   OH2  943   8.014   1.790   2.492
  333TIP3    H1  944   7.945   1.743   2.445
  333TIP3    H2  945   8.028   1.869   2.439
  334TIP3   OH2  946   1.244   6.249   1.605
  334TIP3    H1  947   1.314   6.298   1.647
  334TIP3    H2  948   1.192   6.315   1.560
  335TIP3   OH2  949   2.373   4.743   6.315
  335TIP3    H1  950   2.314   4.818   6.306
  335TIP3    H2  951   2.359   4.712   6.404
  336TIP3   OH2  952   0.446   6.389   1.460
  336TIP3    H1  953   0.476   6.327   1.526
  336TIP3    H2  954   0.417   6.333   1.387
  337TIP3   OH2  955   1.641   6.909   3.920
  337TIP3    H1  956   1.643   6.850   3.996
  337TIP3    H2  957   1.663   6.995   3.956
  338TIP3   OH2  958   7.923   6.383   5.191
  338TIP3    H1  959   7.894   6.362   5.280
  338TIP3    H2  960   7.962   6.302   5.158
  339TIP3   OH2  961   6.367   3.698   6.395
  339TIP3    H1  962   6.336   3.648   6.319
  339TIP3    H2  963   6.378   3.787   6.361
  340TIP3   OH2  964   6.055   5.352   0.302
  340TIP3    H1  965   6.034   5.408   0.228
  340TIP3    H2  966   6.081   5.268   0.263
  341TIP3   OH2  967   4.188   0.731   3.553
  341TIP3    H1  968   4.266   0.786   3.552
  341TIP3    H2  969   4.133   0.769   3.622
  342TIP3   OH2  970   5.693   7.144   1.181
  342TIP3    H1  971   5.671   7.217   1.123
  342TIP3    H2  972   5.788   7.150   1.191
  343TIP3   OH2  973   2.593   1.801   0.782
  343TIP3    H1  974   2.524   1.740   0.756
  343TIP3    H2  975   2.561   1.841   0.863
  344TIP3   OH2  976   1.618   4.400   1.866
  344TIP3    H1  977   1.568   4.479   1.844
  344TIP3    H2  978   1.626   4.403   1.961
  345TIP3   OH2  979   6.448   3.465   0.879
  345TIP3    H1  980   6.537   3.495   0.899
  345TIP3    H2  981   6.457   3.415   0.798
  346TIP3   OH2  982   2.653   1.246   6.198
  346TIP3    H1  983   2.590   1.267   6.267
  346TIP3    H2  984   2.737   1.239   6.243
  347TIP3   OH2  985   1.360   5.361   6.664
  347TIP3    H1  986   1.438   5.416   6.668
  347TIP3    H2  987   1.311   5.393   6.589
  348TIP3   OH2  988   4.375   6.260   3.429
  348TIP3    H1  989   4.442   6.262   3.497
  348TIP3    H2  990   4.359   6.352   3.408
  349TIP3   OH2  991   6.682   3.436   2.018
  349TIP3    H1  992   6.599   3.453   1.974
  349TIP3    H2  993   6.722   3.522   2.030
  350TIP3   OH2  994   0.230   3.614   3.247
  350TIP3    H1  995   0.146   3.567   3.242
  350TIP3    H2  996   0.283   3.562   3.307
  351TIP3   OH2  997   8.154   6.873   4.044
  351TIP3    H1  998   8.150   6.841   4.133
  351TIP3    H2  999   8.089   6.943   4.040
  352TIP3   OH2 1000   4.543   1.540   1.478
  352TIP3    H1 1001   4.547   1.445   1.477
  352TIP3    H2 1002   4.449   1.560   1.471
  353TIP3   OH2 1003   0.453   0.875   5.358
  353TIP3    H1 1004   0.455   0.812   5.431
  353TIP3    H2 1005   0.464   0.821   5.280
  354TIP3   OH2 1006   0.643   4.415   6.276
  354TIP3    H1 1007   0.677   4.505   6.272
  354TIP3    H2 1008   0.697   4.366   6.215
  355TIP3   OH2 1009   0.909   6.781   5.550
  355TIP3    H1 1010   0.925   6.689   5.527
  355TIP3    H2 1011   0.823   6.781   5.592
  356TIP3   OH2 1012   4.059   4.559   6.703
  356TIP3    H1 1013   4.130   4.601   6.752
  356TIP3    H2 1014   3.996   4.629   6.686
  357TIP3   OH2 1015   2.097   5.264   1.653
  357TIP3    H1 1016   2.064   5.237   1.568
  357TIP3    H2 1017   2.021   5.265   1.710
  358TIP3   OH2 1018   6.046   0.179   1.370
  358TIP3    H1 1019   6.001   0.178   1.286
  358TIP3    H2 1020   5.996   0.119   1.425
  359TIP3   OH2 1021   7.321   7.794   3.152
  359TIP3    H1 1022   7.384   7.750   3.094
  359TIP3    H2 1023   7.370   7.812   3.232
  360TIP3   OH2 1024   3.335   7.733   1.090
  360TIP3    H1 1025   3.407   7.796   1.097
  360TIP3    H2 1026   3.334   7.709   0.997
  361TIP3   OH2 1027   3.227   4.792   3.635
  361TIP3    H1 1028   3.283   4.814   3.561
  361TIP3    H2 1029   3.286   4.757   3.701
  362TIP3   OH2 1030   2.099   2.354   2.889
  362TIP3    H1 1031   2.086   2.435   2.938
  362TIP3    H2 1032   2.184   2.321   2.920
  363TIP3   OH2 1033   1.293   2.743   2.728
  363TIP3    H1 1034   1.221   2.760   2.668
  363TIP3    H2 1035   1.341   2.670   2.687
  364TIP3   OH2 1036   7.143   5.593   4.443
  364TIP3    H1 1037   7.093   5.675   4.446
  364TIP3    H2 1038   7.225   5.614   4.487
  365TIP3   OH2 1039   0.824   5.333   2.389
  365TIP3    H1 1040   0.764   5.262   2.412
  365TIP3    H2 1041   0.902   5.316   2.442
  366TIP3   OH2 1042   3.559   7.810   6.153
  366TIP3    H1 1043   3.615   7.887   6.147
  366TIP3    H2 1044   3.505   7.813   6.074
  367TIP3   OH2 1045   4.374   6.069   5.700
  367TIP3    H1 1046   4.421   6.037   5.622
  367TIP3    H2 1047   4.326   6.146   5.668
  368TIP3   OH2 1048   8.290   3.530   0.269
  368TIP3    H1 1049   8.203   3.549   0.234
  368TIP3    H2 1050   8.278   3.537   0.364
  369TIP3   OH2 1051   5.435   3.886   1.750
  369TIP3    H1 1052   5.433   3.841   1.834
  369TIP3    H2 1053   5.369   3.955   1.759
  370TIP3   OH2 1054   7.560   3.342   0.555
  370TIP3    H1 1055   7.482   3.354   0.501
  370TIP3    H2 1056   7.632   3.377   0.502
  371TIP3   OH2 1057   8.055   3.084   0.452
  371TIP3    H1 1058   8.148   3.062   0.453
  371TIP3    H2 1059   8.013   3.006   0.416
  372TIP3   OH2 1060   0.818   7.690   6.219
  372TIP3    H1 1061   0.868   7.722   6.144
  372TIP3    H2 1062   0.742   7.748   6.224
  373TIP3   OH2 1063   0.432   7.082   1.231
  373TIP3    H1 1064   0.345   7.095   1.271
  373TIP3    H2 1065   0.418   7.015   1.164
  374TIP3   OH2 1066   2.359   0.021   2.335
  374TIP3    H1 1067   2.272   0.051   2.359
  374TIP3    H2 1068   2.344  -0.043   2.265
  375TIP3   OH2 1069   5.319   1.418   3.436
  375TIP3    H1 1070   5.334   1.511   3.451
  375TIP3    H2 1071   5.254   1.416   3.365
  376TIP3   OH2 1072   1.315   2.855   4.219
  376TIP3    H1 1073   1.386   2.853   4.155
  376TIP3    H2 1074   1.236   2.831   4.170
  377TIP3   OH2 1075   2.323   6.819   2.102
  377TIP3    H1 1076   2.377   6.873   2.044
  377TIP3    H2 1077   2.381   6.798   2.175
  378TIP3   OH2 1078   4.042   1.034   2.764
  378TIP3    H1 1079   4.077   0.946   2.779
  378TIP3    H2 1080   3.953   1.031   2.798
  379TIP3   OH2 1081   5.566   1.852   1.329
  379TIP3    H1 1082   5.548   1.945   1.343
  379TIP3    H2 1083   5.508   1.806   1.390
  380TIP3   OH2 1084   5.692   0.774   3.611
  380TIP3    H1 1085   5.685   0.870   3.616
  380TIP3    H2 1086   5.686   0.755   3.518
  381TIP3   OH2 1087   7.932   3.725   4.172
  381TIP3    H1 1088   7.938   3.756   4.082
  381TIP3    H2 1089   7.848   3.758   4.204
  382TIP3   OH2 1090   4.960   3.270   1.543
  382TIP3    H1 1091   5.054   3.289   1.546
  382TIP3    H2 1092   4.932   3.300   1.456
  383TIP3   OH2 1093   3.742   4.603   4.612
  383TIP3    H1 1094   3.704   4.687   4.587
  383TIP3    H2 1095   3.757   4.559   4.529
  384TIP3   OH2 1096   6.487   5.517   3.253
  384TIP3    H1 1097   6.484   5.462   3.332
  384TIP3    H2 1098   6.532   5.596   3.282
  385TIP3   OH2 1099   7.441   6.096   1.695
  385TIP3    H1 1100   7.498   6.137   1.760
  385TIP3    H2 1101   7.468   6.004   1.695
  386TIP3   OH2 1102   4.967   2.472   1.233
  386TIP3    H1 1103   5.039   2.447   1.289
  386TIP3    H2 1104   4.923   2.544   1.279
  387TIP3   OH2 1105   4.400   7.543   1.031
  387TIP3    H1 1106   4.328   7.600   1.059
  387TIP3    H2 1107   4.392   7.540   0.936
  388TIP3   OH2 1108   5.836   7.010   2.267
  388TIP3    H1 1109   5.876   6.987   2.183
  388TIP3    H2 1110   5.898   6.980   2.333
  389TIP3   OH2 1111   4.319   3.007   4.387
  389TIP3    H1 1112   4.232   3.039   4.411
  389TIP3    H2 1113   4.322   2.918   4.422
  390TIP3   OH2 1114   7.732   3.821   3.004
  390TIP3    H1 1115   7.740   3.824   3.099
  390TIP3    H2 1116   7.652   3.772   2.987
  391TIP3   OH2 1117   6.817   2.589   3.936
  391TIP3    H1 1118   6.754   2.614   3.867
  391TIP3    H2 1119   6.768   2.527   3.991
  392TIP3   OH2 1120   0.788   4.147   0.562
  392TIP3    H1 1121   0.825   4.069   0.603
  392TIP3    H2 1122   0.709   4.165   0.613
  393TIP3   OH2 1123   2.225   2.024   4.306
  393TIP3    H1 1124   2.301   1.974   4.336
  393TIP3    H2 1125   2.189   1.972   4.234
  394TIP3   OH2 1126   1.129   0.281   6.268
  394TIP3    H1 1127   1.047   0.235   6.285
  394TIP3    H2 1128   1.103   0.355   6.213
  395TIP3   OH2 1129   3.266   4.392   3.073
  395TIP3    H1 1130   3.313   4.426   2.996
  395TIP3    H2 1131   3.335   4.380   3.139
  396TIP3   OH2 1132   4.496   6.583   3.671
  396TIP3    H1 1133   4.523   6.498   3.705
  396TIP3    H2 1134   4.404   6.572   3.649
  397TIP3   OH2 1135   3.548   5.021   5.870
  397TIP3    H1 1136   3.610   5.007   5.942
  397TIP3    H2 1137   3.463   5.030   5.914
  398TIP3   OH2 1138   8.130   0.153   0.057
  398TIP3    H1 1139   8.124   0.221  -0.010
  398TIP3    H2 1140   8.117   0.200   0.139
  399TIP3   OH2 1141   1.487   7.150   2.676
  399TIP3    H1 1142   1.523   7.170   2.590
  399TIP3    H2 1143   1.519   7.221   2.733
  400TIP3   OH2 1144   3.832   3.439   0.603
  400TIP3    H1 1145   3.806   3.530   0.596
  400TIP3    H2 1146   3.919   3.442   0.643
  401TIP3   OH2 1147   3.465   0.238   5.351
  401TIP3    H1 1148   3.544   0.274   5.311
  401TIP3    H2 1149   3.483   0.145   5.363
  402TIP3   OH2 1150   5.678   4.587   6.517
  402TIP3    H1 1151   5.661   4.586   6.423
  402TIP3    H2 1152   5.612   4.646   6.553
  403TIP3   OH2 1153   2.521   0.445   2.176
  403TIP3    H1 1154   2.611   0.478   2.181
  403TIP3    H2 1155   2.530   0.350   2.183
  404TIP3   OH2 1156   6.684   6.585   5.430
  404TIP3    H1 1157   6.605   6.637   5.442
  404TIP3    H2 1158   6.726   6.621   5.353
  405TIP3   OH2 1159   8.018   5.386   5.100
  405TIP3    H1 1160   8.028   5.339   5.183
  405TIP3    H2 1161   7.965   5.463   5.123
  406TIP3   OH2 1162   1.935   4.287   3.533
  406TIP3    H1 1163   1.957   4.193   3.534
  406TIP3    H2 1164   1.989   4.323   3.462
  407TIP3   OH2 1165   3.070   5.825   4.181
  407TIP3    H1 1166   3.015   5.878   4.238
  407TIP3    H2 1167   3.081   5.742   4.228
  408TIP3   OH2 1168   0.831   1.902   2.613
  408TIP3    H1 1169   0.873   1.978   2.573
  408TIP3    H2 1170   0.831   1.835   2.545
  409TIP3   OH2 1171   2.869   7.647   6.345
  409TIP3    H1 1172   2.942   7.626   6.402
  409TIP3    H2 1173   2.905   7.709   6.282
  410TIP3   OH2 1174   5.579   6.202   2.371
  410TIP3    H1 1175   5.555   6.294   2.360
  410TIP3    H2 1176   5.586   6.190   2.466
  411TIP3   OH2 1177   1.198   3.983   3.007
  411TIP3    H1 1178   1.125   3.971   3.068
  411TIP3    H2 1179   1.208   4.078   2.999
  412TIP3   OH2 1180   3.051   2.919   0.379
  412TIP3    H1 1181   3.109   2.987   0.346
  412TIP3    H2 1182   3.086   2.838   0.342
  413TIP3   OH2 1183   3.437   2.232   2.429
  413TIP3    H1 1184   3.525   2.207   2.454
  413TIP3    H2 1185   3.413   2.302   2.490
  414TIP3   OH2 1186   8.207   0.696   5.426
  414TIP3    H1 1187   8.287   0.731   5.466
  414TIP3    H2 1188   8.169   0.771   5.381
  415TIP3   OH2 1189   0.667   2.472   3.907
  415TIP3    H1 1190   0.573   2.465   3.921
  415TIP3    H2 1191   0.706   2.413   3.971
  416TIP3   OH2 1192   5.522   2.043   5.722
  416TIP3    H1 1193   5.491   1.952   5.715
  416TIP3    H2 1194   5.443   2.096   5.709
  417TIP3   OH2 1195   6.483   5.580   5.387
  417TIP3    H1 1196   6.562   5.561   5.438
  417TIP3    H2 1197   6.515   5.611   5.303
  418TIP3   OH2 1198   7.179   5.406   5.318
  418TIP3    H1 1199   7.205   5.389   5.227
  418TIP3    H2 1200   7.218   5.335   5.368
  419TIP3   OH2 1201   7.789   4.706   4.017
  419TIP3    H1 1202   7.854   4.737   4.080
  419TIP3    H2 1203   7.763   4.784   3.969
  420TIP3   OH2 1204   4.949   2.455   2.761
  420TIP3    H1 1205   4.901   2.538   2.772
  420TIP3    H2 1206   5.000   2.446   2.841
  421TIP3   OH2 1207   2.708   2.053   0.035
  421TIP3    H1 1208   2.767   1.978   0.035
  421TIP3    H2 1209   2.664   2.049  -0.051
  422TIP3   OH2 1210   6.529   3.028   0.214
  422TIP3    H1 1211   6.621   3.043   0.192
  422TIP3    H2 1212   6.501   2.958   0.155
  423TIP3   OH2 1213   4.713   4.860   0.055
  423TIP3    H1 1214   4.797   4.857   0.009
  423TIP3    H2 1215   4.731   4.821   0.140
  424TIP3   OH2 1216   2.103   0.273   6.604
  424TIP3    H1 1217   2.163   0.212   6.646
  424TIP3    H2 1218   2.145   0.293   6.520
  425TIP3   OH2 1219   6.611   4.082   6.737
  425TIP3    H1 1220   6.530   4.120   6.770
  425TIP3    H2 1221   6.672   4.086   6.810
  426TIP3   OH2 1222   7.155   4.805   1.634
  426TIP3    H1 1223   7.062   4.791   1.650
  426TIP3    H2 1224   7.167   4.899   1.647
  427TIP3   OH2 1225   3.723   5.492   3.961
  427TIP3    H1 1226   3.660   5.483   3.889
  427TIP3    H2 1227   3.711   5.582   3.991
  428TIP3   OH2 1228   2.089   2.611   5.623
  428TIP3    H1 1229   2.044   2.593   5.706
  428TIP3    H2 1230   2.165   2.553   5.623
  429TIP3   OH2 1231   6.336   6.721   3.581
  429TIP3    H1 1232   6.274   6.776   3.534
  429TIP3    H2 1233   6.283   6.676   3.646
  430TIP3   OH2 1234   2.390   2.690   3.362
  430TIP3    H1 1235   2.324   2.648   3.307
  430TIP3    H2 1236   2.378   2.784   3.347
  431TIP3   OH2 1237   0.807   5.325   1.019
  431TIP3    H1 1238   0.817   5.234   0.993
  431TIP3    H2 1239   0.729   5.326   1.074
  432TIP3   OH2 1240   7.677   6.587   6.025
  432TIP3    H1 1241   7.613   6.545   6.083
  432TIP3    H2 1242   7.685   6.676   6.058
  433TIP3   OH2 1243   4.276   2.533   5.600
  433TIP3    H1 1244   4.232   2.526   5.515
  433TIP3    H2 1245   4.351   2.475   5.592
  434TIP3   OH2 1246   7.060   5.903   2.613
  434TIP3    H1 1247   6.982   5.850   2.598
  434TIP3    H2 1248   7.031   5.973   2.671
  435TIP3   OH2 1249   1.360   4.685   6.055
  435TIP3    H1 1250   1.384   4.654   5.968
  435TIP3    H2 1251   1.380   4.779   6.053
  436TIP3   OH2 1252   1.690   6.423   6.302
  436TIP3    H1 1253   1.784   6.442   6.311
  436TIP3    H2 1254   1.648   6.484   6.363
  437TIP3   OH2 1255   0.191   6.760   5.693
  437TIP3    H1 1256   0.158   6.684   5.740
  437TIP3    H2 1257   0.115   6.796   5.648
  438TIP3   OH2 1258   4.568   4.714   3.199
  438TIP3    H1 1259   4.611   4.792   3.165
  438TIP3    H2 1260   4.515   4.682   3.126
  439TIP3   OH2 1261   4.077   7.465   5.975
  439TIP3    H1 1262   4.130   7.512   5.912
  439TIP3    H2 1263   4.036   7.395   5.925
  440TIP3   OH2 1264   0.266   7.370   2.885
  440TIP3    H1 1265   0.188   7.408   2.926
  440TIP3    H2 1266   0.231   7.315   2.814
  441TIP3   OH2 1267   3.707   3.124   5.671
  441TIP3    H1 1268   3.735   3.097   5.584
  441TIP3    H2 1269   3.760   3.200   5.692
  442TIP3   OH2 1270   6.807   5.856   5.679
  442TIP3    H1 1271   6.789   5.893   5.766
  442TIP3    H2 1272   6.722   5.820   5.651
  443TIP3   OH2 1273   0.589   4.155   3.224
  443TIP3    H1 1274   0.545   4.138   3.140
  443TIP3    H2 1275   0.527   4.211   3.271
  444TIP3   OH2 1276   0.216   1.735   3.413
  444TIP3    H1 1277   0.148   1.791   3.374
  444TIP3    H2 1278   0.297   1.762   3.370
  445TIP3   OH2 1279   2.080   5.819   2.161
  445TIP3    H1 1280   2.000   5.765   2.161
  445TIP3    H2 1281   2.151   5.756   2.152
  446TIP3   OH2 1282   6.427   0.239   6.092
  446TIP3    H1 1283   6.350   0.294   6.105
  446TIP3    H2 1284   6.458   0.262   6.004
  447TIP3   OH2 1285   3.419   6.576   2.003
  447TIP3    H1 1286   3.427   6.492   2.048
  447TIP3    H2 1287   3.353   6.624   2.053
  448TIP3   OH2 1288   3.248   3.836   1.849
  448TIP3    H1 1289   3.310   3.808   1.917
  448TIP3    H2 1290   3.213   3.919   1.882
  449TIP3   OH2 1291   7.091   0.464   3.011
  449TIP3    H1 1292   7.002   0.439   2.986
  449TIP3    H2 1293   7.088   0.472   3.106
  450TIP3   OH2 1294   3.642   0.928   0.239
  450TIP3    H1 1295   3.610   0.853   0.188
  450TIP3    H2 1296   3.678   0.988   0.174
  451TIP3   OH2 1297   8.185   4.946   2.341
  451TIP3    H1 1298   8.209   4.875   2.281
  451TIP3    H2 1299   8.090   4.940   2.348
  452TIP3   OH2 1300   8.011   2.848   1.360
  452TIP3    H1 1301   7.917   2.847   1.345
  452TIP3    H2 1302   8.021   2.890   1.446
  453TIP3   OH2 1303   0.445   3.212   0.493
  453TIP3    H1 1304   0.453   3.211   0.589
  453TIP3    H2 1305   0.458   3.303   0.469
  454TIP3   OH2 1306   4.676   6.496   0.690
  454TIP3    H1 1307   4.712   6.558   0.627
  454TIP3    H2 1308   4.740   6.425   0.693
  455TIP3   OH2 1309   2.235   7.259   5.083
  455TIP3    H1 1310   2.152   7.213   5.091
  455TIP3    H2 1311   2.241   7.282   4.991
  456TIP3   OH2 1312   4.272   5.157   6.141
  456TIP3    H1 1313   4.255   5.208   6.220
  456TIP3    H2 1314   4.359   5.119   6.155
  457TIP3   OH2 1315   7.515   0.430   3.155
  457TIP3    H1 1316   7.578   0.502   3.150
  457TIP3    H2 1317   7.498   0.419   3.249
  458TIP3   OH2 1318   2.235   4.239   5.039
  458TIP3    H1 1319   2.234   4.219   5.133
  458TIP3    H2 1320   2.170   4.308   5.029
  459TIP3   OH2 1321   6.404   4.867   3.303
  459TIP3    H1 1322   6.318   4.834   3.330
  459TIP3    H2 1323   6.391   4.962   3.294
  460TIP3   OH2 1324   3.202   2.408   6.504
  460TIP3    H1 1325   3.230   2.454   6.424
  460TIP3    H2 1326   3.127   2.356   6.477
  461TIP3   OH2 1327   4.165   2.932   5.989
  461TIP3    H1 1328   4.225   2.926   5.915
  461TIP3    H2 1329   4.137   2.842   6.005
  462TIP3   OH2 1330   6.602   2.859   0.751
  462TIP3    H1 1331   6.592   2.951   0.726
  462TIP3    H2 1332   6.561   2.810   0.680
  463TIP3   OH2 1333   1.537   3.827   1.795
  463TIP3    H1 1334   1.620   3.793   1.763
  463TIP3    H2 1335   1.561   3.904   1.847
  464TIP3   OH2 1336   1.520   3.372   5.148
  464TIP3    H1 1337   1.596   3.400   5.096
  464TIP3    H2 1338   1.505   3.443   5.210
  465TIP3   OH2 1339   1.979   3.826   5.818
  465TIP3    H1 1340   2.021   3.881   5.885
  465TIP3    H2 1341   2.046   3.763   5.793
  466TIP3   OH2 1342   8.277   0.940   1.473
  466TIP3    H1 1343   8.248   0.997   1.544
  466TIP3    H2 1344   8.209   0.873   1.466
  467TIP3   OH2 1345   0.934   3.077   1.398
  467TIP3    H1 1346   0.939   3.046   1.489
  467TIP3    H2 1347   0.857   3.135   1.397
  468TIP3   OH2 1348   2.264   2.994   4.118
  468TIP3    H1 1349   2.204   2.936   4.164
  468TIP3    H2 1350   2.209   3.048   4.062
  469TIP3   OH2 1351   1.693   6.896   3.111
  469TIP3    H1 1352   1.608   6.892   3.155
  469TIP3    H2 1353   1.674   6.942   3.029
  470TIP3   OH2 1354   7.766   1.655   5.960
  470TIP3    H1 1355   7.798   1.668   6.049
  470TIP3    H2 1356   7.699   1.587   5.969
  471TIP3   OH2 1357   7.120   1.710   1.105
  471TIP3    H1 1358   7.054   1.733   1.040
  471TIP3    H2 1359   7.119   1.784   1.166
  472TIP3   OH2 1360   5.102   1.542   4.392
  472TIP3    H1 1361   5.196   1.560   4.404
  472TIP3    H2 1362   5.068   1.622   4.353
  473TIP3   OH2 1363   4.807   2.684   5.846
  473TIP3    H1 1364   4.748   2.612   5.869
  473TIP3    H2 1365   4.836   2.719   5.931
  474TIP3   OH2 1366   4.258   3.231   3.988
  474TIP3    H1 1367   4.331   3.203   3.932
  474TIP3    H2 1368   4.222   3.308   3.944
  475TIP3   OH2 1369   6.393   1.198   4.307
  475TIP3    H1 1370   6.408   1.112   4.347
  475TIP3    H2 1371   6.300   1.216   4.322
  476TIP3   OH2 1372   0.940   0.708   1.085
  476TIP3    H1 1373   0.894   0.654   1.021
  476TIP3    H2 1374   0.974   0.781   1.034
  477TIP3   OH2 1375   6.257   2.951   5.632
  477TIP3    H1 1376   6.225   2.871   5.591
  477TIP3    H2 1377   6.352   2.947   5.621
  478TIP3   OH2 1378   1.183   6.407   2.873
  478TIP3    H1 1379   1.151   6.491   2.841
  478TIP3    H2 1380   1.118   6.343   2.843
  479TIP3   OH2 1381   7.625   7.600   4.340
  479TIP3    H1 1382   7.676   7.680   4.326
  479TIP3    H2 1383   7.684   7.530   4.312
  480TIP3   OH2 1384   5.337   4.112   6.082
  480TIP3    H1 1385   5.344   4.058   6.160
  480TIP3    H2 1386   5.327   4.201   6.115
  481TIP3   OH2 1387   6.949   3.335   4.586
  481TIP3    H1 1388   7.038   3.310   4.560
  481TIP3    H2 1389   6.939   3.299   4.674
  482TIP3   OH2 1390   5.058   6.992   3.315
  482TIP3    H1 1391   5.072   6.920   3.253
  482TIP3    H2 1392   5.130   6.983   3.378
  483TIP3   OH2 1393   1.195   0.121   4.754
  483TIP3    H1 1394   1.138   0.169   4.694
  483TIP3    H2 1395   1.261   0.184   4.780
  484TIP3   OH2 1396   2.708   4.659   3.175
  484TIP3    H1 1397   2.756   4.595   3.226
  484TIP3    H2 1398   2.745   4.652   3.087
  485TIP3   OH2 1399   1.055   5.585   4.744
  485TIP3    H1 1400   1.100   5.574   4.660
  485TIP3    H2 1401   0.995   5.512   4.748
  486TIP3   OH2 1402   2.710   3.158   0.476
  486TIP3    H1 1403   2.799   3.186   0.455
  486TIP3    H2 1404   2.709   3.064   0.458
  487TIP3   OH2 1405   4.700   1.187   2.468
  487TIP3    H1 1406   4.655   1.258   2.514
  487TIP3    H2 1407   4.782   1.226   2.438
  488TIP3   OH2 1408   7.041   3.029   2.565
  488TIP3    H1 1409   7.122   2.980   2.550
  488TIP3    H2 1410   7.045   3.054   2.658
  489TIP3   OH2 1411   7.612   7.732   1.904
  489TIP3    H1 1412   7.543   7.765   1.846
  489TIP3    H2 1413   7.577   7.650   1.940
  490TIP3   OH2 1414   1.347   6.715   3.875
  490TIP3    H1 1415   1.260   6.691   3.842
  490TIP3    H2 1416   1.394   6.745   3.797
  491TIP3   OH2 1417   1.596   2.533   6.651
  491TIP3    H1 1418   1.609   2.625   6.677
  491TIP3    H2 1419   1.504   2.527   6.628
  492TIP3   OH2 1420   7.952   1.473   5.126
  492TIP3    H1 1421   7.884   1.427   5.077
  492TIP3    H2 1422   7.946   1.563   5.096
  493TIP3   OH2 1423   1.720   3.219   1.574
  493TIP3    H1 1424   1.772   3.188   1.500
  493TIP3    H2 1425   1.779   3.276   1.623
  494TIP3   OH2 1426   4.184   5.248   2.165
  494TIP3    H1 1427   4.159   5.168   2.119
  494TIP3    H2 1428   4.121   5.256   2.237
  495TIP3   OH2 1429   3.913   6.601   3.591
  495TIP3    H1 1430   3.926   6.696   3.597
  495TIP3    H2 1431   4.000   6.566   3.574
  496TIP3   OH2 1432   8.039   4.016   0.908
  496TIP3    H1 1433   8.056   4.106   0.938
  496TIP3    H2 1434   8.126   3.977   0.899
  497TIP3   OH2 1435   1.490   3.189   1.721
  497TIP3    H1 1436   1.435   3.261   1.692
  497TIP3    H2 1437   1.574   3.203   1.677
  498TIP3   OH2 1438   1.389   7.022   0.474
  498TIP3    H1 1439   1.300   7.002   0.503
  498TIP3    H2 1440   1.408   7.108   0.511
  499TIP3   OH2 1441   4.136   4.342   6.435
  499TIP3    H1 1442   4.181   4.426   6.439
  499TIP3    H2 1443   4.105   4.336   6.344
  500TIP3   OH2 1444   2.964   3.571   3.143
  500TIP3    H1 1445   2.871   3.590   3.152
  500TIP3    H2 1446   3.005   3.613   3.218
  501TIP3   OH2 1447   4.793   4.520   5.548
  501TIP3    H1 1448   4.887   4.506   5.538
  501TIP3    H2 1449   4.758   4.512   5.460
  502TIP3   OH2 1450   7.743   3.934   3.536
  502TIP3    H1 1451   7.817   3.995   3.543
  502TIP3    H2 1452   7.672   3.978   3.583
  503TIP3   OH2 1453   0.550   0.397   4.356
  503TIP3    H1 1454   0.458   0.393   4.383
  503TIP3    H2 1455   0.579   0.485   4.383
  504TIP3   OH2 1456   3.447   7.244   3.879
  504TIP3    H1 1457   3.353   7.252   3.865
  504TIP3    H2 1458   3.467   7.153   3.858
  505TIP3   OH2 1459   1.448   1.323   2.477
  505TIP3    H1 1460   1.400   1.243   2.497
  505TIP3    H2 1461   1.515   1.295   2.415
  506TIP3   OH2 1462   4.780   0.640   4.136
  506TIP3    H1 1463   4.867   0.655   4.098
  506TIP3    H2 1464   4.777   0.698   4.212
  507TIP3   OH2 1465   4.550   5.744   3.953
  507TIP3    H1 1466   4.628   5.740   3.899
  507TIP3    H2 1467   4.486   5.790   3.899
  508TIP3   OH2 1468   6.712   3.798   3.569
  508TIP3    H1 1469   6.720   3.724   3.509
  508TIP3    H2 1470   6.787   3.854   3.548
  509TIP3   OH2 1471   0.510   0.508   5.177
  509TIP3    H1 1472   0.547   0.433   5.225
  509TIP3    H2 1473   0.434   0.535   5.229
  510TIP3   OH2 1474   2.518   5.178   3.366
  510TIP3    H1 1475   2.552   5.256   3.410
  510TIP3    H2 1476   2.423   5.189   3.367
  511TIP3   OH2 1477   7.237   6.172   4.035
  511TIP3    H1 1478   7.269   6.188   4.124
  511TIP3    H2 1479   7.277   6.089   4.010
  512TIP3   OH2 1480   3.693   6.922   1.924
  512TIP3    H1 1481   3.598   6.907   1.926
  512TIP3    H2 1482   3.727   6.867   1.995
  513TIP3   OH2 1483   0.005   2.755   2.607
  513TIP3    H1 1484  -0.058   2.725   2.672
  513TIP3    H2 1485   0.079   2.694   2.614
  514TIP3   OH2 1486   7.889   3.776   0.438
  514TIP3    H1 1487   7.808   3.826   0.429
  514TIP3    H2 1488   7.946   3.810   0.369
  515TIP3   OH2 1489   3.811   7.360   3.455
  515TIP3    H1 1490   3.880   7.426   3.450
  515TIP3    H2 1491   3.798   7.346   3.549
  516TIP3   OH2 1492   4.796   4.686   2.953
  516TIP3    H1 1493   4.789   4.607   3.005
  516TIP3    H2 1494   4.709   4.727   2.959
  517TIP3   OH2 1495   6.096   3.871   0.213
  517TIP3    H1 1496   6.102   3.856   0.307
  517TIP3    H2 1497   6.110   3.784   0.174
  518TIP3   OH2 1498   5.301   5.744   6.315
  518TIP3    H1 1499   5.286   5.684   6.241
  518TIP3    H2 1500   5.217   5.787   6.329
  519TIP3   OH2 1501   6.534   6.241   0.596
  519TIP3    H1 1502   6.504   6.249   0.506
  519TIP3    H2 1503   6.453   6.230   0.647
  520TIP3   OH2 1504   0.460   0.410   4.682
  520TIP3    H1 1505   0.549   0.427   4.651
  520TIP3    H2 1506   0.472   0.373   4.769
  521TIP3   OH2 1507   2.129   5.911   1.457
  521TIP3    H1 1508   2.163   5.863   1.533
  521TIP3    H2 1509   2.037   5.884   1.452
  522TIP3   OH2 1510   1.086   4.968   3.761
  522TIP3    H1 1511   1.155   5.034   3.754
  522TIP3    H2 1512   1.062   4.949   3.670
  523TIP3   OH2 1513   3.941   7.582   4.579
  523TIP3    H1 1514   3.914   7.666   4.617
  523TIP3    H2 1515   3.874   7.520   4.606
  524TIP3   OH2 1516   5.821   7.817   0.568
  524TIP3    H1 1517   5.866   7.741   0.531
  524TIP3    H2 1518   5.871   7.840   0.646
  525TIP3   OH2 1519   1.172   0.547   3.456
  525TIP3    H1 1520   1.263   0.520   3.444
  525TIP3    H2 1521   1.148   0.513   3.543
  526TIP3   OH2 1522   1.699   2.724   1.646
  526TIP3    H1 1523   1.696   2.695   1.555
  526TIP3    H2 1524   1.792   2.741   1.662
  527TIP3   OH2 1525   4.334   3.692   1.058
  527TIP3    H1 1526   4.271   3.763   1.075
  527TIP3    H2 1527   4.287   3.612   1.085
  528TIP3   OH2 1528   2.430   3.899   3.681
  528TIP3    H1 1529   2.346   3.943   3.666
  528TIP3    H2 1530   2.490   3.939   3.619
  529TIP3   OH2 1531   1.149   4.182   2.767
  529TIP3    H1 1532   1.198   4.217   2.841
  529TIP3    H2 1533   1.192   4.098   2.748
  530TIP3   OH2 1534   7.210   3.560   6.111
  530TIP3    H1 1535   7.137   3.595   6.161
  530TIP3    H2 1536   7.267   3.635   6.095
  531TIP3   OH2 1537   3.655   6.205   3.323
  531TIP3    H1 1538   3.695   6.139   3.380
  531TIP3    H2 1539   3.690   6.288   3.355
  532TIP3   OH2 1540   3.021   6.909   4.950
  532TIP3    H1 1541   2.969   6.945   4.878
  532TIP3    H2 1542   3.037   6.818   4.925
  533TIP3   OH2 1543   6.719   6.496   3.109
  533TIP3    H1 1544   6.687   6.471   3.195
  533TIP3    H2 1545   6.706   6.591   3.105
  534TIP3   OH2 1546   6.579   1.517   0.861
  534TIP3    H1 1547   6.559   1.471   0.780
  534TIP3    H2 1548   6.588   1.609   0.836
  535TIP3   OH2 1549   5.807   4.028   3.928
  535TIP3    H1 1550   5.782   3.996   4.016
  535TIP3    H2 1551   5.901   4.045   3.935
  536TIP3   OH2 1552   0.099   3.744   2.266
  536TIP3    H1 1553   0.023   3.803   2.272
  536TIP3    H2 1554   0.062   3.658   2.251
  537TIP3   OH2 1555   6.058   6.706   0.550
  537TIP3    H1 1556   6.026   6.648   0.481
  537TIP3    H2 1557   5.984   6.763   0.571
  538TIP3   OH2 1558   0.344   2.188   6.623
  538TIP3    H1 1559   0.379   2.274   6.599
  538TIP3    H2 1560   0.278   2.169   6.555
  539TIP3   OH2 1561   4.974   6.634   2.947
  539TIP3    H1 1562   5.010   6.627   2.859
  539TIP3    H2 1563   4.966   6.544   2.977
  540TIP3   OH2 1564   7.692   4.606   5.535
  540TIP3    H1 1565   7.623   4.648   5.587
  540TIP3    H2 1566   7.654   4.600   5.447
  541TIP3   OH2 1567   8.268   3.804   0.483
  541TIP3    H1 1568   8.189   3.826   0.532
  541TIP3    H2 1569   8.340   3.818   0.545
  542TIP3   OH2 1570   4.699   1.466   5.503
  542TIP3    H1 1571   4.630   1.448   5.439
  542TIP3    H2 1572   4.727   1.556   5.483
  543TIP3   OH2 1573   3.139   7.055   2.928
  543TIP3    H1 1574   3.127   7.118   2.999
  543TIP3    H2 1575   3.051   7.036   2.896
  544TIP3   OH2 1576   3.602   2.444   6.336
  544TIP3    H1 1577   3.588   2.519   6.395
  544TIP3    H2 1578   3.566   2.369   6.384
  545TIP3   OH2 1579   0.301   3.866   6.044
  545TIP3    H1 1580   0.237   3.869   6.115
  545TIP3    H2 1581   0.360   3.939   6.062
  546TIP3   OH2 1582   1.297   0.841   3.049
  546TIP3    H1 1583   1.366   0.893   3.090
  546TIP3    H2 1584   1.334   0.753   3.042
  547TIP3   OH2 1585   1.151   5.939   2.765
  547TIP3    H1 1586   1.230   5.950   2.818
  547TIP3    H2 1587   1.121   6.028   2.747
  548TIP3   OH2 1588   7.936   6.660   5.204
  548TIP3    H1 1589   7.904   6.693   5.120
  548TIP3    H2 1590   7.913   6.567   5.203
  549TIP3   OH2 1591   3.386   3.311   2.862
  549TIP3    H1 1592   3.369   3.358   2.780
  549TIP3    H2 1593   3.481   3.304   2.866
  550TIP3   OH2 1594   4.114   7.707   6.593
  550TIP3    H1 1595   4.046   7.772   6.573
  550TIP3    H2 1596   4.085   7.628   6.547
  551TIP3   OH2 1597   5.546   6.073   3.599
  551TIP3    H1 1598   5.604   5.999   3.619
  551TIP3    H2 1599   5.575   6.143   3.658
  552TIP3   OH2 1600   5.945   7.325   2.132
  552TIP3    H1 1601   5.906   7.380   2.065
  552TIP3    H2 1602   5.914   7.237   2.111
  553TIP3   OH2 1603   5.509   7.098   5.846
  553TIP3    H1 1604   5.594   7.056   5.859
  553TIP3    H2 1605   5.531   7.184   5.808
  554TIP3   OH2 1606   1.541   5.270   0.650
  554TIP3    H1 1607   1.571   5.214   0.579
  554TIP3    H2 1608   1.559   5.359   0.620
  555TIP3   OH2 1609   4.420   2.403   0.932
  555TIP3    H1 1610   4.471   2.437   0.859
  555TIP3    H2 1611   4.400   2.480   0.985
  556TIP3   OH2 1612   0.990   7.599   5.252
  556TIP3    H1 1613   0.994   7.540   5.176
  556TIP3    H2 1614   0.909   7.573   5.297
  557TIP3   OH2 1615   0.575   7.645   0.632
  557TIP3    H1 1616   0.508   7.604   0.686
  557TIP3    H2 1617   0.570   7.599   0.548
  558TIP3   OH2 1618   0.652   5.226   6.125
  558TIP3    H1 1619   0.679   5.251   6.213
  558TIP3    H2 1620   0.726   5.250   6.069
  559TIP3   OH2 1621   5.773   5.683   0.609
  559TIP3    H1 1622   5.764   5.591   0.584
  559TIP3    H2 1623   5.683   5.715   0.613
  560TIP3   OH2 1624   2.717   7.607   3.404
  560TIP3    H1 1625   2.626   7.635   3.413
  560TIP3    H2 1626   2.768   7.688   3.408
  561TIP3   OH2 1627   5.198   5.500   2.567
  561TIP3    H1 1628   5.226   5.414   2.599
  561TIP3    H2 1629   5.229   5.562   2.634
  562TIP3   OH2 1630   4.279   4.296   3.895
  562TIP3    H1 1631   4.290   4.386   3.926
  562TIP3    H2 1632   4.263   4.245   3.975
  563TIP3   OH2 1633   0.176   0.618   2.148
  563TIP3    H1 1634   0.212   0.567   2.076
  563TIP3    H2 1635   0.224   0.587   2.225
  564TIP3   OH2 1636   6.948   1.620   0.507
  564TIP3    H1 1637   6.920   1.533   0.479
  564TIP3    H2 1638   7.038   1.608   0.538
  565TIP3   OH2 1639   4.401   7.681   4.447
  565TIP3    H1 1640   4.314   7.642   4.435
  565TIP3    H2 1641   4.462   7.611   4.422
  566TIP3   OH2 1642   4.780   2.954   1.653
  566TIP3    H1 1643   4.759   2.895   1.581
  566TIP3    H2 1644   4.708   3.016   1.655
  567TIP3   OH2 1645   7.552   5.530   3.370
  567TIP3    H1 1646   7.641   5.537   3.336
  567TIP3    H2 1647   7.498   5.571   3.303
  568TIP3   OH2 1648   3.702   3.677   5.916
  568TIP3    H1 1649   3.645   3.724   5.977
  568TIP3    H2 1650   3.786   3.672   5.962
  569TIP3   OH2 1651   2.237   0.854   1.866
  569TIP3    H1 1652   2.245   0.795   1.791
  569TIP3    H2 1653   2.326   0.865   1.897
  570TIP3   OH2 1654   1.075   1.499   1.950
  570TIP3    H1 1655   1.067   1.588   1.984
  570TIP3    H2 1656   1.136   1.456   2.009
  571TIP3   OH2 1657   6.727   7.672   6.721
  571TIP3    H1 1658   6.810   7.625   6.712
  571TIP3    H2 1659   6.665   7.605   6.752
  572TIP3   OH2 1660   7.601   1.886   6.090
  572TIP3    H1 1661   7.641   1.799   6.081
  572TIP3    H2 1662   7.579   1.911   6.000
  573TIP3   OH2 1663   4.944   0.440   6.478
  573TIP3    H1 1664   5.006   0.408   6.412
  573TIP3    H2 1665   4.890   0.364   6.499
  574TIP3   OH2 1666   1.031   3.602   2.347
  574TIP3    H1 1667   0.987   3.675   2.388
  574TIP3    H2 1668   1.042   3.537   2.417
  575TIP3   OH2 1669   4.926   4.034   1.742
  575TIP3    H1 1670   4.884   4.089   1.676
  575TIP3    H2 1671   4.865   4.033   1.815
  576TIP3   OH2 1672   7.680   4.967   1.535
  576TIP3    H1 1673   7.739   4.926   1.472
  576TIP3    H2 1674   7.615   5.012   1.481
  577TIP3   OH2 1675   3.303   5.624   3.998
  577TIP3    H1 1676   3.287   5.531   4.016
  577TIP3    H2 1677   3.362   5.624   3.923
  578TIP3   OH2 1678   5.765   3.770   3.328
  578TIP3    H1 1679   5.673   3.793   3.343
  578TIP3    H2 1680   5.804   3.770   3.415
  579TIP3   OH2 1681   6.777   4.425   0.336
  579TIP3    H1 1682   6.818   4.339   0.349
  579TIP3    H2 1683   6.714   4.432   0.408
  580TIP3   OH2 1684   2.522   1.860   3.423
  580TIP3    H1 1685   2.500   1.788   3.482
  580TIP3    H2 1686   2.458   1.928   3.444
  581TIP3   OH2 1687   1.002   5.947   5.681
  581TIP3    H1 1688   0.980   5.990   5.598
  581TIP3    H2 1689   0.955   5.997   5.747
  582TIP3   OH2 1690   7.644   0.124   0.005
  582TIP3    H1 1691   7.684   0.147  -0.079
  582TIP3    H2 1692   7.716   0.088   0.057
  583TIP3   OH2 1693   5.831   4.555   0.986
  583TIP3    H1 1694   5.772   4.483   0.963
  583TIP3    H2 1695   5.772   4.628   1.007
  584TIP3   OH2 1696   2.389   7.211   0.920
  584TIP3    H1 1697   2.297   7.230   0.938
  584TIP3    H2 1698   2.411   7.268   0.846
  585TIP3   OH2 1699   3.009   1.766   4.413
  585TIP3    H1 1700   3.028   1.730   4.500
  585TIP3    H2 1701   3.090   1.808   4.386
  586TIP3   OH2 1702   6.476   6.740   5.395
  586TIP3    H1 1703   6.484   6.759   5.301
  586TIP3    H2 1704   6.389   6.773   5.419
  587TIP3   OH2 1705   3.896   4.145   6.272
  587TIP3    H1 1706   3.840   4.213   6.311
  587TIP3    H2 1707   3.942   4.107   6.346
  588TIP3   OH2 1708   1.585   7.238   1.952
  588TIP3    H1 1709   1.635   7.165   1.916
  588TIP3    H2 1710   1.589   7.305   1.884
  589TIP3   OH2 1711   2.995   3.244   5.758
  589TIP3    H1 1712   2.989   3.155   5.792
  589TIP3    H2 1713   3.063   3.286   5.811
  590TIP3   OH2 1714   6.763   3.371   2.780
  590TIP3    H1 1715   6.770   3.465   2.794
  590TIP3    H2 1716   6.782   3.358   2.687
  591TIP3   OH2 1717   3.750   7.047   0.924
  591TIP3    H1 1718   3.708   7.003   0.999
  591TIP3    H2 1719   3.811   6.982   0.890
  592TIP3   OH2 1720   4.863   7.547   5.792
  592TIP3    H1 1721   4.949   7.582   5.816
  592TIP3    H2 1722   4.845   7.583   5.705
  593TIP3   OH2 1723   3.094   6.649   4.872
  593TIP3    H1 1724   3.066   6.562   4.900
  593TIP3    H2 1725   3.189   6.642   4.860
  594TIP3   OH2 1726   3.608   4.133   1.618
  594TIP3    H1 1727   3.589   4.049   1.575
  594TIP3    H2 1728   3.699   4.150   1.595
  595TIP3   OH2 1729   5.002   2.244   2.064
  595TIP3    H1 1730   5.053   2.168   2.092
  595TIP3    H2 1731   5.026   2.258   1.973
  596TIP3   OH2 1732   1.616   3.016   3.832
  596TIP3    H1 1733   1.664   2.991   3.754
  596TIP3    H2 1734   1.593   2.933   3.874
  597TIP3   OH2 1735   5.356   5.387   4.280
  597TIP3    H1 1736   5.430   5.353   4.330
  597TIP3    H2 1737   5.286   5.325   4.296
  598TIP3   OH2 1738   0.485   4.349   5.722
  598TIP3    H1 1739   0.396   4.350   5.756
  598TIP3    H2 1740   0.482   4.286   5.649
  599TIP3   OH2 1741   6.994   6.773   5.779
  599TIP3    H1 1742   6.998   6.746   5.687
  599TIP3    H2 1743   6.900   6.778   5.798
  600TIP3   OH2 1744   7.210   0.114   5.034
  600TIP3    H1 1745   7.129   0.077   4.999
  600TIP3    H2 1746   7.270   0.039   5.039
  601TIP3   OH2 1747   0.376   0.615   0.376
  601TIP3    H1 1748   0.340   0.528   0.361
  601TIP3    H2 1749   0.442   0.602   0.445
  602TIP3   OH2 1750   4.949   1.802   3.692
  602TIP3    H1 1751   4.889   1.812   3.766
  602TIP3    H2 1752   5.036   1.816   3.729
  603TIP3   OH2 1753   2.908   2.230   5.832
  603TIP3    H1 1754   2.896   2.152   5.778
  603TIP3    H2 1755   2.923   2.196   5.921
  604TIP3   OH2 1756   4.438   0.818   3.566
  604TIP3    H1 1757   4.529   0.805   3.540
  604TIP3    H2 1758   4.442   0.878   3.640
  605TIP3   OH2 1759   0.866   1.324   0.750
  605TIP3    H1 1760   0.925   1.377   0.697
  605TIP3    H2 1761   0.888   1.233   0.727
  606TIP3   OH2 1762   1.616   1.846   6.100
  606TIP3    H1 1763   1.609   1.764   6.053
  606TIP3    H2 1764   1.625   1.821   6.192
  607TIP3   OH2 1765   6.050   0.362   2.911
  607TIP3    H1 1766   6.067   0.443   2.864
  607TIP3    H2 1767   6.099   0.295   2.863
  608TIP3   OH2 1768   6.979   2.714   0.256
  608TIP3    H1 1769   6.891   2.732   0.223
  608TIP3    H2 1770   6.993   2.621   0.235
  609TIP3   OH2 1771   3.259   7.606   4.150
  609TIP3    H1 1772   3.250   7.669   4.222
  609TIP3    H2 1773   3.194   7.633   4.085
  610TIP3   OH2 1774   4.434   7.286   3.108
  610TIP3    H1 1775   4.358   7.228   3.105
  610TIP3    H2 1776   4.402   7.366   3.148
  611TIP3   OH2 1777   0.045   3.060   1.401
  611TIP3    H1 1778   0.120   3.080   1.457
  611TIP3    H2 1779   0.022   2.970   1.424
  612TIP3   OH2 1780   3.747   0.462   6.284
  612TIP3    H1 1781   3.806   0.428   6.350
  612TIP3    H2 1782   3.662   0.469   6.329
  613TIP3   OH2 1783   3.974   2.532   0.190
  613TIP3    H1 1784   3.884   2.564   0.183
  613TIP3    H2 1785   4.028   2.611   0.184
  614TIP3   OH2 1786   0.465   3.552   1.886
  614TIP3    H1 1787   0.525   3.595   1.947
  614TIP3    H2 1788   0.511   3.473   1.859
  615TIP3   OH2 1789   4.857   4.979   5.541
  615TIP3    H1 1790   4.870   5.066   5.578
  615TIP3    H2 1791   4.797   4.994   5.467
  616TIP3   OH2 1792   1.384   4.140   6.607
  616TIP3    H1 1793   1.382   4.078   6.680
  616TIP3    H2 1794   1.451   4.105   6.548
  617TIP3   OH2 1795   7.948   7.703   1.720
  617TIP3    H1 1796   8.000   7.779   1.696
  617TIP3    H2 1797   7.857   7.731   1.707
  618TIP3   OH2 1798   7.204   2.187   1.992
  618TIP3    H1 1799   7.225   2.269   1.947
  618TIP3    H2 1800   7.110   2.193   2.008
  619TIP3   OH2 1801   0.181   2.767   1.132
  619TIP3    H1 1802   0.087   2.748   1.133
  619TIP3    H2 1803   0.217   2.714   1.203
  620TIP3   OH2 1804   4.203   4.592   2.911
  620TIP3    H1 1805   4.164   4.611   2.826
  620TIP3    H2 1806   4.130   4.597   2.973
  621TIP3   OH2 1807   4.994   5.589   3.694
  621TIP3    H1 1808   5.038   5.657   3.643
  621TIP3    H2 1809   5.026   5.506   3.658
  622TIP3   OH2 1810   3.561   0.862   1.761
  622TIP3    H1 1811   3.469   0.841   1.743
  622TIP3    H2 1812   3.586   0.801   1.831
  623TIP3   OH2 1813   6.459   6.084   5.778
  623TIP3    H1 1814   6.446   6.177   5.765
  623TIP3    H2 1815   6.506   6.077   5.861
  624TIP3   OH2 1816   2.775   1.809   1.208
  624TIP3    H1 1817   2.806   1.719   1.201
  624TIP3    H2 1818   2.746   1.818   1.299
  625TIP3   OH2 1819   4.037   7.069   3.747
  625TIP3    H1 1820   3.998   6.995   3.702
  625TIP3    H2 1821   4.096   7.030   3.812
  626TIP3   OH2 1822   1.869   3.652   3.159
  626TIP3    H1 1823   1.844   3.562   3.177
  626TIP3    H2 1824   1.901   3.650   3.068
  627TIP3   OH2 1825   4.333   7.268   4.983
  627TIP3    H1 1826   4.381   7.349   4.962
  627TIP3    H2 1827   4.399   7.199   4.975
  628TIP3   OH2 1828   8.107   5.975   6.279
  628TIP3    H1 1829   8.070   5.887   6.269
  628TIP3    H2 1830   8.033   6.034   6.266
  629TIP3   OH2 1831   1.448   7.195   3.125
  629TIP3    H1 1832   1.486   7.179   3.211
  629TIP3    H2 1833   1.415   7.110   3.097
  630TIP3   OH2 1834   3.788   3.740   3.885
  630TIP3    H1 1835   3.879   3.745   3.915
  630TIP3    H2 1836   3.744   3.686   3.950
  631TIP3   OH2 1837   1.465   0.629   5.631
  631TIP3    H1 1838   1.469   0.575   5.552
  631TIP3    H2 1839   1.554   0.665   5.639
  632TIP3   OH2 1840   1.973   2.389   4.667
  632TIP3    H1 1841   1.961   2.295   4.657
  632TIP3    H2 1842   2.047   2.410   4.611
  633TIP3   OH2 1843   7.622   0.610   5.869
  633TIP3    H1 1844   7.563   0.672   5.911
  633TIP3    H2 1845   7.584   0.524   5.887
  634TIP3   OH2 1846   0.250   4.457   4.182
  634TIP3    H1 1847   0.155   4.448   4.191
  634TIP3    H2 1848   0.278   4.497   4.264
  635TIP3   OH2 1849   7.925   0.041   2.127
  635TIP3    H1 1850   7.893   0.017   2.214
  635TIP3    H2 1851   7.992  -0.025   2.107
  636TIP3   OH2 1852   1.238   5.164   1.349
  636TIP3    H1 1853   1.266   5.077   1.323
  636TIP3    H2 1854   1.142   5.160   1.349
  637TIP3   OH2 1855   1.503   4.732   1.954
  637TIP3    H1 1856   1.503   4.727   1.859
  637TIP3    H2 1857   1.425   4.683   1.980
  638TIP3   OH2 1858   5.095   6.542   4.717
  638TIP3    H1 1859   5.111   6.617   4.659
  638TIP3    H2 1860   5.037   6.576   4.784
  639TIP3   OH2 1861   4.442   1.888   1.940
  639TIP3    H1 1862   4.446   1.982   1.957
  639TIP3    H2 1863   4.361   1.876   1.891
  640TIP3   OH2 1864   7.788   0.420   2.110
  640TIP3    H1 1865   7.772   0.428   2.204
  640TIP3    H2 1866   7.883   0.432   2.101
  641TIP3   OH2 1867   2.484   7.638   3.515
  641TIP3    H1 1868   2.420   7.696   3.556
  641TIP3    H2 1869   2.474   7.555   3.561
  642TIP3   OH2 1870   0.715   5.099   5.464
  642TIP3    H1 1871   0.630   5.057   5.476
  642TIP3    H2 1872   0.778   5.027   5.463
  643TIP3   OH2 1873   2.273   4.257   3.663
  643TIP3    H1 1874   2.286   4.334   3.609
  643TIP3    H2 1875   2.217   4.287   3.735
  644TIP3   OH2 1876   3.795   6.439   4.668
  644TIP3    H1 1877   3.840   6.497   4.729
  644TIP3    H2 1878   3.863   6.414   4.605
  645TIP3   OH2 1879   1.726   2.346   4.887
  645TIP3    H1 1880   1.755   2.271   4.939
  645TIP3    H2 1881   1.695   2.306   4.805
  646TIP3   OH2 1882   0.295   0.986   0.442
  646TIP3    H1 1883   0.272   0.902   0.481
  646TIP3    H2 1884   0.323   1.040   0.517
  647TIP3   OH2 1885   6.607   1.508   0.352
  647TIP3    H1 1886   6.561   1.584   0.316
  647TIP3    H2 1887   6.650   1.468   0.277
  648TIP3   OH2 1888   0.758   0.552   0.142
  648TIP3    H1 1889   0.798   0.611   0.207
  648TIP3    H2 1890   0.677   0.596   0.118
  649TIP3   OH2 1891   0.272   3.110   1.528
  649TIP3    H1 1892   0.305   3.175   1.590
  649TIP3    H2 1893   0.340   3.103   1.462
  650TIP3   OH2 1894   6.022   3.039   6.545
  650TIP3    H1 1895   5.948   3.054   6.603
  650TIP3    H2 1896   6.067   2.963   6.582
  651TIP3   OH2 1897   6.878   4.877   4.837
  651TIP3    H1 1898   6.854   4.949   4.896
  651TIP3    H2 1899   6.798   4.825   4.829
  652TIP3   OH2 1900   6.070   5.506   2.276
  652TIP3    H1 1901   6.038   5.583   2.229
  652TIP3    H2 1902   6.163   5.522   2.286
  653TIP3   OH2 1903   6.392   5.959   3.777
  653TIP3    H1 1904   6.338   6.034   3.752
  653TIP3    H2 1905   6.467   5.998   3.821
  654TIP3   OH2 1906   3.763   7.125   2.881
  654TIP3    H1 1907   3.800   7.211   2.864
  654TIP3    H2 1908   3.711   7.137   2.961
  655TIP3   OH2 1909   4.907   7.609   3.197
  655TIP3    H1 1910   4.937   7.561   3.274
  655TIP3    H2 1911   4.960   7.575   3.125
  656TIP3   OH2 1912   6.836   1.178   0.247
  656TIP3    H1 1913   6.752   1.135   0.266
  656TIP3    H2 1914   6.895   1.106   0.226
  657TIP3   OH2 1915   0.953   0.713   3.371
  657TIP3    H1 1916   0.890   0.673   3.430
  657TIP3    H2 1917   1.034   0.663   3.386
  658TIP3   OH2 1918   1.871   4.240   4.646
  658TIP3    H1 1919   1.809   4.211   4.713
  658TIP3    H2 1920   1.882   4.333   4.663
  659TIP3   OH2 1921   6.129   3.168   3.396
  659TIP3    H1 1922   6.147   3.193   3.487
  659TIP3    H2 1923   6.041   3.130   3.399
  660TIP3   OH2 1924   7.938   7.623   4.735
  660TIP3    H1 1925   7.943   7.596   4.643
  660TIP3    H2 1926   7.854   7.589   4.766
  661TIP3   OH2 1927   5.346   0.710   2.316
  661TIP3    H1 1928   5.279   0.647   2.342
  661TIP3    H2 1929   5.378   0.746   2.399
  662TIP3   OH2 1930   0.712   4.019   6.119
  662TIP3    H1 1931   0.738   3.969   6.196
  662TIP3    H2 1932   0.701   3.953   6.051
  663TIP3   OH2 1933   0.722   2.576   1.365
  663TIP3    H1 1934   0.814   2.561   1.345
  663TIP3    H2 1935   0.694   2.497   1.410
  664TIP3   OH2 1936   2.978   2.469   2.007
  664TIP3    H1 1937   2.922   2.540   2.038
  664TIP3    H2 1938   2.938   2.439   1.926
  665TIP3   OH2 1939   1.731   7.373   4.512
  665TIP3    H1 1940   1.698   7.397   4.599
  665TIP3    H2 1941   1.814   7.421   4.503
  666TIP3   OH2 1942   3.848   5.729   6.623
  666TIP3    H1 1943   3.824   5.703   6.711
  666TIP3    H2 1944   3.944   5.733   6.624
  667TIP3   OH2 1945   8.058   2.112   1.547
  667TIP3    H1 1946   8.117   2.100   1.473
  667TIP3    H2 1947   8.090   2.052   1.614
  668TIP3   OH2 1948   2.411   2.739   3.922
  668TIP3    H1 1949   2.450   2.670   3.868
  668TIP3    H2 1950   2.320   2.743   3.892
  669TIP3   OH2 1951   6.379   7.565   0.938
  669TIP3    H1 1952   6.345   7.537   1.024
  669TIP3    H2 1953   6.469   7.592   0.956
  670TIP3   OH2 1954   5.327   2.015   2.651
  670TIP3    H1 1955   5.374   2.032   2.569
  670TIP3    H2 1956   5.335   2.097   2.700
  671TIP3   OH2 1957   1.944   0.437   0.370
  671TIP3    H1 1958   2.040   0.432   0.367
  671TIP3    H2 1959   1.917   0.424   0.279
  672TIP3   OH2 1960   3.227   0.828   3.286
  672TIP3    H1 1961   3.293   0.783   3.234
  672TIP3    H2 1962   3.275   0.898   3.329
  673TIP3   OH2 1963   5.438   6.252   1.389
  673TIP3    H1 1964   5.481   6.172   1.357
  673TIP3    H2 1965   5.345   6.232   1.385
  674TIP3   OH2 1966   5.149   7.015   1.374
  674TIP3    H1 1967   5.083   7.045   1.313
  674TIP3    H2 1968   5.140   6.920   1.375
  675TIP3   OH2 1969   0.072   2.518   0.856
  675TIP3    H1 1970   0.141   2.452   0.857
  675TIP3    H2 1971   0.115   2.598   0.884
  676TIP3   OH2 1972   0.758   0.574   4.152
  676TIP3    H1 1973   0.839   0.623   4.166
  676TIP3    H2 1974   0.713   0.576   4.236
  677TIP3   OH2 1975   6.426   6.243   1.019
  677TIP3    H1 1976   6.359   6.283   0.962
  677TIP3    H2 1977   6.505   6.242   0.966
  678TIP3   OH2 1978   3.944   5.330   3.487
  678TIP3    H1 1979   3.942   5.419   3.452
  678TIP3    H2 1980   4.037   5.310   3.497
  679TIP3   OH2 1981   5.596   3.233   3.012
  679TIP3    H1 1982   5.641   3.313   3.039
  679TIP3    H2 1983   5.663   3.182   2.967
  680TIP3   OH2 1984   0.131   6.438   0.445
  680TIP3    H1 1985   0.190   6.486   0.387
  680TIP3    H2 1986   0.054   6.420   0.391
  681TIP3   OH2 1987   1.914   3.840   4.002
  681TIP3    H1 1988   1.969   3.903   3.957
  681TIP3    H2 1989   1.969   3.762   4.011
  682TIP3   OH2 1990   3.261   7.165   2.035
  682TIP3    H1 1991   3.302   7.079   2.039
  682TIP3    H2 1992   3.322   7.219   1.986
  683TIP3   OH2 1993   3.913   5.493   1.829
  683TIP3    H1 1994   3.923   5.588   1.830
  683TIP3    H2 1995   3.987   5.460   1.880
  684TIP3   OH2 1996   0.313   2.423   0.268
  684TIP3    H1 1997   0.352   2.498   0.224
  684TIP3    H2 1998   0.264   2.462   0.341
  685TIP3   OH2 1999   3.757   3.600   2.950
  685TIP3    H1 2000   3.720   3.612   3.037
  685TIP3    H2 2001   3.689   3.553   2.901
  686TIP3   OH2 2002   4.021   3.660   1.199
  686TIP3    H1 2003   4.022   3.565   1.210
  686TIP3    H2 2004   3.944   3.678   1.145
  687TIP3   OH2 2005   6.170   6.698   5.165
  687TIP3    H1 2006   6.157   6.603   5.164
  687TIP3    H2 2007   6.265   6.709   5.158
  688TIP3   OH2 2008   2.255   3.439   5.453
  688TIP3    H1 2009   2.191   3.504   5.425
  688TIP3    H2 2010   2.211   3.390   5.523
  689TIP3   OH2 2011   3.121   2.094   0.086
  689TIP3    H1 2012   3.069   2.168   0.054
  689TIP3    H2 2013   3.157   2.054   0.007
  690TIP3   OH2 2014   1.572   4.019   1.961
  690TIP3    H1 2015   1.517   4.074   2.018
  690TIP3    H2 2016   1.636   3.980   2.021
  691TIP3   OH2 2017   3.201   1.479   5.098
  691TIP3    H1 2018   3.192   1.417   5.170
  691TIP3    H2 2019   3.113   1.485   5.060
  692TIP3   OH2 2020   6.084   4.375   5.953
  692TIP3    H1 2021   6.151   4.398   5.888
  692TIP3    H2 2022   6.047   4.293   5.922
  693TIP3   OH2 2023   6.798   6.123   2.607
  693TIP3    H1 2024   6.753   6.206   2.620
  693TIP3    H2 2025   6.768   6.067   2.679
  694TIP3   OH2 2026   3.799   0.810   2.554
  694TIP3    H1 2027   3.839   0.791   2.638
  694TIP3    H2 2028   3.706   0.786   2.565
  695TIP3   OH2 2029   3.163   4.054   4.764
  695TIP3    H1 2030   3.229   3.986   4.750
  695TIP3    H2 2031   3.173   4.113   4.690
  696TIP3   OH2 2032   6.152   7.686   0.191
  696TIP3    H1 2033   6.233   7.713   0.148
  696TIP3    H2 2034   6.177   7.672   0.282
  697TIP3   OH2 2035   0.027   4.758   3.123
  697TIP3    H1 2036   0.046   4.697   3.195
  697TIP3    H2 2037   0.052   4.844   3.157
  698TIP3   OH2 2038   7.698   5.237   3.786
  698TIP3    H1 2039   7.677   5.307   3.725
  698TIP3    H2 2040   7.763   5.274   3.844
  699TIP3   OH2 2041   8.130   6.007   0.693
  699TIP3    H1 2042   8.212   5.961   0.711
  699TIP3    H2 2043   8.063   5.951   0.732
  700TIP3   OH2 2044   6.205   2.336   0.660
  700TIP3    H1 2045   6.124   2.344   0.711
  700TIP3    H2 2046   6.221   2.242   0.656
  701TIP3   OH2 2047   6.762   7.224   5.847
  701TIP3    H1 2048   6.833   7.211   5.785
  701TIP3    H2 2049   6.805   7.243   5.930
  702TIP3   OH2 2050   0.886   5.279   5.349
  702TIP3    H1 2051   0.823   5.230   5.402
  702TIP3    H2 2052   0.836   5.307   5.272
  703TIP3   OH2 2053   0.311   3.210   2.620
  703TIP3    H1 2054   0.358   3.290   2.597
  703TIP3    H2 2055   0.308   3.209   2.715
  704TIP3   OH2 2056   2.691   2.736   0.605
  704TIP3    H1 2057   2.600   2.764   0.616
  704TIP3    H2 2058   2.700   2.659   0.661
  705TIP3   OH2 2059   6.527   2.941   5.513
  705TIP3    H1 2060   6.510   2.861   5.464
  705TIP3    H2 2061   6.546   3.007   5.446
  706TIP3   OH2 2062   5.180   2.959   3.742
  706TIP3    H1 2063   5.223   2.900   3.680
  706TIP3    H2 2064   5.145   3.030   3.688
  707TIP3   OH2 2065   5.992   6.279   1.791
  707TIP3    H1 2066   5.987   6.355   1.733
  707TIP3    H2 2067   5.926   6.219   1.757
  708TIP3   OH2 2068   6.070   3.320   5.946
  708TIP3    H1 2069   6.052   3.264   5.870
  708TIP3    H2 2070   6.159   3.353   5.930
  709TIP3   OH2 2071   7.984   4.602   2.261
  709TIP3    H1 2072   7.902   4.605   2.211
  709TIP3    H2 2073   7.972   4.665   2.332
  710TIP3   OH2 2074   5.554   3.471   3.573
  710TIP3    H1 2075   5.619   3.541   3.578
  710TIP3    H2 2076   5.553   3.433   3.660
  711TIP3   OH2 2077   7.423   6.695   5.897
  711TIP3    H1 2078   7.449   6.788   5.896
  711TIP3    H2 2079   7.505   6.647   5.889
  712TIP3   OH2 2080   1.841   2.532   5.151
  712TIP3    H1 2081   1.798   2.450   5.172
  712TIP3    H2 2082   1.873   2.565   5.235
  713TIP3   OH2 2083   6.790   4.131   2.587
  713TIP3    H1 2084   6.732   4.066   2.548
  713TIP3    H2 2085   6.874   4.118   2.542
  714TIP3   OH2 2086   5.537   5.368   2.667
  714TIP3    H1 2087   5.596   5.318   2.611
  714TIP3    H2 2088   5.456   5.317   2.670
  715TIP3   OH2 2089   5.683   2.011   1.008
  715TIP3    H1 2090   5.618   1.987   0.942
  715TIP3    H2 2091   5.765   1.975   0.976
  716TIP3   OH2 2092   0.617   0.962   2.669
  716TIP3    H1 2093   0.532   1.004   2.674
  716TIP3    H2 2094   0.679   1.028   2.699
  717TIP3   OH2 2095   3.200   6.956   1.801
  717TIP3    H1 2096   3.126   7.010   1.829
  717TIP3    H2 2097   3.177   6.927   1.713
  718TIP3   OH2 2098   6.815   0.276   4.974
  718TIP3    H1 2099   6.867   0.271   5.054
  718TIP3    H2 2100   6.744   0.337   4.995
  719TIP3   OH2 2101   4.449   4.482   1.099
  719TIP3    H1 2102   4.451   4.413   1.166
  719TIP3    H2 2103   4.385   4.452   1.035
  720TIP3   OH2 2104   7.214   5.028   3.420
  720TIP3    H1 2105   7.209   4.994   3.510
  720TIP3    H2 2106   7.133   5.078   3.409
  721TIP3   OH2 2107   5.858   5.912   0.909
  721TIP3    H1 2108   5.772   5.943   0.880
  721TIP3    H2 2109   5.901   5.991   0.944
  722TIP3   OH2 2110   0.476   1.919   1.875
  722TIP3    H1 2111   0.503   1.999   1.830
  722TIP3    H2 2112   0.517   1.848   1.826
  723TIP3   OH2 2113   3.850   4.749   0.657
  723TIP3    H1 2114   3.893   4.830   0.629
  723TIP3    H2 2115   3.913   4.680   0.637
  724TIP3   OH2 2116   6.199   2.598   6.068
  724TIP3    H1 2117   6.160   2.656   6.002
  724TIP3    H2 2118   6.245   2.531   6.017
  725TIP3   OH2 2119   3.796   1.978   1.172
  725TIP3    H1 2120   3.855   2.023   1.112
  725TIP3    H2 2121   3.726   2.041   1.190
  726TIP3   OH2 2122   7.167   6.674   0.891
  726TIP3    H1 2123   7.234   6.605   0.892
  726TIP3    H2 2124   7.092   6.634   0.848
  727TIP3   OH2 2125   0.685   3.920   2.457
  727TIP3    H1 2126   0.660   3.973   2.381
  727TIP3    H2 2127   0.631   3.954   2.528
  728TIP3   OH2 2128   1.824   6.246   2.155
  728TIP3    H1 2129   1.847   6.161   2.117
  728TIP3    H2 2130   1.842   6.309   2.085
  729TIP3   OH2 2131   4.204   3.758   5.591
  729TIP3    H1 2132   4.168   3.762   5.503
  729TIP3    H2 2133   4.254   3.676   5.592
  730TIP3   OH2 2134   3.976   4.973   0.545
  730TIP3    H1 2135   4.065   4.960   0.513
  730TIP3    H2 2136   3.920   4.950   0.471
  731TIP3   OH2 2137   7.663   7.802   5.041
  731TIP3    H1 2138   7.632   7.727   5.090
  731TIP3    H2 2139   7.708   7.765   4.965
  732TIP3   OH2 2140   5.835   0.025   3.159
  732TIP3    H1 2141   5.862  -0.058   3.198
  732TIP3    H2 2142   5.745   0.038   3.189
  733TIP3   OH2 2143   7.017   3.810   2.411
  733TIP3    H1 2144   6.999   3.853   2.328
  733TIP3    H2 2145   6.940   3.754   2.426
  734TIP3   OH2 2146   0.199   4.154   3.664
  734TIP3    H1 2147   0.247   4.088   3.713
  734TIP3    H2 2148   0.266   4.200   3.613
  735TIP3   OH2 2149   0.876   2.405   4.397
  735TIP3    H1 2150   0.891   2.385   4.304
  735TIP3    H2 2151   0.807   2.471   4.396
  736TIP3   OH2 2152   0.335   5.046   1.806
  736TIP3    H1 2153   0.375   4.973   1.758
  736TIP3    H2 2154   0.394   5.063   1.879
  737TIP3   OH2 2155   3.399   5.931   0.654
  737TIP3    H1 2156   3.312   5.969   0.644
  737TIP3    H2 2157   3.402   5.859   0.591
  738TIP3   OH2 2158   0.522   3.127   5.319
  738TIP3    H1 2159   0.526   3.117   5.414
  738TIP3    H2 2160   0.454   3.193   5.304
  739TIP3   OH2 2161   4.308   0.028   1.705
  739TIP3    H1 2162   4.270   0.038   1.618
  739TIP3    H2 2163   4.388  -0.024   1.691
  740TIP3   OH2 2164   4.004   3.123   5.872
  740TIP3    H1 2165   4.053   3.063   5.928
  740TIP3    H2 2166   3.945   3.169   5.931
  741TIP3   OH2 2167   1.095   6.521   0.453
  741TIP3    H1 2168   1.062   6.439   0.490
  741TIP3    H2 2169   1.186   6.502   0.430
  742TIP3   OH2 2170   0.203   4.974   0.598
  742TIP3    H1 2171   0.129   5.012   0.550
  742TIP3    H2 2172   0.266   4.952   0.529
  743TIP3   OH2 2173   6.783   2.950   3.761
  743TIP3    H1 2174   6.804   3.040   3.737
  743TIP3    H2 2175   6.688   2.943   3.748
  744TIP3   OH2 2176   6.932   0.916   3.811
  744TIP3    H1 2177   6.901   1.005   3.794
  744TIP3    H2 2178   6.939   0.876   3.724
  745TIP3   OH2 2179   7.292   5.893   6.479
  745TIP3    H1 2180   7.380   5.932   6.476
  745TIP3    H2 2181   7.273   5.885   6.572
  746TIP3   OH2 2182   1.536   6.457   4.067
  746TIP3    H1 2183   1.614   6.416   4.032
  746TIP3    H2 2184   1.538   6.437   4.161
  747TIP3   OH2 2185   3.757   2.874   4.163
  747TIP3    H1 2186   3.669   2.906   4.145
  747TIP3    H2 2187   3.815   2.942   4.127
  748TIP3   OH2 2188   0.842   4.636   6.332
  748TIP3    H1 2189   0.825   4.593   6.416
  748TIP3    H2 2190   0.896   4.711   6.355
  749TIP3   OH2 2191   0.793   1.916   0.783
  749TIP3    H1 2192   0.836   1.939   0.865
  749TIP3    H2 2193   0.756   1.998   0.751
  750TIP3   OH2 2194   3.077   6.379   4.822
  750TIP3    H1 2195   3.024   6.299   4.833
  750TIP3    H2 2196   3.105   6.376   4.731
  751TIP3   OH2 2197   7.688   6.672   6.479
  751TIP3    H1 2198   7.769   6.664   6.427
  751TIP3    H2 2199   7.711   6.638   6.565
  752TIP3   OH2 2200   5.535   1.230   3.242
  752TIP3    H1 2201   5.467   1.171   3.210
  752TIP3    H2 2202   5.500   1.318   3.225
  753TIP3   OH2 2203   1.942   1.450   3.231
  753TIP3    H1 2204   1.994   1.444   3.151
  753TIP3    H2 2205   1.869   1.390   3.216
  754TIP3   OH2 2206   1.830   4.135   6.525
  754TIP3    H1 2207   1.842   4.139   6.620
  754TIP3    H2 2208   1.908   4.088   6.493
  755TIP3   OH2 2209   3.050   6.765   2.359
  755TIP3    H1 2210   3.053   6.859   2.379
  755TIP3    H2 2211   3.125   6.729   2.407
  756TIP3   OH2 2212   7.619   5.594   5.945
  756TIP3    H1 2213   7.644   5.667   5.889
  756TIP3    H2 2214   7.524   5.601   5.952
  757TIP3   OH2 2215   7.485   2.403   0.043
  757TIP3    H1 2216   7.406   2.398   0.096
  757TIP3    H2 2217   7.533   2.478   0.078
  758TIP3   OH2 2218   6.629   0.222   1.827
  758TIP3    H1 2219   6.564   0.261   1.886
  758TIP3    H2 2220   6.592   0.137   1.804
  759TIP3   OH2 2221   0.690   1.999   6.626
  759TIP3    H1 2222   0.753   2.071   6.621
  759TIP3    H2 2223   0.743   1.920   6.629
  760TIP3   OH2 2224   6.253   6.684   6.072
  760TIP3    H1 2225   6.214   6.710   5.988
  760TIP3    H2 2226   6.193   6.718   6.138
  761TIP3   OH2 2227   6.474   0.170   2.377
  761TIP3    H1 2228   6.512   0.125   2.302
  761TIP3    H2 2229   6.526   0.250   2.386
  762TIP3   OH2 2230   6.466   1.238   2.402
  762TIP3    H1 2231   6.456   1.210   2.311
  762TIP3    H2 2232   6.390   1.202   2.447
  763TIP3   OH2 2233   0.420   1.950   1.288
  763TIP3    H1 2234   0.348   2.013   1.301
  763TIP3    H2 2235   0.496   1.993   1.327
  764TIP3   OH2 2236   8.130   4.365   0.719
  764TIP3    H1 2237   8.189   4.439   0.711
  764TIP3    H2 2238   8.097   4.371   0.809
  765TIP3   OH2 2239   2.553   2.467   4.359
  765TIP3    H1 2240   2.504   2.396   4.402
  765TIP3    H2 2241   2.501   2.487   4.281
  766TIP3   OH2 2242   0.353   2.811   6.503
  766TIP3    H1 2243   0.391   2.737   6.455
  766TIP3    H2 2244   0.264   2.818   6.468
  767TIP3   OH2 2245   2.697   6.358   6.579
  767TIP3    H1 2246   2.754   6.388   6.650
  767TIP3    H2 2247   2.725   6.409   6.503
  768TIP3   OH2 2248   3.530   5.475   3.384
  768TIP3    H1 2249   3.534   5.501   3.292
  768TIP3    H2 2250   3.546   5.556   3.432
  769TIP3   OH2 2251   1.516   3.123   6.450
  769TIP3    H1 2252   1.594   3.134   6.395
  769TIP3    H2 2253   1.474   3.045   6.417
  770TIP3   OH2 2254   7.761   1.878   3.382
  770TIP3    H1 2255   7.682   1.907   3.427
  770TIP3    H2 2256   7.744   1.897   3.290
  771TIP3   OH2 2257   7.303   7.507   2.262
  771TIP3    H1 2258   7.315   7.428   2.209
  771TIP3    H2 2259   7.245   7.479   2.333
  772TIP3   OH2 2260   1.653   3.185   4.050
  772TIP3    H1 2261   1.634   3.138   3.969
  772TIP3    H2 2262   1.584   3.157   4.111
  773TIP3   OH2 2263   7.856   3.417   0.572
  773TIP3    H1 2264   7.928   3.384   0.626
  773TIP3    H2 2265   7.841   3.506   0.603
  774TIP3   OH2 2266   2.825   6.278   2.170
  774TIP3    H1 2267   2.905   6.329   2.179
  774TIP3    H2 2268   2.761   6.340   2.134
  775TIP3   OH2 2269   2.420   5.000   0.842
  775TIP3    H1 2270   2.430   5.058   0.766
  775TIP3    H2 2271   2.508   4.964   0.856
  776TIP3   OH2 2272   7.364   2.931   6.601
  776TIP3    H1 2273   7.348   2.905   6.692
  776TIP3    H2 2274   7.283   2.911   6.555
  777TIP3   OH2 2275   0.044   1.746   3.645
  777TIP3    H1 2276   0.080   1.717   3.561
  777TIP3    H2 2277   0.109   1.719   3.710
  778TIP3   OH2 2278   1.485   6.410   1.284
  778TIP3    H1 2279   1.546   6.411   1.358
  778TIP3    H2 2280   1.453   6.319   1.281
  779TIP3   OH2 2281   6.601   0.692   6.721
  779TIP3    H1 2282   6.522   0.737   6.751
  779TIP3    H2 2283   6.634   0.647   6.799
  780TIP3   OH2 2284   2.301   0.325   2.506
  780TIP3    H1 2285   2.273   0.265   2.437
  780TIP3    H2 2286   2.262   0.409   2.482
  781TIP3   OH2 2287   0.628   1.488   3.850
  781TIP3    H1 2288   0.691   1.430   3.893
  781TIP3    H2 2289   0.680   1.536   3.786
  782TIP3   OH2 2290   7.065   7.126   0.518
  782TIP3    H1 2291   7.113   7.068   0.458
  782TIP3    H2 2292   6.989   7.155   0.468
  783TIP3   OH2 2293   4.836   0.613   0.353
  783TIP3    H1 2294   4.883   0.530   0.354
  783TIP3    H2 2295   4.905   0.680   0.356
  784TIP3   OH2 2296   6.544   4.208   3.074
  784TIP3    H1 2297   6.636   4.201   3.047
  784TIP3    H2 2298   6.495   4.212   2.992
  785TIP3   OH2 2299   0.549   2.747   1.211
  785TIP3    H1 2300   0.604   2.695   1.269
  785TIP3    H2 2301   0.466   2.699   1.206
  786TIP3   OH2 2302   6.485   0.924   0.557
  786TIP3    H1 2303   6.411   0.945   0.615
  786TIP3    H2 2304   6.498   0.830   0.568
  787TIP3   OH2 2305   1.030   0.046   3.775
  787TIP3    H1 2306   0.935   0.034   3.773
  787TIP3    H2 2307   1.061   0.003   3.696
  788TIP3   OH2 2308   2.187   0.788   2.246
  788TIP3    H1 2309   2.273   0.757   2.218
  788TIP3    H2 2310   2.138   0.801   2.164
  789TIP3   OH2 2311   0.350   1.098   1.147
  789TIP3    H1 2312   0.376   1.170   1.089
  789TIP3    H2 2313   0.349   1.138   1.234
  790TIP3   OH2 2314   6.797   6.347   4.954
  790TIP3    H1 2315   6.868   6.301   4.997
  790TIP3    H2 2316   6.718   6.297   4.977
  791TIP3   OH2 2317   0.319   6.341   1.217
  791TIP3    H1 2318   0.372   6.384   1.150
  791TIP3    H2 2319   0.233   6.382   1.209
  792TIP3   OH2 2320   2.949   3.556   6.084
  792TIP3    H1 2321   2.942   3.461   6.092
  792TIP3    H2 2322   3.028   3.578   6.133
  793TIP3   OH2 2323   2.662   5.481   1.572
  793TIP3    H1 2324   2.583   5.504   1.523
  793TIP3    H2 2325   2.734   5.520   1.522
  794TIP3   OH2 2326   7.031   6.501   6.285
  794TIP3    H1 2327   7.098   6.547   6.234
  794TIP3    H2 2328   7.065   6.412   6.293
  795TIP3   OH2 2329   4.894   3.505   2.369
  795TIP3    H1 2330   4.822   3.455   2.407
  795TIP3    H2 2331   4.948   3.439   2.325
  796TIP3   OH2 2332   0.436   4.627   2.358
  796TIP3    H1 2333   0.414   4.690   2.288
  796TIP3    H2 2334   0.482   4.557   2.312
  797TIP3   OH2 2335   4.186   5.692   5.600
  797TIP3    H1 2336   4.232   5.772   5.576
  797TIP3    H2 2337   4.238   5.654   5.670
  798TIP3   OH2 2338   2.442   4.771   4.247
  798TIP3    H1 2339   2.470   4.761   4.156
  798TIP3    H2 2340   2.482   4.697   4.293
  799TIP3   OH2 2341   6.349   4.782   1.371
  799TIP3    H1 2342   6.368   4.767   1.463
  799TIP3    H2 2343   6.386   4.868   1.352
  800TIP3   OH2 2344   6.994   5.246   6.010
  800TIP3    H1 2345   6.921   5.185   6.005
  800TIP3    H2 2346   6.965   5.314   6.070
  801TIP3   OH2 2347   4.167   5.029   4.120
  801TIP3    H1 2348   4.201   4.986   4.199
  801TIP3    H2 2349   4.086   4.983   4.101
  802TIP3   OH2 2350   4.502   3.415   4.168
  802TIP3    H1 2351   4.416   3.383   4.197
  802TIP3    H2 2352   4.561   3.399   4.241
  803TIP3   OH2 2353   4.933   2.934   5.011
  803TIP3    H1 2354   4.938   2.945   5.106
  803TIP3    H2 2355   5.020   2.904   4.986
  804TIP3   OH2 2356   4.518   1.275   1.671
  804TIP3    H1 2357   4.489   1.189   1.703
  804TIP3    H2 2358   4.598   1.293   1.721
  805TIP3   OH2 2359   1.747   3.882   0.915
  805TIP3    H1 2360   1.672   3.866   0.972
  805TIP3    H2 2361   1.748   3.808   0.855
  806TIP3   OH2 2362   7.575   0.354   3.865
  806TIP3    H1 2363   7.647   0.291   3.865
  806TIP3    H2 2364   7.613   0.433   3.826
  807TIP3   OH2 2365   1.070   4.547   2.672
  807TIP3    H1 2366   1.165   4.535   2.667
  807TIP3    H2 2367   1.044   4.491   2.745
  808TIP3   OH2 2368   8.133   0.912   3.196
  808TIP3    H1 2369   8.227   0.905   3.215
  808TIP3    H2 2370   8.117   0.841   3.133
  809TIP3   OH2 2371   4.111   4.895   2.402
  809TIP3    H1 2372   4.157   4.815   2.427
  809TIP3    H2 2373   4.057   4.869   2.327
  810TIP3   OH2 2374   7.413   5.719   3.245
  810TIP3    H1 2375   7.471   5.733   3.169
  810TIP3    H2 2376   7.388   5.808   3.271
  811TIP3   OH2 2377   2.749   6.943   0.466
  811TIP3    H1 2378   2.806   6.953   0.542
  811TIP3    H2 2379   2.722   7.032   0.445
  812TIP3   OH2 2380   0.458   4.091   6.146
  812TIP3    H1 2381   0.445   4.137   6.228
  812TIP3    H2 2382   0.548   4.057   6.152
  813TIP3   OH2 2383   2.600   3.066   0.821
  813TIP3    H1 2384   2.541   3.040   0.750
  813TIP3    H2 2385   2.687   3.039   0.792
  814TIP3   OH2 2386   4.115   5.693   1.571
  814TIP3    H1 2387   4.134   5.600   1.577
  814TIP3    H2 2388   4.019   5.699   1.576
  815TIP3   OH2 2389   1.751   1.055   6.388
  815TIP3    H1 2390   1.833   1.011   6.409
  815TIP3    H2 2391   1.743   1.124   6.454
  816TIP3   OH2 2392   5.241   2.963   1.760
  816TIP3    H1 2393   5.175   2.945   1.693
  816TIP3    H2 2394   5.201   2.935   1.842
  817TIP3   OH2 2395   6.284   0.410   5.953
  817TIP3    H1 2396   6.274   0.497   5.990
  817TIP3    H2 2397   6.195   0.374   5.949
  818TIP3   OH2 2398   3.915   4.801   1.575
  818TIP3    H1 2399   3.977   4.839   1.513
  818TIP3    H2 2400   3.966   4.739   1.626
  819TIP3   OH2 2401   6.345   4.170   0.240
  819TIP3    H1 2402   6.258   4.138   0.216
  819TIP3    H2 2403   6.336   4.196   0.332
  820TIP3   OH2 2404   6.201   7.145   3.415
  820TIP3    H1 2405   6.293   7.161   3.393
  820TIP3    H2 2406   6.152   7.192   3.348
  821TIP3   OH2 2407   2.639   7.728   1.694
  821TIP3    H1 2408   2.707   7.683   1.744
  821TIP3    H2 2409   2.687   7.788   1.637
  822TIP3   OH2 2410   7.128   0.313   1.016
  822TIP3    H1 2411   7.080   0.308   0.934
  822TIP3    H2 2412   7.204   0.368   0.996
  823TIP3   OH2 2413   6.912   7.803   5.130
  823TIP3    H1 2414   6.822   7.818   5.159
  823TIP3    H2 2415   6.914   7.838   5.041
  824TIP3   OH2 2416   7.270   7.761   4.759
  824TIP3    H1 2417   7.345   7.762   4.818
  824TIP3    H2 2418   7.307   7.730   4.676
  825TIP3   OH2 2419   0.948   7.226   0.069
  825TIP3    H1 2420   0.866   7.178   0.052
  825TIP3    H2 2421   1.017   7.163   0.048
  826TIP3   OH2 2422   0.473   3.846   3.237
  826TIP3    H1 2423   0.466   3.765   3.186
  826TIP3    H2 2424   0.417   3.908   3.192
  827TIP3   OH2 2425   6.569   0.032   3.022
  827TIP3    H1 2426   6.494   0.050   2.965
  827TIP3    H2 2427   6.644   0.069   2.976
  828TIP3   OH2 2428   0.328   4.576   1.807
  828TIP3    H1 2429   0.297   4.567   1.717
  828TIP3    H2 2430   0.363   4.665   1.811
  829TIP3   OH2 2431   3.089   2.115   3.262
  829TIP3    H1 2432   3.163   2.065   3.226
  829TIP3    H2 2433   3.023   2.113   3.192
  830TIP3   OH2 2434   8.234   6.568   0.040
  830TIP3    H1 2435   8.176   6.644   0.050
  830TIP3    H2 2436   8.314   6.604   0.002
  831TIP3   OH2 2437   5.801   7.656   5.509
  831TIP3    H1 2438   5.895   7.648   5.498
  831TIP3    H2 2439   5.768   7.671   5.420
  832TIP3   OH2 2440   6.673   7.528   1.359
  832TIP3    H1 2441   6.719   7.444   1.350
  832TIP3    H2 2442   6.743   7.592   1.370
  833TIP3   OH2 2443   3.260   5.193   0.666
  833TIP3    H1 2444   3.304   5.214   0.584
  833TIP3    H2 2445   3.195   5.263   0.678
  834TIP3   OH2 2446   2.499   3.540   1.624
  834TIP3    H1 2447   2.433   3.568   1.561
  834TIP3    H2 2448   2.503   3.611   1.688
  835TIP3   OH2 2449   0.332   1.686   5.090
  835TIP3    H1 2450   0.370   1.774   5.095
  835TIP3    H2 2451   0.350   1.647   5.175
  836TIP3   OH2 2452   6.836   1.264   5.041
  836TIP3    H1 2453   6.835   1.168   5.043
  836TIP3    H2 2454   6.897   1.289   5.110
  837TIP3   OH2 2455   1.790   3.836   0.382
  837TIP3    H1 2456   1.850   3.816   0.454
  837TIP3    H2 2457   1.762   3.926   0.398
  838TIP3   OH2 2458   5.782   1.643   2.568
  838TIP3    H1 2459   5.806   1.731   2.537
  838TIP3    H2 2460   5.865   1.596   2.572
  839TIP3   OH2 2461   1.693   1.000   5.003
  839TIP3    H1 2462   1.755   1.009   4.931
  839TIP3    H2 2463   1.746   1.007   5.082
  840TIP3   OH2 2464   8.101   2.057   4.140
  840TIP3    H1 2465   8.122   1.985   4.200
  840TIP3    H2 2466   8.107   2.018   4.053
  841TIP3   OH2 2467   0.586   2.988   3.117
  841TIP3    H1 2468   0.643   2.982   3.040
  841TIP3    H2 2469   0.504   3.024   3.084
  842TIP3   OH2 2470   4.783   6.232   0.176
  842TIP3    H1 2471   4.777   6.202   0.085
  842TIP3    H2 2472   4.796   6.326   0.169
  843TIP3   OH2 2473   6.201   6.718   1.416
  843TIP3    H1 2474   6.111   6.722   1.382
  843TIP3    H2 2475   6.252   6.773   1.356
  844TIP3   OH2 2476   7.949   7.514   1.905
  844TIP3    H1 2477   7.913   7.431   1.876
  844TIP3    H2 2478   7.936   7.573   1.830
  845TIP3   OH2 2479   6.988   2.986   5.353
  845TIP3    H1 2480   6.903   2.958   5.317
  845TIP3    H2 2481   7.027   3.039   5.283
  846TIP3   OH2 2482   2.923   5.292   3.636
  846TIP3    H1 2483   2.867   5.219   3.609
  846TIP3    H2 2484   2.982   5.305   3.562
  847TIP3   OH2 2485   1.646   6.644   1.799
  847TIP3    H1 2486   1.701   6.700   1.854
  847TIP3    H2 2487   1.565   6.634   1.849
  848TIP3   OH2 2488   5.508   1.998   3.403
  848TIP3    H1 2489   5.522   1.953   3.320
  848TIP3    H2 2490   5.591   2.042   3.421
  849TIP3   OH2 2491   3.563   1.444   5.238
  849TIP3    H1 2492   3.560   1.348   5.242
  849TIP3    H2 2493   3.488   1.467   5.183
  850TIP3   OH2 2494   3.410   5.114   1.485
  850TIP3    H1 2495   3.456   5.196   1.501
  850TIP3    H2 2496   3.481   5.049   1.474
  851TIP3   OH2 2497   5.617   2.206   1.813
  851TIP3    H1 2498   5.707   2.174   1.805
  851TIP3    H2 2499   5.572   2.173   1.735
  852TIP3   OH2 2500   0.780   1.362   6.582
  852TIP3    H1 2501   0.733   1.286   6.551
  852TIP3    H2 2502   0.842   1.382   6.511
  853TIP3   OH2 2503   6.232   1.951   5.697
  853TIP3    H1 2504   6.244   2.015   5.626
  853TIP3    H2 2505   6.211   1.869   5.651
  854TIP3   OH2 2506   5.627   2.406   2.088
  854TIP3    H1 2507   5.542   2.363   2.082
  854TIP3    H2 2508   5.608   2.499   2.082
  855TIP3   OH2 2509   4.628   0.912   0.050
  855TIP3    H1 2510   4.723   0.929   0.057
  855TIP3    H2 2511   4.607   0.863   0.130
  856TIP3   OH2 2512   2.105   2.471   4.164
  856TIP3    H1 2513   2.080   2.418   4.088
  856TIP3    H2 2514   2.023   2.482   4.213
  857TIP3   OH2 2515   8.117   1.970   4.765
  857TIP3    H1 2516   8.205   1.961   4.728
  857TIP3    H2 2517   8.111   2.062   4.790
  858TIP3   OH2 2518   7.156   2.198   0.114
  858TIP3    H1 2519   7.118   2.136   0.176
  858TIP3    H2 2520   7.195   2.266   0.169
  859TIP3   OH2 2521   7.364   7.396   1.341
  859TIP3    H1 2522   7.345   7.392   1.435
  859TIP3    H2 2523   7.457   7.376   1.334
  860TIP3   OH2 2524   0.275   7.047   0.315
  860TIP3    H1 2525   0.210   7.100   0.361
  860TIP3    H2 2526   0.237   6.959   0.314
  861TIP3   OH2 2527   2.016   7.079   3.196
  861TIP3    H1 2528   1.940   7.131   3.223
  861TIP3    H2 2529   2.090   7.119   3.241
  862TIP3   OH2 2530   4.229   5.607   0.046
  862TIP3    H1 2531   4.216   5.518   0.015
  862TIP3    H2 2532   4.208   5.604   0.139
  863TIP3   OH2 2533   5.026   3.149   0.180
  863TIP3    H1 2534   4.931   3.149   0.178
  863TIP3    H2 2535   5.051   3.082   0.117
  864TIP3   OH2 2536   3.571   2.292   6.032
  864TIP3    H1 2537   3.476   2.283   6.035
  864TIP3    H2 2538   3.586   2.376   5.989
  865TIP3   OH2 2539   5.438   1.134   5.939
  865TIP3    H1 2540   5.502   1.183   5.888
  865TIP3    H2 2541   5.378   1.201   5.972
  866TIP3   OH2 2542   5.341   7.563   4.041
  866TIP3    H1 2543   5.259   7.543   4.084
  866TIP3    H2 2544   5.406   7.508   4.085
  867TIP3   OH2 2545   3.535   7.613   4.025
  867TIP3    H1 2546   3.440   7.609   4.028
  867TIP3    H2 2547   3.560   7.548   3.959
  868TIP3   OH2 2548   7.393   2.548   5.671
  868TIP3    H1 2549   7.416   2.611   5.603
  868TIP3    H2 2550   7.333   2.595   5.729
  869TIP3   OH2 2551   7.871   1.474   4.497
  869TIP3    H1 2552   7.922   1.531   4.439
  869TIP3    H2 2553   7.820   1.419   4.437
  870TIP3   OH2 2554   5.965   7.225   1.281
  870TIP3    H1 2555   6.028   7.297   1.287
  870TIP3    H2 2556   6.018   7.146   1.272
  871TIP3   OH2 2557   1.933   5.861   2.899
  871TIP3    H1 2558   1.954   5.872   2.806
  871TIP3    H2 2559   1.886   5.778   2.903
  872TIP3   OH2 2560   0.248   6.813   2.400
  872TIP3    H1 2561   0.276   6.721   2.396
  872TIP3    H2 2562   0.191   6.824   2.324
  873TIP3   OH2 2563   7.492   4.615   1.254
  873TIP3    H1 2564   7.491   4.541   1.314
  873TIP3    H2 2565   7.461   4.689   1.307
  874TIP3   OH2 2566   0.234   6.503   5.433
  874TIP3    H1 2567   0.159   6.552   5.468
  874TIP3    H2 2568   0.261   6.553   5.357
  875TIP3   OH2 2569   4.688   3.013   2.926
  875TIP3    H1 2570   4.629   3.043   2.857
  875TIP3    H2 2571   4.645   2.936   2.962
  876TIP3   OH2 2572   3.769   7.487   2.469
  876TIP3    H1 2573   3.746   7.577   2.445
  876TIP3    H2 2574   3.686   7.446   2.492
  877TIP3   OH2 2575   1.389   1.416   6.690
  877TIP3    H1 2576   1.451   1.347   6.667
  877TIP3    H2 2577   1.333   1.424   6.613
  878TIP3   OH2 2578   6.465   3.470   4.717
  878TIP3    H1 2579   6.516   3.442   4.793
  878TIP3    H2 2580   6.501   3.556   4.695
  879TIP3   OH2 2581   8.073   3.734   3.461
  879TIP3    H1 2582   8.094   3.804   3.399
  879TIP3    H2 2583   8.118   3.657   3.425
  880TIP3   OH2 2584   4.728   1.680   2.551
  880TIP3    H1 2585   4.803   1.725   2.590
  880TIP3    H2 2586   4.723   1.716   2.462
  881TIP3   OH2 2587   3.183   0.012   1.654
  881TIP3    H1 2588   3.158   0.001   1.746
  881TIP3    H2 2589   3.204  -0.076   1.623
  882TIP3   OH2 2590   3.300   7.347   1.154
  882TIP3    H1 2591   3.321   7.404   1.080
  882TIP3    H2 2592   3.302   7.259   1.117
  883TIP3   OH2 2593   1.552   1.796   1.859
  883TIP3    H1 2594   1.555   1.878   1.810
  883TIP3    H2 2595   1.492   1.741   1.809
  884TIP3   OH2 2596   5.495   7.383   3.664
  884TIP3    H1 2597   5.560   7.415   3.602
  884TIP3    H2 2598   5.537   7.394   3.750
  885TIP3   OH2 2599   2.791   4.729   6.470
  885TIP3    H1 2600   2.858   4.749   6.536
  885TIP3    H2 2601   2.728   4.673   6.516
  886TIP3   OH2 2602   7.108   7.098   5.566
  886TIP3    H1 2603   7.036   7.041   5.591
  886TIP3    H2 2604   7.084   7.131   5.480
  887TIP3   OH2 2605   4.622   6.810   3.731
  887TIP3    H1 2606   4.712   6.785   3.751
  887TIP3    H2 2607   4.576   6.727   3.720
  888TIP3   OH2 2608   5.261   1.931   2.318
  888TIP3    H1 2609   5.348   1.930   2.359
  888TIP3    H2 2610   5.201   1.950   2.390
  889TIP3   OH2 2611   5.516   1.659   2.651
  889TIP3    H1 2612   5.596   1.649   2.599
  889TIP3    H2 2613   5.498   1.570   2.684
  890TIP3   OH2 2614   0.282   1.610   1.012
  890TIP3    H1 2615   0.316   1.574   1.094
  890TIP3    H2 2616   0.226   1.542   0.976
  891TIP3   OH2 2617   5.170   3.537   4.910
  891TIP3    H1 2618   5.113   3.496   4.975
  891TIP3    H2 2619   5.128   3.620   4.890
  892TIP3   OH2 2620   4.157   3.561   0.013
  892TIP3    H1 2621   4.172   3.550   0.107
  892TIP3    H2 2622   4.236   3.603  -0.020
  893TIP3   OH2 2623   1.269   3.639   1.343
  893TIP3    H1 2624   1.303   3.683   1.266
  893TIP3    H2 2625   1.346   3.619   1.396
  894TIP3   OH2 2626   5.912   6.256   5.090
  894TIP3    H1 2627   5.855   6.322   5.130
  894TIP3    H2 2628   5.851   6.196   5.047
  895TIP3   OH2 2629   8.265   0.924   1.919
  895TIP3    H1 2630   8.257   0.844   1.971
  895TIP3    H2 2631   8.346   0.965   1.949
  896TIP3   OH2 2632   0.684   1.002   5.941
  896TIP3    H1 2633   0.635   0.930   5.981
  896TIP3    H2 2634   0.748   0.960   5.884
  897TIP3   OH2 2635   6.544   1.045   1.839
  897TIP3    H1 2636   6.590   1.007   1.764
  897TIP3    H2 2637   6.613   1.067   1.901
  898TIP3   OH2 2638   3.394   3.250   1.124
  898TIP3    H1 2639   3.365   3.306   1.196
  898TIP3    H2 2640   3.324   3.257   1.059
  899TIP3   OH2 2641   3.891   2.463   2.273
  899TIP3    H1 2642   3.968   2.408   2.255
  899TIP3    H2 2643   3.822   2.425   2.219
  900TIP3   OH2 2644   1.224   1.889   0.587
  900TIP3    H1 2645   1.260   1.810   0.627
  900TIP3    H2 2646   1.258   1.961   0.640
  901TIP3   OH2 2647   5.723   5.884   4.288
  901TIP3    H1 2648   5.648   5.926   4.246
  901TIP3    H2 2649   5.737   5.935   4.368
  902TIP3   OH2 2650   0.559   5.574   1.890
  902TIP3    H1 2651   0.522   5.511   1.951
  902TIP3    H2 2652   0.488   5.635   1.873
  903TIP3   OH2 2653   1.672   5.101   4.458
  903TIP3    H1 2654   1.648   5.058   4.540
  903TIP3    H2 2655   1.768   5.096   4.456
  904TIP3   OH2 2656   0.475   4.070   4.574
  904TIP3    H1 2657   0.423   4.048   4.651
  904TIP3    H2 2658   0.562   4.033   4.593
  905TIP3   OH2 2659   0.025   6.731   3.747
  905TIP3    H1 2660   0.007   6.806   3.690
  905TIP3    H2 2661   0.077   6.768   3.818
  906TIP3   OH2 2662   4.496   3.457   3.900
  906TIP3    H1 2663   4.552   3.526   3.865
  906TIP3    H2 2664   4.469   3.490   3.986
  907TIP3   OH2 2665   8.181   1.968   0.565
  907TIP3    H1 2666   8.116   2.003   0.504
  907TIP3    H2 2667   8.181   1.874   0.549
  908TIP3   OH2 2668   2.118   2.641   4.996
  908TIP3    H1 2669   2.081   2.723   4.962
  908TIP3    H2 2670   2.043   2.594   5.033
  909TIP3   OH2 2671   4.397   5.012   0.611
  909TIP3    H1 2672   4.385   4.925   0.650
  909TIP3    H2 2673   4.316   5.028   0.563
  910TIP3   OH2 2674   3.434   2.417   2.633
  910TIP3    H1 2675   3.522   2.394   2.664
  910TIP3    H2 2676   3.379   2.412   2.712
  911TIP3   OH2 2677   2.646   6.932   2.716
  911TIP3    H1 2678   2.570   6.896   2.670
  911TIP3    H2 2679   2.635   7.027   2.710
  912TIP3   OH2 2680   5.232   0.730   5.542
  912TIP3    H1 2681   5.264   0.646   5.576
  912TIP3    H2 2682   5.201   0.709   5.453
  913TIP3   OH2 2683   8.258   7.592   4.873
  913TIP3    H1 2684   8.275   7.680   4.838
  913TIP3    H2 2685   8.233   7.540   4.796
  914TIP3   OH2 2686   7.046   7.052   4.423
  914TIP3    H1 2687   7.049   6.963   4.458
  914TIP3    H2 2688   7.106   7.102   4.479
  915TIP3   OH2 2689   1.134   0.593   1.265
  915TIP3    H1 2690   1.080   0.632   1.197
  915TIP3    H2 2691   1.074   0.536   1.314
  916TIP3   OH2 2692   6.667   5.330   2.163
  916TIP3    H1 2693   6.670   5.421   2.192
  916TIP3    H2 2694   6.574   5.310   2.155
  917TIP3   OH2 2695   0.925   0.230   4.235
  917TIP3    H1 2696   0.923   0.323   4.212
  917TIP3    H2 2697   0.964   0.187   4.159
  918TIP3   OH2 2698   7.594   2.368   1.665
  918TIP3    H1 2699   7.504   2.344   1.687
  918TIP3    H2 2700   7.589   2.461   1.644
  919TIP3   OH2 2701   8.076   2.501   2.441
  919TIP3    H1 2702   7.998   2.448   2.425
  919TIP3    H2 2703   8.049   2.591   2.421
  920TIP3   OH2 2704   2.737   3.809   6.482
  920TIP3    H1 2705   2.808   3.754   6.516
  920TIP3    H2 2706   2.756   3.817   6.389
  921TIP3   OH2 2707   3.865   0.538   1.260
  921TIP3    H1 2708   3.885   0.545   1.353
  921TIP3    H2 2709   3.927   0.474   1.227
  922TIP3   OH2 2710   5.358   4.954   3.836
  922TIP3    H1 2711   5.430   4.964   3.773
  922TIP3    H2 2712   5.379   5.014   3.907
  923TIP3   OH2 2713   5.311   5.460   2.124
  923TIP3    H1 2714   5.233   5.424   2.166
  923TIP3    H2 2715   5.376   5.463   2.194
  924TIP3   OH2 2716   4.682   4.353   3.369
  924TIP3    H1 2717   4.738   4.409   3.316
  924TIP3    H2 2718   4.724   4.267   3.367
  925TIP3   OH2 2719   4.809   6.994   0.244
  925TIP3    H1 2720   4.737   6.971   0.303
  925TIP3    H2 2721   4.795   7.088   0.226
  926TIP3   OH2 2722   3.406   1.608   5.904
  926TIP3    H1 2723   3.471   1.551   5.945
  926TIP3    H2 2724   3.448   1.695   5.903
  927TIP3   OH2 2725   4.218   7.307   2.219
  927TIP3    H1 2726   4.199   7.378   2.157
  927TIP3    H2 2727   4.153   7.240   2.198
  928TIP3   OH2 2728   5.284   0.644   3.696
  928TIP3    H1 2729   5.312   0.577   3.633
  928TIP3    H2 2730   5.202   0.610   3.732
  929TIP3   OH2 2731   5.241   5.355   3.859
  929TIP3    H1 2732   5.164   5.299   3.849
  929TIP3    H2 2733   5.206   5.442   3.874
  930TIP3   OH2 2734   3.248   6.054   2.948
  930TIP3    H1 2735   3.202   5.972   2.933
  930TIP3    H2 2736   3.250   6.063   3.044
  931TIP3   OH2 2737   6.134   3.271   5.526
  931TIP3    H1 2738   6.218   3.263   5.480
  931TIP3    H2 2739   6.152   3.236   5.614
  932TIP3   OH2 2740   0.380   4.629   1.120
  932TIP3    H1 2741   0.471   4.601   1.106
  932TIP3    H2 2742   0.333   4.596   1.044
  933TIP3   OH2 2743   0.121   4.864   0.826
  933TIP3    H1 2744   0.210   4.836   0.846
  933TIP3    H2 2745   0.125   4.892   0.734
  934TIP3   OH2 2746   1.481   2.970   2.600
  934TIP3    H1 2747   1.516   2.921   2.526
  934TIP3    H2 2748   1.407   2.919   2.630
  935TIP3   OH2 2749   2.457   3.861   4.758
  935TIP3    H1 2750   2.373   3.898   4.785
  935TIP3    H2 2751   2.520   3.932   4.772
  936TIP3   OH2 2752   3.962   0.209   1.036
  936TIP3    H1 2753   4.021   0.167   0.973
  936TIP3    H2 2754   3.964   0.302   1.013
  937TIP3   OH2 2755   1.249   4.403   6.574
  937TIP3    H1 2756   1.319   4.405   6.640
  937TIP3    H2 2757   1.168   4.398   6.625
  938TIP3   OH2 2758   0.299   6.111   5.936
  938TIP3    H1 2759   0.286   6.053   6.011
  938TIP3    H2 2760   0.389   6.142   5.944
  939TIP3   OH2 2761   3.088   5.396   0.679
  939TIP3    H1 2762   3.059   5.421   0.591
  939TIP3    H2 2763   3.146   5.467   0.707
  940TIP3   OH2 2764   6.793   5.836   1.204
  940TIP3    H1 2765   6.854   5.908   1.220
  940TIP3    H2 2766   6.817   5.801   1.119
  941TIP3   OH2 2767   4.342   0.348   3.541
  941TIP3    H1 2768   4.427   0.366   3.500
  941TIP3    H2 2769   4.361   0.343   3.635
  942TIP3   OH2 2770   5.155   2.586   5.436
  942TIP3    H1 2771   5.105   2.532   5.375
  942TIP3    H2 2772   5.185   2.660   5.383
  943TIP3   OH2 2773   0.429   2.227   4.123
  943TIP3    H1 2774   0.434   2.133   4.108
  943TIP3    H2 2775   0.449   2.238   4.217
  944TIP3   OH2 2776   6.229   1.450   2.511
  944TIP3    H1 2777   6.219   1.531   2.561
  944TIP3    H2 2778   6.320   1.449   2.483
  945TIP3   OH2 2779   0.075   6.797   0.321
  945TIP3    H1 2780   0.101   6.713   0.284
  945TIP3    H2 2781   0.088   6.787   0.416
  946TIP3   OH2 2782   5.549   1.842   3.970
  946TIP3    H1 2783   5.516   1.767   3.919
  946TIP3    H2 2784   5.474   1.900   3.978
  947TIP3   OH2 2785   5.500   0.636   3.085
  947TIP3    H1 2786   5.488   0.728   3.061
  947TIP3    H2 2787   5.529   0.594   3.004
  948TIP3   OH2 2788   0.735   7.614   2.406
  948TIP3    H1 2789   0.722   7.580   2.317
  948TIP3    H2 2790   0.796   7.552   2.446
  949TIP3   OH2 2791   8.117   3.306   5.226
  949TIP3    H1 2792   8.098   3.387   5.178
  949TIP3    H2 2793   8.062   3.240   5.184
  950TIP3   OH2 2794   6.257   2.796   2.572
  950TIP3    H1 2795   6.220   2.747   2.498
  950TIP3    H2 2796   6.181   2.838   2.613
  951TIP3   OH2 2797   4.608   4.505   3.595
  951TIP3    H1 2798   4.634   4.475   3.508
  951TIP3    H2 2799   4.670   4.574   3.616
  952TIP3   OH2 2800   4.764   5.555   3.475
  952TIP3    H1 2801   4.831   5.501   3.434
  952TIP3    H2 2802   4.714   5.495   3.531
  953TIP3   OH2 2803   4.269   5.965   4.903
  953TIP3    H1 2804   4.332   5.929   4.965
  953TIP3    H2 2805   4.221   5.890   4.870
  954TIP3   OH2 2806   2.870   3.300   1.462
  954TIP3    H1 2807   2.843   3.390   1.445
  954TIP3    H2 2808   2.833   3.249   1.390
  955TIP3   OH2 2809   1.763   4.441   6.327
  955TIP3    H1 2810   1.712   4.512   6.287
  955TIP3    H2 2811   1.845   4.439   6.279
  956TIP3   OH2 2812   1.681   6.714   4.114
  956TIP3    H1 2813   1.773   6.730   4.134
  956TIP3    H2 2814   1.682   6.637   4.057
  957TIP3   OH2 2815   3.808   3.949   6.109
  957TIP3    H1 2816   3.841   4.023   6.160
  957TIP3    H2 2817   3.713   3.953   6.119
  958TIP3   OH2 2818   1.924   4.231   2.694
  958TIP3    H1 2819   1.994   4.196   2.750
  958TIP3    H2 2820   1.929   4.326   2.707
  959TIP3   OH2 2821   8.220   1.652   5.065
  959TIP3    H1 2822   8.281   1.725   5.056
  959TIP3    H2 2823   8.135   1.690   5.042
  960TIP3   OH2 2824   7.237   3.385   4.255
  960TIP3    H1 2825   7.224   3.303   4.208
  960TIP3    H2 2826   7.152   3.428   4.251
  961TIP3   OH2 2827   7.383   3.410   3.462
  961TIP3    H1 2828   7.444   3.436   3.530
  961TIP3    H2 2829   7.298   3.442   3.492
  962TIP3   OH2 2830   7.536   2.116   4.816
  962TIP3    H1 2831   7.577   2.145   4.734
  962TIP3    H2 2832   7.451   2.081   4.788
  963TIP3   OH2 2833   6.075   7.148   4.455
  963TIP3    H1 2834   6.105   7.156   4.364
  963TIP3    H2 2835   6.039   7.060   4.461
  964TIP3   OH2 2836   3.869   6.687   1.080
  964TIP3    H1 2837   3.939   6.752   1.088
  964TIP3    H2 2838   3.829   6.705   0.996
  965TIP3   OH2 2839   7.756   4.528   0.975
  965TIP3    H1 2840   7.758   4.503   1.068
  965TIP3    H2 2841   7.848   4.536   0.950
  966TIP3   OH2 2842   7.373   5.744   5.623
  966TIP3    H1 2843   7.323   5.662   5.622
  966TIP3    H2 2844   7.316   5.806   5.669
  967TIP3   OH2 2845   7.661   0.222   5.324
  967TIP3    H1 2846   7.743   0.203   5.370
  967TIP3    H2 2847   7.665   0.316   5.307
  968TIP3   OH2 2848   3.146   4.351   2.729
  968TIP3    H1 2849   3.159   4.298   2.808
  968TIP3    H2 2850   3.222   4.333   2.674
  969TIP3   OH2 2851   7.174   7.527   5.744
  969TIP3    H1 2852   7.269   7.540   5.737
  969TIP3    H2 2853   7.144   7.600   5.798
  970TIP3   OH2 2854   5.999   6.863   5.335
  970TIP3    H1 2855   6.077   6.820   5.300
  970TIP3    H2 2856   5.926   6.809   5.306
  971TIP3   OH2 2857   1.360   6.032   2.956
  971TIP3    H1 2858   1.346   5.988   3.040
  971TIP3    H2 2859   1.451   6.061   2.958
  972TIP3   OH2 2860   5.779   5.107   2.257
  972TIP3    H1 2861   5.765   5.186   2.309
  972TIP3    H2 2862   5.755   5.035   2.315
  973TIP3   OH2 2863   4.580   3.773   4.753
  973TIP3    H1 2864   4.580   3.840   4.685
  973TIP3    H2 2865   4.508   3.714   4.729
  974TIP3   OH2 2866   3.829   2.091   0.150
  974TIP3    H1 2867   3.764   2.140   0.201
  974TIP3    H2 2868   3.815   2.119   0.060
  975TIP3   OH2 2869   4.003   1.880   2.418
  975TIP3    H1 2870   3.974   1.795   2.384
  975TIP3    H2 2871   3.961   1.887   2.503
  976TIP3   OH2 2872   5.642   7.334   4.375
  976TIP3    H1 2873   5.658   7.404   4.440
  976TIP3    H2 2874   5.649   7.253   4.425
  977TIP3   OH2 2875   1.615   3.051   0.652
  977TIP3    H1 2876   1.688   3.104   0.620
  977TIP3    H2 2877   1.648   3.011   0.733
  978TIP3   OH2 2878   5.967   4.454   1.240
  978TIP3    H1 2879   5.895   4.485   1.185
  978TIP3    H2 2880   5.974   4.520   1.309
  979TIP3   OH2 2881   7.432   4.718   0.228
  979TIP3    H1 2882   7.497   4.738   0.161
  979TIP3    H2 2883   7.350   4.705   0.180
  980TIP3   OH2 2884   3.583   4.315   3.036
  980TIP3    H1 2885   3.559   4.223   3.050
  980TIP3    H2 2886   3.630   4.340   3.115
  981TIP3   OH2 2887   1.549   2.840   2.348
  981TIP3    H1 2888   1.511   2.890   2.276
  981TIP3    H2 2889   1.574   2.757   2.309
  982TIP3   OH2 2890   0.637   6.773   0.970
  982TIP3    H1 2891   0.691   6.808   0.899
  982TIP3    H2 2892   0.581   6.708   0.926
  983TIP3   OH2 2893   6.292   1.092   5.258
  983TIP3    H1 2894   6.377   1.064   5.292
  983TIP3    H2 2895   6.236   1.094   5.336
  984TIP3   OH2 2896   2.689   7.396   6.622
  984TIP3    H1 2897   2.722   7.474   6.667
  984TIP3    H2 2898   2.727   7.401   6.535
  985TIP3   OH2 2899   0.084   4.674   5.442
  985TIP3    H1 2900   0.136   4.674   5.522
  985TIP3    H2 2901   0.074   4.767   5.421
  986TIP3   OH2 2902   7.014   2.743   6.718
  986TIP3    H1 2903   6.956   2.765   6.791
  986TIP3    H2 2904   7.036   2.827   6.678
  987TIP3   OH2 2905   6.451   7.522   1.214
  987TIP3    H1 2906   6.535   7.535   1.258
  987TIP3    H2 2907   6.420   7.611   1.195
  988TIP3   OH2 2908   5.150   3.928   5.331
  988TIP3    H1 2909   5.149   3.860   5.397
  988TIP3    H2 2910   5.116   3.886   5.252
  989TIP3   OH2 2911   7.738   1.300   2.453
  989TIP3    H1 2912   7.700   1.213   2.443
  989TIP3    H2 2913   7.831   1.285   2.469
  990TIP3   OH2 2914   3.353   5.385   5.492
  990TIP3    H1 2915   3.378   5.314   5.433
  990TIP3    H2 2916   3.293   5.438   5.441
  991TIP3   OH2 2917   0.044   4.421   6.200
  991TIP3    H1 2918   0.077   4.363   6.131
  991TIP3    H2 2919   0.045   4.508   6.160
  992TIP3   OH2 2920   7.950   5.513   0.808
  992TIP3    H1 2921   7.967   5.594   0.758
  992TIP3    H2 2922   7.945   5.542   0.899
  993TIP3   OH2 2923   3.005   6.108   5.982
  993TIP3    H1 2924   2.922   6.070   5.954
  993TIP3    H2 2925   3.025   6.065   6.065
  994TIP3   OH2 2926   7.753   7.616   3.413
  994TIP3    H1 2927   7.764   7.639   3.505
  994TIP3    H2 2928   7.826   7.659   3.369
  995TIP3   OH2 2929   2.296   7.578   5.189
  995TIP3    H1 2930   2.294   7.482   5.184
  995TIP3    H2 2931   2.236   7.606   5.120
  996TIP3   OH2 2932   2.047   2.581   5.891
  996TIP3    H1 2933   1.976   2.638   5.860
  996TIP3    H2 2934   2.002   2.517   5.947
  997TIP3   OH2 2935   3.417   5.242   5.009
  997TIP3    H1 2936   3.470   5.318   4.986
  997TIP3    H2 2937   3.446   5.219   5.097
  998TIP3   OH2 2938   4.702   0.990   6.660
  998TIP3    H1 2939   4.652   0.914   6.629
  998TIP3    H2 2940   4.738   0.963   6.744
  999TIP3   OH2 2941   2.743   0.657   2.972
  999TIP3    H1 2942   2.746   0.569   2.935
  999TIP3    H2 2943   2.653   0.685   2.957
 1000TIP3   OH2 2944   6.449   5.936   5.265
 1000TIP3    H1 2945   6.514   5.867   5.247
 1000TIP3    H2 2946   6.446   5.942   5.360
 1001TIP3   OH2 2947   8.266   6.066   3.107
 1001TIP3    H1 2948   8.243   6.052   3.015
 1001TIP3    H2 2949   8.349   6.020   3.118
 1002TIP3   OH2 2950   7.881   5.582   3.767
 1002TIP3    H1 2951   7.865   5.499   3.811
 1002TIP3    H2 2952   7.965   5.612   3.802
 1003TIP3   OH2 2953   6.773   6.120   5.911
 1003TIP3    H1 2954   6.750   6.199   5.862
 1003TIP3    H2 2955   6.848   6.084   5.864
 1004TIP3   OH2 2956   7.287   1.893   2.988
 1004TIP3    H1 2957   7.242   1.875   2.906
 1004TIP3    H2 2958   7.379   1.902   2.963
 1005TIP3   OH2 2959   1.596   4.580   0.795
 1005TIP3    H1 2960   1.580   4.674   0.788
 1005TIP3    H2 2961   1.614   4.566   0.888
 1006TIP3   OH2 2962   4.876   4.943   6.139
 1006TIP3    H1 2963   4.866   4.862   6.089
 1006TIP3    H2 2964   4.888   5.011   6.073
 1007TIP3   OH2 2965   3.584   6.236   3.760
 1007TIP3    H1 2966   3.535   6.298   3.706
 1007TIP3    H2 2967   3.519   6.193   3.815
 1008TIP3   OH2 2968   6.728   2.502   6.392
 1008TIP3    H1 2969   6.675   2.515   6.313
 1008TIP3    H2 2970   6.666   2.474   6.459
 1009TIP3   OH2 2971   6.045   1.448   2.059
 1009TIP3    H1 2972   6.038   1.375   1.997
 1009TIP3    H2 2973   5.978   1.429   2.125
 1010TIP3   OH2 2974   0.577   5.240   3.066
 1010TIP3    H1 2975   0.650   5.180   3.086
 1010TIP3    H2 2976   0.532   5.250   3.150
 1011TIP3   OH2 2977   6.194   3.718   2.592
 1011TIP3    H1 2978   6.212   3.624   2.588
 1011TIP3    H2 2979   6.264   3.758   2.541
 1012TIP3   OH2 2980   1.220   7.563   5.715
 1012TIP3    H1 2981   1.180   7.590   5.632
 1012TIP3    H2 2982   1.156   7.504   5.754
 1013TIP3   OH2 2983   5.355   2.468   3.918
 1013TIP3    H1 2984   5.435   2.518   3.933
 1013TIP3    H2 2985   5.298   2.528   3.870
 1014TIP3   OH2 2986   4.779   2.534   5.567
 1014TIP3    H1 2987   4.839   2.513   5.638
 1014TIP3    H2 2988   4.832   2.528   5.488
 1015TIP3   OH2 2989   4.915   4.682   5.985
 1015TIP3    H1 2990   4.858   4.606   5.998
 1015TIP3    H2 2991   4.898   4.709   5.895
 1016TIP3   OH2 2992   2.638   0.299   6.572
 1016TIP3    H1 2993   2.677   0.385   6.580
 1016TIP3    H2 2994   2.694   0.252   6.510
 1017TIP3   OH2 2995   2.973   5.029   3.379
 1017TIP3    H1 2996   2.896   5.077   3.410
 1017TIP3    H2 2997   3.046   5.087   3.398
 1018TIP3   OH2 2998   3.531   3.316   6.036
 1018TIP3    H1 2999   3.531   3.318   5.940
 1018TIP3    H2 3000   3.586   3.390   6.062
 1019TIP3   OH2 3001   4.966   4.923   2.132
 1019TIP3    H1 3002   5.053   4.923   2.173
 1019TIP3    H2 3003   4.929   4.838   2.155
 1020TIP3   OH2 3004   2.711   0.638   5.182
 1020TIP3    H1 3005   2.629   0.601   5.216
 1020TIP3    H2 3006   2.685   0.720   5.141
 1021TIP3   OH2 3007   4.571   2.624   4.500
 1021TIP3    H1 3008   4.538   2.548   4.547
 1021TIP3    H2 3009   4.509   2.637   4.428
 1022TIP3   OH2 3010   1.067   2.573   4.505
 1022TIP3    H1 3011   1.022   2.643   4.552
 1022TIP3    H2 3012   0.996   2.518   4.471
 1023TIP3   OH2 3013   2.915   3.096   6.574
 1023TIP3    H1 3014   2.901   3.015   6.525
 1023TIP3    H2 3015   3.008   3.116   6.560
 1024TIP3   OH2 3016   3.122   1.354   5.358
 1024TIP3    H1 3017   3.078   1.434   5.388
 1024TIP3    H2 3018   3.186   1.335   5.427
 1025TIP3   OH2 3019   0.229   1.988   6.233
 1025TIP3    H1 3020   0.195   2.077   6.240
 1025TIP3    H2 3021   0.256   1.964   6.322
 1026TIP3   OH2 3022   3.784   6.262   5.786
 1026TIP3    H1 3023   3.749   6.251   5.874
 1026TIP3    H2 3024   3.763   6.180   5.741
 1027TIP3   OH2 3025   7.875   1.811   1.247
 1027TIP3    H1 3026   7.847   1.720   1.245
 1027TIP3    H2 3027   7.914   1.822   1.334
 1028TIP3   OH2 3028   7.219   5.937   5.789
 1028TIP3    H1 3029   7.179   5.992   5.857
 1028TIP3    H2 3030   7.194   5.980   5.707
 1029TIP3   OH2 3031   6.964   4.389   3.136
 1029TIP3    H1 3032   6.951   4.367   3.228
 1029TIP3    H2 3033   7.059   4.393   3.126
 1030TIP3   OH2 3034   2.187   0.631   0.142
 1030TIP3    H1 3035   2.258   0.634   0.207
 1030TIP3    H2 3036   2.166   0.723   0.126
 1031TIP3   OH2 3037   8.257   3.824   4.100
 1031TIP3    H1 3038   8.177   3.791   4.059
 1031TIP3    H2 3039   8.304   3.868   4.029
 1032TIP3   OH2 3040   3.111   5.170   1.039
 1032TIP3    H1 3041   3.118   5.255   0.996
 1032TIP3    H2 3042   3.200   5.150   1.069
 1033TIP3   OH2 3043   4.578   2.037   1.036
 1033TIP3    H1 3044   4.551   1.966   1.095
 1033TIP3    H2 3045   4.644   1.997   0.979
 1034TIP3   OH2 3046   2.453   4.289   4.090
 1034TIP3    H1 3047   2.543   4.265   4.066
 1034TIP3    H2 3048   2.402   4.211   4.068
 1035TIP3   OH2 3049   6.968   1.545   6.427
 1035TIP3    H1 3050   6.890   1.544   6.482
 1035TIP3    H2 3051   6.952   1.616   6.364
 1036TIP3   OH2 3052   1.774   2.739   1.372
 1036TIP3    H1 3053   1.839   2.707   1.310
 1036TIP3    H2 3054   1.761   2.831   1.348
 1037TIP3   OH2 3055   1.306   3.850   5.997
 1037TIP3    H1 3056   1.340   3.939   5.987
 1037TIP3    H2 3057   1.287   3.821   5.908
 1038TIP3   OH2 3058   5.119   0.831   4.943
 1038TIP3    H1 3059   5.193   0.777   4.973
 1038TIP3    H2 3060   5.136   0.844   4.850
 1039TIP3   OH2 3061   6.096   4.068   6.240
 1039TIP3    H1 3062   6.095   4.013   6.318
 1039TIP3    H2 3063   6.177   4.044   6.195
 1040TIP3   OH2 3064   4.558   5.775   3.540
 1040TIP3    H1 3065   4.509   5.844   3.495
 1040TIP3    H2 3066   4.569   5.707   3.475
 1041TIP3   OH2 3067   4.425   4.150   3.237
 1041TIP3    H1 3068   4.409   4.242   3.213
 1041TIP3    H2 3069   4.496   4.122   3.178
 1042TIP3   OH2 3070   0.908   4.370   0.362
 1042TIP3    H1 3071   0.828   4.355   0.412
 1042TIP3    H2 3072   0.883   4.355   0.271
 1043TIP3   OH2 3073   1.909   5.868   0.492
 1043TIP3    H1 3074   1.926   5.887   0.400
 1043TIP3    H2 3075   1.848   5.794   0.491
 1044TIP3   OH2 3076   7.765   2.655   1.570
 1044TIP3    H1 3077   7.797   2.745   1.577
 1044TIP3    H2 3078   7.830   2.609   1.517
 1045TIP3   OH2 3079   0.039   6.612   3.496
 1045TIP3    H1 3080  -0.054   6.601   3.475
 1045TIP3    H2 3081   0.038   6.658   3.580
 1046TIP3   OH2 3082   5.657   2.729   0.300
 1046TIP3    H1 3083   5.662   2.824   0.288
 1046TIP3    H2 3084   5.573   2.714   0.344
 1047TIP3   OH2 3085   2.568   3.784   2.500
 1047TIP3    H1 3086   2.620   3.706   2.521
 1047TIP3    H2 3087   2.624   3.834   2.440
 1048TIP3   OH2 3088   4.484   1.159   0.022
 1048TIP3    H1 3089   4.406   1.103   0.026
 1048TIP3    H2 3090   4.558   1.099   0.031
 1049TIP3   OH2 3091   4.603   2.577   3.748
 1049TIP3    H1 3092   4.603   2.482   3.759
 1049TIP3    H2 3093   4.552   2.592   3.669
 1050TIP3   OH2 3094   5.721   3.318   0.471
 1050TIP3    H1 3095   5.696   3.391   0.415
 1050TIP3    H2 3096   5.813   3.302   0.451
 1051TIP3   OH2 3097   2.665   6.293   4.085
 1051TIP3    H1 3098   2.724   6.255   4.021
 1051TIP3    H2 3099   2.654   6.384   4.056
 1052TIP3   OH2 3100   1.775   6.789   3.361
 1052TIP3    H1 3101   1.830   6.840   3.420
 1052TIP3    H2 3102   1.718   6.854   3.319
 1053TIP3   OH2 3103   5.980   1.126   6.357
 1053TIP3    H1 3104   6.028   1.089   6.431
 1053TIP3    H2 3105   5.994   1.064   6.285
 1054TIP3   OH2 3106   7.144   2.234   4.769
 1054TIP3    H1 3107   7.197   2.251   4.847
 1054TIP3    H2 3108   7.059   2.208   4.804
 1055TIP3   OH2 3109   5.053   6.797   1.608
 1055TIP3    H1 3110   4.960   6.777   1.600
 1055TIP3    H2 3111   5.059   6.890   1.587
 1056TIP3   OH2 3112   3.758   6.601   3.206
 1056TIP3    H1 3113   3.738   6.636   3.293
 1056TIP3    H2 3114   3.851   6.576   3.211
 1057TIP3   OH2 3115   7.570   4.089   3.686
 1057TIP3    H1 3116   7.480   4.060   3.672
 1057TIP3    H2 3117   7.564   4.184   3.687
 1058TIP3   OH2 3118   5.519   3.218   6.127
 1058TIP3    H1 3119   5.425   3.225   6.115
 1058TIP3    H2 3120   5.533   3.247   6.218
 1059TIP3   OH2 3121   7.863   2.643   2.125
 1059TIP3    H1 3122   7.810   2.576   2.167
 1059TIP3    H2 3123   7.839   2.638   2.033
 1060TIP3   OH2 3124   0.179   3.919   5.771
 1060TIP3    H1 3125   0.218   3.879   5.849
 1060TIP3    H2 3126   0.133   3.996   5.805
 1061TIP3   OH2 3127   5.788   1.124   0.064
 1061TIP3    H1 3128   5.862   1.099   0.010
 1061TIP3    H2 3129   5.781   1.219   0.051
 1062TIP3   OH2 3130   4.721   6.146   1.876
 1062TIP3    H1 3131   4.644   6.196   1.849
 1062TIP3    H2 3132   4.746   6.184   1.961
 1063TIP3   OH2 3133   1.530   6.783   3.671
 1063TIP3    H1 3134   1.551   6.714   3.607
 1063TIP3    H2 3135   1.602   6.780   3.734
 1064TIP3   OH2 3136   5.332   2.841   4.404
 1064TIP3    H1 3137   5.399   2.879   4.460
 1064TIP3    H2 3138   5.290   2.916   4.362
 1065TIP3   OH2 3139   4.020   4.866   2.795
 1065TIP3    H1 3140   4.027   4.830   2.706
 1065TIP3    H2 3141   4.012   4.789   2.851
 1066TIP3   OH2 3142   0.101   3.404   2.827
 1066TIP3    H1 3143   0.192   3.428   2.811
 1066TIP3    H2 3144   0.050   3.476   2.790
 1067TIP3   OH2 3145   5.533   5.999   3.334
 1067TIP3    H1 3146   5.533   6.033   3.424
 1067TIP3    H2 3147   5.626   5.984   3.315
 1068TIP3   OH2 3148   1.809   4.198   4.359
 1068TIP3    H1 3149   1.812   4.191   4.454
 1068TIP3    H2 3150   1.837   4.288   4.341
 1069TIP3   OH2 3151   1.372   1.885   4.406
 1069TIP3    H1 3152   1.457   1.908   4.444
 1069TIP3    H2 3153   1.342   1.810   4.457
 1070TIP3   OH2 3154   7.635   5.206   5.417
 1070TIP3    H1 3155   7.631   5.215   5.322
 1070TIP3    H2 3156   7.629   5.295   5.451
 1071TIP3   OH2 3157   1.829   1.073   0.305
 1071TIP3    H1 3158   1.894   1.143   0.307
 1071TIP3    H2 3159   1.792   1.078   0.216
 1072TIP3   OH2 3160   2.624   4.320   1.827
 1072TIP3    H1 3161   2.648   4.308   1.919
 1072TIP3    H2 3162   2.675   4.395   1.798
 1073TIP3   OH2 3163   2.461   0.604   0.012
 1073TIP3    H1 3164   2.548   0.615  -0.027
 1073TIP3    H2 3165   2.416   0.687  -0.005
 1074TIP3   OH2 3166   6.233   1.448   0.985
 1074TIP3    H1 3167   6.206   1.377   1.043
 1074TIP3    H2 3168   6.242   1.405   0.899
 1075TIP3   OH2 3169   0.506   2.905   2.621
 1075TIP3    H1 3170   0.549   2.929   2.703
 1075TIP3    H2 3171   0.532   2.814   2.606
 1076TIP3   OH2 3172   7.163   3.675   5.090
 1076TIP3    H1 3173   7.196   3.591   5.058
 1076TIP3    H2 3174   7.241   3.731   5.092
 1077TIP3   OH2 3175   3.960   0.968   4.070
 1077TIP3    H1 3176   3.932   1.028   4.001
 1077TIP3    H2 3177   3.950   0.881   4.032
 1078TIP3   OH2 3178   6.587   6.322   2.615
 1078TIP3    H1 3179   6.606   6.280   2.531
 1078TIP3    H2 3180   6.547   6.406   2.592
 1079TIP3   OH2 3181   2.465   4.187   6.138
 1079TIP3    H1 3182   2.558   4.163   6.137
 1079TIP3    H2 3183   2.443   4.203   6.046
 1080TIP3   OH2 3184   3.755   3.990   4.186
 1080TIP3    H1 3185   3.677   4.027   4.229
 1080TIP3    H2 3186   3.785   3.921   4.246
 1081TIP3   OH2 3187   2.172   7.253   2.016
 1081TIP3    H1 3188   2.124   7.172   2.000
 1081TIP3    H2 3189   2.208   7.243   2.104
 1082TIP3   OH2 3190   3.616   6.498   2.653
 1082TIP3    H1 3191   3.634   6.573   2.710
 1082TIP3    H2 3192   3.700   6.476   2.614
 1083TIP3   OH2 3193   0.937   0.625   0.396
 1083TIP3    H1 3194   1.002   0.589   0.336
 1083TIP3    H2 3195   0.985   0.641   0.477
 1084TIP3   OH2 3196   0.738   6.132   2.424
 1084TIP3    H1 3197   0.744   6.207   2.365
 1084TIP3    H2 3198   0.644   6.113   2.429
 1085TIP3   OH2 3199   5.590   3.574   4.137
 1085TIP3    H1 3200   5.503   3.586   4.101
 1085TIP3    H2 3201   5.577   3.571   4.232
 1086TIP3   OH2 3202   1.229   6.462   2.053
 1086TIP3    H1 3203   1.278   6.531   2.010
 1086TIP3    H2 3204   1.293   6.393   2.070
 1087TIP3   OH2 3205   3.310   6.678   2.431
 1087TIP3    H1 3206   3.324   6.601   2.486
 1087TIP3    H2 3207   3.376   6.741   2.460
 1088TIP3   OH2 3208   1.335   4.562   2.072
 1088TIP3    H1 3209   1.260   4.506   2.052
 1088TIP3    H2 3210   1.379   4.519   2.146
 1089TIP3   OH2 3211   7.942   4.776   2.458
 1089TIP3    H1 3212   7.858   4.784   2.503
 1089TIP3    H2 3213   7.998   4.731   2.522
 1090TIP3   OH2 3214   7.622   7.247   5.889
 1090TIP3    H1 3215   7.714   7.247   5.865
 1090TIP3    H2 3216   7.597   7.340   5.888
 1091TIP3   OH2 3217   7.879   1.578   1.881
 1091TIP3    H1 3218   7.856   1.485   1.878
 1091TIP3    H2 3219   7.852   1.611   1.795
 1092TIP3   OH2 3220   3.900   0.619   3.715
 1092TIP3    H1 3221   3.986   0.587   3.742
 1092TIP3    H2 3222   3.918   0.697   3.663
 1093TIP3   OH2 3223   8.149   6.070   3.788
 1093TIP3    H1 3224   8.225   6.115   3.824
 1093TIP3    H2 3225   8.091   6.057   3.862
 1094TIP3   OH2 3226   6.764   2.531   0.759
 1094TIP3    H1 3227   6.732   2.602   0.815
 1094TIP3    H2 3228   6.752   2.565   0.670
 1095TIP3   OH2 3229   1.129   0.068   5.513
 1095TIP3    H1 3230   1.125  -0.013   5.563
 1095TIP3    H2 3231   1.039   0.103   5.515
 1096TIP3   OH2 3232   1.676   7.132   2.439
 1096TIP3    H1 3233   1.707   7.134   2.348
 1096TIP3    H2 3234   1.672   7.038   2.460
 1097TIP3   OH2 3235   7.121   5.586   2.969
 1097TIP3    H1 3236   7.177   5.633   2.907
 1097TIP3    H2 3237   7.104   5.502   2.927
 1098TIP3   OH2 3238   5.507   5.494   2.971
 1098TIP3    H1 3239   5.467   5.408   2.980
 1098TIP3    H2 3240   5.601   5.476   2.965
 1099TIP3   OH2 3241   0.953   1.380   0.080
 1099TIP3    H1 3242   1.013   1.454   0.068
 1099TIP3    H2 3243   1.004   1.303   0.053
 1100TIP3   OH2 3244   7.454   4.619   5.719
 1100TIP3    H1 3245   7.486   4.629   5.808
 1100TIP3    H2 3246   7.409   4.534   5.719
 1101TIP3   OH2 3247   4.008   1.754   1.725
 1101TIP3    H1 3248   4.088   1.783   1.767
 1101TIP3    H2 3249   4.020   1.774   1.632
 1102TIP3   OH2 3250   6.232   3.224   1.203
 1102TIP3    H1 3251   6.317   3.180   1.208
 1102TIP3    H2 3252   6.254   3.315   1.183
 1103TIP3   OH2 3253   5.001   1.356   4.766
 1103TIP3    H1 3254   4.905   1.361   4.764
 1103TIP3    H2 3255   5.020   1.263   4.753
 1104TIP3   OH2 3256   3.922   2.812   3.368
 1104TIP3    H1 3257   3.836   2.776   3.390
 1104TIP3    H2 3258   3.956   2.846   3.450
 1105TIP3   OH2 3259   0.796   3.144   5.236
 1105TIP3    H1 3260   0.782   3.078   5.169
 1105TIP3    H2 3261   0.719   3.138   5.293
 1106TIP3   OH2 3262   0.057   6.447   6.321
 1106TIP3    H1 3263   0.091   6.505   6.253
 1106TIP3    H2 3264  -0.038   6.459   6.317
 1107TIP3   OH2 3265   1.845   2.781   0.419
 1107TIP3    H1 3266   1.774   2.781   0.355
 1107TIP3    H2 3267   1.910   2.722   0.383
 1108TIP3   OH2 3268   3.113   4.519   6.541
 1108TIP3    H1 3269   3.079   4.475   6.619
 1108TIP3    H2 3270   3.118   4.611   6.566
 1109TIP3   OH2 3271   3.912   7.212   6.568
 1109TIP3    H1 3272   3.896   7.182   6.657
 1109TIP3    H2 3273   3.929   7.132   6.517
 1110TIP3   OH2 3274   5.857   4.690   6.755
 1110TIP3    H1 3275   5.784   4.675   6.696
 1110TIP3    H2 3276   5.928   4.635   6.721
 1111TIP3   OH2 3277   3.407   3.211   3.396
 1111TIP3    H1 3278   3.318   3.207   3.429
 1111TIP3    H2 3279   3.398   3.232   3.303
 1112TIP3   OH2 3280   2.524   0.702   0.658
 1112TIP3    H1 3281   2.505   0.735   0.746
 1112TIP3    H2 3282   2.502   0.609   0.663
 1113TIP3   OH2 3283   1.056   3.438   4.606
 1113TIP3    H1 3284   1.084   3.399   4.523
 1113TIP3    H2 3285   0.985   3.497   4.583
 1114TIP3   OH2 3286   4.473   1.819   2.464
 1114TIP3    H1 3287   4.426   1.893   2.424
 1114TIP3    H2 3288   4.410   1.781   2.524
 1115TIP3   OH2 3289   5.547   5.846   4.742
 1115TIP3    H1 3290   5.554   5.922   4.800
 1115TIP3    H2 3291   5.593   5.776   4.788
 1116TIP3   OH2 3292   7.158   0.859   2.540
 1116TIP3    H1 3293   7.135   0.857   2.633
 1116TIP3    H2 3294   7.228   0.924   2.534
 1117TIP3   OH2 3295   3.306   7.073   6.063
 1117TIP3    H1 3296   3.213   7.087   6.077
 1117TIP3    H2 3297   3.344   7.161   6.061
 1118TIP3   OH2 3298   8.068   2.267   0.222
 1118TIP3    H1 3299   8.082   2.273   0.128
 1118TIP3    H2 3300   8.156   2.262   0.259
 1119TIP3   OH2 3301   1.958   0.470   3.917
 1119TIP3    H1 3302   1.978   0.523   3.840
 1119TIP3    H2 3303   1.886   0.516   3.959
 1120TIP3   OH2 3304   0.247   6.943   3.531
 1120TIP3    H1 3305   0.169   6.922   3.583
 1120TIP3    H2 3306   0.291   7.012   3.580
 1121TIP3   OH2 3307   8.241   4.673   0.742
 1121TIP3    H1 3308   8.293   4.749   0.766
 1121TIP3    H2 3309   8.200   4.697   0.659
 1122TIP3   OH2 3310   0.905   3.768   2.531
 1122TIP3    H1 3311   0.826   3.816   2.505
 1122TIP3    H2 3312   0.952   3.829   2.588
 1123TIP3   OH2 3313   5.906   5.434   2.586
 1123TIP3    H1 3314   5.894   5.415   2.493
 1123TIP3    H2 3315   5.891   5.350   2.630
 1124TIP3   OH2 3316   3.845   7.707   0.874
 1124TIP3    H1 3317   3.772   7.706   0.812
 1124TIP3    H2 3318   3.842   7.794   0.914
 1125TIP3   OH2 3319   6.238   5.379   2.630
 1125TIP3    H1 3320   6.323   5.419   2.643
 1125TIP3    H2 3321   6.183   5.449   2.594
 1126TIP3   OH2 3322   3.085   2.999   1.553
 1126TIP3    H1 3323   3.135   2.939   1.607
 1126TIP3    H2 3324   3.051   3.064   1.614
 1127TIP3   OH2 3325   4.934   7.441   1.095
 1127TIP3    H1 3326   4.988   7.513   1.064
 1127TIP3    H2 3327   4.936   7.448   1.191
 1128TIP3   OH2 3328   6.438   4.619   4.907
 1128TIP3    H1 3329   6.354   4.648   4.941
 1128TIP3    H2 3330   6.415   4.562   4.834
 1129TIP3   OH2 3331   6.135   7.765   2.561
 1129TIP3    H1 3332   6.148   7.794   2.471
 1129TIP3    H2 3333   6.185   7.683   2.568
 1130TIP3   OH2 3334   5.867   6.422   0.958
 1130TIP3    H1 3335   5.787   6.399   0.912
 1130TIP3    H2 3336   5.917   6.473   0.895
 1131TIP3   OH2 3337   5.106   7.441   5.038
 1131TIP3    H1 3338   5.066   7.472   5.119
 1131TIP3    H2 3339   5.050   7.475   4.969
 1132TIP3   OH2 3340   0.608   3.053   5.834
 1132TIP3    H1 3341   0.533   2.993   5.831
 1132TIP3    H2 3342   0.683   2.999   5.812
 1133TIP3   OH2 3343   5.076   5.802   1.860
 1133TIP3    H1 3344   5.132   5.831   1.788
 1133TIP3    H2 3345   5.137   5.778   1.930
 1134TIP3   OH2 3346   0.902   4.851   4.962
 1134TIP3    H1 3347   0.821   4.875   5.007
 1134TIP3    H2 3348   0.971   4.886   5.017
 1135TIP3   OH2 3349   7.114   3.383   3.204
 1135TIP3    H1 3350   7.149   3.371   3.292
 1135TIP3    H2 3351   7.153   3.464   3.173
 1136TIP3   OH2 3352   2.558   5.969   1.277
 1136TIP3    H1 3353   2.600   6.050   1.249
 1136TIP3    H2 3354   2.630   5.910   1.299
 1137TIP3   OH2 3355   4.692   6.545   1.146
 1137TIP3    H1 3356   4.713   6.465   1.098
 1137TIP3    H2 3357   4.600   6.535   1.171
 1138TIP3   OH2 3358   0.668   1.100   6.498
 1138TIP3    H1 3359   0.637   1.123   6.410
 1138TIP3    H2 3360   0.606   1.034   6.529
 1139TIP3   OH2 3361   1.649   1.626   3.921
 1139TIP3    H1 3362   1.557   1.643   3.906
 1139TIP3    H2 3363   1.650   1.545   3.973
 1140TIP3   OH2 3364   8.297   2.350   3.531
 1140TIP3    H1 3365   8.260   2.424   3.578
 1140TIP3    H2 3366   8.355   2.308   3.594
 1141TIP3   OH2 3367   7.019   3.231   3.489
 1141TIP3    H1 3368   7.060   3.299   3.543
 1141TIP3    H2 3369   7.057   3.149   3.521
 1142TIP3   OH2 3370   6.070   3.605   5.961
 1142TIP3    H1 3371   6.009   3.636   6.028
 1142TIP3    H2 3372   6.050   3.512   5.952
 1143TIP3   OH2 3373   3.846   5.887   6.288
 1143TIP3    H1 3374   3.776   5.843   6.336
 1143TIP3    H2 3375   3.802   5.954   6.236
 1144TIP3   OH2 3376   6.163   3.000   1.044
 1144TIP3    H1 3377   6.137   3.049   0.966
 1144TIP3    H2 3378   6.176   3.066   1.111
 1145TIP3   OH2 3379   4.331   5.887   3.851
 1145TIP3    H1 3380   4.322   5.918   3.761
 1145TIP3    H2 3381   4.246   5.846   3.870
 1146TIP3   OH2 3382   7.464   1.762   1.851
 1146TIP3    H1 3383   7.499   1.753   1.940
 1146TIP3    H2 3384   7.418   1.846   1.852
 1147TIP3   OH2 3385   5.462   0.782   4.795
 1147TIP3    H1 3386   5.476   0.871   4.765
 1147TIP3    H2 3387   5.543   0.759   4.841
 1148TIP3   OH2 3388   5.207   4.663   4.564
 1148TIP3    H1 3389   5.181   4.737   4.510
 1148TIP3    H2 3390   5.302   4.659   4.555
 1149TIP3   OH2 3391   2.331   2.407   1.336
 1149TIP3    H1 3392   2.250   2.431   1.383
 1149TIP3    H2 3393   2.334   2.467   1.262
 1150TIP3   OH2 3394   3.011   4.769   3.463
 1150TIP3    H1 3395   3.079   4.759   3.529
 1150TIP3    H2 3396   2.981   4.859   3.473
 1151TIP3   OH2 3397   0.682   7.582   4.543
 1151TIP3    H1 3398   0.669   7.516   4.476
 1151TIP3    H2 3399   0.706   7.533   4.622
 1152TIP3   OH2 3400   3.787   5.117   2.234
 1152TIP3    H1 3401   3.811   5.165   2.155
 1152TIP3    H2 3402   3.742   5.182   2.288
 1153TIP3   OH2 3403   0.162   7.816   2.442
 1153TIP3    H1 3404   0.081   7.798   2.395
 1153TIP3    H2 3405   0.179   7.736   2.492
 1154TIP3   OH2 3406   6.089   0.962   5.121
 1154TIP3    H1 3407   6.126   0.931   5.204
 1154TIP3    H2 3408   6.162   0.963   5.060
 1155TIP3   OH2 3409   0.817   0.665   5.141
 1155TIP3    H1 3410   0.812   0.611   5.220
 1155TIP3    H2 3411   0.854   0.606   5.074
 1156TIP3   OH2 3412   5.775   7.018   6.177
 1156TIP3    H1 3413   5.704   7.045   6.235
 1156TIP3    H2 3414   5.834   7.093   6.174
 1157TIP3   OH2 3415   0.398   4.242   2.306
 1157TIP3    H1 3416   0.403   4.146   2.307
 1157TIP3    H2 3417   0.341   4.262   2.232
 1158TIP3   OH2 3418   4.850   0.400   3.976
 1158TIP3    H1 3419   4.808   0.460   4.038
 1158TIP3    H2 3420   4.903   0.342   4.031
 1159TIP3   OH2 3421   2.400   0.269   3.079
 1159TIP3    H1 3422   2.489   0.256   3.046
 1159TIP3    H2 3423   2.411   0.314   3.163
 1160TIP3   OH2 3424   8.025   6.655   1.786
 1160TIP3    H1 3425   8.074   6.583   1.825
 1160TIP3    H2 3426   7.933   6.637   1.808
 1161TIP3   OH2 3427   1.778   3.553   1.448
 1161TIP3    H1 3428   1.823   3.629   1.413
 1161TIP3    H2 3429   1.752   3.503   1.370
 1162TIP3   OH2 3430   2.015   7.290   1.626
 1162TIP3    H1 3431   2.096   7.257   1.664
 1162TIP3    H2 3432   1.976   7.213   1.583
 1163TIP3   OH2 3433   5.397   6.420   6.643
 1163TIP3    H1 3434   5.483   6.463   6.634
 1163TIP3    H2 3435   5.406   6.366   6.722
 1164TIP3   OH2 3436   5.218   0.844   1.464
 1164TIP3    H1 3437   5.152   0.811   1.403
 1164TIP3    H2 3438   5.195   0.937   1.476
 1165TIP3   OH2 3439   3.993   4.540   5.802
 1165TIP3    H1 3440   4.004   4.574   5.713
 1165TIP3    H2 3441   4.020   4.448   5.796
 1166TIP3   OH2 3442   1.124   0.505   0.235
 1166TIP3    H1 3443   1.080   0.421   0.217
 1166TIP3    H2 3444   1.200   0.481   0.287
 1167TIP3   OH2 3445   7.878   6.873   1.920
 1167TIP3    H1 3446   7.837   6.916   1.845
 1167TIP3    H2 3447   7.970   6.898   1.914
 1168TIP3   OH2 3448   6.197   7.082   2.960
 1168TIP3    H1 3449   6.163   7.166   2.993
 1168TIP3    H2 3450   6.287   7.078   2.993
 1169TIP3   OH2 3451   8.076   2.309   5.965
 1169TIP3    H1 3452   8.115   2.248   6.027
 1169TIP3    H2 3453   8.008   2.354   6.015
 1170TIP3   OH2 3454   4.472   6.695   0.932
 1170TIP3    H1 3455   4.521   6.774   0.908
 1170TIP3    H2 3456   4.423   6.720   1.010
 1171TIP3   OH2 3457   0.422   3.018   5.575
 1171TIP3    H1 3458   0.490   3.009   5.641
 1171TIP3    H2 3459   0.385   2.930   5.567
 1172TIP3   OH2 3460   2.627   6.646   4.747
 1172TIP3    H1 3461   2.590   6.705   4.682
 1172TIP3    H2 3462   2.715   6.627   4.715
 1173TIP3   OH2 3463   5.997   3.591   4.225
 1173TIP3    H1 3464   6.024   3.683   4.226
 1173TIP3    H2 3465   5.919   3.590   4.169
 1174TIP3   OH2 3466   6.458   5.545   0.531
 1174TIP3    H1 3467   6.406   5.622   0.511
 1174TIP3    H2 3468   6.529   5.577   0.586
 1175TIP3   OH2 3469   7.425   5.252   0.638
 1175TIP3    H1 3470   7.405   5.163   0.667
 1175TIP3    H2 3471   7.515   5.248   0.608
 1176TIP3   OH2 3472   4.789   3.130   5.614
 1176TIP3    H1 3473   4.742   3.066   5.668
 1176TIP3    H2 3474   4.853   3.169   5.674
 1177TIP3   OH2 3475   3.408   4.617   2.656
 1177TIP3    H1 3476   3.315   4.635   2.640
 1177TIP3    H2 3477   3.445   4.605   2.568
 1178TIP3   OH2 3478   4.078   7.367   6.228
 1178TIP3    H1 3479   4.151   7.306   6.230
 1178TIP3    H2 3480   4.077   7.400   6.138
 1179TIP3   OH2 3481   3.520   1.688   1.317
 1179TIP3    H1 3482   3.611   1.697   1.288
 1179TIP3    H2 3483   3.471   1.673   1.236
 1180TIP3   OH2 3484   0.213   6.354   5.056
 1180TIP3    H1 3485   0.153   6.337   4.983
 1180TIP3    H2 3486   0.300   6.333   5.022
 1181TIP3   OH2 3487   5.434   6.904   5.589
 1181TIP3    H1 3488   5.417   6.992   5.622
 1181TIP3    H2 3489   5.511   6.875   5.637
 1182TIP3   OH2 3490   6.209   5.518   4.157
 1182TIP3    H1 3491   6.154   5.514   4.235
 1182TIP3    H2 3492   6.146   5.525   4.084
 1183TIP3   OH2 3493   0.374   0.493   1.315
 1183TIP3    H1 3494   0.280   0.508   1.304
 1183TIP3    H2 3495   0.413   0.580   1.309
 1184TIP3   OH2 3496   4.477   0.343   3.159
 1184TIP3    H1 3497   4.555   0.291   3.141
 1184TIP3    H2 3498   4.458   0.387   3.076
 1185TIP3   OH2 3499   4.941   2.889   3.891
 1185TIP3    H1 3500   5.023   2.918   3.850
 1185TIP3    H2 3501   4.968   2.828   3.959
 1186TIP3   OH2 3502   2.046   5.513   2.142
 1186TIP3    H1 3503   2.116   5.461   2.103
 1186TIP3    H2 3504   2.011   5.457   2.212
 1187TIP3   OH2 3505   2.845   6.742   2.658
 1187TIP3    H1 3506   2.770   6.800   2.667
 1187TIP3    H2 3507   2.892   6.751   2.741
 1188TIP3   OH2 3508   1.673   2.859   1.898
 1188TIP3    H1 3509   1.610   2.931   1.903
 1188TIP3    H2 3510   1.758   2.902   1.906
 1189TIP3   OH2 3511   7.460   0.157   6.138
 1189TIP3    H1 3512   7.397   0.204   6.082
 1189TIP3    H2 3513   7.416   0.149   6.222
 1190TIP3   OH2 3514   1.689   5.683   2.370
 1190TIP3    H1 3515   1.774   5.664   2.412
 1190TIP3    H2 3516   1.670   5.606   2.318
 1191TIP3   OH2 3517   7.093   6.605   2.095
 1191TIP3    H1 3518   7.016   6.572   2.047
 1191TIP3    H2 3519   7.059   6.677   2.148
 1192TIP3   OH2 3520   7.102   0.076   5.513
 1192TIP3    H1 3521   7.042   0.142   5.480
 1192TIP3    H2 3522   7.151   0.047   5.437
 1193TIP3   OH2 3523   5.377   3.372   4.904
 1193TIP3    H1 3524   5.315   3.445   4.906
 1193TIP3    H2 3525   5.405   3.366   4.813
 1194TIP3   OH2 3526   0.198   6.260   4.623
 1194TIP3    H1 3527   0.140   6.260   4.699
 1194TIP3    H2 3528   0.284   6.236   4.658
 1195TIP3   OH2 3529   7.204   7.510   3.354
 1195TIP3    H1 3530   7.167   7.421   3.355
 1195TIP3    H2 3531   7.271   7.507   3.286
 1196TIP3   OH2 3532   1.957   1.737   1.114
 1196TIP3    H1 3533   2.043   1.761   1.149
 1196TIP3    H2 3534   1.935   1.656   1.161
 1197TIP3   OH2 3535   7.005   5.954   3.398
 1197TIP3    H1 3536   6.987   5.862   3.417
 1197TIP3    H2 3537   7.098   5.955   3.373
 1198TIP3   OH2 3538   3.558   2.700   6.489
 1198TIP3    H1 3539   3.636   2.754   6.504
 1198TIP3    H2 3540   3.485   2.762   6.487
 1199TIP3   OH2 3541   4.725   3.218   1.700
 1199TIP3    H1 3542   4.791   3.179   1.643
 1199TIP3    H2 3543   4.676   3.277   1.643
 1200TIP3   OH2 3544   1.933   4.763   5.585
 1200TIP3    H1 3545   1.911   4.837   5.528
 1200TIP3    H2 3546   1.905   4.790   5.672
 1201TIP3   OH2 3547   3.118   0.834   0.919
 1201TIP3    H1 3548   3.163   0.914   0.893
 1201TIP3    H2 3549   3.027   0.848   0.894
 1202TIP3   OH2 3550   6.381   2.284   0.921
 1202TIP3    H1 3551   6.464   2.267   0.877
 1202TIP3    H2 3552   6.369   2.210   0.980
 1203TIP3   OH2 3553   3.156   7.080   4.039
 1203TIP3    H1 3554   3.068   7.044   4.030
 1203TIP3    H2 3555   3.144   7.162   4.088
 1204TIP3   OH2 3556   3.504   7.260   4.764
 1204TIP3    H1 3557   3.490   7.167   4.779
 1204TIP3    H2 3558   3.432   7.303   4.811
 1205TIP3   OH2 3559   5.419   5.581   4.873
 1205TIP3    H1 3560   5.510   5.595   4.898
 1205TIP3    H2 3561   5.421   5.571   4.777
 1206TIP3   OH2 3562   0.952   7.285   0.573
 1206TIP3    H1 3563   0.877   7.317   0.522
 1206TIP3    H2 3564   0.916   7.213   0.626
 1207TIP3   OH2 3565   2.780   4.222   6.391
 1207TIP3    H1 3566   2.816   4.293   6.339
 1207TIP3    H2 3567   2.795   4.143   6.339
 1208TIP3   OH2 3568   0.369   6.549   3.641
 1208TIP3    H1 3569   0.279   6.575   3.654
 1208TIP3    H2 3570   0.397   6.514   3.726
 1209TIP3   OH2 3571   1.715   4.328   0.653
 1209TIP3    H1 3572   1.687   4.413   0.619
 1209TIP3    H2 3573   1.732   4.275   0.575
 1210TIP3   OH2 3574   7.472   3.807   1.360
 1210TIP3    H1 3575   7.519   3.888   1.341
 1210TIP3    H2 3576   7.420   3.790   1.281
 1211TIP3   OH2 3577   6.707   6.831   0.774
 1211TIP3    H1 3578   6.678   6.781   0.697
 1211TIP3    H2 3579   6.798   6.852   0.755
 1212TIP3   OH2 3580   4.128   0.974   1.246
 1212TIP3    H1 3581   4.058   0.909   1.238
 1212TIP3    H2 3582   4.203   0.935   1.202
 1213TIP3   OH2 3583   1.906   2.340   3.176
 1213TIP3    H1 3584   1.955   2.272   3.131
 1213TIP3    H2 3585   1.938   2.422   3.138
 1214TIP3   OH2 3586   3.021   0.740   2.169
 1214TIP3    H1 3587   3.112   0.721   2.193
 1214TIP3    H2 3588   2.976   0.656   2.176
 1215TIP3   OH2 3589   6.421   4.926   3.011
 1215TIP3    H1 3590   6.441   5.018   3.025
 1215TIP3    H2 3591   6.388   4.895   3.096
 1216TIP3   OH2 3592   2.924   2.400   0.714
 1216TIP3    H1 3593   2.912   2.420   0.806
 1216TIP3    H2 3594   2.864   2.327   0.697
 1217TIP3   OH2 3595   5.179   1.120   2.515
 1217TIP3    H1 3596   5.225   1.197   2.482
 1217TIP3    H2 3597   5.088   1.133   2.488
 1218TIP3   OH2 3598   5.133   3.289   4.672
 1218TIP3    H1 3599   5.170   3.226   4.734
 1218TIP3    H2 3600   5.197   3.360   4.669
 1219TIP3   OH2 3601   7.012   4.328   6.016
 1219TIP3    H1 3602   7.002   4.411   5.970
 1219TIP3    H2 3603   6.923   4.304   6.043
 1220TIP3   OH2 3604   6.206   5.007   4.709
 1220TIP3    H1 3605   6.260   5.002   4.630
 1220TIP3    H2 3606   6.264   4.979   4.780
 1221TIP3   OH2 3607   5.906   0.994   5.914
 1221TIP3    H1 3608   5.963   1.041   5.975
 1221TIP3    H2 3609   5.822   0.988   5.959
 1222TIP3   OH2 3610   6.983   4.735   5.419
 1222TIP3    H1 3611   6.961   4.657   5.367
 1222TIP3    H2 3612   7.077   4.748   5.403
 1223TIP3   OH2 3613   1.950   7.523   4.455
 1223TIP3    H1 3614   1.990   7.594   4.405
 1223TIP3    H2 3615   2.024   7.471   4.485
 1224TIP3   OH2 3616   1.848   2.765   5.471
 1224TIP3    H1 3617   1.907   2.715   5.414
 1224TIP3    H2 3618   1.898   2.843   5.495
 1225TIP3   OH2 3619   0.662   4.094   2.190
 1225TIP3    H1 3620   0.722   4.145   2.136
 1225TIP3    H2 3621   0.603   4.053   2.127
 1226TIP3   OH2 3622   6.199   1.894   4.273
 1226TIP3    H1 3623   6.287   1.868   4.249
 1226TIP3    H2 3624   6.144   1.820   4.249
 1227TIP3   OH2 3625   7.452   6.677   6.326
 1227TIP3    H1 3626   7.510   6.706   6.396
 1227TIP3    H2 3627   7.441   6.583   6.341
 1228TIP3   OH2 3628   5.055   3.092   2.708
 1228TIP3    H1 3629   4.969   3.129   2.728
 1228TIP3    H2 3630   5.104   3.099   2.791
 1229TIP3   OH2 3631   7.033   5.269   1.451
 1229TIP3    H1 3632   6.952   5.300   1.411
 1229TIP3    H2 3633   7.093   5.257   1.377
 1230TIP3   OH2 3634   6.902   1.412   2.324
 1230TIP3    H1 3635   6.813   1.405   2.360
 1230TIP3    H2 3636   6.905   1.500   2.285
 1231TIP3   OH2 3637   0.716   4.442   0.757
 1231TIP3    H1 3638   0.767   4.433   0.838
 1231TIP3    H2 3639   0.689   4.352   0.737
 1232TIP3   OH2 3640   4.349   5.414   6.343
 1232TIP3    H1 3641   4.309   5.441   6.426
 1232TIP3    H2 3642   4.392   5.331   6.363
 1233TIP3   OH2 3643   3.703   4.242   4.776
 1233TIP3    H1 3644   3.648   4.164   4.773
 1233TIP3    H2 3645   3.641   4.315   4.780
 1234TIP3   OH2 3646   5.300   3.303   2.037
 1234TIP3    H1 3647   5.232   3.370   2.035
 1234TIP3    H2 3648   5.311   3.278   1.945
 1235TIP3   OH2 3649   4.710   3.600   5.299
 1235TIP3    H1 3650   4.674   3.656   5.230
 1235TIP3    H2 3651   4.641   3.537   5.318
 1236TIP3   OH2 3652   0.567   2.989   1.533
 1236TIP3    H1 3653   0.603   3.010   1.447
 1236TIP3    H2 3654   0.632   3.022   1.595
 1237TIP3   OH2 3655   5.113   7.372   4.345
 1237TIP3    H1 3656   5.139   7.282   4.329
 1237TIP3    H2 3657   5.190   7.413   4.385
 1238TIP3   OH2 3658   8.285   1.769   0.050
 1238TIP3    H1 3659   8.314   1.844  -0.003
 1238TIP3    H2 3660   8.304   1.692  -0.005
 1239TIP3   OH2 3661   6.102   1.640   1.863
 1239TIP3    H1 3662   6.195   1.629   1.845
 1239TIP3    H2 3663   6.075   1.556   1.901
 1240TIP3   OH2 3664   2.306   4.733   3.430
 1240TIP3    H1 3665   2.380   4.755   3.374
 1240TIP3    H2 3666   2.237   4.793   3.404
 1241TIP3   OH2 3667   8.154   7.123   5.218
 1241TIP3    H1 3668   8.172   7.174   5.297
 1241TIP3    H2 3669   8.144   7.188   5.149
 1242TIP3   OH2 3670   5.998   4.696   6.050
 1242TIP3    H1 3671   6.006   4.605   6.022
 1242TIP3    H2 3672   5.994   4.746   5.968
 1243TIP3   OH2 3673   3.190   6.133   6.697
 1243TIP3    H1 3674   3.135   6.065   6.736
 1243TIP3    H2 3675   3.268   6.085   6.666
 1244TIP3   OH2 3676   5.341   2.577   2.212
 1244TIP3    H1 3677   5.400   2.505   2.232
 1244TIP3    H2 3678   5.354   2.639   2.285
 1245TIP3   OH2 3679   6.155   4.330   3.064
 1245TIP3    H1 3680   6.135   4.242   3.097
 1245TIP3    H2 3681   6.182   4.315   2.973
 1246TIP3   OH2 3682   0.534   4.230   1.009
 1246TIP3    H1 3683   0.574   4.145   0.992
 1246TIP3    H2 3684   0.472   4.242   0.936
 1247TIP3   OH2 3685   6.552   0.716   4.858
 1247TIP3    H1 3686   6.611   0.731   4.932
 1247TIP3    H2 3687   6.496   0.794   4.855
 1248TIP3   OH2 3688   7.719   6.757   5.442
 1248TIP3    H1 3689   7.787   6.771   5.508
 1248TIP3    H2 3690   7.767   6.740   5.361
 1249TIP3   OH2 3691   7.642   1.603   3.661
 1249TIP3    H1 3692   7.673   1.693   3.654
 1249TIP3    H2 3693   7.647   1.583   3.755
 1250TIP3   OH2 3694   4.175   1.103   3.494
 1250TIP3    H1 3695   4.092   1.106   3.446
 1250TIP3    H2 3696   4.194   1.195   3.514
 1251TIP3   OH2 3697   0.445   1.928   6.692
 1251TIP3    H1 3698   0.375   1.991   6.710
 1251TIP3    H2 3699   0.523   1.982   6.680
 1252TIP3   OH2 3700   4.295   2.574   5.965
 1252TIP3    H1 3701   4.210   2.558   5.926
 1252TIP3    H2 3702   4.277   2.628   6.042
 1253TIP3   OH2 3703   5.017   3.339   5.409
 1253TIP3    H1 3704   4.989   3.252   5.382
 1253TIP3    H2 3705   5.047   3.327   5.499
 1254TIP3   OH2 3706   7.999   7.819   3.823
 1254TIP3    H1 3707   7.978   7.911   3.834
 1254TIP3    H2 3708   8.009   7.786   3.912
 1255TIP3   OH2 3709   7.680   3.516   2.018
 1255TIP3    H1 3710   7.701   3.452   2.085
 1255TIP3    H2 3711   7.601   3.560   2.052
 1256TIP3   OH2 3712   1.852   1.916   5.960
 1256TIP3    H1 3713   1.878   2.005   5.986
 1256TIP3    H2 3714   1.774   1.898   6.011
 1257TIP3   OH2 3715   2.247   4.496   0.197
 1257TIP3    H1 3716   2.302   4.447   0.257
 1257TIP3    H2 3717   2.285   4.479   0.110
 1258TIP3   OH2 3718   5.861   4.483   4.347
 1258TIP3    H1 3719   5.801   4.554   4.325
 1258TIP3    H2 3720   5.870   4.432   4.267
 1259TIP3   OH2 3721   2.767   5.329   4.552
 1259TIP3    H1 3722   2.673   5.335   4.540
 1259TIP3    H2 3723   2.803   5.331   4.463
 1260TIP3   OH2 3724   1.575   6.345   2.225
 1260TIP3    H1 3725   1.560   6.355   2.319
 1260TIP3    H2 3726   1.660   6.301   2.219
 1261TIP3   OH2 3727   4.776   7.628   3.715
 1261TIP3    H1 3728   4.719   7.552   3.704
 1261TIP3    H2 3729   4.859   7.592   3.746
 1262TIP3   OH2 3730   1.840   4.409   4.011
 1262TIP3    H1 3731   1.884   4.445   4.088
 1262TIP3    H2 3732   1.841   4.314   4.024
 1263TIP3   OH2 3733   0.148   1.843   2.292
 1263TIP3    H1 3734   0.099   1.922   2.269
 1263TIP3    H2 3735   0.117   1.777   2.229
 1264TIP3   OH2 3736   0.549   0.136   1.020
 1264TIP3    H1 3737   0.545   0.231   1.017
 1264TIP3    H2 3738   0.598   0.116   1.100
 1265TIP3   OH2 3739   3.846   4.492   0.859
 1265TIP3    H1 3740   3.801   4.416   0.895
 1265TIP3    H2 3741   3.786   4.565   0.874
 1266TIP3   OH2 3742   1.801   5.611   5.342
 1266TIP3    H1 3743   1.726   5.635   5.288
 1266TIP3    H2 3744   1.771   5.538   5.396
 1267TIP3   OH2 3745   4.589   2.046   4.323
 1267TIP3    H1 3746   4.617   2.135   4.302
 1267TIP3    H2 3747   4.668   2.004   4.359
 1268TIP3   OH2 3748   4.259   4.425   0.092
 1268TIP3    H1 3749   4.193   4.397   0.028
 1268TIP3    H2 3750   4.321   4.477   0.040
 1269TIP3   OH2 3751   0.850   3.214   0.052
 1269TIP3    H1 3752   0.797   3.256   0.120
 1269TIP3    H2 3753   0.860   3.123   0.082
 1270TIP3   OH2 3754   7.857   3.820   1.583
 1270TIP3    H1 3755   7.775   3.774   1.596
 1270TIP3    H2 3756   7.840   3.880   1.511
 1271TIP3   OH2 3757   5.213   4.559   0.320
 1271TIP3    H1 3758   5.208   4.496   0.391
 1271TIP3    H2 3759   5.136   4.541   0.266
 1272TIP3   OH2 3760   1.052   7.388   3.055
 1272TIP3    H1 3761   0.964   7.424   3.053
 1272TIP3    H2 3762   1.075   7.386   3.148
 1273TIP3   OH2 3763   7.255   7.330   3.591
 1273TIP3    H1 3764   7.214   7.261   3.643
 1273TIP3    H2 3765   7.215   7.411   3.623
 1274TIP3   OH2 3766   4.953   4.346   5.891
 1274TIP3    H1 3767   4.872   4.394   5.911
 1274TIP3    H2 3768   4.960   4.281   5.961
 1275TIP3   OH2 3769   1.725   2.811   2.632
 1275TIP3    H1 3770   1.770   2.805   2.548
 1275TIP3    H2 3771   1.693   2.901   2.636
 1276TIP3   OH2 3772   5.462   3.673   2.834
 1276TIP3    H1 3773   5.368   3.688   2.846
 1276TIP3    H2 3774   5.491   3.633   2.916
 1277TIP3   OH2 3775   5.656   5.802   3.655
 1277TIP3    H1 3776   5.655   5.841   3.742
 1277TIP3    H2 3777   5.662   5.708   3.671
 1278TIP3   OH2 3778   6.515   1.931   1.513
 1278TIP3    H1 3779   6.435   1.916   1.463
 1278TIP3    H2 3780   6.485   1.971   1.595
 1279TIP3   OH2 3781   0.704   1.580   4.725
 1279TIP3    H1 3782   0.640   1.551   4.791
 1279TIP3    H2 3783   0.787   1.543   4.755
 1280TIP3   OH2 3784   5.657   6.731   1.151
 1280TIP3    H1 3785   5.656   6.683   1.234
 1280TIP3    H2 3786   5.577   6.702   1.107
 1281TIP3   OH2 3787   4.197   1.612   0.018
 1281TIP3    H1 3788   4.205   1.707   0.012
 1281TIP3    H2 3789   4.103   1.596   0.019
 1282TIP3   OH2 3790   7.009   2.538   4.258
 1282TIP3    H1 3791   6.933   2.493   4.294
 1282TIP3    H2 3792   7.065   2.468   4.225
 1283TIP3   OH2 3793   5.877   3.176   2.902
 1283TIP3    H1 3794   5.868   3.269   2.885
 1283TIP3    H2 3795   5.887   3.169   2.997
 1284TIP3   OH2 3796   7.759   0.726   2.513
 1284TIP3    H1 3797   7.761   0.669   2.590
 1284TIP3    H2 3798   7.850   0.727   2.483
 1285TIP3   OH2 3799   5.640   1.772   5.829
 1285TIP3    H1 3800   5.580   1.779   5.754
 1285TIP3    H2 3801   5.639   1.859   5.869
 1286TIP3   OH2 3802   2.321   1.447   2.967
 1286TIP3    H1 3803   2.405   1.404   2.981
 1286TIP3    H2 3804   2.343   1.540   2.957
 1287TIP3   OH2 3805   3.735   5.779   2.987
 1287TIP3    H1 3806   3.672   5.851   2.993
 1287TIP3    H2 3807   3.762   5.763   3.078
 1288TIP3   OH2 3808   6.780   1.237   4.747
 1288TIP3    H1 3809   6.775   1.143   4.729
 1288TIP3    H2 3810   6.806   1.242   4.839
 1289TIP3   OH2 3811   7.534   3.400   0.257
 1289TIP3    H1 3812   7.497   3.408   0.169
 1289TIP3    H2 3813   7.571   3.311   0.260
 1290TIP3   OH2 3814   6.930   3.163   0.552
 1290TIP3    H1 3815   6.949   3.198   0.465
 1290TIP3    H2 3816   6.940   3.237   0.611
 1291TIP3   OH2 3817   0.634   1.412   1.169
 1291TIP3    H1 3818   0.717   1.366   1.164
 1291TIP3    H2 3819   0.648   1.494   1.120
 1292TIP3   OH2 3820   4.282   6.229   2.804
 1292TIP3    H1 3821   4.253   6.155   2.856
 1292TIP3    H2 3822   4.377   6.224   2.804
 1293TIP3   OH2 3823   6.197   2.944   1.479
 1293TIP3    H1 3824   6.112   2.931   1.521
 1293TIP3    H2 3825   6.211   3.039   1.480
 1294TIP3   OH2 3826   3.549   4.285   6.466
 1294TIP3    H1 3827   3.603   4.322   6.536
 1294TIP3    H2 3828   3.464   4.269   6.506
 1295TIP3   OH2 3829   1.522   5.486   0.235
 1295TIP3    H1 3830   1.562   5.559   0.189
 1295TIP3    H2 3831   1.595   5.425   0.250
 1296TIP3   OH2 3832   2.982   1.858   1.454
 1296TIP3    H1 3833   2.891   1.845   1.481
 1296TIP3    H2 3834   2.992   1.803   1.377
 1297TIP3   OH2 3835   3.439   1.871   0.233
 1297TIP3    H1 3836   3.532   1.851   0.240
 1297TIP3    H2 3837   3.433   1.964   0.258
 1298TIP3   OH2 3838   0.078   5.417   1.178
 1298TIP3    H1 3839   0.077   5.510   1.153
 1298TIP3    H2 3840   0.028   5.373   1.110
 1299TIP3   OH2 3841   5.472   3.509   2.138
 1299TIP3    H1 3842   5.422   3.588   2.119
 1299TIP3    H2 3843   5.456   3.451   2.064
 1300TIP3   OH2 3844   6.679   1.181   2.610
 1300TIP3    H1 3845   6.629   1.215   2.536
 1300TIP3    H2 3846   6.621   1.117   2.651
 1301TIP3   OH2 3847   3.215   0.194   3.394
 1301TIP3    H1 3848   3.150   0.131   3.361
 1301TIP3    H2 3849   3.164   0.274   3.409
 1302TIP3   OH2 3850   4.193   2.470   4.513
 1302TIP3    H1 3851   4.193   2.386   4.560
 1302TIP3    H2 3852   4.152   2.532   4.573
 1303TIP3   OH2 3853   1.821   1.254   3.394
 1303TIP3    H1 3854   1.865   1.169   3.401
 1303TIP3    H2 3855   1.747   1.238   3.336
 1304TIP3   OH2 3856   0.599   7.621   5.182
 1304TIP3    H1 3857   0.615   7.537   5.226
 1304TIP3    H2 3858   0.510   7.613   5.148
 1305TIP3   OH2 3859   8.195   3.115   3.553
 1305TIP3    H1 3860   8.205   3.207   3.578
 1305TIP3    H2 3861   8.128   3.116   3.484
 1306TIP3   OH2 3862   6.457   3.044   3.996
 1306TIP3    H1 3863   6.421   2.960   3.968
 1306TIP3    H2 3864   6.497   3.081   3.918
 1307TIP3   OH2 3865   2.048   4.676   0.279
 1307TIP3    H1 3866   1.987   4.663   0.206
 1307TIP3    H2 3867   2.125   4.625   0.255
 1308TIP3   OH2 3868   5.616   5.704   5.204
 1308TIP3    H1 3869   5.569   5.621   5.194
 1308TIP3    H2 3870   5.667   5.711   5.123
 1309TIP3   OH2 3871   3.731   6.749   6.150
 1309TIP3    H1 3872   3.672   6.813   6.191
 1309TIP3    H2 3873   3.796   6.730   6.218
 1310TIP3   OH2 3874   6.406   2.644   4.842
 1310TIP3    H1 3875   6.371   2.558   4.865
 1310TIP3    H2 3876   6.384   2.700   4.916
 1311TIP3   OH2 3877   1.244   5.266   2.906
 1311TIP3    H1 3878   1.216   5.327   2.839
 1311TIP3    H2 3879   1.211   5.303   2.988
 1312TIP3   OH2 3880   7.822   6.062   1.521
 1312TIP3    H1 3881   7.907   6.068   1.477
 1312TIP3    H2 3882   7.826   6.129   1.589
 1313TIP3   OH2 3883   1.140   3.227   0.052
 1313TIP3    H1 3884   1.050   3.252   0.075
 1313TIP3    H2 3885   1.155   3.146   0.101
 1314TIP3   OH2 3886   5.578   4.176   3.929
 1314TIP3    H1 3887   5.526   4.161   3.850
 1314TIP3    H2 3888   5.655   4.120   3.917
 1315TIP3   OH2 3889   0.417   7.773   5.618
 1315TIP3    H1 3890   0.379   7.801   5.534
 1315TIP3    H2 3891   0.361   7.701   5.647
 1316TIP3   OH2 3892   3.500   2.175   0.680
 1316TIP3    H1 3893   3.443   2.119   0.735
 1316TIP3    H2 3894   3.584   2.174   0.725
 1317TIP3   OH2 3895   7.234   5.468   4.704
 1317TIP3    H1 3896   7.284   5.395   4.668
 1317TIP3    H2 3897   7.284   5.546   4.680
 1318TIP3   OH2 3898   2.948   5.038   1.215
 1318TIP3    H1 3899   2.988   5.074   1.137
 1318TIP3    H2 3900   2.969   5.100   1.284
 1319TIP3   OH2 3901   6.230   5.139   5.108
 1319TIP3    H1 3902   6.303   5.111   5.053
 1319TIP3    H2 3903   6.240   5.234   5.114
 1320TIP3   OH2 3904   7.521   3.998   0.964
 1320TIP3    H1 3905   7.445   3.941   0.974
 1320TIP3    H2 3906   7.596   3.939   0.965
 1321TIP3   OH2 3907   7.725   1.766   6.640
 1321TIP3    H1 3908   7.667   1.780   6.564
 1321TIP3    H2 3909   7.797   1.714   6.605
 1322TIP3   OH2 3910   4.640   6.768   5.506
 1322TIP3    H1 3911   4.617   6.852   5.467
 1322TIP3    H2 3912   4.556   6.732   5.535
 1323TIP3   OH2 3913   7.184   0.354   0.319
 1323TIP3    H1 3914   7.156   0.420   0.256
 1323TIP3    H2 3915   7.148   0.272   0.285
 1324TIP3   OH2 3916   6.362   4.246   4.334
 1324TIP3    H1 3917   6.383   4.211   4.420
 1324TIP3    H2 3918   6.363   4.341   4.346
 1325TIP3   OH2 3919   0.957   4.758   0.534
 1325TIP3    H1 3920   0.987   4.670   0.557
 1325TIP3    H2 3921   0.987   4.771   0.444
 1326TIP3   OH2 3922   7.633   1.954   2.052
 1326TIP3    H1 3923   7.620   2.015   1.979
 1326TIP3    H2 3924   7.728   1.940   2.055
 1327TIP3   OH2 3925   2.787   2.869   0.049
 1327TIP3    H1 3926   2.720   2.807   0.078
 1327TIP3    H2 3927   2.869   2.832   0.082
 1328TIP3   OH2 3928   7.301   5.005   2.043
 1328TIP3    H1 3929   7.244   4.944   2.090
 1328TIP3    H2 3930   7.240   5.064   1.997
 1329TIP3   OH2 3931   2.469   5.833   3.783
 1329TIP3    H1 3932   2.544   5.888   3.761
 1329TIP3    H2 3933   2.480   5.813   3.876
 1330TIP3   OH2 3934   1.908   1.562   2.616
 1330TIP3    H1 3935   1.895   1.504   2.691
 1330TIP3    H2 3936   2.002   1.583   2.618
 1331TIP3   OH2 3937   2.206   5.009   1.938
 1331TIP3    H1 3938   2.148   4.995   1.863
 1331TIP3    H2 3939   2.147   5.015   2.013
 1332TIP3   OH2 3940   6.062   7.530   1.670
 1332TIP3    H1 3941   6.097   7.539   1.759
 1332TIP3    H2 3942   6.124   7.471   1.627
 1333TIP3   OH2 3943   7.452   2.850   4.398
 1333TIP3    H1 3944   7.425   2.760   4.378
 1333TIP3    H2 3945   7.548   2.846   4.399
 1334TIP3   OH2 3946   6.294   3.943   4.036
 1334TIP3    H1 3947   6.259   3.914   3.952
 1334TIP3    H2 3948   6.260   3.880   4.099
 1335TIP3   OH2 3949   1.210   2.559   0.186
 1335TIP3    H1 3950   1.230   2.552   0.280
 1335TIP3    H2 3951   1.296   2.553   0.143
 1336TIP3   OH2 3952   4.497   3.843   3.575
 1336TIP3    H1 3953   4.409   3.861   3.607
 1336TIP3    H2 3954   4.543   3.807   3.651
 1337TIP3   OH2 3955   4.560   5.621   1.497
 1337TIP3    H1 3956   4.488   5.593   1.441
 1337TIP3    H2 3957   4.534   5.707   1.529
 1338TIP3   OH2 3958   2.984   4.758   1.880
 1338TIP3    H1 3959   2.954   4.836   1.833
 1338TIP3    H2 3960   2.936   4.759   1.962
 1339TIP3   OH2 3961   0.969   5.446   1.196
 1339TIP3    H1 3962   0.885   5.410   1.170
 1339TIP3    H2 3963   0.948   5.530   1.236
 1340TIP3   OH2 3964   4.093   3.598   4.887
 1340TIP3    H1 3965   4.046   3.530   4.935
 1340TIP3    H2 3966   4.058   3.594   4.799
 1341TIP3   OH2 3967   2.228   5.899   4.668
 1341TIP3    H1 3968   2.265   5.937   4.747
 1341TIP3    H2 3969   2.304   5.877   4.614
 1342TIP3   OH2 3970   4.175   2.524   2.538
 1342TIP3    H1 3971   4.139   2.579   2.607
 1342TIP3    H2 3972   4.129   2.441   2.547
 1343TIP3   OH2 3973   1.622   3.252   0.229
 1343TIP3    H1 3974   1.640   3.326   0.287
 1343TIP3    H2 3975   1.528   3.236   0.240
 1344TIP3   OH2 3976   6.819   2.233   5.466
 1344TIP3    H1 3977   6.841   2.311   5.416
 1344TIP3    H2 3978   6.776   2.176   5.403
 1345TIP3   OH2 3979   2.220   4.175   3.121
 1345TIP3    H1 3980   2.200   4.235   3.049
 1345TIP3    H2 3981   2.184   4.091   3.094
 1346TIP3   OH2 3982   6.542   5.235   3.804
 1346TIP3    H1 3983   6.448   5.228   3.792
 1346TIP3    H2 3984   6.557   5.329   3.817
 1347TIP3   OH2 3985   5.353   3.631   3.494
 1347TIP3    H1 3986   5.417   3.566   3.522
 1347TIP3    H2 3987   5.298   3.585   3.430
 1348TIP3   OH2 3988   2.753   4.796   5.930
 1348TIP3    H1 3989   2.673   4.753   5.899
 1348TIP3    H2 3990   2.784   4.847   5.855
 1349TIP3   OH2 3991   5.727   6.997   2.981
 1349TIP3    H1 3992   5.779   7.015   3.059
 1349TIP3    H2 3993   5.699   6.906   2.992
 1350TIP3   OH2 3994   6.553   2.546   2.147
 1350TIP3    H1 3995   6.547   2.616   2.083
 1350TIP3    H2 3996   6.462   2.532   2.176
 1351TIP3   OH2 3997   0.003   3.265   1.625
 1351TIP3    H1 3998   0.068   3.335   1.616
 1351TIP3    H2 3999   0.039   3.191   1.576
 1352TIP3   OH2 4000   4.283   0.569   1.481
 1352TIP3    H1 4001   4.321   0.482   1.468
 1352TIP3    H2 4002   4.262   0.600   1.393
 1353TIP3   OH2 4003   5.939   5.642   2.988
 1353TIP3    H1 4004   5.894   5.561   2.965
 1353TIP3    H2 4005   6.002   5.616   3.055
 1354TIP3   OH2 4006   4.588   2.646   0.045
 1354TIP3    H1 4007   4.623   2.734   0.037
 1354TIP3    H2 4008   4.616   2.601  -0.035
 1355TIP3   OH2 4009   6.564   4.434   4.045
 1355TIP3    H1 4010   6.542   4.454   3.954
 1355TIP3    H2 4011   6.525   4.348   4.061
 1356TIP3   OH2 4012   5.861   5.200   3.872
 1356TIP3    H1 4013   5.802   5.240   3.809
 1356TIP3    H2 4014   5.828   5.227   3.957
 1357TIP3   OH2 4015   5.548   0.321   4.021
 1357TIP3    H1 4016   5.472   0.356   3.975
 1357TIP3    H2 4017   5.568   0.387   4.087
 1358TIP3   OH2 4018   7.506   2.974   2.564
 1358TIP3    H1 4019   7.453   2.950   2.640
 1358TIP3    H2 4020   7.590   3.001   2.602
 1359TIP3   OH2 4021   0.778   6.451   4.142
 1359TIP3    H1 4022   0.776   6.487   4.054
 1359TIP3    H2 4023   0.687   6.448   4.169
 1360TIP3   OH2 4024   0.301   7.179   6.137
 1360TIP3    H1 4025   0.371   7.122   6.104
 1360TIP3    H2 4026   0.298   7.252   6.075
 1361TIP3   OH2 4027   5.925   5.719   5.760
 1361TIP3    H1 4028   5.882   5.798   5.728
 1361TIP3    H2 4029   6.009   5.718   5.715
 1362TIP3   OH2 4030   7.422   6.236   0.619
 1362TIP3    H1 4031   7.414   6.249   0.714
 1362TIP3    H2 4032   7.512   6.209   0.606
 1363TIP3   OH2 4033   3.410   4.478   2.879
 1363TIP3    H1 4034   3.425   4.527   2.799
 1363TIP3    H2 4035   3.497   4.446   2.904
 1364TIP3   OH2 4036   5.111   6.922   4.224
 1364TIP3    H1 4037   5.164   7.001   4.233
 1364TIP3    H2 4038   5.090   6.917   4.131
 1365TIP3   OH2 4039   0.556   2.712   2.998
 1365TIP3    H1 4040   0.622   2.772   3.034
 1365TIP3    H2 4041   0.574   2.710   2.904
 1366TIP3   OH2 4042   6.723   7.802   2.223
 1366TIP3    H1 4043   6.778   7.755   2.285
 1366TIP3    H2 4044   6.634   7.776   2.245
 1367TIP3   OH2 4045   2.333   6.039   2.729
 1367TIP3    H1 4046   2.302   6.129   2.732
 1367TIP3    H2 4047   2.346   6.014   2.820
 1368TIP3   OH2 4048   6.076   7.450   3.401
 1368TIP3    H1 4049   6.106   7.469   3.489
 1368TIP3    H2 4050   6.053   7.535   3.364
 1369TIP3   OH2 4051   1.942   3.318   3.205
 1369TIP3    H1 4052   1.975   3.292   3.119
 1369TIP3    H2 4053   2.007   3.284   3.266
 1370TIP3   OH2 4054   3.261   6.362   3.116
 1370TIP3    H1 4055   3.198   6.410   3.169
 1370TIP3    H2 4056   3.242   6.387   3.026
 1371TIP3   OH2 4057   5.410   4.878   6.573
 1371TIP3    H1 4058   5.406   4.961   6.621
 1371TIP3    H2 4059   5.460   4.820   6.630
 1372TIP3   OH2 4060   6.543   5.836   0.020
 1372TIP3    H1 4061   6.495   5.787  -0.047
 1372TIP3    H2 4062   6.559   5.771   0.089
 1373TIP3   OH2 4063   5.741   7.165   0.557
 1373TIP3    H1 4064   5.826   7.138   0.521
 1373TIP3    H2 4065   5.760   7.188   0.648
 1374TIP3   OH2 4066   5.554   2.298   1.009
 1374TIP3    H1 4067   5.594   2.220   1.048
 1374TIP3    H2 4068   5.589   2.371   1.062
 1375TIP3   OH2 4069   5.665   2.133   3.012
 1375TIP3    H1 4070   5.582   2.173   3.038
 1375TIP3    H2 4071   5.729   2.204   3.020
 1376TIP3   OH2 4072   0.884   2.990   1.136
 1376TIP3    H1 4073   0.970   2.951   1.118
 1376TIP3    H2 4074   0.894   3.030   1.222
 1377TIP3   OH2 4075   0.330   7.682   6.601
 1377TIP3    H1 4076   0.410   7.732   6.581
 1377TIP3    H2 4077   0.277   7.688   6.522
 1378TIP3   OH2 4078   2.969   4.663   3.056
 1378TIP3    H1 4079   3.029   4.711   3.114
 1378TIP3    H2 4080   2.997   4.572   3.063
 1379TIP3   OH2 4081   2.866   3.986   2.634
 1379TIP3    H1 4082   2.784   4.023   2.668
 1379TIP3    H2 4083   2.919   3.972   2.713
 1380TIP3   OH2 4084   2.422   7.129   5.237
 1380TIP3    H1 4085   2.403   7.150   5.328
 1380TIP3    H2 4086   2.344   7.157   5.188
 1381TIP3   OH2 4087   0.583   5.916   3.345
 1381TIP3    H1 4088   0.529   5.880   3.416
 1381TIP3    H2 4089   0.649   5.848   3.328
 1382TIP3   OH2 4090   0.438   4.043   4.887
 1382TIP3    H1 4091   0.449   4.022   4.980
 1382TIP3    H2 4092   0.505   3.993   4.842
 1383TIP3   OH2 4093   6.796   0.374   1.645
 1383TIP3    H1 4094   6.791   0.469   1.634
 1383TIP3    H2 4095   6.741   0.355   1.720
 1384TIP3   OH2 4096   1.415   5.314   1.661
 1384TIP3    H1 4097   1.411   5.238   1.604
 1384TIP3    H2 4098   1.482   5.370   1.623
 1385TIP3   OH2 4099   7.655   0.780   2.282
 1385TIP3    H1 4100   7.673   0.759   2.374
 1385TIP3    H2 4101   7.598   0.709   2.252
 1386TIP3   OH2 4102   1.211   0.815   5.641
 1386TIP3    H1 4103   1.271   0.749   5.675
 1386TIP3    H2 4104   1.173   0.775   5.563
 1387TIP3   OH2 4105   2.331   4.405   4.641
 1387TIP3    H1 4106   2.360   4.418   4.551
 1387TIP3    H2 4107   2.353   4.486   4.686
 1388TIP3   OH2 4108   0.863   3.696   2.909
 1388TIP3    H1 4109   0.921   3.673   2.982
 1388TIP3    H2 4110   0.921   3.733   2.843
 1389TIP3   OH2 4111   4.782   1.203   5.131
 1389TIP3    H1 4112   4.692   1.208   5.098
 1389TIP3    H2 4113   4.808   1.295   5.144
 1390TIP3   OH2 4114   0.589   1.506   1.434
 1390TIP3    H1 4115   0.587   1.448   1.510
 1390TIP3    H2 4116   0.589   1.447   1.359
 1391TIP3   OH2 4117   2.540   6.497   0.582
 1391TIP3    H1 4118   2.575   6.552   0.652
 1391TIP3    H2 4119   2.545   6.552   0.504
 1392TIP3   OH2 4120   6.642   2.630   6.667
 1392TIP3    H1 4121   6.640   2.534   6.661
 1392TIP3    H2 4122   6.701   2.648   6.740
 1393TIP3   OH2 4123   4.850   0.097   5.986
 1393TIP3    H1 4124   4.787   0.129   5.921
 1393TIP3    H2 4125   4.920   0.162   5.986
 1394TIP3   OH2 4126   1.343   2.395   4.047
 1394TIP3    H1 4127   1.319   2.310   4.083
 1394TIP3    H2 4128   1.269   2.421   3.993
 1395TIP3   OH2 4129   0.786   4.016   4.053
 1395TIP3    H1 4130   0.778   3.938   4.109
 1395TIP3    H2 4131   0.798   4.088   4.115
 1396TIP3   OH2 4132   5.421   2.953   5.915
 1396TIP3    H1 4133   5.476   2.986   5.844
 1396TIP3    H2 4134   5.483   2.923   5.981
 1397TIP3   OH2 4135   7.821   5.984   5.695
 1397TIP3    H1 4136   7.870   5.951   5.771
 1397TIP3    H2 4137   7.752   5.919   5.681
 1398TIP3   OH2 4138   3.783   2.592   5.611
 1398TIP3    H1 4139   3.810   2.500   5.618
 1398TIP3    H2 4140   3.845   2.630   5.549
 1399TIP3   OH2 4141   7.762   0.038   2.582
 1399TIP3    H1 4142   7.763   0.104   2.651
 1399TIP3    H2 4143   7.842  -0.012   2.595
 1400TIP3   OH2 4144   6.695   1.113   2.044
 1400TIP3    H1 4145   6.703   1.057   2.121
 1400TIP3    H2 4146   6.612   1.160   2.056
 1401TIP3   OH2 4147   3.998   6.113   5.646
 1401TIP3    H1 4148   4.074   6.060   5.672
 1401TIP3    H2 4149   3.948   6.055   5.588
 1402TIP3   OH2 4150   6.748   7.687   4.872
 1402TIP3    H1 4151   6.750   7.772   4.829
 1402TIP3    H2 4152   6.694   7.632   4.815
 1403TIP3   OH2 4153   7.756   3.391   2.510
 1403TIP3    H1 4154   7.826   3.327   2.502
 1403TIP3    H2 4155   7.798   3.475   2.488
 1404TIP3   OH2 4156   1.067   6.052   4.778
 1404TIP3    H1 4157   1.072   5.986   4.847
 1404TIP3    H2 4158   1.039   6.132   4.823
 1405TIP3   OH2 4159   5.683   2.647   4.715
 1405TIP3    H1 4160   5.770   2.680   4.691
 1405TIP3    H2 4161   5.676   2.665   4.809
 1406TIP3   OH2 4162   1.236   7.197   1.807
 1406TIP3    H1 4163   1.194   7.280   1.831
 1406TIP3    H2 4164   1.288   7.173   1.883
 1407TIP3   OH2 4165   3.625   6.140   0.437
 1407TIP3    H1 4166   3.600   6.050   0.457
 1407TIP3    H2 4167   3.598   6.153   0.346
 1408TIP3   OH2 4168   6.425   2.020   3.731
 1408TIP3    H1 4169   6.423   1.982   3.818
 1408TIP3    H2 4170   6.453   2.110   3.744
 1409TIP3   OH2 4171   7.518   2.577   1.092
 1409TIP3    H1 4172   7.606   2.573   1.130
 1409TIP3    H2 4173   7.488   2.666   1.111
 1410TIP3   OH2 4174   3.530   3.034   4.566
 1410TIP3    H1 4175   3.479   3.001   4.640
 1410TIP3    H2 4176   3.613   2.987   4.571
 1411TIP3   OH2 4177   0.318   2.266   3.378
 1411TIP3    H1 4178   0.412   2.279   3.388
 1411TIP3    H2 4179   0.284   2.258   3.467
 1412TIP3   OH2 4180   6.788   1.908   4.835
 1412TIP3    H1 4181   6.868   1.875   4.795
 1412TIP3    H2 4182   6.794   1.883   4.927
 1413TIP3   OH2 4183   4.342   4.999   1.589
 1413TIP3    H1 4184   4.348   5.091   1.563
 1413TIP3    H2 4185   4.432   4.973   1.606
 1414TIP3   OH2 4186   7.992   2.567   3.301
 1414TIP3    H1 4187   7.896   2.570   3.303
 1414TIP3    H2 4188   8.019   2.655   3.325
 1415TIP3   OH2 4189   4.905   2.430   0.802
 1415TIP3    H1 4190   4.852   2.372   0.856
 1415TIP3    H2 4191   4.993   2.391   0.803
 1416TIP3   OH2 4192   4.113   5.308   0.208
 1416TIP3    H1 4193   4.119   5.314   0.113
 1416TIP3    H2 4194   4.104   5.399   0.237
 1417TIP3   OH2 4195   0.293   2.414   5.788
 1417TIP3    H1 4196   0.314   2.437   5.879
 1417TIP3    H2 4197   0.207   2.373   5.794
 1418TIP3   OH2 4198   7.455   4.671   1.654
 1418TIP3    H1 4199   7.452   4.693   1.747
 1418TIP3    H2 4200   7.444   4.576   1.651
 1419TIP3   OH2 4201   0.099   5.212   6.511
 1419TIP3    H1 4202   0.059   5.282   6.562
 1419TIP3    H2 4203   0.072   5.229   6.421
 1420TIP3   OH2 4204   4.086   1.596   0.415
 1420TIP3    H1 4205   3.998   1.624   0.390
 1420TIP3    H2 4206   4.087   1.502   0.398
 1421TIP3   OH2 4207   5.212   1.518   1.093
 1421TIP3    H1 4208   5.164   1.600   1.083
 1421TIP3    H2 4209   5.161   1.468   1.156
 1422TIP3   OH2 4210   1.679   4.097   6.042
 1422TIP3    H1 4211   1.723   4.027   6.091
 1422TIP3    H2 4212   1.652   4.159   6.110
 1423TIP3   OH2 4213   4.867   5.254   5.624
 1423TIP3    H1 4214   4.822   5.318   5.569
 1423TIP3    H2 4215   4.937   5.304   5.667
 1424TIP3   OH2 4216   0.249   1.087   6.584
 1424TIP3    H1 4217   0.320   1.023   6.593
 1424TIP3    H2 4218   0.291   1.171   6.602
 1425TIP3   OH2 4219   1.007   2.389   5.755
 1425TIP3    H1 4220   0.990   2.481   5.733
 1425TIP3    H2 4221   1.001   2.386   5.850
 1426TIP3   OH2 4222   6.641   0.994   4.502
 1426TIP3    H1 4223   6.711   0.944   4.461
 1426TIP3    H2 4224   6.661   0.990   4.596
 1427TIP3   OH2 4225   2.910   7.200   0.127
 1427TIP3    H1 4226   2.817   7.198   0.105
 1427TIP3    H2 4227   2.952   7.243   0.052
 1428TIP3   OH2 4228   5.344   3.640   4.050
 1428TIP3    H1 4229   5.297   3.638   3.966
 1428TIP3    H2 4230   5.294   3.582   4.107
 1429TIP3   OH2 4231   0.512   7.001   1.782
 1429TIP3    H1 4232   0.421   6.971   1.778
 1429TIP3    H2 4233   0.528   7.042   1.697
 1430TIP3   OH2 4234   0.888   5.397   4.629
 1430TIP3    H1 4235   0.885   5.365   4.539
 1430TIP3    H2 4236   0.872   5.319   4.682
 1431TIP3   OH2 4237   2.585   5.249   0.482
 1431TIP3    H1 4238   2.634   5.176   0.520
 1431TIP3    H2 4239   2.650   5.300   0.434
 1432TIP3   OH2 4240   8.050   3.196   3.924
 1432TIP3    H1 4241   8.126   3.245   3.957
 1432TIP3    H2 4242   8.086   3.140   3.855
 1433TIP3   OH2 4243   8.222   1.293   3.053
 1433TIP3    H1 4244   8.207   1.387   3.042
 1433TIP3    H2 4245   8.136   1.258   3.075
 1434TIP3   OH2 4246   1.237   1.444   4.176
 1434TIP3    H1 4247   1.142   1.452   4.181
 1434TIP3    H2 4248   1.264   1.423   4.265
 1435TIP3   OH2 4249   1.121   2.841   1.359
 1435TIP3    H1 4250   1.189   2.797   1.410
 1435TIP3    H2 4251   1.094   2.915   1.412
 1436TIP3   OH2 4252   8.129   3.371   3.626
 1436TIP3    H1 4253   8.130   3.397   3.718
 1436TIP3    H2 4254   8.037   3.361   3.604
 1437TIP3   OH2 4255   2.250   7.209   3.300
 1437TIP3    H1 4256   2.215   7.295   3.322
 1437TIP3    H2 4257   2.344   7.223   3.287
 1438TIP3   OH2 4258   3.707   2.018   3.267
 1438TIP3    H1 4259   3.740   2.056   3.349
 1438TIP3    H2 4260   3.780   2.029   3.205
 1439TIP3   OH2 4261   4.327   3.788   1.648
 1439TIP3    H1 4262   4.316   3.716   1.585
 1439TIP3    H2 4263   4.265   3.854   1.618
 1440TIP3   OH2 4264   0.904   4.065   2.626
 1440TIP3    H1 4265   0.823   4.033   2.586
 1440TIP3    H2 4266   0.954   4.103   2.554
 1441TIP3   OH2 4267   6.488   2.145   6.267
 1441TIP3    H1 4268   6.400   2.161   6.234
 1441TIP3    H2 4269   6.483   2.062   6.313
 1442TIP3   OH2 4270   6.579   1.306   3.629
 1442TIP3    H1 4271   6.535   1.385   3.658
 1442TIP3    H2 4272   6.662   1.336   3.592
 1443TIP3   OH2 4273   6.975   2.821   1.467
 1443TIP3    H1 4274   6.988   2.765   1.390
 1443TIP3    H2 4275   6.908   2.776   1.518
 1444TIP3   OH2 4276   0.440   6.529   0.078
 1444TIP3    H1 4277   0.505   6.459   0.084
 1444TIP3    H2 4278   0.433   6.547  -0.016
 1445TIP3   OH2 4279   4.971   2.271   0.329
 1445TIP3    H1 4280   5.042   2.290   0.391
 1445TIP3    H2 4281   5.014   2.271   0.244
 1446TIP3   OH2 4282   0.424   4.358   1.396
 1446TIP3    H1 4283   0.338   4.344   1.436
 1446TIP3    H2 4284   0.406   4.378   1.305
 1447TIP3   OH2 4285   5.020   7.390   3.755
 1447TIP3    H1 4286   5.003   7.381   3.661
 1447TIP3    H2 4287   5.114   7.405   3.761
 1448TIP3   OH2 4288   6.103   0.162   0.379
 1448TIP3    H1 4289   6.128   0.183   0.469
 1448TIP3    H2 4290   6.058   0.078   0.385
 1449TIP3   OH2 4291   0.593   1.418   0.605
 1449TIP3    H1 4292   0.686   1.409   0.628
 1449TIP3    H2 4293   0.588   1.500   0.556
 1450TIP3   OH2 4294   3.956   2.252   4.952
 1450TIP3    H1 4295   4.051   2.238   4.943
 1450TIP3    H2 4296   3.946   2.288   5.040
 1451TIP3   OH2 4297   4.848   0.220   1.265
 1451TIP3    H1 4298   4.777   0.239   1.204
 1451TIP3    H2 4299   4.810   0.156   1.326
 1452TIP3   OH2 4300   1.325   5.974   0.133
 1452TIP3    H1 4301   1.268   5.992   0.208
 1452TIP3    H2 4302   1.268   5.984   0.057
 1453TIP3   OH2 4303   5.429   5.483   1.606
 1453TIP3    H1 4304   5.398   5.459   1.694
 1453TIP3    H2 4305   5.376   5.430   1.547
 1454TIP3   OH2 4306   5.845   1.326   2.671
 1454TIP3    H1 4307   5.870   1.373   2.751
 1454TIP3    H2 4308   5.858   1.234   2.693
 1455TIP3   OH2 4309   3.924   3.793   2.528
 1455TIP3    H1 4310   3.830   3.807   2.534
 1455TIP3    H2 4311   3.958   3.818   2.614
 1456TIP3   OH2 4312   8.189   7.695   2.133
 1456TIP3    H1 4313   8.179   7.754   2.208
 1456TIP3    H2 4314   8.101   7.660   2.119
 1457TIP3   OH2 4315   2.228   0.696   0.847
 1457TIP3    H1 4316   2.161   0.752   0.809
 1457TIP3    H2 4317   2.182   0.617   0.873
 1458TIP3   OH2 4318   6.617   4.794   4.822
 1458TIP3    H1 4319   6.564   4.871   4.843
 1458TIP3    H2 4320   6.575   4.722   4.869
 1459TIP3   OH2 4321   1.389   0.294   4.848
 1459TIP3    H1 4322   1.389   0.371   4.791
 1459TIP3    H2 4323   1.466   0.305   4.904
 1460TIP3   OH2 4324   6.484   4.741   4.581
 1460TIP3    H1 4325   6.463   4.831   4.556
 1460TIP3    H2 4326   6.527   4.749   4.666
 1461TIP3   OH2 4327   7.805   3.684   1.827
 1461TIP3    H1 4328   7.889   3.644   1.804
 1461TIP3    H2 4329   7.768   3.626   1.894
 1462TIP3   OH2 4330   1.645   3.079   4.449
 1462TIP3    H1 4331   1.710   3.085   4.379
 1462TIP3    H2 4332   1.578   3.144   4.425
 1463TIP3   OH2 4333   0.781   3.192   0.432
 1463TIP3    H1 4334   0.760   3.256   0.364
 1463TIP3    H2 4335   0.737   3.225   0.510
 1464TIP3   OH2 4336   4.366   6.996   3.108
 1464TIP3    H1 4337   4.315   6.961   3.035
 1464TIP3    H2 4338   4.455   6.969   3.089
 1465TIP3   OH2 4339   6.856   0.631   6.319
 1465TIP3    H1 4340   6.844   0.693   6.247
 1465TIP3    H2 4341   6.770   0.591   6.330
 1466TIP3   OH2 4342   2.557   0.179   2.119
 1466TIP3    H1 4343   2.637   0.173   2.172
 1466TIP3    H2 4344   2.511   0.097   2.135
 1467TIP3   OH2 4345   5.679   7.451   0.706
 1467TIP3    H1 4346   5.633   7.515   0.761
 1467TIP3    H2 4347   5.623   7.442   0.629
 1468TIP3   OH2 4348   4.851   4.079   5.794
 1468TIP3    H1 4349   4.884   4.169   5.785
 1468TIP3    H2 4350   4.930   4.025   5.793
 1469TIP3   OH2 4351   1.685   6.265   6.040
 1469TIP3    H1 4352   1.668   6.326   6.112
 1469TIP3    H2 4353   1.763   6.300   5.997
 1470TIP3   OH2 4354   4.860   5.700   4.209
 1470TIP3    H1 4355   4.886   5.759   4.279
 1470TIP3    H2 4356   4.915   5.622   4.221
 1471TIP3   OH2 4357   7.089   5.952   3.793
 1471TIP3    H1 4358   7.141   5.922   3.868
 1471TIP3    H2 4359   7.042   6.028   3.827
 1472TIP3   OH2 4360   1.064   3.286   1.657
 1472TIP3    H1 4361   1.031   3.340   1.728
 1472TIP3    H2 4362   1.089   3.348   1.588
 1473TIP3   OH2 4363   8.029   6.193   0.358
 1473TIP3    H1 4364   8.004   6.115   0.309
 1473TIP3    H2 4365   7.950   6.246   0.360
 1474TIP3   OH2 4366   6.526   7.300   0.268
 1474TIP3    H1 4367   6.575   7.320   0.188
 1474TIP3    H2 4368   6.574   7.346   0.338
 1475TIP3   OH2 4369   1.513   2.961   5.058
 1475TIP3    H1 4370   1.481   2.913   4.982
 1475TIP3    H2 4371   1.565   2.897   5.107
 1476TIP3   OH2 4372   1.388   1.064   6.292
 1476TIP3    H1 4373   1.368   1.015   6.212
 1476TIP3    H2 4374   1.444   1.004   6.343
 1477TIP3   OH2 4375   5.754   3.070   2.153
 1477TIP3    H1 4376   5.665   3.096   2.175
 1477TIP3    H2 4377   5.761   3.087   2.059
 1478TIP3   OH2 4378   7.122   0.006   0.336
 1478TIP3    H1 4379   7.106   0.029   0.245
 1478TIP3    H2 4380   7.065   0.065   0.386
 1479TIP3   OH2 4381   6.431   1.112   2.152
 1479TIP3    H1 4382   6.375   1.174   2.105
 1479TIP3    H2 4383   6.403   1.026   2.119
 1480TIP3   OH2 4384   5.685   2.808   6.077
 1480TIP3    H1 4385   5.691   2.900   6.051
 1480TIP3    H2 4386   5.689   2.760   5.994
 1481TIP3   OH2 4387   2.669   7.269   3.018
 1481TIP3    H1 4388   2.716   7.334   2.966
 1481TIP3    H2 4389   2.577   7.292   3.008
 1482TIP3   OH2 4390   6.726   0.448   1.207
 1482TIP3    H1 4391   6.813   0.442   1.246
 1482TIP3    H2 4392   6.741   0.476   1.117
 1483TIP3   OH2 4393   3.156   5.304   2.216
 1483TIP3    H1 4394   3.179   5.343   2.132
 1483TIP3    H2 4395   3.077   5.253   2.198
 1484TIP3   OH2 4396   2.025   3.597   4.019
 1484TIP3    H1 4397   1.990   3.508   4.010
 1484TIP3    H2 4398   2.119   3.585   4.027
 1485TIP3   OH2 4399   6.111   5.376   5.741
 1485TIP3    H1 4400   6.016   5.389   5.736
 1485TIP3    H2 4401   6.125   5.338   5.828
 1486TIP3   OH2 4402   7.232   5.466   5.568
 1486TIP3    H1 4403   7.154   5.496   5.616
 1486TIP3    H2 4404   7.211   5.482   5.476
 1487TIP3   OH2 4405   3.270   6.734   5.900
 1487TIP3    H1 4406   3.275   6.674   5.826
 1487TIP3    H2 4407   3.344   6.711   5.956
 1488TIP3   OH2 4408   7.312   2.435   0.580
 1488TIP3    H1 4409   7.262   2.355   0.573
 1488TIP3    H2 4410   7.364   2.425   0.660
 1489TIP3   OH2 4411   7.923   4.223   1.260
 1489TIP3    H1 4412   7.977   4.230   1.181
 1489TIP3    H2 4413   7.867   4.300   1.258
 1490TIP3   OH2 4414   4.319   3.395   4.732
 1490TIP3    H1 4415   4.266   3.315   4.727
 1490TIP3    H2 4416   4.339   3.405   4.825
 1491TIP3   OH2 4417   2.526   0.284   2.721
 1491TIP3    H1 4418   2.481   0.286   2.636
 1491TIP3    H2 4419   2.517   0.373   2.755
 1492TIP3   OH2 4420   6.952   4.835   1.952
 1492TIP3    H1 4421   6.891   4.909   1.954
 1492TIP3    H2 4422   7.017   4.856   2.019
 1493TIP3   OH2 4423   2.793   4.506   4.802
 1493TIP3    H1 4424   2.780   4.574   4.869
 1493TIP3    H2 4425   2.847   4.548   4.735
 1494TIP3   OH2 4426   4.730   7.275   1.164
 1494TIP3    H1 4427   4.775   7.359   1.155
 1494TIP3    H2 4428   4.651   7.295   1.214
 1495TIP3   OH2 4429   2.515   0.940   6.331
 1495TIP3    H1 4430   2.463   0.910   6.257
 1495TIP3    H2 4431   2.596   0.973   6.291
 1496TIP3   OH2 4432   6.624   2.261   2.455
 1496TIP3    H1 4433   6.556   2.328   2.456
 1496TIP3    H2 4434   6.585   2.187   2.409
 1497TIP3   OH2 4435   2.377   0.218   4.462
 1497TIP3    H1 4436   2.377   0.313   4.470
 1497TIP3    H2 4437   2.418   0.187   4.543
 1498TIP3   OH2 4438   6.921   4.906   6.182
 1498TIP3    H1 4439   6.932   4.996   6.212
 1498TIP3    H2 4440   6.830   4.885   6.203
 1499TIP3   OH2 4441   2.362   5.749   5.147
 1499TIP3    H1 4442   2.373   5.827   5.093
 1499TIP3    H2 4443   2.310   5.689   5.094
 1500TIP3   OH2 4444   1.320   4.017   2.640
 1500TIP3    H1 4445   1.251   3.965   2.598
 1500TIP3    H2 4446   1.399   3.965   2.629
 1501TIP3   OH2 4447   3.743   7.382   4.719
 1501TIP3    H1 4448   3.721   7.471   4.745
 1501TIP3    H2 4449   3.662   7.332   4.730
 1502TIP3   OH2 4450   5.332   3.870   0.708
 1502TIP3    H1 4451   5.300   3.781   0.726
 1502TIP3    H2 4452   5.425   3.858   0.689
 1503TIP3   OH2 4453   3.040   3.210   0.670
 1503TIP3    H1 4454   2.992   3.142   0.716
 1503TIP3    H2 4455   2.998   3.292   0.696
 1504TIP3   OH2 4456   7.316   0.981   3.400
 1504TIP3    H1 4457   7.276   1.063   3.428
 1504TIP3    H2 4458   7.331   0.933   3.481
 1505TIP3   OH2 4459   2.694   4.886   3.848
 1505TIP3    H1 4460   2.651   4.884   3.763
 1505TIP3    H2 4461   2.766   4.823   3.841
 1506TIP3   OH2 4462   3.372   5.987   3.649
 1506TIP3    H1 4463   3.297   6.033   3.609
 1506TIP3    H2 4464   3.422   6.056   3.693
 1507TIP3   OH2 4465   3.142   1.805   0.416
 1507TIP3    H1 4466   3.220   1.861   0.423
 1507TIP3    H2 4467   3.113   1.794   0.507
 1508TIP3   OH2 4468   0.887   6.557   3.482
 1508TIP3    H1 4469   0.840   6.499   3.542
 1508TIP3    H2 4470   0.819   6.591   3.424
 1509TIP3   OH2 4471   8.097   3.279   0.111
 1509TIP3    H1 4472   8.074   3.344   0.044
 1509TIP3    H2 4473   8.054   3.309   0.190
 1510TIP3   OH2 4474   1.179   6.171   1.928
 1510TIP3    H1 4475   1.241   6.207   1.991
 1510TIP3    H2 4476   1.115   6.124   1.981
 1511TIP3   OH2 4477   3.414   2.032   2.694
 1511TIP3    H1 4478   3.355   2.052   2.622
 1511TIP3    H2 4479   3.479   1.972   2.657
 1512TIP3   OH2 4480   0.183   1.077   2.024
 1512TIP3    H1 4481   0.205   1.155   2.076
 1512TIP3    H2 4482   0.260   1.020   2.033
 1513TIP3   OH2 4483   5.565   0.195   6.138
 1513TIP3    H1 4484   5.506   0.248   6.085
 1513TIP3    H2 4485   5.642   0.251   6.153
 1514TIP3   OH2 4486   0.939   6.018   3.492
 1514TIP3    H1 4487   0.950   5.985   3.403
 1514TIP3    H2 4488   1.009   5.975   3.543
 1515TIP3   OH2 4489   6.592   4.203   3.572
 1515TIP3    H1 4490   6.519   4.216   3.631
 1515TIP3    H2 4491   6.665   4.252   3.612
 1516TIP3   OH2 4492   7.012   3.591   4.585
 1516TIP3    H1 4493   6.939   3.618   4.530
 1516TIP3    H2 4494   7.000   3.496   4.596
 1517TIP3   OH2 4495   3.015   6.316   1.803
 1517TIP3    H1 4496   3.058   6.399   1.823
 1517TIP3    H2 4497   2.998   6.276   1.888
 1518TIP3   OH2 4498   5.790   7.630   4.220
 1518TIP3    H1 4499   5.804   7.689   4.293
 1518TIP3    H2 4500   5.820   7.545   4.251
 1519TIP3   OH2 4501   0.759   4.624   2.154
 1519TIP3    H1 4502   0.699   4.549   2.155
 1519TIP3    H2 4503   0.766   4.651   2.245
 1520TIP3   OH2 4504   0.526   2.772   0.635
 1520TIP3    H1 4505   0.445   2.824   0.640
 1520TIP3    H2 4506   0.590   2.832   0.598
 1521TIP3   OH2 4507   2.279   4.486   3.545
 1521TIP3    H1 4508   2.282   4.575   3.509
 1521TIP3    H2 4509   2.256   4.430   3.470
 1522TIP3   OH2 4510   2.012   4.364   1.716
 1522TIP3    H1 4511   1.921   4.335   1.702
 1522TIP3    H2 4512   2.003   4.455   1.746
 1523TIP3   OH2 4513   1.006   1.838   3.398
 1523TIP3    H1 4514   0.986   1.857   3.306
 1523TIP3    H2 4515   1.086   1.889   3.415
 1524TIP3   OH2 4516   1.578   4.583   4.284
 1524TIP3    H1 4517   1.567   4.496   4.245
 1524TIP3    H2 4518   1.490   4.606   4.314
 1525TIP3   OH2 4519   2.340   3.913   2.553
 1525TIP3    H1 4520   2.417   3.856   2.544
 1525TIP3    H2 4521   2.358   3.986   2.495
 1526TIP3   OH2 4522   8.103   5.572   6.037
 1526TIP3    H1 4523   8.163   5.641   6.010
 1526TIP3    H2 4524   8.101   5.511   5.963
 1527TIP3   OH2 4525   3.808   4.518   4.351
 1527TIP3    H1 4526   3.765   4.486   4.272
 1527TIP3    H2 4527   3.847   4.601   4.325
 1528TIP3   OH2 4528   5.303   0.604   0.545
 1528TIP3    H1 4529   5.278   0.679   0.598
 1528TIP3    H2 4530   5.347   0.642   0.469
 1529TIP3   OH2 4531   8.170   4.060   2.898
 1529TIP3    H1 4532   8.230   4.129   2.927
 1529TIP3    H2 4533   8.083   4.096   2.915
 1530TIP3   OH2 4534   3.115   1.499   2.335
 1530TIP3    H1 4535   3.200   1.542   2.327
 1530TIP3    H2 4536   3.135   1.406   2.344
 1531TIP3   OH2 4537   3.746   6.896   2.252
 1531TIP3    H1 4538   3.727   6.815   2.299
 1531TIP3    H2 4539   3.842   6.895   2.242
 1532TIP3   OH2 4540   4.307   1.184   0.528
 1532TIP3    H1 4541   4.335   1.157   0.615
 1532TIP3    H2 4542   4.388   1.207   0.482
 1533TIP3   OH2 4543   4.638   7.315   3.365
 1533TIP3    H1 4544   4.636   7.327   3.460
 1533TIP3    H2 4545   4.569   7.250   3.348
 1534TIP3   OH2 4546   2.347   0.577   3.701
 1534TIP3    H1 4547   2.341   0.661   3.657
 1534TIP3    H2 4548   2.397   0.595   3.781
 1535TIP3   OH2 4549   2.351   5.683   6.431
 1535TIP3    H1 4550   2.391   5.660   6.347
 1535TIP3    H2 4551   2.422   5.722   6.481
 1536TIP3   OH2 4552   8.121   6.531   3.760
 1536TIP3    H1 4553   8.090   6.589   3.691
 1536TIP3    H2 4554   8.209   6.562   3.780
 1537TIP3   OH2 4555   3.313   3.990   0.057
 1537TIP3    H1 4556   3.374   3.924   0.023
 1537TIP3    H2 4557   3.241   3.990  -0.006
 1538TIP3   OH2 4558   3.764   4.649   6.654
 1538TIP3    H1 4559   3.792   4.624   6.566
 1538TIP3    H2 4560   3.669   4.649   6.650
 1539TIP3   OH2 4561   2.793   5.109   5.591
 1539TIP3    H1 4562   2.704   5.139   5.611
 1539TIP3    H2 4563   2.781   5.037   5.529
 1540TIP3   OH2 4564   6.083   2.119   2.340
 1540TIP3    H1 4565   6.126   2.076   2.415
 1540TIP3    H2 4566   6.010   2.167   2.379
 1541TIP3   OH2 4567   5.068   3.007   5.845
 1541TIP3    H1 4568   5.073   2.995   5.750
 1541TIP3    H2 4569   5.132   2.944   5.880
 1542TIP3   OH2 4570   6.862   5.807   1.516
 1542TIP3    H1 4571   6.867   5.824   1.422
 1542TIP3    H2 4572   6.832   5.890   1.554
 1543TIP3   OH2 4573   1.071   1.665   3.088
 1543TIP3    H1 4574   1.158   1.700   3.070
 1543TIP3    H2 4575   1.023   1.739   3.126
 1544TIP3   OH2 4576   6.530   4.332   5.601
 1544TIP3    H1 4577   6.483   4.249   5.602
 1544TIP3    H2 4578   6.461   4.399   5.602
 1545TIP3   OH2 4579   0.276   3.814   2.036
 1545TIP3    H1 4580   0.215   3.783   2.103
 1545TIP3    H2 4581   0.262   3.756   1.962
 1546TIP3   OH2 4582   8.046   4.176   4.634
 1546TIP3    H1 4583   8.031   4.184   4.540
 1546TIP3    H2 4584   8.033   4.264   4.668
 1547TIP3   OH2 4585   2.309   5.341   6.522
 1547TIP3    H1 4586   2.361   5.421   6.516
 1547TIP3    H2 4587   2.282   5.323   6.432
 1548TIP3   OH2 4588   2.680   4.580   4.112
 1548TIP3    H1 4589   2.648   4.670   4.119
 1548TIP3    H2 4590   2.637   4.545   4.034
 1549TIP3   OH2 4591   6.943   0.014   4.986
 1549TIP3    H1 4592   6.871  -0.036   5.023
 1549TIP3    H2 4593   6.904   0.095   4.955
 1550TIP3   OH2 4594   6.821   7.768   3.097
 1550TIP3    H1 4595   6.897   7.715   3.122
 1550TIP3    H2 4596   6.858   7.845   3.055
 1551TIP3   OH2 4597   7.507   1.061   6.752
 1551TIP3    H1 4598   7.432   1.070   6.811
 1551TIP3    H2 4599   7.481   0.995   6.689
 1552TIP3   OH2 4600   0.815   6.856   6.141
 1552TIP3    H1 4601   0.876   6.922   6.106
 1552TIP3    H2 4602   0.853   6.772   6.115
 1553TIP3   OH2 4603   0.916   1.964   1.758
 1553TIP3    H1 4604   0.993   1.937   1.808
 1553TIP3    H2 4605   0.923   1.915   1.676
 1554TIP3   OH2 4606   6.132   6.427   5.160
 1554TIP3    H1 4607   6.072   6.368   5.115
 1554TIP3    H2 4608   6.199   6.369   5.197
 1555TIP3   OH2 4609   2.550   2.158   0.253
 1555TIP3    H1 4610   2.559   2.140   0.346
 1555TIP3    H2 4611   2.625   2.115   0.212
 1556TIP3   OH2 4612   7.610   6.696   3.765
 1556TIP3    H1 4613   7.696   6.734   3.781
 1556TIP3    H2 4614   7.627   6.617   3.713
 1557TIP3   OH2 4615   6.319   6.354   6.380
 1557TIP3    H1 4616   6.342   6.327   6.291
 1557TIP3    H2 4617   6.250   6.420   6.368
 1558TIP3   OH2 4618   0.415   0.833   4.225
 1558TIP3    H1 4619   0.357   0.863   4.295
 1558TIP3    H2 4620   0.503   0.844   4.260
 1559TIP3   OH2 4621   6.021   2.543   3.723
 1559TIP3    H1 4622   5.983   2.480   3.784
 1559TIP3    H2 4623   5.961   2.617   3.724
 1560TIP3   OH2 4624   0.081   5.315   5.060
 1560TIP3    H1 4625   0.126   5.369   4.994
 1560TIP3    H2 4626   0.088   5.366   5.141
 1561TIP3   OH2 4627   0.756   4.810   1.333
 1561TIP3    H1 4628   0.716   4.876   1.278
 1561TIP3    H2 4629   0.685   4.750   1.355
 1562TIP3   OH2 4630   1.488   0.546   2.991
 1562TIP3    H1 4631   1.455   0.537   2.902
 1562TIP3    H2 4632   1.443   0.478   3.040
 1563TIP3   OH2 4633   1.624   4.442   2.146
 1563TIP3    H1 4634   1.719   4.433   2.159
 1563TIP3    H2 4635   1.590   4.465   2.233
 1564TIP3   OH2 4636   4.476   4.643   2.951
 1564TIP3    H1 4637   4.513   4.568   2.903
 1564TIP3    H2 4638   4.382   4.639   2.933
 1565TIP3   OH2 4639   6.860   3.974   4.685
 1565TIP3    H1 4640   6.855   3.935   4.597
 1565TIP3    H2 4641   6.944   3.943   4.720
 1566TIP3   OH2 4642   6.036   7.661   1.191
 1566TIP3    H1 4643   6.023   7.746   1.149
 1566TIP3    H2 4644   5.986   7.600   1.138
 1567TIP3   OH2 4645   4.121   2.184   1.771
 1567TIP3    H1 4646   4.171   2.245   1.824
 1567TIP3    H2 4647   4.083   2.237   1.701
 1568TIP3   OH2 4648   2.749   4.796   2.418
 1568TIP3    H1 4649   2.819   4.772   2.357
 1568TIP3    H2 4650   2.691   4.852   2.368
 1569TIP3   OH2 4651   0.594   2.758   6.180
 1569TIP3    H1 4652   0.616   2.692   6.114
 1569TIP3    H2 4653   0.679   2.791   6.209
 1570TIP3   OH2 4654   1.862   4.750   3.143
 1570TIP3    H1 4655   1.935   4.810   3.131
 1570TIP3    H2 4656   1.822   4.744   3.057
 1571TIP3   OH2 4657   2.993   3.992   3.142
 1571TIP3    H1 4658   2.901   3.977   3.121
 1571TIP3    H2 4659   2.995   4.009   3.236
 1572TIP3   OH2 4660   1.220   3.789   5.194
 1572TIP3    H1 4661   1.241   3.809   5.103
 1572TIP3    H2 4662   1.131   3.753   5.192
 1573TIP3   OH2 4663   6.480   3.600   1.926
 1573TIP3    H1 4664   6.526   3.637   1.851
 1573TIP3    H2 4665   6.487   3.668   1.993
 1574TIP3   OH2 4666   6.972   1.324   4.473
 1574TIP3    H1 4667   6.884   1.318   4.436
 1574TIP3    H2 4668   6.991   1.235   4.505
 1575TIP3   OH2 4669   5.937   4.253   1.972
 1575TIP3    H1 4670   5.845   4.245   1.998
 1575TIP3    H2 4671   5.941   4.211   1.886
 1576TIP3   OH2 4672   5.429   2.335   5.237
 1576TIP3    H1 4673   5.478   2.297   5.164
 1576TIP3    H2 4674   5.470   2.297   5.316
 1577TIP3   OH2 4675   6.250   1.174   2.591
 1577TIP3    H1 4676   6.230   1.180   2.684
 1577TIP3    H2 4677   6.247   1.265   2.560
 1578TIP3   OH2 4678   7.893   5.018   2.314
 1578TIP3    H1 4679   7.881   5.055   2.401
 1578TIP3    H2 4680   7.879   4.924   2.326
 1579TIP3   OH2 4681   2.698   3.580   3.911
 1579TIP3    H1 4682   2.642   3.508   3.884
 1579TIP3    H2 4683   2.787   3.545   3.908
 1580TIP3   OH2 4684   2.199   6.311   2.657
 1580TIP3    H1 4685   2.222   6.361   2.735
 1580TIP3    H2 4686   2.103   6.316   2.654
 1581TIP3   OH2 4687   3.675   6.583   5.956
 1581TIP3    H1 4688   3.642   6.523   6.024
 1581TIP3    H2 4689   3.718   6.654   6.005
 1582TIP3   OH2 4690   0.598   5.322   1.181
 1582TIP3    H1 4691   0.518   5.277   1.154
 1582TIP3    H2 4692   0.571   5.413   1.193
 1583TIP3   OH2 4693   5.556   4.825   1.660
 1583TIP3    H1 4694   5.559   4.876   1.741
 1583TIP3    H2 4695   5.644   4.834   1.624
 1584TIP3   OH2 4696   6.839   1.875   1.739
 1584TIP3    H1 4697   6.818   1.897   1.649
 1584TIP3    H2 4698   6.844   1.780   1.741
 1585TIP3   OH2 4699   1.455   3.411   2.611
 1585TIP3    H1 4700   1.437   3.501   2.636
 1585TIP3    H2 4701   1.550   3.402   2.619
 1586TIP3   OH2 4702   1.586   5.755   0.120
 1586TIP3    H1 4703   1.593   5.786   0.210
 1586TIP3    H2 4704   1.492   5.756   0.102
 1587TIP3   OH2 4705   2.811   6.873   6.334
 1587TIP3    H1 4706   2.849   6.863   6.247
 1587TIP3    H2 4707   2.836   6.962   6.361
 1588TIP3   OH2 4708   7.781   4.372   3.696
 1588TIP3    H1 4709   7.779   4.406   3.786
 1588TIP3    H2 4710   7.730   4.436   3.645
 1589TIP3   OH2 4711   6.253   5.049   2.776
 1589TIP3    H1 4712   6.225   5.139   2.796
 1589TIP3    H2 4713   6.344   5.058   2.748
 1590TIP3   OH2 4714   1.073   6.860   4.638
 1590TIP3    H1 4715   0.993   6.887   4.683
 1590TIP3    H2 4716   1.048   6.857   4.545
 1591TIP3   OH2 4717   6.011   1.213   0.303
 1591TIP3    H1 4718   6.036   1.132   0.259
 1591TIP3    H2 4719   5.956   1.185   0.376
 1592TIP3   OH2 4720   4.040   1.852   0.054
 1592TIP3    H1 4721   4.061   1.923   0.116
 1592TIP3    H2 4722   3.975   1.891  -0.005
 1593TIP3   OH2 4723   1.772   3.118   3.062
 1593TIP3    H1 4724   1.769   3.140   3.155
 1593TIP3    H2 4725   1.773   3.202   3.017
 1594TIP3   OH2 4726   6.332   1.082   3.918
 1594TIP3    H1 4727   6.261   1.038   3.871
 1594TIP3    H2 4728   6.329   1.045   4.006
 1595TIP3   OH2 4729   2.910   4.590   5.983
 1595TIP3    H1 4730   2.970   4.621   6.052
 1595TIP3    H2 4731   2.858   4.667   5.960
 1596TIP3   OH2 4732   3.139   5.954   0.808
 1596TIP3    H1 4733   3.063   5.896   0.798
 1596TIP3    H2 4734   3.110   6.038   0.772
 1597TIP3   OH2 4735   4.705   7.488   4.690
 1597TIP3    H1 4736   4.766   7.456   4.623
 1597TIP3    H2 4737   4.622   7.443   4.671
 1598TIP3   OH2 4738   4.872   5.413   0.215
 1598TIP3    H1 4739   4.898   5.397   0.306
 1598TIP3    H2 4740   4.778   5.398   0.215
 1599TIP3   OH2 4741   0.644   4.716   1.912
 1599TIP3    H1 4742   0.657   4.700   2.005
 1599TIP3    H2 4743   0.711   4.664   1.869
 1600TIP3   OH2 4744   2.627   4.921   4.849
 1600TIP3    H1 4745   2.721   4.936   4.839
 1600TIP3    H2 4746   2.597   4.893   4.763
 1601TIP3   OH2 4747   4.706   0.927   5.076
 1601TIP3    H1 4748   4.635   0.927   5.140
 1601TIP3    H2 4749   4.741   1.016   5.079
 1602TIP3   OH2 4750   6.404   0.130   4.825
 1602TIP3    H1 4751   6.431   0.064   4.889
 1602TIP3    H2 4752   6.475   0.193   4.824
 1603TIP3   OH2 4753   6.773   6.018   4.703
 1603TIP3    H1 4754   6.849   6.041   4.755
 1603TIP3    H2 4755   6.703   6.003   4.768
 1604TIP3   OH2 4756   4.265   7.112   1.394
 1604TIP3    H1 4757   4.274   7.169   1.471
 1604TIP3    H2 4758   4.187   7.143   1.349
 1605TIP3   OH2 4759   6.739   2.897   3.018
 1605TIP3    H1 4760   6.662   2.858   3.060
 1605TIP3    H2 4761   6.713   2.911   2.927
 1606TIP3   OH2 4762   2.810   0.088   0.740
 1606TIP3    H1 4763   2.794  -0.002   0.712
 1606TIP3    H2 4764   2.905   0.098   0.736
 1607TIP3   OH2 4765   6.247   7.520   3.084
 1607TIP3    H1 4766   6.321   7.496   3.139
 1607TIP3    H2 4767   6.201   7.587   3.134
 1608TIP3   OH2 4768   3.122   4.847   6.418
 1608TIP3    H1 4769   3.193   4.783   6.421
 1608TIP3    H2 4770   3.153   4.921   6.469
 1609TIP3   OH2 4771   5.018   6.166   0.293
 1609TIP3    H1 4772   5.005   6.120   0.376
 1609TIP3    H2 4773   4.930   6.186   0.262
 1610TIP3   OH2 4774   4.821   7.257   6.712
 1610TIP3    H1 4775   4.786   7.194   6.649
 1610TIP3    H2 4776   4.759   7.255   6.785
 1611TIP3   OH2 4777   3.143   2.428   5.823
 1611TIP3    H1 4778   3.168   2.364   5.756
 1611TIP3    H2 4779   3.093   2.378   5.887
 1612TIP3   OH2 4780   4.888   7.790   1.007
 1612TIP3    H1 4781   4.971   7.766   1.047
 1612TIP3    H2 4782   4.856   7.863   1.061
 1613TIP3   OH2 4783   5.752   1.080   5.458
 1613TIP3    H1 4784   5.742   1.008   5.520
 1613TIP3    H2 4785   5.662   1.106   5.437
 1614TIP3   OH2 4786   7.072   2.921   5.928
 1614TIP3    H1 4787   7.027   2.905   5.845
 1614TIP3    H2 4788   7.163   2.899   5.911
 1615TIP3   OH2 4789   7.691   5.263   0.596
 1615TIP3    H1 4790   7.674   5.345   0.643
 1615TIP3    H2 4791   7.755   5.287   0.529
 1616TIP3   OH2 4792   5.133   4.295   0.603
 1616TIP3    H1 4793   5.189   4.218   0.595
 1616TIP3    H2 4794   5.099   4.290   0.693
 1617TIP3   OH2 4795   3.195   1.873   3.588
 1617TIP3    H1 4796   3.145   1.848   3.510
 1617TIP3    H2 4797   3.204   1.968   3.582
 1618TIP3   OH2 4798   5.363   3.223   3.464
 1618TIP3    H1 4799   5.357   3.256   3.374
 1618TIP3    H2 4800   5.305   3.281   3.514
 1619TIP3   OH2 4801   0.749   2.761   4.185
 1619TIP3    H1 4802   0.736   2.666   4.188
 1619TIP3    H2 4803   0.810   2.775   4.112
 1620TIP3   OH2 4804   3.178   6.906   0.713
 1620TIP3    H1 4805   3.234   6.860   0.776
 1620TIP3    H2 4806   3.203   6.869   0.628
 1621TIP3   OH2 4807   6.824   2.486   1.911
 1621TIP3    H1 4808   6.753   2.509   1.850
 1621TIP3    H2 4809   6.798   2.526   1.993
 1622TIP3   OH2 4810   1.538   7.593   4.022
 1622TIP3    H1 4811   1.492   7.631   4.097
 1622TIP3    H2 4812   1.482   7.521   3.993
 1623TIP3   OH2 4813   2.772   5.065   4.617
 1623TIP3    H1 4814   2.771   5.128   4.545
 1623TIP3    H2 4815   2.849   5.089   4.669
 1624TIP3   OH2 4816   1.643   0.346   0.857
 1624TIP3    H1 4817   1.697   0.408   0.808
 1624TIP3    H2 4818   1.656   0.370   0.949
 1625TIP3   OH2 4819   5.308   3.765   1.228
 1625TIP3    H1 4820   5.334   3.693   1.287
 1625TIP3    H2 4821   5.345   3.843   1.268
 1626TIP3   OH2 4822   7.747   7.624   2.881
 1626TIP3    H1 4823   7.784   7.558   2.938
 1626TIP3    H2 4824   7.808   7.629   2.807
 1627TIP3   OH2 4825   1.005   6.551   0.789
 1627TIP3    H1 4826   0.971   6.543   0.878
 1627TIP3    H2 4827   0.928   6.554   0.733
 1628TIP3   OH2 4828   6.817   3.361   1.086
 1628TIP3    H1 4829   6.816   3.285   1.028
 1628TIP3    H2 4830   6.910   3.381   1.096
 1629TIP3   OH2 4831   4.127   0.105   4.355
 1629TIP3    H1 4832   4.062   0.040   4.380
 1629TIP3    H2 4833   4.098   0.137   4.269
 1630TIP3   OH2 4834   1.501   7.829   4.765
 1630TIP3    H1 4835   1.573   7.819   4.828
 1630TIP3    H2 4836   1.437   7.762   4.792
 1631TIP3   OH2 4837   8.176   6.826   4.320
 1631TIP3    H1 4838   8.086   6.823   4.352
 1631TIP3    H2 4839   8.229   6.799   4.396
 1632TIP3   OH2 4840   6.520   3.088   3.012
 1632TIP3    H1 4841   6.438   3.065   3.055
 1632TIP3    H2 4842   6.513   3.048   2.925
 1633TIP3   OH2 4843   8.050   4.834   3.171
 1633TIP3    H1 4844   8.095   4.896   3.114
 1633TIP3    H2 4845   8.104   4.830   3.250
 1634TIP3   OH2 4846   6.150   5.113   5.472
 1634TIP3    H1 4847   6.219   5.095   5.535
 1634TIP3    H2 4848   6.143   5.209   5.470
 1635TIP3   OH2 4849   5.085   2.281   5.483
 1635TIP3    H1 4850   5.125   2.361   5.448
 1635TIP3    H2 4851   5.028   2.313   5.554
 1636TIP3   OH2 4852   2.948   5.346   5.573
 1636TIP3    H1 4853   2.894   5.267   5.572
 1636TIP3    H2 4854   2.958   5.370   5.481
 1637TIP3   OH2 4855   4.774   2.744   4.893
 1637TIP3    H1 4856   4.806   2.827   4.929
 1637TIP3    H2 4857   4.815   2.737   4.807
 1638TIP3   OH2 4858   0.183   6.815   1.728
 1638TIP3    H1 4859   0.128   6.743   1.758
 1638TIP3    H2 4860   0.201   6.796   1.636
 1639TIP3   OH2 4861   3.699   5.364   0.012
 1639TIP3    H1 4862   3.648   5.336  -0.064
 1639TIP3    H2 4863   3.768   5.298   0.019
 1640TIP3   OH2 4864   0.861   3.871   6.324
 1640TIP3    H1 4865   0.911   3.903   6.399
 1640TIP3    H2 4866   0.925   3.864   6.254
 1641TIP3   OH2 4867   1.839   0.205   6.510
 1641TIP3    H1 4868   1.888   0.125   6.493
 1641TIP3    H2 4869   1.891   0.251   6.577
 1642TIP3   OH2 4870   3.968   0.315   4.557
 1642TIP3    H1 4871   4.061   0.294   4.563
 1642TIP3    H2 4872   3.924   0.243   4.602
 1643TIP3   OH2 4873   7.033   7.368   6.111
 1643TIP3    H1 4874   6.940   7.373   6.134
 1643TIP3    H2 4875   7.042   7.429   6.038
 1644TIP3   OH2 4876   5.613   1.008   0.234
 1644TIP3    H1 4877   5.654   1.031   0.317
 1644TIP3    H2 4878   5.676   1.033   0.167
 1645TIP3   OH2 4879   4.014   7.630   4.131
 1645TIP3    H1 4880   4.000   7.553   4.075
 1645TIP3    H2 4881   4.042   7.699   4.071
 1646TIP3   OH2 4882   5.814   0.479   0.627
 1646TIP3    H1 4883   5.753   0.505   0.696
 1646TIP3    H2 4884   5.758   0.453   0.554
 1647TIP3   OH2 4885   4.880   2.259   4.930
 1647TIP3    H1 4886   4.914   2.223   5.013
 1647TIP3    H2 4887   4.848   2.346   4.954
 1648TIP3   OH2 4888   2.909   0.999   5.337
 1648TIP3    H1 4889   2.860   0.923   5.370
 1648TIP3    H2 4890   2.860   1.075   5.369
 1649TIP3   OH2 4891   7.156   2.069   0.571
 1649TIP3    H1 4892   7.161   1.974   0.580
 1649TIP3    H2 4893   7.211   2.103   0.642
 1650TIP3   OH2 4894   6.567   4.371   0.877
 1650TIP3    H1 4895   6.560   4.411   0.791
 1650TIP3    H2 4896   6.563   4.277   0.860
 1651TIP3   OH2 4897   2.166   1.053   3.507
 1651TIP3    H1 4898   2.168   1.073   3.413
 1651TIP3    H2 4899   2.177   1.138   3.550
 1652TIP3   OH2 4900   4.012   2.718   4.588
 1652TIP3    H1 4901   3.960   2.706   4.509
 1652TIP3    H2 4902   4.002   2.811   4.609
 1653TIP3   OH2 4903   1.475   4.804   5.745
 1653TIP3    H1 4904   1.407   4.872   5.739
 1653TIP3    H2 4905   1.518   4.806   5.660
 1654TIP3   OH2 4906   7.993   1.560   5.421
 1654TIP3    H1 4907   7.963   1.515   5.341
 1654TIP3    H2 4908   7.937   1.525   5.490
 1655TIP3   OH2 4909   5.884   2.484   2.226
 1655TIP3    H1 4910   5.834   2.457   2.149
 1655TIP3    H2 4911   5.828   2.547   2.271
 1656TIP3   OH2 4912   2.238   4.056   6.556
 1656TIP3    H1 4913   2.219   4.109   6.478
 1656TIP3    H2 4914   2.307   3.996   6.528
 1657TIP3   OH2 4915   6.922   0.906   6.695
 1657TIP3    H1 4916   6.991   0.936   6.635
 1657TIP3    H2 4917   6.936   0.811   6.701
 1658TIP3   OH2 4918   0.165   5.886   3.345
 1658TIP3    H1 4919   0.180   5.801   3.387
 1658TIP3    H2 4920   0.130   5.865   3.259
 1659TIP3   OH2 4921   4.185   7.090   3.326
 1659TIP3    H1 4922   4.231   7.095   3.242
 1659TIP3    H2 4923   4.099   7.127   3.309
 1660TIP3   OH2 4924   0.520   6.544   2.589
 1660TIP3    H1 4925   0.517   6.618   2.650
 1660TIP3    H2 4926   0.546   6.583   2.505
 1661TIP3   OH2 4927   0.975   1.718   4.004
 1661TIP3    H1 4928   0.905   1.767   3.962
 1661TIP3    H2 4929   1.017   1.782   4.063
 1662TIP3   OH2 4930   3.026   5.955   6.205
 1662TIP3    H1 4931   3.015   5.860   6.206
 1662TIP3    H2 4932   3.030   5.979   6.297
 1663TIP3   OH2 4933   4.510   5.919   5.532
 1663TIP3    H1 4934   4.603   5.904   5.511
 1663TIP3    H2 4935   4.474   5.958   5.452
 1664TIP3   OH2 4936   0.021   5.316   6.240
 1664TIP3    H1 4937  -0.040   5.259   6.194
 1664TIP3    H2 4938   0.092   5.329   6.177
 1665TIP3   OH2 4939   3.994   6.986   4.374
 1665TIP3    H1 4940   4.089   6.995   4.380
 1665TIP3    H2 4941   3.976   6.984   4.280
 1666TIP3   OH2 4942   4.799   3.715   1.999
 1666TIP3    H1 4943   4.753   3.633   2.014
 1666TIP3    H2 4944   4.740   3.783   2.031
 1667TIP3   OH2 4945   1.783   3.549   3.545
 1667TIP3    H1 4946   1.729   3.518   3.473
 1667TIP3    H2 4947   1.806   3.639   3.521
 1668TIP3   OH2 4948   0.534   6.763   6.151
 1668TIP3    H1 4949   0.612   6.793   6.198
 1668TIP3    H2 4950   0.558   6.676   6.119
 1669TIP3   OH2 4951   3.147   1.006   0.270
 1669TIP3    H1 4952   3.096   0.927   0.256
 1669TIP3    H2 4953   3.147   1.050   0.185
 1670TIP3   OH2 4954   3.280   5.633   5.073
 1670TIP3    H1 4955   3.344   5.594   5.132
 1670TIP3    H2 4956   3.217   5.563   5.057
 1671TIP3   OH2 4957   7.754   5.004   4.322
 1671TIP3    H1 4958   7.707   4.954   4.389
 1671TIP3    H2 4959   7.723   5.094   4.333
 1672TIP3   OH2 4960   2.410   4.575   3.784
 1672TIP3    H1 4961   2.499   4.553   3.756
 1672TIP3    H2 4962   2.353   4.536   3.718
 1673TIP3   OH2 4963   6.524   1.937   0.575
 1673TIP3    H1 4964   6.530   1.855   0.626
 1673TIP3    H2 4965   6.610   1.977   0.585
 1674TIP3   OH2 4966   7.477   1.210   1.713
 1674TIP3    H1 4967   7.388   1.200   1.748
 1674TIP3    H2 4968   7.516   1.123   1.721
 1675TIP3   OH2 4969   1.241   7.631   5.401
 1675TIP3    H1 4970   1.280   7.695   5.341
 1675TIP3    H2 4971   1.153   7.616   5.366
 1676TIP3   OH2 4972   3.161   7.330   3.462
 1676TIP3    H1 4973   3.208   7.394   3.409
 1676TIP3    H2 4974   3.089   7.301   3.406
 1677TIP3   OH2 4975   6.916   4.275   1.888
 1677TIP3    H1 4976   6.822   4.274   1.869
 1677TIP3    H2 4977   6.955   4.229   1.814
 1678TIP3   OH2 4978   1.577   6.276   4.760
 1678TIP3    H1 4979   1.540   6.215   4.696
 1678TIP3    H2 4980   1.609   6.349   4.707
 1679TIP3   OH2 4981   5.245   1.141   3.484
 1679TIP3    H1 4982   5.303   1.209   3.519
 1679TIP3    H2 4983   5.244   1.073   3.552
 1680TIP3   OH2 4984   3.992   6.352   2.276
 1680TIP3    H1 4985   3.907   6.339   2.235
 1680TIP3    H2 4986   4.025   6.433   2.238
 1681TIP3   OH2 4987   5.076   5.398   4.458
 1681TIP3    H1 4988   5.133   5.475   4.459
 1681TIP3    H2 4989   5.049   5.390   4.366
 1682TIP3   OH2 4990   3.747   7.592   6.170
 1682TIP3    H1 4991   3.786   7.620   6.253
 1682TIP3    H2 4992   3.702   7.670   6.138
 1683TIP3   OH2 4993   0.084   7.624   2.671
 1683TIP3    H1 4994   0.048   7.705   2.707
 1683TIP3    H2 4995   0.177   7.626   2.697
 1684TIP3   OH2 4996   6.822   1.718   2.738
 1684TIP3    H1 4997   6.849   1.781   2.671
 1684TIP3    H2 4998   6.872   1.639   2.719
 1685TIP3   OH2 4999   2.766   1.736   3.250
 1685TIP3    H1 5000   2.701   1.690   3.197
 1685TIP3    H2 5001   2.718   1.770   3.325
 1686TIP3   OH2 5002   2.398   3.018   1.198
 1686TIP3    H1 5003   2.358   2.934   1.176
 1686TIP3    H2 5004   2.453   2.998   1.274
 1687TIP3   OH2 5005   2.024   1.287   0.283
 1687TIP3    H1 5006   1.966   1.344   0.232
 1687TIP3    H2 5007   2.112   1.320   0.266
 1688TIP3   OH2 5008   2.990   4.791   2.293
 1688TIP3    H1 5009   3.006   4.705   2.254
 1688TIP3    H2 5010   3.026   4.854   2.230
 1689TIP3   OH2 5011   3.539   1.329   3.033
 1689TIP3    H1 5012   3.632   1.353   3.030
 1689TIP3    H2 5013   3.531   1.275   3.112
 1690TIP3   OH2 5014   5.631   0.769   2.808
 1690TIP3    H1 5015   5.596   0.685   2.838
 1690TIP3    H2 5016   5.707   0.746   2.755
 1691TIP3   OH2 5017   7.815   2.620   0.028
 1691TIP3    H1 5018   7.821   2.546  -0.032
 1691TIP3    H2 5019   7.740   2.601   0.084
 1692TIP3   OH2 5020   5.092   6.466   0.951
 1692TIP3    H1 5021   5.151   6.509   0.889
 1692TIP3    H2 5022   5.014   6.445   0.898
 1693TIP3   OH2 5023   5.544   4.479   3.379
 1693TIP3    H1 5024   5.583   4.392   3.381
 1693TIP3    H2 5025   5.594   4.526   3.311
 1694TIP3   OH2 5026   6.811   7.818   6.072
 1694TIP3    H1 5027   6.775   7.754   6.011
 1694TIP3    H2 5028   6.751   7.892   6.067
 1695TIP3   OH2 5029   5.090   4.226   2.067
 1695TIP3    H1 5030   5.065   4.263   2.151
 1695TIP3    H2 5031   5.059   4.290   2.002
 1696TIP3   OH2 5032   3.821   7.260   3.747
 1696TIP3    H1 5033   3.889   7.193   3.744
 1696TIP3    H2 5034   3.741   7.214   3.721
 1697TIP3   OH2 5035   3.077   3.234   1.779
 1697TIP3    H1 5036   3.156   3.277   1.745
 1697TIP3    H2 5037   3.090   3.233   1.874
 1698TIP3   OH2 5038   3.373   7.135   0.161
 1698TIP3    H1 5039   3.422   7.217   0.167
 1698TIP3    H2 5040   3.430   7.077   0.110
 1699TIP3   OH2 5041   3.478   5.823   4.984
 1699TIP3    H1 5042   3.519   5.828   5.071
 1699TIP3    H2 5043   3.552   5.809   4.925
 1700TIP3   OH2 5044   6.456   0.557   1.860
 1700TIP3    H1 5045   6.514   0.566   1.936
 1700TIP3    H2 5046   6.388   0.622   1.874
 1701TIP3   OH2 5047   7.170   7.129   0.069
 1701TIP3    H1 5048   7.233   7.158   0.003
 1701TIP3    H2 5049   7.199   7.040   0.091
 1702TIP3   OH2 5050   5.708   5.495   3.628
 1702TIP3    H1 5051   5.752   5.509   3.544
 1702TIP3    H2 5052   5.776   5.515   3.693
 1703TIP3   OH2 5053   8.083   5.211   0.152
 1703TIP3    H1 5054   8.104   5.122   0.180
 1703TIP3    H2 5055   8.014   5.200   0.086
 1704TIP3   OH2 5056   6.915   7.026   3.826
 1704TIP3    H1 5057   6.869   7.086   3.884
 1704TIP3    H2 5058   6.889   6.939   3.856
 1705TIP3   OH2 5059   6.011   0.298   5.953
 1705TIP3    H1 5060   5.954   0.252   6.014
 1705TIP3    H2 5061   5.960   0.303   5.872
 1706TIP3   OH2 5062   1.731   5.978   2.382
 1706TIP3    H1 5063   1.651   6.018   2.347
 1706TIP3    H2 5064   1.718   5.884   2.372
 1707TIP3   OH2 5065   3.608   1.974   4.494
 1707TIP3    H1 5066   3.660   2.052   4.512
 1707TIP3    H2 5067   3.615   1.962   4.400
 1708TIP3   OH2 5068   4.615   1.139   2.078
 1708TIP3    H1 5069   4.710   1.125   2.077
 1708TIP3    H2 5070   4.605   1.232   2.100
 1709TIP3   OH2 5071   7.725   0.711   6.149
 1709TIP3    H1 5072   7.755   0.801   6.134
 1709TIP3    H2 5073   7.683   0.686   6.067
 1710TIP3   OH2 5074   6.522   7.087   3.603
 1710TIP3    H1 5075   6.616   7.104   3.612
 1710TIP3    H2 5076   6.494   7.143   3.530
 1711TIP3   OH2 5077   7.841   1.807   3.641
 1711TIP3    H1 5078   7.924   1.759   3.646
 1711TIP3    H2 5079   7.830   1.825   3.547
 1712TIP3   OH2 5080   0.676   1.949   2.332
 1712TIP3    H1 5081   0.623   1.943   2.412
 1712TIP3    H2 5082   0.653   1.869   2.283
 1713TIP3   OH2 5083   2.425   6.271   6.052
 1713TIP3    H1 5084   2.490   6.339   6.068
 1713TIP3    H2 5085   2.363   6.280   6.125
 1714TIP3   OH2 5086   7.343   5.435   0.858
 1714TIP3    H1 5087   7.376   5.394   0.778
 1714TIP3    H2 5088   7.344   5.365   0.923
 1715TIP3   OH2 5089   0.705   2.948   0.516
 1715TIP3    H1 5090   0.770   2.935   0.585
 1715TIP3    H2 5091   0.742   3.018   0.461
 1716TIP3   OH2 5092   1.017   5.263   2.696
 1716TIP3    H1 5093   0.996   5.346   2.740
 1716TIP3    H2 5094   0.969   5.197   2.746
 1717TIP3   OH2 5095   2.751   4.412   2.450
 1717TIP3    H1 5096   2.681   4.352   2.475
 1717TIP3    H2 5097   2.832   4.366   2.472
 1718TIP3   OH2 5098   3.622   5.923   4.192
 1718TIP3    H1 5099   3.669   6.002   4.218
 1718TIP3    H2 5100   3.532   5.952   4.178
 1719TIP3   OH2 5101   0.802   5.758   6.003
 1719TIP3    H1 5102   0.726   5.783   6.056
 1719TIP3    H2 5103   0.853   5.701   6.060
 1720TIP3   OH2 5104   1.382   6.304   4.502
 1720TIP3    H1 5105   1.292   6.316   4.471
 1720TIP3    H2 5106   1.377   6.227   4.558
 1721TIP3   OH2 5107   0.039   2.995   0.193
 1721TIP3    H1 5108  -0.023   3.062   0.166
 1721TIP3    H2 5109   0.012   2.970   0.281
 1722TIP3   OH2 5110   1.487   5.436   6.150
 1722TIP3    H1 5111   1.583   5.429   6.158
 1722TIP3    H2 5112   1.473   5.500   6.080
 1723TIP3   OH2 5113   2.994   3.158   3.980
 1723TIP3    H1 5114   3.047   3.109   3.917
 1723TIP3    H2 5115   2.907   3.163   3.940
 1724TIP3   OH2 5116   0.736   2.038   4.851
 1724TIP3    H1 5117   0.787   2.041   4.932
 1724TIP3    H2 5118   0.757   1.954   4.812
 1725TIP3   OH2 5119   2.316   4.915   4.510
 1725TIP3    H1 5120   2.368   4.869   4.444
 1725TIP3    H2 5121   2.382   4.958   4.566
 1726TIP3   OH2 5122   2.518   5.241   2.621
 1726TIP3    H1 5123   2.592   5.287   2.580
 1726TIP3    H2 5124   2.474   5.309   2.672
 1727TIP3   OH2 5125   6.820   3.645   2.804
 1727TIP3    H1 5126   6.731   3.650   2.838
 1727TIP3    H2 5127   6.875   3.673   2.878
 1728TIP3   OH2 5128   8.077   2.522   2.800
 1728TIP3    H1 5129   8.108   2.526   2.890
 1728TIP3    H2 5130   8.139   2.464   2.755
 1729TIP3   OH2 5131   5.411   3.756   6.206
 1729TIP3    H1 5132   5.466   3.817   6.256
 1729TIP3    H2 5133   5.355   3.715   6.272
 1730TIP3   OH2 5134   3.692   0.712   4.556
 1730TIP3    H1 5135   3.716   0.686   4.467
 1730TIP3    H2 5136   3.740   0.652   4.613
 1731TIP3   OH2 5137   7.942   3.487   3.882
 1731TIP3    H1 5138   7.968   3.412   3.936
 1731TIP3    H2 5139   7.873   3.453   3.825
 1732TIP3   OH2 5140   2.095   5.478   4.203
 1732TIP3    H1 5141   2.098   5.396   4.252
 1732TIP3    H2 5142   2.174   5.477   4.149
 1733TIP3   OH2 5143   7.877   0.248   5.486
 1733TIP3    H1 5144   7.967   0.259   5.518
 1733TIP3    H2 5145   7.827   0.220   5.562
 1734TIP3   OH2 5146   1.354   4.868   1.601
 1734TIP3    H1 5147   1.274   4.874   1.654
 1734TIP3    H2 5148   1.337   4.795   1.541
 1735TIP3   OH2 5149   1.518   4.056   3.541
 1735TIP3    H1 5150   1.523   4.123   3.609
 1735TIP3    H2 5151   1.505   3.974   3.589
 1736TIP3   OH2 5152   3.448   4.472   6.241
 1736TIP3    H1 5153   3.459   4.406   6.309
 1736TIP3    H2 5154   3.537   4.493   6.213
 1737TIP3   OH2 5155   0.136   3.964   6.230
 1737TIP3    H1 5156   0.053   3.916   6.230
 1737TIP3    H2 5157   0.133   4.016   6.311
 1738TIP3   OH2 5158   3.254   6.622   0.795
 1738TIP3    H1 5159   3.203   6.564   0.852
 1738TIP3    H2 5160   3.337   6.576   0.782
 1739TIP3   OH2 5161   7.892   1.477   4.761
 1739TIP3    H1 5162   7.960   1.544   4.773
 1739TIP3    H2 5163   7.884   1.467   4.666
 1740TIP3   OH2 5164   4.834   1.027   2.670
 1740TIP3    H1 5165   4.853   1.042   2.577
 1740TIP3    H2 5166   4.747   0.987   2.671
 1741TIP3   OH2 5167   0.350   5.199   0.634
 1741TIP3    H1 5168   0.293   5.124   0.653
 1741TIP3    H2 5169   0.437   5.170   0.661
 1742TIP3   OH2 5170   8.165   1.559   2.996
 1742TIP3    H1 5171   8.219   1.558   2.917
 1742TIP3    H2 5172   8.082   1.519   2.968
 1743TIP3   OH2 5173   1.112   0.111   5.211
 1743TIP3    H1 5174   1.141   0.192   5.253
 1743TIP3    H2 5175   1.077   0.059   5.284
 1744TIP3   OH2 5176   3.557   3.892   1.514
 1744TIP3    H1 5177   3.496   3.834   1.469
 1744TIP3    H2 5178   3.573   3.849   1.598
 1745TIP3   OH2 5179   2.578   2.126   5.477
 1745TIP3    H1 5180   2.669   2.155   5.465
 1745TIP3    H2 5181   2.525   2.197   5.440
 1746TIP3   OH2 5182   5.277   7.732   6.026
 1746TIP3    H1 5183   5.352   7.673   6.032
 1746TIP3    H2 5184   5.270   7.753   5.933
 1747TIP3   OH2 5185   4.541   3.519   1.284
 1747TIP3    H1 5186   4.554   3.500   1.191
 1747TIP3    H2 5187   4.551   3.614   1.291
 1748TIP3   OH2 5188   5.462   0.108   2.901
 1748TIP3    H1 5189   5.556   0.101   2.917
 1748TIP3    H2 5190   5.436   0.022   2.870
 1749TIP3   OH2 5191   7.745   0.979   3.562
 1749TIP3    H1 5192   7.761   0.911   3.497
 1749TIP3    H2 5193   7.726   1.058   3.511
 1750TIP3   OH2 5194   5.590   0.123   4.205
 1750TIP3    H1 5195   5.677   0.161   4.218
 1750TIP3    H2 5196   5.556   0.168   4.127
 1751TIP3   OH2 5197   3.812   1.081   2.926
 1751TIP3    H1 5198   3.750   1.045   2.988
 1751TIP3    H2 5199   3.872   1.134   2.979
 1752TIP3   OH2 5200   0.068   6.768   1.269
 1752TIP3    H1 5201   0.003   6.698   1.276
 1752TIP3    H2 5202   0.092   6.770   1.177
 1753TIP3   OH2 5203   6.615   6.056   3.949
 1753TIP3    H1 5204   6.610   6.082   4.042
 1753TIP3    H2 5205   6.670   6.123   3.909
 1754TIP3   OH2 5206   6.259   7.471   0.692
 1754TIP3    H1 5207   6.186   7.438   0.746
 1754TIP3    H2 5208   6.311   7.523   0.753
 1755TIP3   OH2 5209   5.672   0.115   5.856
 1755TIP3    H1 5210   5.668   0.121   5.952
 1755TIP3    H2 5211   5.751   0.163   5.832
 1756TIP3   OH2 5212   0.311   3.094   3.723
 1756TIP3    H1 5213   0.400   3.126   3.709
 1756TIP3    H2 5214   0.261   3.172   3.747
 1757TIP3   OH2 5215   3.590   5.750   3.964
 1757TIP3    H1 5216   3.620   5.779   3.878
 1757TIP3    H2 5217   3.626   5.815   4.025
 1758TIP3   OH2 5218   4.834   1.613   4.486
 1758TIP3    H1 5219   4.882   1.531   4.473
 1758TIP3    H2 5220   4.895   1.682   4.461
 1759TIP3   OH2 5221   6.303   1.868   0.388
 1759TIP3    H1 5222   6.337   1.905   0.470
 1759TIP3    H2 5223   6.243   1.935   0.355
 1760TIP3   OH2 5224   0.894   1.697   2.449
 1760TIP3    H1 5225   0.973   1.652   2.419
 1760TIP3    H2 5226   0.828   1.674   2.384
 1761TIP3   OH2 5227   5.885   3.610   2.721
 1761TIP3    H1 5228   5.798   3.640   2.695
 1761TIP3    H2 5229   5.944   3.678   2.689
 1762TIP3   OH2 5230   2.771   3.162   3.838
 1762TIP3    H1 5231   2.714   3.104   3.888
 1762TIP3    H2 5232   2.712   3.208   3.779
 1763TIP3   OH2 5233   3.655   4.877   1.641
 1763TIP3    H1 5234   3.635   4.919   1.557
 1763TIP3    H2 5235   3.748   4.855   1.635
 1764TIP3   OH2 5236   0.324   4.289   0.820
 1764TIP3    H1 5237   0.231   4.264   0.825
 1764TIP3    H2 5238   0.326   4.380   0.847
 1765TIP3   OH2 5239   2.153   2.953   1.426
 1765TIP3    H1 5240   2.120   2.977   1.512
 1765TIP3    H2 5241   2.223   3.016   1.409
 1766TIP3   OH2 5242   4.965   0.704   5.131
 1766TIP3    H1 5243   4.955   0.625   5.078
 1766TIP3    H2 5244   4.999   0.769   5.071
 1767TIP3   OH2 5245   2.355   0.074   4.737
 1767TIP3    H1 5246   2.382  -0.017   4.728
 1767TIP3    H2 5247   2.266   0.077   4.702
 1768TIP3   OH2 5248   3.380   0.549   1.532
 1768TIP3    H1 5249   3.473   0.539   1.551
 1768TIP3    H2 5250   3.355   0.467   1.489
 1769TIP3   OH2 5251   5.519   0.935   5.671
 1769TIP3    H1 5252   5.430   0.925   5.704
 1769TIP3    H2 5253   5.519   1.020   5.625
 1770TIP3   OH2 5254   6.365   3.658   0.482
 1770TIP3    H1 5255   6.304   3.629   0.415
 1770TIP3    H2 5256   6.421   3.582   0.499
 1771TIP3   OH2 5257   6.484   4.475   1.811
 1771TIP3    H1 5258   6.518   4.533   1.743
 1771TIP3    H2 5259   6.390   4.495   1.815
 1772TIP3   OH2 5260   0.995   1.403   6.426
 1772TIP3    H1 5261   1.023   1.404   6.335
 1772TIP3    H2 5262   1.052   1.466   6.470
 1773TIP3   OH2 5263   5.714   5.168   5.325
 1773TIP3    H1 5264   5.712   5.114   5.246
 1773TIP3    H2 5265   5.622   5.177   5.350
 1774TIP3   OH2 5266   5.403   2.459   5.521
 1774TIP3    H1 5267   5.314   2.490   5.505
 1774TIP3    H2 5268   5.416   2.470   5.615
 1775TIP3   OH2 5269   0.487   7.296   3.874
 1775TIP3    H1 5270   0.431   7.291   3.952
 1775TIP3    H2 5271   0.455   7.373   3.828
 1776TIP3   OH2 5272   6.949   3.804   1.348
 1776TIP3    H1 5273   6.981   3.882   1.302
 1776TIP3    H2 5274   6.890   3.837   1.415
 1777TIP3   OH2 5275   1.997   0.119   2.654
 1777TIP3    H1 5276   1.997   0.030   2.619
 1777TIP3    H2 5277   2.082   0.127   2.698
 1778TIP3   OH2 5278   1.130   7.355   6.327
 1778TIP3    H1 5279   1.204   7.356   6.266
 1778TIP3    H2 5280   1.132   7.441   6.368
 1779TIP3   OH2 5281   5.708   7.778   4.777
 1779TIP3    H1 5282   5.688   7.696   4.821
 1779TIP3    H2 5283   5.801   7.773   4.757
 1780TIP3   OH2 5284   2.123   0.571   5.808
 1780TIP3    H1 5285   2.145   0.654   5.852
 1780TIP3    H2 5286   2.206   0.541   5.771
 1781TIP3   OH2 5287   2.159   6.289   5.610
 1781TIP3    H1 5288   2.188   6.244   5.689
 1781TIP3    H2 5289   2.209   6.248   5.539
 1782TIP3   OH2 5290   1.161   7.778   1.438
 1782TIP3    H1 5291   1.165   7.690   1.398
 1782TIP3    H2 5292   1.110   7.830   1.376
 1783TIP3   OH2 5293   3.226   6.501   3.487
 1783TIP3    H1 5294   3.172   6.569   3.528
 1783TIP3    H2 5295   3.167   6.426   3.479
 1784TIP3   OH2 5296   3.864   2.770   2.657
 1784TIP3    H1 5297   3.935   2.830   2.633
 1784TIP3    H2 5298   3.852   2.714   2.580
 1785TIP3   OH2 5299   5.899   2.129   0.286
 1785TIP3    H1 5300   5.824   2.071   0.292
 1785TIP3    H2 5301   5.947   2.114   0.368
 1786TIP3   OH2 5302   2.742   7.208   5.856
 1786TIP3    H1 5303   2.836   7.203   5.836
 1786TIP3    H2 5304   2.699   7.197   5.771
 1787TIP3   OH2 5305   5.540   1.664   1.112
 1787TIP3    H1 5306   5.539   1.599   1.182
 1787TIP3    H2 5307   5.561   1.746   1.156
 1788TIP3   OH2 5308   6.977   5.140   2.165
 1788TIP3    H1 5309   6.908   5.076   2.178
 1788TIP3    H2 5310   6.941   5.203   2.102
 1789TIP3   OH2 5311   5.371   1.398   4.820
 1789TIP3    H1 5312   5.301   1.463   4.815
 1789TIP3    H2 5313   5.427   1.417   4.745
 1790TIP3   OH2 5314   6.475   4.208   1.271
 1790TIP3    H1 5315   6.467   4.113   1.268
 1790TIP3    H2 5316   6.569   4.224   1.276
 1791TIP3   OH2 5317   4.623   7.742   2.740
 1791TIP3    H1 5318   4.595   7.651   2.731
 1791TIP3    H2 5319   4.668   7.745   2.824
 1792TIP3   OH2 5320   4.304   3.755   4.924
 1792TIP3    H1 5321   4.238   3.686   4.924
 1792TIP3    H2 5322   4.292   3.800   4.841
 1793TIP3   OH2 5323   8.231   0.120   5.951
 1793TIP3    H1 5324   8.203   0.205   5.917
 1793TIP3    H2 5325   8.291   0.086   5.884
 1794TIP3   OH2 5326   3.490   7.325   2.194
 1794TIP3    H1 5327   3.471   7.240   2.234
 1794TIP3    H2 5328   3.467   7.313   2.102
 1795TIP3   OH2 5329   1.069   6.002   1.416
 1795TIP3    H1 5330   0.982   5.981   1.448
 1795TIP3    H2 5331   1.087   5.934   1.350
 1796TIP3   OH2 5332   5.907   6.831   3.324
 1796TIP3    H1 5333   5.814   6.827   3.347
 1796TIP3    H2 5334   5.917   6.914   3.276
 1797TIP3   OH2 5335   1.843   1.224   2.608
 1797TIP3    H1 5336   1.843   1.289   2.538
 1797TIP3    H2 5337   1.777   1.160   2.582
 1798TIP3   OH2 5338   1.182   1.985   2.113
 1798TIP3    H1 5339   1.128   1.997   2.192
 1798TIP3    H2 5340   1.164   1.896   2.084
 1799TIP3   OH2 5341   6.067   2.331   5.690
 1799TIP3    H1 5342   6.041   2.268   5.757
 1799TIP3    H2 5343   6.054   2.284   5.607
 1800TIP3   OH2 5344   6.142   4.979   3.022
 1800TIP3    H1 5345   6.199   4.972   2.946
 1800TIP3    H2 5346   6.135   4.890   3.056
 1801TIP3   OH2 5347   4.462   2.047   4.844
 1801TIP3    H1 5348   4.414   1.992   4.783
 1801TIP3    H2 5349   4.395   2.095   4.892
 1802TIP3   OH2 5350   7.562   6.397   2.852
 1802TIP3    H1 5351   7.548   6.444   2.935
 1802TIP3    H2 5352   7.477   6.362   2.829
 1803TIP3   OH2 5353   2.994   1.493   3.373
 1803TIP3    H1 5354   2.984   1.583   3.405
 1803TIP3    H2 5355   3.078   1.464   3.408
 1804TIP3   OH2 5356   4.372   4.025   2.253
 1804TIP3    H1 5357   4.430   4.028   2.329
 1804TIP3    H2 5358   4.292   3.985   2.285
 1805TIP3   OH2 5359   4.878   1.313   3.196
 1805TIP3    H1 5360   4.829   1.335   3.275
 1805TIP3    H2 5361   4.890   1.218   3.200
 1806TIP3   OH2 5362   0.395   4.446   4.424
 1806TIP3    H1 5363   0.349   4.514   4.473
 1806TIP3    H2 5364   0.467   4.420   4.481
 1807TIP3   OH2 5365   7.197   5.639   6.409
 1807TIP3    H1 5366   7.178   5.617   6.318
 1807TIP3    H2 5367   7.249   5.719   6.405
 1808TIP3   OH2 5368   7.492   4.661   5.368
 1808TIP3    H1 5369   7.442   4.595   5.416
 1808TIP3    H2 5370   7.432   4.734   5.356
 1809TIP3   OH2 5371   7.475   0.890   3.665
 1809TIP3    H1 5372   7.553   0.916   3.616
 1809TIP3    H2 5373   7.458   0.964   3.724
 1810TIP3   OH2 5374   6.430   2.704   5.408
 1810TIP3    H1 5375   6.405   2.715   5.317
 1810TIP3    H2 5376   6.432   2.609   5.422
 1811TIP3   OH2 5377   3.384   5.165   5.309
 1811TIP3    H1 5378   3.439   5.088   5.295
 1811TIP3    H2 5379   3.295   5.130   5.318
 1812TIP3   OH2 5380   1.346   0.063   2.005
 1812TIP3    H1 5381   1.291   0.014   2.066
 1812TIP3    H2 5382   1.319   0.154   2.016
 1813TIP3   OH2 5383   1.369   2.051   4.802
 1813TIP3    H1 5384   1.361   2.114   4.730
 1813TIP3    H2 5385   1.360   1.966   4.760
 1814TIP3   OH2 5386   4.561   4.378   4.526
 1814TIP3    H1 5387   4.517   4.335   4.453
 1814TIP3    H2 5388   4.582   4.307   4.586
 1815TIP3   OH2 5389   6.773   6.414   6.595
 1815TIP3    H1 5390   6.822   6.375   6.668
 1815TIP3    H2 5391   6.692   6.364   6.592
 1816TIP3   OH2 5392   0.718   3.322   3.631
 1816TIP3    H1 5393   0.735   3.344   3.723
 1816TIP3    H2 5394   0.688   3.231   3.634
 1817TIP3   OH2 5395   1.166   7.515   4.195
 1817TIP3    H1 5396   1.122   7.473   4.269
 1817TIP3    H2 5397   1.241   7.559   4.234
 1818TIP3   OH2 5398   6.894   6.514   5.890
 1818TIP3    H1 5399   6.870   6.525   5.799
 1818TIP3    H2 5400   6.923   6.602   5.918
 1819TIP3   OH2 5401   2.805   0.601   3.485
 1819TIP3    H1 5402   2.775   0.680   3.438
 1819TIP3    H2 5403   2.795   0.623   3.577
 1820TIP3   OH2 5404   7.905   6.444   3.896
 1820TIP3    H1 5405   7.860   6.404   3.822
 1820TIP3    H2 5406   7.987   6.478   3.860
 1821TIP3   OH2 5407   8.097   0.451   4.203
 1821TIP3    H1 5408   8.101   0.428   4.295
 1821TIP3    H2 5409   8.006   0.476   4.188
 1822TIP3   OH2 5410   3.218   2.346   2.085
 1822TIP3    H1 5411   3.267   2.399   2.147
 1822TIP3    H2 5412   3.150   2.405   2.052
 1823TIP3   OH2 5413   6.162   0.344   4.444
 1823TIP3    H1 5414   6.223   0.353   4.517
 1823TIP3    H2 5415   6.215   0.304   4.374
 1824TIP3   OH2 5416   7.567   0.939   1.742
 1824TIP3    H1 5417   7.485   0.898   1.768
 1824TIP3    H2 5418   7.630   0.912   1.808
 1825TIP3   OH2 5419   2.072   6.975   2.369
 1825TIP3    H1 5420   2.027   7.051   2.333
 1825TIP3    H2 5421   2.006   6.930   2.422
 1826TIP3   OH2 5422   7.018   0.058   2.391
 1826TIP3    H1 5423   6.986   0.148   2.400
 1826TIP3    H2 5424   7.001   0.035   2.300
 1827TIP3   OH2 5425   4.394   5.142   6.470
 1827TIP3    H1 5426   4.486   5.166   6.483
 1827TIP3    H2 5427   4.392   5.047   6.482
 1828TIP3   OH2 5428   5.120   7.043   2.888
 1828TIP3    H1 5429   5.137   7.112   2.825
 1828TIP3    H2 5430   5.155   6.964   2.848
 1829TIP3   OH2 5431   4.078   2.024   6.124
 1829TIP3    H1 5432   4.009   2.071   6.172
 1829TIP3    H2 5433   4.036   1.999   6.041
 1830TIP3   OH2 5434   2.175   5.060   0.978
 1830TIP3    H1 5435   2.097   5.024   1.020
 1830TIP3    H2 5436   2.159   5.047   0.884
 1831TIP3   OH2 5437   8.075   7.251   4.978
 1831TIP3    H1 5438   8.132   7.328   4.980
 1831TIP3    H2 5439   7.990   7.283   5.007
 1832TIP3   OH2 5440   4.768   3.479   0.079
 1832TIP3    H1 5441   4.699   3.513   0.023
 1832TIP3    H2 5442   4.743   3.388   0.097
 1833TIP3   OH2 5443   0.687   0.963   1.172
 1833TIP3    H1 5444   0.666   0.999   1.258
 1833TIP3    H2 5445   0.767   0.912   1.187
 1834TIP3   OH2 5446   2.532   2.460   0.657
 1834TIP3    H1 5447   2.547   2.410   0.737
 1834TIP3    H2 5448   2.574   2.408   0.588
 1835TIP3   OH2 5449   5.449   0.308   6.776
 1835TIP3    H1 5450   5.391   0.325   6.701
 1835TIP3    H2 5451   5.515   0.248   6.742
 1836TIP3   OH2 5452   7.755   3.834   0.995
 1836TIP3    H1 5453   7.726   3.743   1.005
 1836TIP3    H2 5454   7.848   3.832   1.020
 1837TIP3   OH2 5455   7.764   5.278   3.174
 1837TIP3    H1 5456   7.724   5.232   3.100
 1837TIP3    H2 5457   7.747   5.371   3.156
 1838TIP3   OH2 5458   7.694   2.125   3.846
 1838TIP3    H1 5459   7.756   2.161   3.783
 1838TIP3    H2 5460   7.622   2.189   3.848
 1839TIP3   OH2 5461   2.645   1.740   2.941
 1839TIP3    H1 5462   2.739   1.730   2.954
 1839TIP3    H2 5463   2.636   1.760   2.848
 1840TIP3   OH2 5464   8.089   6.055   1.437
 1840TIP3    H1 5465   8.109   5.966   1.410
 1840TIP3    H2 5466   8.148   6.110   1.384
 1841TIP3   OH2 5467   0.125   5.691   1.080
 1841TIP3    H1 5468   0.208   5.655   1.047
 1841TIP3    H2 5469   0.150   5.742   1.156
 1842TIP3   OH2 5470   1.714   2.505   6.403
 1842TIP3    H1 5471   1.705   2.521   6.497
 1842TIP3    H2 5472   1.627   2.523   6.368
 1843TIP3   OH2 5473   4.905   5.229   3.851
 1843TIP3    H1 5474   4.880   5.264   3.766
 1843TIP3    H2 5475   4.825   5.231   3.903
 1844TIP3   OH2 5476   7.661   4.982   3.396
 1844TIP3    H1 5477   7.724   5.041   3.354
 1844TIP3    H2 5478   7.582   4.990   3.343
 1845TIP3   OH2 5479   8.025   1.137   0.710
 1845TIP3    H1 5480   7.994   1.217   0.667
 1845TIP3    H2 5481   8.110   1.161   0.746
 1846TIP3   OH2 5482   1.214   6.817   0.283
 1846TIP3    H1 5483   1.219   6.881   0.212
 1846TIP3    H2 5484   1.166   6.862   0.353
 1847TIP3   OH2 5485   6.667   4.240   0.509
 1847TIP3    H1 5486   6.618   4.305   0.559
 1847TIP3    H2 5487   6.610   4.162   0.509
 1848TIP3   OH2 5488   4.590   0.429   5.140
 1848TIP3    H1 5489   4.531   0.456   5.211
 1848TIP3    H2 5490   4.611   0.509   5.093
 1849TIP3   OH2 5491   4.721   6.626   6.425
 1849TIP3    H1 5492   4.741   6.538   6.394
 1849TIP3    H2 5493   4.805   6.673   6.420
 1850TIP3   OH2 5494   7.396   2.480   3.244
 1850TIP3    H1 5495   7.424   2.570   3.261
 1850TIP3    H2 5496   7.307   2.475   3.279
 1851TIP3   OH2 5497   0.359   5.561   1.012
 1851TIP3    H1 5498   0.398   5.496   1.070
 1851TIP3    H2 5499   0.431   5.586   0.954
 1852TIP3   OH2 5500   6.909   0.404   6.717
 1852TIP3    H1 5501   6.992   0.366   6.747
 1852TIP3    H2 5502   6.856   0.413   6.796
 1853TIP3   OH2 5503   6.197   4.162   4.804
 1853TIP3    H1 5504   6.223   4.235   4.861
 1853TIP3    H2 5505   6.102   4.170   4.797
 1854TIP3   OH2 5506   0.240   1.777   4.716
 1854TIP3    H1 5507   0.292   1.817   4.647
 1854TIP3    H2 5508   0.184   1.713   4.670
 1855TIP3   OH2 5509   1.453   4.590   0.183
 1855TIP3    H1 5510   1.511   4.638   0.125
 1855TIP3    H2 5511   1.510   4.563   0.256
 1856TIP3   OH2 5512   1.643   5.482   1.568
 1856TIP3    H1 5513   1.711   5.451   1.508
 1856TIP3    H2 5514   1.618   5.568   1.534
 1857TIP3   OH2 5515   1.189   6.200   1.271
 1857TIP3    H1 5516   1.149   6.152   1.343
 1857TIP3    H2 5517   1.238   6.134   1.222
 1858TIP3   OH2 5518   7.947   0.232   1.905
 1858TIP3    H1 5519   7.948   0.158   1.965
 1858TIP3    H2 5520   7.951   0.309   1.962
 1859TIP3   OH2 5521   5.099   2.830   0.443
 1859TIP3    H1 5522   5.064   2.751   0.486
 1859TIP3    H2 5523   5.047   2.838   0.363
 1860TIP3   OH2 5524   5.644   5.592   5.579
 1860TIP3    H1 5525   5.625   5.672   5.528
 1860TIP3    H2 5526   5.557   5.560   5.604
 1861TIP3   OH2 5527   5.674   4.536   5.423
 1861TIP3    H1 5528   5.732   4.610   5.441
 1861TIP3    H2 5529   5.636   4.556   5.338
 1862TIP3   OH2 5530   7.664   6.438   6.297
 1862TIP3    H1 5531   7.682   6.360   6.244
 1862TIP3    H2 5532   7.581   6.418   6.341
 1863TIP3   OH2 5533   7.150   6.269   0.505
 1863TIP3    H1 5534   7.238   6.264   0.543
 1863TIP3    H2 5535   7.106   6.192   0.540
 1864TIP3   OH2 5536   5.170   6.800   0.798
 1864TIP3    H1 5537   5.178   6.792   0.703
 1864TIP3    H2 5538   5.094   6.746   0.820
 1865TIP3   OH2 5539   3.601   4.944   1.390
 1865TIP3    H1 5540   3.545   4.899   1.327
 1865TIP3    H2 5541   3.678   4.971   1.340
 1866TIP3   OH2 5542   2.722   6.021   0.585
 1866TIP3    H1 5543   2.754   6.050   0.499
 1866TIP3    H2 5544   2.706   6.103   0.633
 1867TIP3   OH2 5545   5.091   2.088   4.169
 1867TIP3    H1 5546   5.101   2.156   4.102
 1867TIP3    H2 5547   5.038   2.130   4.237
 1868TIP3   OH2 5548   0.093   5.834   3.624
 1868TIP3    H1 5549   0.077   5.861   3.714
 1868TIP3    H2 5550   0.131   5.912   3.582
 1869TIP3   OH2 5551   2.169   0.089   0.178
 1869TIP3    H1 5552   2.217   0.169   0.158
 1869TIP3    H2 5553   2.229   0.018   0.157
 1870TIP3   OH2 5554   7.076   0.200   4.540
 1870TIP3    H1 5555   7.049   0.210   4.449
 1870TIP3    H2 5556   7.166   0.169   4.535
 1871TIP3   OH2 5557   2.063   3.756   6.087
 1871TIP3    H1 5558   2.153   3.789   6.084
 1871TIP3    H2 5559   2.065   3.688   6.154
 1872TIP3   OH2 5560   1.516   0.386   0.610
 1872TIP3    H1 5561   1.539   0.379   0.703
 1872TIP3    H2 5562   1.453   0.315   0.596
 1873TIP3   OH2 5563   0.091   1.772   6.711
 1873TIP3    H1 5564   0.141   1.693   6.732
 1873TIP3    H2 5565   0.106   1.786   6.617
 1874TIP3   OH2 5566   3.595   1.185   1.616
 1874TIP3    H1 5567   3.601   1.270   1.660
 1874TIP3    H2 5568   3.641   1.125   1.673
 1875TIP3   OH2 5569   2.370   3.019   4.882
 1875TIP3    H1 5570   2.406   3.018   4.793
 1875TIP3    H2 5571   2.293   3.076   4.875
 1876TIP3   OH2 5572   0.151   4.803   0.341
 1876TIP3    H1 5573   0.237   4.843   0.354
 1876TIP3    H2 5574   0.142   4.740   0.412
 1877TIP3   OH2 5575   0.902   1.313   1.190
 1877TIP3    H1 5576   0.903   1.222   1.221
 1877TIP3    H2 5577   0.948   1.361   1.259
 1878TIP3   OH2 5578   7.107   3.094   2.050
 1878TIP3    H1 5579   7.032   3.148   2.075
 1878TIP3    H2 5580   7.125   3.118   1.959
 1879TIP3   OH2 5581   7.702   6.067   5.374
 1879TIP3    H1 5582   7.728   6.011   5.447
 1879TIP3    H2 5583   7.782   6.080   5.324
 1880TIP3   OH2 5584   3.905   7.198   3.219
 1880TIP3    H1 5585   3.837   7.208   3.153
 1880TIP3    H2 5586   3.879   7.256   3.290
 1881TIP3   OH2 5587   3.624   5.393   1.934
 1881TIP3    H1 5588   3.552   5.357   1.986
 1881TIP3    H2 5589   3.700   5.341   1.959
 1882TIP3   OH2 5590   4.666   1.016   3.302
 1882TIP3    H1 5591   4.666   0.934   3.351
 1882TIP3    H2 5592   4.591   1.064   3.337
 1883TIP3   OH2 5593   1.201   7.232   2.444
 1883TIP3    H1 5594   1.168   7.237   2.354
 1883TIP3    H2 5595   1.153   7.301   2.490
 1884TIP3   OH2 5596   3.340   5.060   2.882
 1884TIP3    H1 5597   3.302   5.119   2.817
 1884TIP3    H2 5598   3.397   5.116   2.934
 1885TIP3   OH2 5599   3.035   0.810   6.460
 1885TIP3    H1 5600   3.112   0.758   6.485
 1885TIP3    H2 5601   3.006   0.771   6.377
 1886TIP3   OH2 5602   3.458   2.986   5.721
 1886TIP3    H1 5603   3.542   3.031   5.712
 1886TIP3    H2 5604   3.481   2.893   5.724
 1887TIP3   OH2 5605   7.794   0.010   4.700
 1887TIP3    H1 5606   7.739   0.064   4.757
 1887TIP3    H2 5607   7.822   0.070   4.631
 1888TIP3   OH2 5608   5.848   0.055   4.978
 1888TIP3    H1 5609   5.892   0.099   4.906
 1888TIP3    H2 5610   5.768   0.020   4.940
 1889TIP3   OH2 5611   5.656   3.345   5.836
 1889TIP3    H1 5612   5.660   3.333   5.931
 1889TIP3    H2 5613   5.723   3.411   5.818
 1890TIP3   OH2 5614   3.539   4.860   4.869
 1890TIP3    H1 5615   3.516   4.794   4.934
 1890TIP3    H2 5616   3.620   4.900   4.902
 1891TIP3   OH2 5617   3.683   2.867   1.963
 1891TIP3    H1 5618   3.609   2.811   1.937
 1891TIP3    H2 5619   3.758   2.808   1.964
 1892TIP3   OH2 5620   0.371   7.187   6.627
 1892TIP3    H1 5621   0.340   7.175   6.537
 1892TIP3    H2 5622   0.322   7.122   6.678
 1893TIP3   OH2 5623   6.371   6.447   6.111
 1893TIP3    H1 5624   6.451   6.457   6.058
 1893TIP3    H2 5625   6.332   6.534   6.113
 1894TIP3   OH2 5626   7.367   1.650   2.142
 1894TIP3    H1 5627   7.360   1.566   2.098
 1894TIP3    H2 5628   7.282   1.693   2.127
 1895TIP3   OH2 5629   1.239   3.072   4.925
 1895TIP3    H1 5630   1.232   3.161   4.891
 1895TIP3    H2 5631   1.297   3.027   4.864
 1896TIP3   OH2 5632   3.336   4.689   6.411
 1896TIP3    H1 5633   3.380   4.750   6.352
 1896TIP3    H2 5634   3.355   4.602   6.374
 1897TIP3   OH2 5635   5.608   4.868   6.364
 1897TIP3    H1 5636   5.518   4.883   6.391
 1897TIP3    H2 5637   5.602   4.799   6.297
 1898TIP3   OH2 5638   3.578   5.755   1.286
 1898TIP3    H1 5639   3.630   5.734   1.363
 1898TIP3    H2 5640   3.513   5.685   1.281
 1899TIP3   OH2 5641   7.349   6.263   2.726
 1899TIP3    H1 5642   7.266   6.273   2.773
 1899TIP3    H2 5643   7.333   6.305   2.641
 1900TIP3   OH2 5644   1.143   4.335   3.606
 1900TIP3    H1 5645   1.062   4.286   3.591
 1900TIP3    H2 5646   1.183   4.342   3.519
 1901TIP3   OH2 5647   7.626   5.284   5.165
 1901TIP3    H1 5648   7.632   5.240   5.080
 1901TIP3    H2 5649   7.606   5.375   5.142
 1902TIP3   OH2 5650   7.238   0.318   6.011
 1902TIP3    H1 5651   7.151   0.319   6.050
 1902TIP3    H2 5652   7.225   0.346   5.921
 1903TIP3   OH2 5653   7.896   5.058   3.278
 1903TIP3    H1 5654   7.859   5.134   3.233
 1903TIP3    H2 5655   7.940   5.009   3.209
 1904TIP3   OH2 5656   4.140   2.741   2.016
 1904TIP3    H1 5657   4.192   2.772   1.943
 1904TIP3    H2 5658   4.204   2.714   2.082
 1905TIP3   OH2 5659   7.115   4.629   2.791
 1905TIP3    H1 5660   7.200   4.587   2.779
 1905TIP3    H2 5661   7.120   4.708   2.737
 1906TIP3   OH2 5662   5.831   5.957   4.744
 1906TIP3    H1 5663   5.792   5.995   4.823
 1906TIP3    H2 5664   5.766   5.893   4.713
 1907TIP3   OH2 5665   4.999   4.947   3.234
 1907TIP3    H1 5666   5.045   4.896   3.167
 1907TIP3    H2 5667   4.948   4.883   3.283
 1908TIP3   OH2 5668   1.637   4.496   4.785
 1908TIP3    H1 5669   1.647   4.459   4.698
 1908TIP3    H2 5670   1.571   4.565   4.775
 1909TIP3   OH2 5671   4.658   6.218   4.474
 1909TIP3    H1 5672   4.569   6.238   4.503
 1909TIP3    H2 5673   4.664   6.255   4.386
 1910TIP3   OH2 5674   3.503   0.148   6.417
 1910TIP3    H1 5675   3.504   0.241   6.440
 1910TIP3    H2 5676   3.594   0.121   6.419
 1911TIP3   OH2 5677   3.522   1.916   1.785
 1911TIP3    H1 5678   3.530   1.855   1.712
 1911TIP3    H2 5679   3.611   1.946   1.801
 1912TIP3   OH2 5680   4.333   5.245   3.284
 1912TIP3    H1 5681   4.263   5.218   3.225
 1912TIP3    H2 5682   4.408   5.262   3.227
 1913TIP3   OH2 5683   1.972   7.077   1.020
 1913TIP3    H1 5684   1.925   7.088   1.103
 1913TIP3    H2 5685   2.005   6.987   1.024
 1914TIP3   OH2 5686   5.495   2.035   2.423
 1914TIP3    H1 5687   5.547   2.017   2.501
 1914TIP3    H2 5688   5.557   2.075   2.362
 1915TIP3   OH2 5689   5.141   1.999   5.783
 1915TIP3    H1 5690   5.163   1.980   5.875
 1915TIP3    H2 5691   5.056   1.957   5.770
 1916TIP3   OH2 5692   6.970   6.840   2.854
 1916TIP3    H1 5693   6.887   6.839   2.902
 1916TIP3    H2 5694   7.030   6.890   2.910
 1917TIP3   OH2 5695   6.858   0.959   0.641
 1917TIP3    H1 5696   6.847   0.913   0.558
 1917TIP3    H2 5697   6.953   0.962   0.654
 1918TIP3   OH2 5698   4.568   0.394   0.117
 1918TIP3    H1 5699   4.559   0.465   0.180
 1918TIP3    H2 5700   4.542   0.315   0.165
 1919TIP3   OH2 5701   7.658   3.704   5.811
 1919TIP3    H1 5702   7.589   3.768   5.826
 1919TIP3    H2 5703   7.709   3.704   5.892
 1920TIP3   OH2 5704   7.965   5.121   1.310
 1920TIP3    H1 5705   7.987   5.037   1.350
 1920TIP3    H2 5706   8.048   5.153   1.273
 1921TIP3   OH2 5707   0.078   4.460   3.714
 1921TIP3    H1 5708   0.136   4.501   3.778
 1921TIP3    H2 5709   0.096   4.507   3.632
 1922TIP3   OH2 5710   6.537   5.316   5.633
 1922TIP3    H1 5711   6.560   5.297   5.542
 1922TIP3    H2 5712   6.450   5.355   5.627
 1923TIP3   OH2 5713   2.149   0.337   1.658
 1923TIP3    H1 5714   2.163   0.252   1.617
 1923TIP3    H2 5715   2.149   0.319   1.752
 1924TIP3   OH2 5716   4.318   4.246   1.423
 1924TIP3    H1 5717   4.397   4.255   1.370
 1924TIP3    H2 5718   4.249   4.283   1.368
 1925TIP3   OH2 5719   4.600   1.351   0.317
 1925TIP3    H1 5720   4.641   1.346   0.230
 1925TIP3    H2 5721   4.543   1.275   0.320
 1926TIP3   OH2 5722   1.335   0.834   4.835
 1926TIP3    H1 5723   1.392   0.885   4.893
 1926TIP3    H2 5724   1.247   0.850   4.868
 1927TIP3   OH2 5725   6.579   1.381   1.118
 1927TIP3    H1 5726   6.574   1.421   1.031
 1927TIP3    H2 5727   6.598   1.289   1.102
 1928TIP3   OH2 5728   5.381   7.395   6.641
 1928TIP3    H1 5729   5.291   7.420   6.661
 1928TIP3    H2 5730   5.421   7.474   6.607
 1929TIP3   OH2 5731   3.645   1.088   6.371
 1929TIP3    H1 5732   3.724   1.035   6.364
 1929TIP3    H2 5733   3.676   1.178   6.372
 1930TIP3   OH2 5734   8.241   2.077   3.034
 1930TIP3    H1 5735   8.155   2.039   3.018
 1930TIP3    H2 5736   8.231   2.124   3.116
 1931TIP3   OH2 5737   4.526   0.320   4.764
 1931TIP3    H1 5738   4.590   0.274   4.818
 1931TIP3    H2 5739   4.499   0.255   4.699
 1932TIP3   OH2 5740   1.897   5.234   1.838
 1932TIP3    H1 5741   1.898   5.235   1.933
 1932TIP3    H2 5742   1.819   5.286   1.815
 1933TIP3   OH2 5743   6.287   4.163   0.765
 1933TIP3    H1 5744   6.288   4.143   0.671
 1933TIP3    H2 5745   6.376   4.146   0.795
 1934TIP3   OH2 5746   4.554   4.927   2.212
 1934TIP3    H1 5747   4.505   4.950   2.291
 1934TIP3    H2 5748   4.487   4.907   2.147
 1935TIP3   OH2 5749   2.460   6.583   1.048
 1935TIP3    H1 5750   2.372   6.585   1.087
 1935TIP3    H2 5751   2.518   6.608   1.119
 1936TIP3   OH2 5752   1.742   3.361   2.891
 1936TIP3    H1 5753   1.699   3.309   2.822
 1936TIP3    H2 5754   1.672   3.416   2.926
 1937TIP3   OH2 5755   5.667   4.363   2.849
 1937TIP3    H1 5756   5.747   4.402   2.814
 1937TIP3    H2 5757   5.690   4.335   2.937
 1938TIP3   OH2 5758   6.179   7.198   4.181
 1938TIP3    H1 5759   6.222   7.112   4.176
 1938TIP3    H2 5760   6.251   7.261   4.177
 1939TIP3   OH2 5761   7.896   7.360   1.149
 1939TIP3    H1 5762   7.937   7.285   1.106
 1939TIP3    H2 5763   7.853   7.407   1.078
 1940TIP3   OH2 5764   0.467   0.412   0.957
 1940TIP3    H1 5765   0.380   0.451   0.957
 1940TIP3    H2 5766   0.497   0.418   1.047
 1941TIP3   OH2 5767   4.345   2.809   6.467
 1941TIP3    H1 5768   4.285   2.745   6.427
 1941TIP3    H2 5769   4.325   2.806   6.560
 1942TIP3   OH2 5770   2.083   6.653   3.260
 1942TIP3    H1 5771   1.997   6.687   3.286
 1942TIP3    H2 5772   2.089   6.670   3.166
 1943TIP3   OH2 5773   2.713   0.905   0.277
 1943TIP3    H1 5774   2.647   0.907   0.346
 1943TIP3    H2 5775   2.778   0.842   0.308
 1944TIP3   OH2 5776   7.868   6.615   2.724
 1944TIP3    H1 5777   7.852   6.618   2.630
 1944TIP3    H2 5778   7.905   6.527   2.739
 1945TIP3   OH2 5779   4.505   3.420   2.602
 1945TIP3    H1 5780   4.499   3.514   2.614
 1945TIP3    H2 5781   4.522   3.386   2.690
 1946TIP3   OH2 5782   2.051   4.855   4.769
 1946TIP3    H1 5783   2.143   4.881   4.769
 1946TIP3    H2 5784   2.047   4.785   4.834
 1947TIP3   OH2 5785   1.647   7.370   1.710
 1947TIP3    H1 5786   1.565   7.373   1.659
 1947TIP3    H2 5787   1.716   7.365   1.644
 1948TIP3   OH2 5788   5.796   1.385   1.008
 1948TIP3    H1 5789   5.798   1.305   0.955
 1948TIP3    H2 5790   5.745   1.361   1.086
 1949TIP3   OH2 5791   3.101   4.319   5.483
 1949TIP3    H1 5792   3.041   4.249   5.459
 1949TIP3    H2 5793   3.067   4.396   5.438
 1950TIP3   OH2 5794   5.853   4.365   4.094
 1950TIP3    H1 5795   5.814   4.287   4.132
 1950TIP3    H2 5796   5.806   4.379   4.013
 1951TIP3   OH2 5797   8.097   0.313   1.362
 1951TIP3    H1 5798   8.117   0.274   1.447
 1951TIP3    H2 5799   8.171   0.289   1.307
 1952TIP3   OH2 5800   1.547   6.263   4.262
 1952TIP3    H1 5801   1.479   6.283   4.327
 1952TIP3    H2 5802   1.518   6.181   4.222
 1953TIP3   OH2 5803   5.801   0.613   4.439
 1953TIP3    H1 5804   5.776   0.678   4.506
 1953TIP3    H2 5805   5.771   0.651   4.357
 1954TIP3   OH2 5806   2.922   3.859   1.011
 1954TIP3    H1 5807   2.914   3.839   0.918
 1954TIP3    H2 5808   2.833   3.874   1.041
 1955TIP3   OH2 5809   3.177   3.630   3.624
 1955TIP3    H1 5810   3.160   3.560   3.688
 1955TIP3    H2 5811   3.091   3.669   3.609
 1956TIP3   OH2 5812   2.258   2.206   0.505
 1956TIP3    H1 5813   2.353   2.194   0.515
 1956TIP3    H2 5814   2.223   2.117   0.506
 1957TIP3   OH2 5815   0.324   5.973   0.654
 1957TIP3    H1 5816   0.398   6.017   0.612
 1957TIP3    H2 5817   0.300   5.902   0.593
 1958TIP3   OH2 5818   0.137   6.716   4.712
 1958TIP3    H1 5819   0.116   6.784   4.648
 1958TIP3    H2 5820   0.063   6.655   4.708
 1959TIP3   OH2 5821   5.960   3.248   1.337
 1959TIP3    H1 5822   6.049   3.235   1.302
 1959TIP3    H2 5823   5.973   3.253   1.431
 1960TIP3   OH2 5824   7.820   6.841   5.914
 1960TIP3    H1 5825   7.849   6.750   5.912
 1960TIP3    H2 5826   7.763   6.846   5.991
 1961TIP3   OH2 5827   6.403   3.276   0.270
 1961TIP3    H1 5828   6.403   3.309   0.360
 1961TIP3    H2 5829   6.459   3.199   0.273
 1962TIP3   OH2 5830   6.493   3.027   1.220
 1962TIP3    H1 5831   6.528   2.939   1.204
 1962TIP3    H2 5832   6.508   3.041   1.314
 1963TIP3   OH2 5833   6.491   1.732   0.252
 1963TIP3    H1 5834   6.498   1.809   0.196
 1963TIP3    H2 5835   6.431   1.757   0.322
 1964TIP3   OH2 5836   2.415   4.955   1.457
 1964TIP3    H1 5837   2.470   4.892   1.411
 1964TIP3    H2 5838   2.326   4.922   1.448
 1965TIP3   OH2 5839   4.708   5.916   6.536
 1965TIP3    H1 5840   4.638   5.857   6.564
 1965TIP3    H2 5841   4.689   5.999   6.581
 1966TIP3   OH2 5842   5.100   5.496   0.051
 1966TIP3    H1 5843   5.015   5.535   0.073
 1966TIP3    H2 5844   5.099   5.411   0.094
 1967TIP3   OH2 5845   1.091   6.250   5.569
 1967TIP3    H1 5846   1.003   6.217   5.555
 1967TIP3    H2 5847   1.144   6.210   5.500
 1968TIP3   OH2 5848   7.421   3.613   2.402
 1968TIP3    H1 5849   7.451   3.647   2.317
 1968TIP3    H2 5850   7.448   3.679   2.465
 1969TIP3   OH2 5851   6.079   3.379   3.183
 1969TIP3    H1 5852   6.012   3.368   3.251
 1969TIP3    H2 5853   6.162   3.369   3.229
 1970TIP3   OH2 5854   4.391   7.442   0.762
 1970TIP3    H1 5855   4.432   7.379   0.822
 1970TIP3    H2 5856   4.462   7.474   0.708
 1971TIP3   OH2 5857   2.201   5.275   5.808
 1971TIP3    H1 5858   2.221   5.185   5.832
 1971TIP3    H2 5859   2.177   5.270   5.715
 1972TIP3   OH2 5860   6.648   3.288   1.433
 1972TIP3    H1 5861   6.599   3.370   1.423
 1972TIP3    H2 5862   6.587   3.229   1.476
 1973TIP3   OH2 5863   6.410   5.939   1.796
 1973TIP3    H1 5864   6.489   5.973   1.837
 1973TIP3    H2 5865   6.359   6.017   1.774
 1974TIP3   OH2 5866   4.553   1.444   5.189
 1974TIP3    H1 5867   4.485   1.511   5.179
 1974TIP3    H2 5868   4.530   1.377   5.124
 1975TIP3   OH2 5869   4.058   7.424   1.864
 1975TIP3    H1 5870   3.990   7.363   1.892
 1975TIP3    H2 5871   4.067   7.408   1.770
 1976TIP3   OH2 5872   1.942   6.799   0.149
 1976TIP3    H1 5873   1.850   6.824   0.145
 1976TIP3    H2 5874   1.982   6.841   0.072
 1977TIP3   OH2 5875   7.031   6.471   5.172
 1977TIP3    H1 5876   7.041   6.400   5.109
 1977TIP3    H2 5877   7.090   6.447   5.244
 1978TIP3   OH2 5878   7.354   1.456   1.588
 1978TIP3    H1 5879   7.419   1.525   1.579
 1978TIP3    H2 5880   7.386   1.401   1.659
 1979TIP3   OH2 5881   7.371   5.651   1.131
 1979TIP3    H1 5882   7.292   5.610   1.165
 1979TIP3    H2 5883   7.390   5.604   1.050
 1980TIP3   OH2 5884   3.398   2.904   3.699
 1980TIP3    H1 5885   3.441   2.930   3.618
 1980TIP3    H2 5886   3.390   2.809   3.694
 1981TIP3   OH2 5887   5.696   5.593   1.272
 1981TIP3    H1 5888   5.715   5.502   1.294
 1981TIP3    H2 5889   5.688   5.594   1.177
 1982TIP3   OH2 5890   7.945   3.096   0.687
 1982TIP3    H1 5891   7.984   3.106   0.600
 1982TIP3    H2 5892   8.019   3.075   0.744
 1983TIP3   OH2 5893   7.529   5.754   3.745
 1983TIP3    H1 5894   7.488   5.702   3.814
 1983TIP3    H2 5895   7.615   5.777   3.780
 1984TIP3   OH2 5896   5.795   0.992   4.156
 1984TIP3    H1 5897   5.852   0.918   4.136
 1984TIP3    H2 5898   5.836   1.033   4.232
 1985TIP3   OH2 5899   4.222   3.236   3.201
 1985TIP3    H1 5900   4.196   3.144   3.198
 1985TIP3    H2 5901   4.201   3.265   3.290
 1986TIP3   OH2 5902   4.459   7.522   4.911
 1986TIP3    H1 5903   4.537   7.576   4.922
 1986TIP3    H2 5904   4.436   7.531   4.819
 1987TIP3   OH2 5905   2.752   7.268   2.616
 1987TIP3    H1 5906   2.847   7.256   2.622
 1987TIP3    H2 5907   2.741   7.341   2.555
 1988TIP3   OH2 5908   0.006   2.871   5.063
 1988TIP3    H1 5909   0.018   2.782   5.031
 1988TIP3    H2 5910  -0.087   2.878   5.082
 1989TIP3   OH2 5911   4.931   2.910   5.279
 1989TIP3    H1 5912   4.872   2.858   5.333
 1989TIP3    H2 5913   4.994   2.847   5.245
 1990TIP3   OH2 5914   3.471   1.917   3.736
 1990TIP3    H1 5915   3.421   1.892   3.814
 1990TIP3    H2 5916   3.407   1.914   3.665
 1991TIP3   OH2 5917   1.417   4.943   1.047
 1991TIP3    H1 5918   1.490   4.882   1.061
 1991TIP3    H2 5919   1.455   5.014   0.995
 1992TIP3   OH2 5920   7.816   2.818   6.616
 1992TIP3    H1 5921   7.772   2.888   6.568
 1992TIP3    H2 5922   7.842   2.858   6.699
 1993TIP3   OH2 5923   7.877   3.440   1.488
 1993TIP3    H1 5924   7.869   3.536   1.483
 1993TIP3    H2 5925   7.794   3.412   1.525
 1994TIP3   OH2 5926   0.953   5.756   0.709
 1994TIP3    H1 5927   0.980   5.710   0.789
 1994TIP3    H2 5928   1.005   5.716   0.639
 1995TIP3   OH2 5929   3.521   0.974   2.420
 1995TIP3    H1 5930   3.525   0.946   2.511
 1995TIP3    H2 5931   3.595   1.034   2.410
 1996TIP3   OH2 5932   6.542   6.637   0.096
 1996TIP3    H1 5933   6.603   6.610   0.165
 1996TIP3    H2 5934   6.512   6.724   0.124
 1997TIP3   OH2 5935   4.289   0.134   3.281
 1997TIP3    H1 5936   4.358   0.170   3.226
 1997TIP3    H2 5937   4.332   0.114   3.364
 1998TIP3   OH2 5938   0.775   7.813   6.671
 1998TIP3    H1 5939   0.809   7.747   6.611
 1998TIP3    H2 5940   0.691   7.838   6.634
 1999TIP3   OH2 5941   8.118   3.542   2.470
 1999TIP3    H1 5942   8.068   3.571   2.546
 1999TIP3    H2 5943   8.071   3.465   2.439
 2000TIP3   OH2 5944   1.198   0.063   1.351
 2000TIP3    H1 5945   1.260  -0.010   1.347
 2000TIP3    H2 5946   1.195   0.088   1.443
 2001TIP3   OH2 5947   7.645   0.925   1.227
 2001TIP3    H1 5948   7.572   0.934   1.288
 2001TIP3    H2 5949   7.618   0.975   1.150
 2002TIP3   OH2 5950   0.643   7.085   1.545
 2002TIP3    H1 5951   0.637   7.173   1.507
 2002TIP3    H2 5952   0.710   7.041   1.492
 2003TIP3   OH2 5953   4.499   7.784   3.245
 2003TIP3    H1 5954   4.479   7.739   3.327
 2003TIP3    H2 5955   4.546   7.718   3.193
 2004TIP3   OH2 5956   4.828   0.662   6.356
 2004TIP3    H1 5957   4.883   0.590   6.388
 2004TIP3    H2 5958   4.827   0.651   6.261
 2005TIP3   OH2 5959   2.854   1.318   2.625
 2005TIP3    H1 5960   2.920   1.373   2.583
 2005TIP3    H2 5961   2.838   1.247   2.562
 2006TIP3   OH2 5962   0.172   0.542   6.627
 2006TIP3    H1 5963   0.117   0.472   6.591
 2006TIP3    H2 5964   0.158   0.536   6.722
 2007TIP3   OH2 5965   5.051   3.795   1.994
 2007TIP3    H1 5966   4.967   3.750   1.990
 2007TIP3    H2 5967   5.062   3.834   1.908
 2008TIP3   OH2 5968   2.490   4.748   2.779
 2008TIP3    H1 5969   2.537   4.832   2.780
 2008TIP3    H2 5970   2.468   4.734   2.687
 2009TIP3   OH2 5971   8.207   6.928   6.289
 2009TIP3    H1 5972   8.291   6.896   6.255
 2009TIP3    H2 5973   8.192   6.877   6.368
 2010TIP3   OH2 5974   1.043   6.822   4.959
 2010TIP3    H1 5975   0.998   6.868   5.030
 2010TIP3    H2 5976   1.088   6.750   5.002
 2011TIP3   OH2 5977   3.966   3.090   6.559
 2011TIP3    H1 5978   3.890   3.096   6.501
 2011TIP3    H2 5979   4.027   3.157   6.525
 2012TIP3   OH2 5980   4.388   2.140   2.840
 2012TIP3    H1 5981   4.433   2.061   2.809
 2012TIP3    H2 5982   4.456   2.207   2.843
 2013TIP3   OH2 5983   7.276   1.903   6.433
 2013TIP3    H1 5984   7.192   1.948   6.425
 2013TIP3    H2 5985   7.325   1.954   6.496
 2014TIP3   OH2 5986   4.113   0.979   5.300
 2014TIP3    H1 5987   4.025   0.942   5.314
 2014TIP3    H2 5988   4.131   0.961   5.208
 2015TIP3   OH2 5989   7.810   1.481   5.614
 2015TIP3    H1 5990   7.785   1.395   5.649
 2015TIP3    H2 5991   7.808   1.539   5.689
 2016TIP3   OH2 5992   0.407   7.057   2.801
 2016TIP3    H1 5993   0.364   7.137   2.772
 2016TIP3    H2 5994   0.441   7.017   2.721
 2017TIP3   OH2 5995   1.938   2.774   0.932
 2017TIP3    H1 5996   1.917   2.859   0.972
 2017TIP3    H2 5997   1.870   2.761   0.867
 2018TIP3   OH2 5998   7.844   6.225   2.901
 2018TIP3    H1 5999   7.900   6.259   2.830
 2018TIP3    H2 6000   7.830   6.300   2.959
 2019TIP3   OH2 6001   3.888   5.816   4.080
 2019TIP3    H1 6002   3.846   5.887   4.129
 2019TIP3    H2 6003   3.894   5.744   4.142
 2020TIP3   OH2 6004   3.660   7.433   6.595
 2020TIP3    H1 6005   3.727   7.375   6.558
 2020TIP3    H2 6006   3.579   7.381   6.590
 2021TIP3   OH2 6007   0.281   4.945   2.995
 2021TIP3    H1 6008   0.337   4.944   3.072
 2021TIP3    H2 6009   0.263   4.852   2.977
 2022TIP3   OH2 6010   6.262   1.853   3.221
 2022TIP3    H1 6011   6.286   1.828   3.310
 2022TIP3    H2 6012   6.187   1.797   3.199
 2023TIP3   OH2 6013   3.138   5.468   2.001
 2023TIP3    H1 6014   3.199   5.542   2.004
 2023TIP3    H2 6015   3.055   5.504   2.033
 2024TIP3   OH2 6016   6.702   3.318   3.292
 2024TIP3    H1 6017   6.703   3.314   3.196
 2024TIP3    H2 6018   6.734   3.233   3.320
 2025TIP3   OH2 6019   6.800   2.700   1.664
 2025TIP3    H1 6020   6.713   2.660   1.662
 2025TIP3    H2 6021   6.793   2.767   1.733
 2026TIP3   OH2 6022   3.727   5.995   5.656
 2026TIP3    H1 6023   3.768   5.922   5.703
 2026TIP3    H2 6024   3.647   5.959   5.620
 2027TIP3   OH2 6025   1.831   6.046   3.646
 2027TIP3    H1 6026   1.832   5.975   3.710
 2027TIP3    H2 6027   1.768   6.109   3.680
 2028TIP3   OH2 6028   5.354   4.285   5.576
 2028TIP3    H1 6029   5.428   4.268   5.517
 2028TIP3    H2 6030   5.358   4.215   5.640
 2029TIP3   OH2 6031   3.075   6.965   1.106
 2029TIP3    H1 6032   3.021   6.995   1.032
 2029TIP3    H2 6033   3.014   6.957   1.179
 2030TIP3   OH2 6034   7.898   7.604   2.163
 2030TIP3    H1 6035   7.881   7.524   2.213
 2030TIP3    H2 6036   7.894   7.576   2.072
 2031TIP3   OH2 6037   7.786   2.508   6.470
 2031TIP3    H1 6038   7.697   2.518   6.436
 2031TIP3    H2 6039   7.836   2.577   6.426
 2032TIP3   OH2 6040   2.201   3.166   2.381
 2032TIP3    H1 6041   2.215   3.118   2.299
 2032TIP3    H2 6042   2.290   3.184   2.413
 2033TIP3   OH2 6043   3.302   3.867   0.906
 2033TIP3    H1 6044   3.231   3.863   0.971
 2033TIP3    H2 6045   3.354   3.788   0.924
 2034TIP3   OH2 6046   7.428   5.019   3.251
 2034TIP3    H1 6047   7.350   5.003   3.303
 2034TIP3    H2 6048   7.409   5.098   3.201
 2035TIP3   OH2 6049   3.255   4.279   4.088
 2035TIP3    H1 6050   3.325   4.305   4.027
 2035TIP3    H2 6051   3.262   4.184   4.092
 2036TIP3   OH2 6052   3.995   3.567   1.901
 2036TIP3    H1 6053   4.026   3.656   1.912
 2036TIP3    H2 6054   4.073   3.512   1.911
 2037TIP3   OH2 6055   4.830   6.697   1.982
 2037TIP3    H1 6056   4.883   6.744   2.047
 2037TIP3    H2 6057   4.894   6.657   1.923
 2038TIP3   OH2 6058   1.202   4.762   2.228
 2038TIP3    H1 6059   1.155   4.722   2.301
 2038TIP3    H2 6060   1.245   4.689   2.184
 2039TIP3   OH2 6061   2.068   6.841   3.673
 2039TIP3    H1 6062   1.993   6.881   3.629
 2039TIP3    H2 6063   2.129   6.913   3.687
 2040TIP3   OH2 6064   3.872   2.173   3.759
 2040TIP3    H1 6065   3.785   2.206   3.780
 2040TIP3    H2 6066   3.908   2.144   3.843
 2041TIP3   OH2 6067   6.908   1.321   1.360
 2041TIP3    H1 6068   6.913   1.417   1.354
 2041TIP3    H2 6069   6.824   1.305   1.402
 2042TIP3   OH2 6070   4.914   1.050   3.192
 2042TIP3    H1 6071   4.884   1.035   3.102
 2042TIP3    H2 6072   4.837   1.033   3.246
 2043TIP3   OH2 6073   2.279   5.791   3.973
 2043TIP3    H1 6074   2.315   5.775   3.886
 2043TIP3    H2 6075   2.208   5.853   3.960
 2044TIP3   OH2 6076   5.551   0.317   3.092
 2044TIP3    H1 6077   5.618   0.313   3.023
 2044TIP3    H2 6078   5.469   0.301   3.046
 2045TIP3   OH2 6079   0.769   3.967   1.054
 2045TIP3    H1 6080   0.723   3.965   1.138
 2045TIP3    H2 6081   0.800   3.878   1.041
 2046TIP3   OH2 6082   1.412   0.915   2.680
 2046TIP3    H1 6083   1.347   0.958   2.734
 2046TIP3    H2 6084   1.493   0.962   2.698
 2047TIP3   OH2 6085   8.114   7.019   4.635
 2047TIP3    H1 6086   8.079   6.959   4.569
 2047TIP3    H2 6087   8.090   6.979   4.719
 2048TIP3   OH2 6088   1.751   4.646   6.684
 2048TIP3    H1 6089   1.774   4.678   6.771
 2048TIP3    H2 6090   1.733   4.725   6.632
 2049TIP3   OH2 6091   5.942   7.102   5.760
 2049TIP3    H1 6092   5.992   7.155   5.699
 2049TIP3    H2 6093   5.963   7.011   5.736
 2050TIP3   OH2 6094   7.559   7.724   4.758
 2050TIP3    H1 6095   7.597   7.651   4.807
 2050TIP3    H2 6096   7.529   7.685   4.676
 2051TIP3   OH2 6097   6.965   2.867   3.960
 2051TIP3    H1 6098   6.919   2.934   3.910
 2051TIP3    H2 6099   6.929   2.784   3.929
 2052TIP3   OH2 6100   4.348   4.664   5.187
 2052TIP3    H1 6101   4.315   4.592   5.240
 2052TIP3    H2 6102   4.290   4.668   5.111
 2053TIP3   OH2 6103   1.884   1.000   4.214
 2053TIP3    H1 6104   1.815   1.022   4.151
 2053TIP3    H2 6105   1.853   0.920   4.256
 2054TIP3   OH2 6106   7.346   5.315   3.581
 2054TIP3    H1 6107   7.439   5.331   3.600
 2054TIP3    H2 6108   7.335   5.221   3.596
 2055TIP3   OH2 6109   6.689   6.964   5.050
 2055TIP3    H1 6110   6.724   6.997   5.133
 2055TIP3    H2 6111   6.739   7.011   4.983
 2056TIP3   OH2 6112   2.989   6.275   6.407
 2056TIP3    H1 6113   3.014   6.314   6.491
 2056TIP3    H2 6114   2.987   6.181   6.423
 2057TIP3   OH2 6115   1.312   0.186   6.420
 2057TIP3    H1 6116   1.240   0.214   6.364
 2057TIP3    H2 6117   1.279   0.108   6.464
 2058TIP3   OH2 6118   3.042   1.243   5.982
 2058TIP3    H1 6119   3.116   1.219   5.927
 2058TIP3    H2 6120   3.007   1.160   6.013
 2059TIP3   OH2 6121   7.873   4.394   3.224
 2059TIP3    H1 6122   7.958   4.385   3.269
 2059TIP3    H2 6123   7.883   4.473   3.171
 2060TIP3   OH2 6124   6.536   0.657   4.427
 2060TIP3    H1 6125   6.531   0.564   4.405
 2060TIP3    H2 6126   6.599   0.660   4.499
 2061TIP3   OH2 6127   0.724   3.096   4.521
 2061TIP3    H1 6128   0.687   3.050   4.446
 2061TIP3    H2 6129   0.819   3.082   4.513
 2062TIP3   OH2 6130   4.493   7.745   1.833
 2062TIP3    H1 6131   4.550   7.760   1.758
 2062TIP3    H2 6132   4.413   7.793   1.814
 2063TIP3   OH2 6133   5.318   2.587   2.938
 2063TIP3    H1 6134   5.243   2.542   2.975
 2063TIP3    H2 6135   5.337   2.657   3.000
 2064TIP3   OH2 6136   4.578   3.266   0.045
 2064TIP3    H1 6137   4.483   3.273   0.035
 2064TIP3    H2 6138   4.591   3.196   0.108
 2065TIP3   OH2 6139   4.588   0.916   1.208
 2065TIP3    H1 6140   4.662   0.855   1.214
 2065TIP3    H2 6141   4.576   0.948   1.297
 2066TIP3   OH2 6142   0.905   7.425   2.517
 2066TIP3    H1 6143   0.841   7.400   2.584
 2066TIP3    H2 6144   0.977   7.464   2.566
 2067TIP3   OH2 6145   4.530   0.107   3.712
 2067TIP3    H1 6146   4.520   0.118   3.617
 2067TIP3    H2 6147   4.520   0.013   3.726
 2068TIP3   OH2 6148   2.860   6.683   0.618
 2068TIP3    H1 6149   2.863   6.771   0.655
 2068TIP3    H2 6150   2.822   6.629   0.688
 2069TIP3   OH2 6151   3.336   4.190   5.513
 2069TIP3    H1 6152   3.410   4.251   5.512
 2069TIP3    H2 6153   3.259   4.247   5.519
 2070TIP3   OH2 6154   1.663   3.154   4.876
 2070TIP3    H1 6155   1.601   3.124   4.943
 2070TIP3    H2 6156   1.710   3.075   4.851
 2071TIP3   OH2 6157   3.129   4.103   0.285
 2071TIP3    H1 6158   3.074   4.143   0.217
 2071TIP3    H2 6159   3.217   4.103   0.247
 2072TIP3   OH2 6160   6.654   7.304   2.026
 2072TIP3    H1 6161   6.735   7.353   2.008
 2072TIP3    H2 6162   6.593   7.333   1.959
 2073TIP3   OH2 6163   4.742   5.390   5.424
 2073TIP3    H1 6164   4.664   5.335   5.419
 2073TIP3    H2 6165   4.785   5.378   5.339
 2074TIP3   OH2 6166   1.158   4.231   2.203
 2074TIP3    H1 6167   1.176   4.219   2.110
 2074TIP3    H2 6168   1.081   4.288   2.206
 2075TIP3   OH2 6169   5.635   4.469   5.892
 2075TIP3    H1 6170   5.672   4.447   5.807
 2075TIP3    H2 6171   5.692   4.425   5.955
 2076TIP3   OH2 6172   4.784   0.543   2.334
 2076TIP3    H1 6173   4.716   0.518   2.272
 2076TIP3    H2 6174   4.840   0.465   2.341
 2077TIP3   OH2 6175   5.598   6.308   4.145
 2077TIP3    H1 6176   5.532   6.368   4.111
 2077TIP3    H2 6177   5.548   6.247   4.201
 2078TIP3   OH2 6178   0.975   2.631   0.029
 2078TIP3    H1 6179   1.054   2.594   0.069
 2078TIP3    H2 6180   0.905   2.571   0.053
 2079TIP3   OH2 6181   6.224   5.841   0.999
 2079TIP3    H1 6182   6.190   5.918   0.953
 2079TIP3    H2 6183   6.243   5.778   0.930
 2080TIP3   OH2 6184   7.705   6.520   4.729
 2080TIP3    H1 6185   7.653   6.573   4.669
 2080TIP3    H2 6186   7.792   6.516   4.690
 2081TIP3   OH2 6187   3.792   4.082   4.547
 2081TIP3    H1 6188   3.789   4.112   4.456
 2081TIP3    H2 6189   3.743   4.149   4.595
 2082TIP3   OH2 6190   8.139   4.076   2.445
 2082TIP3    H1 6191   8.093   4.094   2.363
 2082TIP3    H2 6192   8.232   4.085   2.423
 2083TIP3   OH2 6193   2.114   3.604   3.329
 2083TIP3    H1 6194   2.022   3.608   3.305
 2083TIP3    H2 6195   2.139   3.513   3.316
 2084TIP3   OH2 6196   5.053   3.823   1.140
 2084TIP3    H1 6197   5.139   3.823   1.183
 2084TIP3    H2 6198   5.064   3.766   1.064
 2085TIP3   OH2 6199   2.149   3.670   3.722
 2085TIP3    H1 6200   2.108   3.585   3.704
 2085TIP3    H2 6201   2.079   3.724   3.758
 2086TIP3   OH2 6202   4.136   0.174   2.906
 2086TIP3    H1 6203   4.054   0.211   2.873
 2086TIP3    H2 6204   4.165   0.116   2.837
 2087TIP3   OH2 6205   4.386   1.912   4.583
 2087TIP3    H1 6206   4.372   1.957   4.500
 2087TIP3    H2 6207   4.449   1.843   4.564
 2088TIP3   OH2 6208   4.799   1.910   6.307
 2088TIP3    H1 6209   4.846   1.832   6.277
 2088TIP3    H2 6210   4.768   1.886   6.395
 2089TIP3   OH2 6211   5.950   2.707   1.903
 2089TIP3    H1 6212   5.887   2.634   1.905
 2089TIP3    H2 6213   5.929   2.759   1.980
 2090TIP3   OH2 6214   4.468   7.073   1.190
 2090TIP3    H1 6215   4.476   7.164   1.164
 2090TIP3    H2 6216   4.397   7.072   1.255
 2091TIP3   OH2 6217   5.551   4.111   6.689
 2091TIP3    H1 6218   5.609   4.146   6.622
 2091TIP3    H2 6219   5.464   4.138   6.662
 2092TIP3   OH2 6220   4.925   7.687   2.268
 2092TIP3    H1 6221   4.890   7.622   2.328
 2092TIP3    H2 6222   4.886   7.770   2.297
 2093TIP3   OH2 6223   6.352   4.533   3.028
 2093TIP3    H1 6224   6.336   4.440   3.037
 2093TIP3    H2 6225   6.442   4.539   2.996
 2094TIP3   OH2 6226   7.386   0.891   0.938
 2094TIP3    H1 6227   7.406   0.821   1.001
 2094TIP3    H2 6228   7.446   0.962   0.962
 2095TIP3   OH2 6229   2.276   2.730   4.423
 2095TIP3    H1 6230   2.221   2.652   4.420
 2095TIP3    H2 6231   2.277   2.755   4.515
 2096TIP3   OH2 6232   4.603   1.516   5.779
 2096TIP3    H1 6233   4.631   1.473   5.699
 2096TIP3    H2 6234   4.624   1.609   5.766
 2097TIP3   OH2 6235   2.201   3.521   1.702
 2097TIP3    H1 6236   2.265   3.468   1.751
 2097TIP3    H2 6237   2.246   3.544   1.621
 2098TIP3   OH2 6238   6.419   4.281   6.013
 2098TIP3    H1 6239   6.403   4.307   6.103
 2098TIP3    H2 6240   6.407   4.361   5.962
 2099TIP3   OH2 6241   3.813   5.697   4.558
 2099TIP3    H1 6242   3.722   5.721   4.541
 2099TIP3    H2 6243   3.808   5.606   4.588
 2100TIP3   OH2 6244   2.936   1.195   2.879
 2100TIP3    H1 6245   2.907   1.180   2.790
 2100TIP3    H2 6246   2.966   1.286   2.879
 2101TIP3   OH2 6247   3.248   7.084   6.513
 2101TIP3    H1 6248   3.233   7.009   6.572
 2101TIP3    H2 6249   3.341   7.102   6.520
 2102TIP3   OH2 6250   6.997   4.986   2.756
 2102TIP3    H1 6251   6.973   4.985   2.849
 2102TIP3    H2 6252   7.037   5.073   2.743
 2103TIP3   OH2 6253   7.680   3.535   1.266
 2103TIP3    H1 6254   7.748   3.467   1.259
 2103TIP3    H2 6255   7.605   3.489   1.304
 2104TIP3   OH2 6256   2.428   7.077   3.077
 2104TIP3    H1 6257   2.462   6.989   3.060
 2104TIP3    H2 6258   2.334   7.069   3.062
 2105TIP3   OH2 6259   1.666   1.281   3.174
 2105TIP3    H1 6260   1.696   1.298   3.085
 2105TIP3    H2 6261   1.571   1.295   3.170
 2106TIP3   OH2 6262   0.818   1.122   0.550
 2106TIP3    H1 6263   0.825   1.187   0.479
 2106TIP3    H2 6264   0.738   1.075   0.531
 2107TIP3   OH2 6265   2.388   3.316   2.508
 2107TIP3    H1 6266   2.464   3.364   2.475
 2107TIP3    H2 6267   2.325   3.384   2.532
 2108TIP3   OH2 6268   5.691   4.117   1.766
 2108TIP3    H1 6269   5.749   4.041   1.770
 2108TIP3    H2 6270   5.681   4.144   1.857
 2109TIP3   OH2 6271   3.368   1.479   1.582
 2109TIP3    H1 6272   3.316   1.551   1.545
 2109TIP3    H2 6273   3.459   1.508   1.571
 2110TIP3   OH2 6274   0.347   1.769   0.810
 2110TIP3    H1 6275   0.329   1.709   0.882
 2110TIP3    H2 6276   0.440   1.760   0.792
 2111TIP3   OH2 6277   4.554   4.788   3.468
 2111TIP3    H1 6278   4.546   4.882   3.448
 2111TIP3    H2 6279   4.564   4.746   3.383
 2112TIP3   OH2 6280   5.618   6.676   4.561
 2112TIP3    H1 6281   5.635   6.668   4.655
 2112TIP3    H2 6282   5.561   6.752   4.553
 2113TIP3   OH2 6283   6.306   0.738   1.469
 2113TIP3    H1 6284   6.281   0.795   1.542
 2113TIP3    H2 6285   6.381   0.688   1.502
 2114TIP3   OH2 6286   5.299   2.609   0.100
 2114TIP3    H1 6287   5.226   2.566   0.055
 2114TIP3    H2 6288   5.265   2.695   0.124
 2115TIP3   OH2 6289   8.058   6.262   0.651
 2115TIP3    H1 6290   8.026   6.265   0.561
 2115TIP3    H2 6291   8.088   6.172   0.664
 2116TIP3   OH2 6292   0.071   4.202   4.242
 2116TIP3    H1 6293   0.083   4.215   4.148
 2116TIP3    H2 6294   0.160   4.193   4.277
 2117TIP3   OH2 6295   2.887   5.806   0.483
 2117TIP3    H1 6296   2.835   5.866   0.536
 2117TIP3    H2 6297   2.825   5.767   0.421
 2118TIP3   OH2 6298   7.859   4.983   5.388
 2118TIP3    H1 6299   7.772   5.019   5.408
 2118TIP3    H2 6300   7.877   5.012   5.298
 2119TIP3   OH2 6301   3.791   1.088   0.026
 2119TIP3    H1 6302   3.791   1.031  -0.051
 2119TIP3    H2 6303   3.800   1.177  -0.010
 2120TIP3   OH2 6304   1.399   2.970   6.760
 2120TIP3    H1 6305   1.387   3.028   6.684
 2120TIP3    H2 6306   1.321   2.985   6.814
 2121TIP3   OH2 6307   7.593   5.908   1.919
 2121TIP3    H1 6308   7.634   5.852   1.985
 2121TIP3    H2 6309   7.549   5.847   1.861
 2122TIP3   OH2 6310   0.186   6.325   5.772
 2122TIP3    H1 6311   0.115   6.298   5.713
 2122TIP3    H2 6312   0.201   6.249   5.828
 2123TIP3   OH2 6313   4.844   7.056   6.172
 2123TIP3    H1 6314   4.810   7.024   6.088
 2123TIP3    H2 6315   4.838   7.151   6.166
 2124TIP3   OH2 6316   1.794   3.668   4.676
 2124TIP3    H1 6317   1.777   3.731   4.746
 2124TIP3    H2 6318   1.753   3.587   4.707
 2125TIP3   OH2 6319   3.961   6.113   0.010
 2125TIP3    H1 6320   3.985   6.025   0.040
 2125TIP3    H2 6321   3.865   6.114   0.012
 2126TIP3   OH2 6322   5.114   6.749   4.504
 2126TIP3    H1 6323   5.084   6.804   4.431
 2126TIP3    H2 6324   5.181   6.801   4.548
 2127TIP3   OH2 6325   1.325   4.386   4.695
 2127TIP3    H1 6326   1.239   4.429   4.688
 2127TIP3    H2 6327   1.387   4.458   4.708
 2128TIP3   OH2 6328   5.895   4.792   3.989
 2128TIP3    H1 6329   5.966   4.855   3.977
 2128TIP3    H2 6330   5.841   4.829   4.059
 2129TIP3   OH2 6331   1.470   1.287   5.228
 2129TIP3    H1 6332   1.413   1.223   5.269
 2129TIP3    H2 6333   1.480   1.356   5.294
 2130TIP3   OH2 6334   7.743   6.120   2.142
 2130TIP3    H1 6335   7.810   6.061   2.176
 2130TIP3    H2 6336   7.695   6.149   2.220
 2131TIP3   OH2 6337   5.156   4.674   1.516
 2131TIP3    H1 6338   5.237   4.626   1.504
 2131TIP3    H2 6339   5.128   4.654   1.606
 2132TIP3   OH2 6340   1.108   6.160   3.071
 2132TIP3    H1 6341   1.180   6.210   3.108
 2132TIP3    H2 6342   1.033   6.219   3.074
 2133TIP3   OH2 6343   3.456   1.187   0.926
 2133TIP3    H1 6344   3.505   1.131   0.985
 2133TIP3    H2 6345   3.523   1.234   0.875
 2134TIP3   OH2 6346   0.938   4.505   6.108
 2134TIP3    H1 6347   1.030   4.511   6.132
 2134TIP3    H2 6348   0.891   4.543   6.183
 2135TIP3   OH2 6349   4.406   2.815   0.193
 2135TIP3    H1 6350   4.453   2.732   0.192
 2135TIP3    H2 6351   4.457   2.873   0.136
 2136TIP3   OH2 6352   7.117   4.728   3.614
 2136TIP3    H1 6353   7.087   4.681   3.692
 2136TIP3    H2 6354   7.121   4.819   3.642
 2137TIP3   OH2 6355   4.708   3.559   4.099
 2137TIP3    H1 6356   4.665   3.549   4.184
 2137TIP3    H2 6357   4.675   3.641   4.064
 2138TIP3   OH2 6358   0.775   1.494   3.337
 2138TIP3    H1 6359   0.870   1.493   3.345
 2138TIP3    H2 6360   0.754   1.417   3.284
 2139TIP3   OH2 6361   3.004   5.125   6.302
 2139TIP3    H1 6362   2.943   5.052   6.293
 2139TIP3    H2 6363   2.949   5.203   6.290
 2140TIP3   OH2 6364   5.236   7.228   0.000
 2140TIP3    H1 6365   5.260   7.159  -0.062
 2140TIP3    H2 6366   5.264   7.194   0.085
 2141TIP3   OH2 6367   2.403   7.243   1.552
 2141TIP3    H1 6368   2.340   7.207   1.614
 2141TIP3    H2 6369   2.483   7.191   1.566
 2142TIP3   OH2 6370   7.868   3.388   5.356
 2142TIP3    H1 6371   7.886   3.414   5.265
 2142TIP3    H2 6372   7.838   3.468   5.398
 2143TIP3   OH2 6373   2.738   3.319   4.691
 2143TIP3    H1 6374   2.678   3.370   4.745
 2143TIP3    H2 6375   2.728   3.229   4.723
 2144TIP3   OH2 6376   2.710   7.367   3.522
 2144TIP3    H1 6377   2.711   7.451   3.476
 2144TIP3    H2 6378   2.728   7.389   3.613
 2145TIP3   OH2 6379   7.135   5.301   4.408
 2145TIP3    H1 6380   7.166   5.376   4.459
 2145TIP3    H2 6381   7.213   5.266   4.365
 2146TIP3   OH2 6382   4.907   7.574   4.885
 2146TIP3    H1 6383   4.866   7.530   4.810
 2146TIP3    H2 6384   4.835   7.620   4.927
 2147TIP3   OH2 6385   0.613   1.734   0.826
 2147TIP3    H1 6386   0.618   1.697   0.914
 2147TIP3    H2 6387   0.700   1.771   0.810
 2148TIP3   OH2 6388   4.727   2.293   4.523
 2148TIP3    H1 6389   4.690   2.281   4.611
 2148TIP3    H2 6390   4.654   2.327   4.471
 2149TIP3   OH2 6391   2.231   1.701   2.952
 2149TIP3    H1 6392   2.203   1.698   3.043
 2149TIP3    H2 6393   2.249   1.794   2.936
 2150TIP3   OH2 6394   4.144   7.624   1.128
 2150TIP3    H1 6395   4.087   7.561   1.083
 2150TIP3    H2 6396   4.091   7.704   1.133
 2151TIP3   OH2 6397   6.882   2.912   1.163
 2151TIP3    H1 6398   6.977   2.919   1.162
 2151TIP3    H2 6399   6.853   2.984   1.220
 2152TIP3   OH2 6400   2.053   1.571   5.481
 2152TIP3    H1 6401   2.023   1.608   5.564
 2152TIP3    H2 6402   2.007   1.622   5.414
 2153TIP3   OH2 6403   6.804   1.809   1.197
 2153TIP3    H1 6404   6.837   1.761   1.121
 2153TIP3    H2 6405   6.800   1.900   1.167
 2154TIP3   OH2 6406   3.959   3.188   5.190
 2154TIP3    H1 6407   4.001   3.205   5.274
 2154TIP3    H2 6408   3.966   3.093   5.179
 2155TIP3   OH2 6409   4.001   5.982   0.272
 2155TIP3    H1 6410   4.096   5.988   0.283
 2155TIP3    H2 6411   3.965   6.032   0.346
 2156TIP3   OH2 6412   4.767   2.343   1.740
 2156TIP3    H1 6413   4.729   2.256   1.725
 2156TIP3    H2 6414   4.781   2.379   1.652
 2157TIP3   OH2 6415   2.172   2.009   4.616
 2157TIP3    H1 6416   2.175   2.091   4.566
 2157TIP3    H2 6417   2.082   2.002   4.646
 2158TIP3   OH2 6418   5.499   7.590   1.280
 2158TIP3    H1 6419   5.586   7.551   1.266
 2158TIP3    H2 6420   5.499   7.617   1.372
 2159TIP3   OH2 6421   0.965   5.109   5.725
 2159TIP3    H1 6422   0.947   5.074   5.813
 2159TIP3    H2 6423   1.029   5.048   5.688
 2160TIP3   OH2 6424   5.984   7.600   6.565
 2160TIP3    H1 6425   6.047   7.598   6.492
 2160TIP3    H2 6426   6.030   7.559   6.638
 2161TIP3   OH2 6427   8.295   7.817   3.816
 2161TIP3    H1 6428   8.376   7.813   3.765
 2161TIP3    H2 6429   8.226   7.793   3.754
 2162TIP3   OH2 6430   0.851   2.129   1.966
 2162TIP3    H1 6431   0.919   2.197   1.957
 2162TIP3    H2 6432   0.867   2.070   1.893
 2163TIP3   OH2 6433   6.484   0.591   2.295
 2163TIP3    H1 6434   6.521   0.596   2.207
 2163TIP3    H2 6435   6.532   0.520   2.338
 2164TIP3   OH2 6436   1.631   1.954   1.615
 2164TIP3    H1 6437   1.598   2.002   1.539
 2164TIP3    H2 6438   1.718   1.923   1.588
 2165TIP3   OH2 6439   8.283   4.969   4.034
 2165TIP3    H1 6440   8.368   5.013   4.029
 2165TIP3    H2 6441   8.226   5.021   3.977
 2166TIP3   OH2 6442   1.603   7.811   2.358
 2166TIP3    H1 6443   1.611   7.838   2.266
 2166TIP3    H2 6444   1.509   7.819   2.377
 2167TIP3   OH2 6445   2.070   4.951   0.326
 2167TIP3    H1 6446   2.089   4.958   0.232
 2167TIP3    H2 6447   2.047   4.859   0.339
 2168TIP3   OH2 6448   7.906   3.039   0.102
 2168TIP3    H1 6449   7.956   3.110   0.060
 2168TIP3    H2 6450   7.973   2.976   0.128
 2169TIP3   OH2 6451   0.046   5.043   1.464
 2169TIP3    H1 6452   0.005   5.108   1.408
 2169TIP3    H2 6453   0.140   5.060   1.455
 2170TIP3   OH2 6454   2.388   5.444   5.888
 2170TIP3    H1 6455   2.449   5.386   5.934
 2170TIP3    H2 6456   2.320   5.386   5.855
 2171TIP3   OH2 6457   6.495   6.256   1.292
 2171TIP3    H1 6458   6.448   6.324   1.340
 2171TIP3    H2 6459   6.465   6.264   1.202
 2172TIP3   OH2 6460   6.468   6.068   0.201
 2172TIP3    H1 6461   6.425   5.983   0.199
 2172TIP3    H2 6462   6.512   6.075   0.116
 2173TIP3   OH2 6463   3.624   4.255   6.035
 2173TIP3    H1 6464   3.584   4.200   6.102
 2173TIP3    H2 6465   3.640   4.195   5.962
 2174TIP3   OH2 6466   5.443   0.374   4.966
 2174TIP3    H1 6467   5.405   0.295   4.926
 2174TIP3    H2 6468   5.510   0.340   5.026
 2175TIP3   OH2 6469   2.795   3.453   0.473
 2175TIP3    H1 6470   2.848   3.375   0.458
 2175TIP3    H2 6471   2.759   3.441   0.561
 2176TIP3   OH2 6472   8.307   7.406   6.124
 2176TIP3    H1 6473   8.290   7.313   6.114
 2176TIP3    H2 6474   8.228   7.441   6.165
 2177TIP3   OH2 6475   5.482   5.846   4.173
 2177TIP3    H1 6476   5.393   5.875   4.187
 2177TIP3    H2 6477   5.475   5.752   4.159
 2178TIP3   OH2 6478   2.657   0.216   2.985
 2178TIP3    H1 6479   2.622   0.219   2.896
 2178TIP3    H2 6480   2.732   0.276   2.983
 2179TIP3   OH2 6481   5.788   0.372   5.243
 2179TIP3    H1 6482   5.766   0.371   5.149
 2179TIP3    H2 6483   5.873   0.327   5.248
 2180TIP3   OH2 6484   2.105   3.014   3.709
 2180TIP3    H1 6485   2.065   2.929   3.728
 2180TIP3    H2 6486   2.089   3.066   3.788
 2181TIP3   OH2 6487   3.704   1.504   2.748
 2181TIP3    H1 6488   3.728   1.493   2.840
 2181TIP3    H2 6489   3.783   1.479   2.700
 2182TIP3   OH2 6490   6.278   4.312   1.479
 2182TIP3    H1 6491   6.272   4.264   1.561
 2182TIP3    H2 6492   6.209   4.275   1.423
 2183TIP3   OH2 6493   2.326   5.679   0.728
 2183TIP3    H1 6494   2.269   5.712   0.659
 2183TIP3    H2 6495   2.403   5.736   0.725
 2184TIP3   OH2 6496   3.587   5.603   1.774
 2184TIP3    H1 6497   3.624   5.543   1.838
 2184TIP3    H2 6498   3.524   5.550   1.725
 2185TIP3   OH2 6499   2.980   4.863   3.743
 2185TIP3    H1 6500   3.011   4.953   3.754
 2185TIP3    H2 6501   3.043   4.824   3.683
 2186TIP3   OH2 6502   5.539   1.241   6.576
 2186TIP3    H1 6503   5.518   1.175   6.510
 2186TIP3    H2 6504   5.491   1.319   6.549
 2187TIP3   OH2 6505   3.824   4.363   5.308
 2187TIP3    H1 6506   3.913   4.369   5.272
 2187TIP3    H2 6507   3.834   4.312   5.388
 2188TIP3   OH2 6508   1.494   7.107   3.392
 2188TIP3    H1 6509   1.555   7.155   3.449
 2188TIP3    H2 6510   1.409   7.117   3.434
 2189TIP3   OH2 6511   0.252   3.525   0.380
 2189TIP3    H1 6512   0.305   3.516   0.301
 2189TIP3    H2 6513   0.163   3.534   0.348
 2190TIP3   OH2 6514   4.575   0.608   1.287
 2190TIP3    H1 6515   4.588   0.631   1.379
 2190TIP3    H2 6516   4.509   0.670   1.255
 2191TIP3   OH2 6517   2.546   2.741   1.396
 2191TIP3    H1 6518   2.564   2.691   1.316
 2191TIP3    H2 6519   2.621   2.723   1.452
 2192TIP3   OH2 6520   4.776   6.269   3.207
 2192TIP3    H1 6521   4.683   6.258   3.186
 2192TIP3    H2 6522   4.789   6.215   3.285
 2193TIP3   OH2 6523   7.064   1.923   6.155
 2193TIP3    H1 6524   7.004   1.953   6.086
 2193TIP3    H2 6525   7.143   1.974   6.142
 2194TIP3   OH2 6526   1.903   5.818   5.491
 2194TIP3    H1 6527   1.868   5.747   5.438
 2194TIP3    H2 6528   1.989   5.786   5.520
 2195TIP3   OH2 6529   4.779   7.124   4.540
 2195TIP3    H1 6530   4.685   7.107   4.543
 2195TIP3    H2 6531   4.811   7.072   4.466
 2196TIP3   OH2 6532   5.236   2.965   4.147
 2196TIP3    H1 6533   5.273   3.045   4.111
 2196TIP3    H2 6534   5.159   2.994   4.195
 2197TIP3   OH2 6535   0.278   5.865   2.126
 2197TIP3    H1 6536   0.230   5.912   2.195
 2197TIP3    H2 6537   0.367   5.900   2.131
 2198TIP3   OH2 6538   5.908   7.348   4.282
 2198TIP3    H1 6539   5.955   7.270   4.311
 2198TIP3    H2 6540   5.816   7.327   4.298
 2199TIP3   OH2 6541   8.208   1.287   6.502
 2199TIP3    H1 6542   8.236   1.240   6.580
 2199TIP3    H2 6543   8.126   1.244   6.476
 2200TIP3   OH2 6544   0.644   5.587   4.547
 2200TIP3    H1 6545   0.571   5.526   4.533
 2200TIP3    H2 6546   0.721   5.530   4.557
 2201TIP3   OH2 6547   1.359   2.907   5.431
 2201TIP3    H1 6548   1.395   2.921   5.519
 2201TIP3    H2 6549   1.414   2.837   5.394
 2202TIP3   OH2 6550   7.972   7.238   0.815
 2202TIP3    H1 6551   8.035   7.229   0.745
 2202TIP3    H2 6552   8.017   7.204   0.893
 2203TIP3   OH2 6553   6.985   2.894   2.299
 2203TIP3    H1 6554   7.037   2.941   2.234
 2203TIP3    H2 6555   6.980   2.953   2.374
 2204TIP3   OH2 6556   7.631   2.687   5.907
 2204TIP3    H1 6557   7.657   2.778   5.895
 2204TIP3    H2 6558   7.663   2.643   5.828
 2205TIP3   OH2 6559   2.280   5.227   1.155
 2205TIP3    H1 6560   2.266   5.167   1.083
 2205TIP3    H2 6561   2.310   5.308   1.114
 2206TIP3   OH2 6562   1.427   3.398   6.452
 2206TIP3    H1 6563   1.431   3.306   6.425
 2206TIP3    H2 6564   1.396   3.444   6.373
 2207TIP3   OH2 6565   2.152   3.159   4.514
 2207TIP3    H1 6566   2.064   3.191   4.492
 2207TIP3    H2 6567   2.156   3.165   4.610
 2208TIP3   OH2 6568   2.123   6.665   5.397
 2208TIP3    H1 6569   2.202   6.686   5.347
 2208TIP3    H2 6570   2.102   6.575   5.373
 2209TIP3   OH2 6571   2.098   0.543   4.555
 2209TIP3    H1 6572   2.073   0.578   4.470
 2209TIP3    H2 6573   2.134   0.618   4.603
 2210TIP3   OH2 6574   7.410   0.239   0.033
 2210TIP3    H1 6575   7.488   0.184   0.024
 2210TIP3    H2 6576   7.444   0.325   0.058
 2211TIP3   OH2 6577   3.947   7.178   2.433
 2211TIP3    H1 6578   3.855   7.153   2.440
 2211TIP3    H2 6579   3.963   7.186   2.339
 2212TIP3   OH2 6580   3.894   0.587   2.933
 2212TIP3    H1 6581   3.838   0.528   2.883
 2212TIP3    H2 6582   3.866   0.576   3.024
 2213TIP3   OH2 6583   6.693   7.759   1.675
 2213TIP3    H1 6584   6.604   7.747   1.642
 2213TIP3    H2 6585   6.736   7.675   1.662
 2214TIP3   OH2 6586   6.335   4.519   1.243
 2214TIP3    H1 6587   6.278   4.524   1.166
 2214TIP3    H2 6588   6.321   4.602   1.288
 2215TIP3   OH2 6589   1.350   7.054   6.417
 2215TIP3    H1 6590   1.402   6.984   6.376
 2215TIP3    H2 6591   1.357   7.127   6.355
 2216TIP3   OH2 6592   4.200   3.424   2.184
 2216TIP3    H1 6593   4.188   3.515   2.156
 2216TIP3    H2 6594   4.142   3.415   2.260
 2217TIP3   OH2 6595   0.359   0.081   3.971
 2217TIP3    H1 6596   0.364  -0.011   3.943
 2217TIP3    H2 6597   0.266   0.098   3.981
 2218TIP3   OH2 6598   0.341   1.937   4.933
 2218TIP3    H1 6599   0.291   1.963   5.010
 2218TIP3    H2 6600   0.282   1.880   4.884
 2219TIP3   OH2 6601   4.529   5.245   4.527
 2219TIP3    H1 6602   4.458   5.224   4.588
 2219TIP3    H2 6603   4.521   5.340   4.514
 2220TIP3   OH2 6604   3.241   1.730   0.106
 2220TIP3    H1 6605   3.319   1.757   0.154
 2220TIP3    H2 6606   3.170   1.740   0.169
 2221TIP3   OH2 6607   7.344   7.237   2.525
 2221TIP3    H1 6608   7.282   7.306   2.499
 2221TIP3    H2 6609   7.356   7.251   2.619
 2222TIP3   OH2 6610   5.710   6.409   5.593
 2222TIP3    H1 6611   5.777   6.470   5.563
 2222TIP3    H2 6612   5.629   6.460   5.595
 2223TIP3   OH2 6613   1.117   3.389   1.090
 2223TIP3    H1 6614   1.174   3.370   1.016
 2223TIP3    H2 6615   1.093   3.481   1.080
 2224TIP3   OH2 6616   4.691   2.164   6.535
 2224TIP3    H1 6617   4.677   2.259   6.543
 2224TIP3    H2 6618   4.660   2.142   6.447
 2225TIP3   OH2 6619   2.569   6.162   6.417
 2225TIP3    H1 6620   2.619   6.218   6.477
 2225TIP3    H2 6621   2.633   6.133   6.352
 2226TIP3   OH2 6622   0.497   5.682   3.999
 2226TIP3    H1 6623   0.521   5.675   4.091
 2226TIP3    H2 6624   0.567   5.635   3.953
 2227TIP3   OH2 6625   2.235   4.141   6.295
 2227TIP3    H1 6626   2.211   4.232   6.279
 2227TIP3    H2 6627   2.314   4.127   6.243
 2228TIP3   OH2 6628   1.530   2.781   0.641
 2228TIP3    H1 6629   1.530   2.862   0.590
 2228TIP3    H2 6630   1.447   2.739   0.620
 2229TIP3   OH2 6631   7.235   2.790   5.646
 2229TIP3    H1 6632   7.174   2.734   5.598
 2229TIP3    H2 6633   7.280   2.841   5.579
 2230TIP3   OH2 6634   0.338   5.687   5.310
 2230TIP3    H1 6635   0.401   5.756   5.334
 2230TIP3    H2 6636   0.378   5.606   5.343
 2231TIP3   OH2 6637   3.262   2.761   4.613
 2231TIP3    H1 6638   3.298   2.806   4.689
 2231TIP3    H2 6639   3.331   2.765   4.547
 2232TIP3   OH2 6640   4.534   0.222   6.645
 2232TIP3    H1 6641   4.452   0.209   6.693
 2232TIP3    H2 6642   4.519   0.183   6.559
 2233TIP3   OH2 6643   5.950   3.669   0.773
 2233TIP3    H1 6644   5.866   3.624   0.770
 2233TIP3    H2 6645   6.014   3.600   0.788
 2234TIP3   OH2 6646   3.119   1.534   3.963
 2234TIP3    H1 6647   3.063   1.519   4.039
 2234TIP3    H2 6648   3.198   1.483   3.982
 2235TIP3   OH2 6649   3.121   5.594   4.332
 2235TIP3    H1 6650   3.096   5.560   4.418
 2235TIP3    H2 6651   3.194   5.538   4.304
 2236TIP3   OH2 6652   6.801   7.535   4.449
 2236TIP3    H1 6653   6.879   7.577   4.485
 2236TIP3    H2 6654   6.821   7.441   4.451
 2237TIP3   OH2 6655   6.115   7.232   2.363
 2237TIP3    H1 6656   6.100   7.247   2.270
 2237TIP3    H2 6657   6.047   7.283   2.407
 2238TIP3   OH2 6658   7.887   2.383   6.151
 2238TIP3    H1 6659   7.887   2.323   6.225
 2238TIP3    H2 6660   7.811   2.439   6.164
 2239TIP3   OH2 6661   6.765   2.100   6.208
 2239TIP3    H1 6662   6.672   2.104   6.228
 2239TIP3    H2 6663   6.796   2.190   6.216
 2240TIP3   OH2 6664   3.418   7.079   3.279
 2240TIP3    H1 6665   3.389   7.079   3.371
 2240TIP3    H2 6666   3.341   7.104   3.230
 2241TIP3   OH2 6667   7.702   5.515   1.132
 2241TIP3    H1 6668   7.758   5.562   1.194
 2241TIP3    H2 6669   7.746   5.526   1.047
 2242TIP3   OH2 6670   8.036   7.370   3.651
 2242TIP3    H1 6671   7.998   7.419   3.724
 2242TIP3    H2 6672   8.072   7.437   3.593
 2243TIP3   OH2 6673   0.992   5.824   4.927
 2243TIP3    H1 6674   0.901   5.847   4.948
 2243TIP3    H2 6675   0.985   5.751   4.866
 2244TIP3   OH2 6676   7.953   7.047   4.094
 2244TIP3    H1 6677   7.860   7.031   4.079
 2244TIP3    H2 6678   7.958   7.081   4.184
 2245TIP3   OH2 6679   6.570   3.166   6.488
 2245TIP3    H1 6680   6.603   3.237   6.544
 2245TIP3    H2 6681   6.476   3.164   6.505
 2246TIP3   OH2 6682   5.437   3.475   2.622
 2246TIP3    H1 6683   5.434   3.403   2.684
 2246TIP3    H2 6684   5.448   3.553   2.677
 2247TIP3   OH2 6685   3.316   7.090   0.433
 2247TIP3    H1 6686   3.315   7.109   0.340
 2247TIP3    H2 6687   3.249   7.023   0.446
 2248TIP3   OH2 6688   7.596   1.185   2.891
 2248TIP3    H1 6689   7.664   1.145   2.837
 2248TIP3    H2 6690   7.587   1.274   2.856
 2249TIP3   OH2 6691   2.261   3.813   0.565
 2249TIP3    H1 6692   2.166   3.825   0.567
 2249TIP3    H2 6693   2.273   3.718   0.568
 2250TIP3   OH2 6694   4.059   6.692   6.492
 2250TIP3    H1 6695   4.063   6.748   6.570
 2250TIP3    H2 6696   3.983   6.635   6.507
 2251TIP3   OH2 6697   5.213   3.208   6.061
 2251TIP3    H1 6698   5.208   3.144   5.990
 2251TIP3    H2 6699   5.142   3.269   6.044
 2252TIP3   OH2 6700   4.119   0.025   2.432
 2252TIP3    H1 6701   4.075  -0.055   2.461
 2252TIP3    H2 6702   4.076   0.047   2.350
 2253TIP3   OH2 6703   7.436   5.217   3.897
 2253TIP3    H1 6704   7.466   5.177   3.815
 2253TIP3    H2 6705   7.516   5.252   3.937
 2254TIP3   OH2 6706   6.803   3.048   1.634
 2254TIP3    H1 6707   6.897   3.055   1.649
 2254TIP3    H2 6708   6.763   3.072   1.718
 2255TIP3   OH2 6709   3.527   1.372   6.752
 2255TIP3    H1 6710   3.581   1.438   6.794
 2255TIP3    H2 6711   3.586   1.298   6.737
 2256TIP3   OH2 6712   1.455   0.747   0.117
 2256TIP3    H1 6713   1.390   0.734   0.186
 2256TIP3    H2 6714   1.539   0.733   0.160
 2257TIP3   OH2 6715   2.797   4.082   4.258
 2257TIP3    H1 6716   2.860   4.012   4.242
 2257TIP3    H2 6717   2.788   4.126   4.173
 2258TIP3   OH2 6718   2.442   0.327   1.900
 2258TIP3    H1 6719   2.361   0.277   1.890
 2258TIP3    H2 6720   2.494   0.277   1.963
 2259TIP3   OH2 6721   1.503   0.882   3.527
 2259TIP3    H1 6722   1.543   0.906   3.443
 2259TIP3    H2 6723   1.566   0.912   3.592
 2260TIP3   OH2 6724   2.439   4.458   2.134
 2260TIP3    H1 6725   2.406   4.510   2.060
 2260TIP3    H2 6726   2.532   4.478   2.138
 2261TIP3   OH2 6727   3.629   5.486   5.912
 2261TIP3    H1 6728   3.539   5.468   5.939
 2261TIP3    H2 6729   3.629   5.474   5.817
 2262TIP3   OH2 6730   4.590   7.279   5.294
 2262TIP3    H1 6731   4.496   7.294   5.301
 2262TIP3    H2 6732   4.616   7.327   5.215
 2263TIP3   OH2 6733   3.485   0.854   5.393
 2263TIP3    H1 6734   3.538   0.912   5.448
 2263TIP3    H2 6735   3.549   0.801   5.346
 2264TIP3   OH2 6736   7.952   3.230   2.421
 2264TIP3    H1 6737   7.947   3.186   2.506
 2264TIP3    H2 6738   7.954   3.159   2.357
 2265TIP3   OH2 6739   6.827   7.353   6.580
 2265TIP3    H1 6740   6.905   7.348   6.526
 2265TIP3    H2 6741   6.857   7.389   6.663
 2266TIP3   OH2 6742   0.849   2.687   6.701
 2266TIP3    H1 6743   0.822   2.751   6.635
 2266TIP3    H2 6744   0.879   2.740   6.775
 2267TIP3   OH2 6745   4.936   6.031   6.217
 2267TIP3    H1 6746   4.843   6.038   6.238
 2267TIP3    H2 6747   4.945   5.944   6.178
 2268TIP3   OH2 6748   6.638   3.927   2.462
 2268TIP3    H1 6749   6.640   3.835   2.487
 2268TIP3    H2 6750   6.552   3.939   2.423
 2269TIP3   OH2 6751   1.708   2.259   6.291
 2269TIP3    H1 6752   1.710   2.345   6.333
 2269TIP3    H2 6753   1.617   2.246   6.266
 2270TIP3   OH2 6754   4.784   5.889   2.221
 2270TIP3    H1 6755   4.810   5.879   2.130
 2270TIP3    H2 6756   4.701   5.842   2.228
 2271TIP3   OH2 6757   7.154   2.990   1.148
 2271TIP3    H1 6758   7.154   3.068   1.204
 2271TIP3    H2 6759   7.201   2.924   1.199
 2272TIP3   OH2 6760   7.125   4.749   6.094
 2272TIP3    H1 6761   7.058   4.794   6.145
 2272TIP3    H2 6762   7.203   4.752   6.149
 2273TIP3   OH2 6763   0.930   5.282   6.289
 2273TIP3    H1 6764   0.896   5.240   6.369
 2273TIP3    H2 6765   0.906   5.374   6.298
 2274TIP3   OH2 6766   7.731   1.553   6.300
 2274TIP3    H1 6767   7.651   1.517   6.340
 2274TIP3    H2 6768   7.752   1.492   6.229
 2275TIP3   OH2 6769   5.009   0.420   1.375
 2275TIP3    H1 6770   4.932   0.400   1.321
 2275TIP3    H2 6771   5.048   0.496   1.332
 2276TIP3   OH2 6772   4.256   4.871   6.703
 2276TIP3    H1 6773   4.239   4.943   6.763
 2276TIP3    H2 6774   4.245   4.792   6.756
 2277TIP3   OH2 6775   2.777   1.646   2.634
 2277TIP3    H1 6776   2.854   1.703   2.623
 2277TIP3    H2 6777   2.720   1.670   2.561
 2278TIP3   OH2 6778   3.520   4.461   0.642
 2278TIP3    H1 6779   3.473   4.537   0.606
 2278TIP3    H2 6780   3.554   4.492   0.726
 2279TIP3   OH2 6781   4.951   6.562   1.291
 2279TIP3    H1 6782   4.944   6.488   1.351
 2279TIP3    H2 6783   4.890   6.541   1.220
 2280TIP3   OH2 6784   6.685   3.733   1.145
 2280TIP3    H1 6785   6.674   3.687   1.062
 2280TIP3    H2 6786   6.720   3.819   1.122
 2281TIP3   OH2 6787   0.043   2.841   0.830
 2281TIP3    H1 6788   0.022   2.934   0.841
 2281TIP3    H2 6789   0.136   2.835   0.854
 2282TIP3   OH2 6790   7.094   5.165   0.866
 2282TIP3    H1 6791   7.175   5.132   0.825
 2282TIP3    H2 6792   7.025   5.111   0.828
 2283TIP3   OH2 6793   1.337   4.653   6.754
 2283TIP3    H1 6794   1.280   4.600   6.809
 2283TIP3    H2 6795   1.285   4.672   6.676
 2284TIP3   OH2 6796   0.011   0.109   0.387
 2284TIP3    H1 6797   0.077   0.133   0.452
 2284TIP3    H2 6798  -0.071   0.145   0.422
 2285TIP3   OH2 6799   2.877   4.089   3.529
 2285TIP3    H1 6800   2.865   4.176   3.491
 2285TIP3    H2 6801   2.875   4.103   3.623
 2286TIP3   OH2 6802   4.089   3.880   0.529
 2286TIP3    H1 6803   4.122   3.969   0.513
 2286TIP3    H2 6804   4.051   3.854   0.445
 2287TIP3   OH2 6805   1.163   1.250   2.814
 2287TIP3    H1 6806   1.119   1.332   2.835
 2287TIP3    H2 6807   1.256   1.271   2.820
 2288TIP3   OH2 6808   5.240   7.440   6.355
 2288TIP3    H1 6809   5.199   7.523   6.330
 2288TIP3    H2 6810   5.168   7.387   6.389
 2289TIP3   OH2 6811   4.161   5.709   2.669
 2289TIP3    H1 6812   4.189   5.653   2.596
 2289TIP3    H2 6813   4.242   5.730   2.716
 2290TIP3   OH2 6814   6.398   6.826   0.816
 2290TIP3    H1 6815   6.358   6.903   0.856
 2290TIP3    H2 6816   6.484   6.818   0.859
 2291TIP3   OH2 6817   0.833   0.066   4.714
 2291TIP3    H1 6818   0.898   0.123   4.673
 2291TIP3    H2 6819   0.762   0.060   4.650
 2292TIP3   OH2 6820   5.643   4.210   3.403
 2292TIP3    H1 6821   5.663   4.213   3.496
 2292TIP3    H2 6822   5.561   4.161   3.397
 2293TIP3   OH2 6823   7.387   3.921   2.957
 2293TIP3    H1 6824   7.451   3.948   2.891
 2293TIP3    H2 6825   7.411   3.831   2.979
 2294TIP3   OH2 6826   3.940   1.874   2.680
 2294TIP3    H1 6827   3.967   1.798   2.732
 2294TIP3    H2 6828   3.914   1.940   2.744
 2295TIP3   OH2 6829   1.468   0.611   4.779
 2295TIP3    H1 6830   1.429   0.687   4.821
 2295TIP3    H2 6831   1.562   0.620   4.795
 2296TIP3   OH2 6832   8.176   7.408   4.274
 2296TIP3    H1 6833   8.125   7.481   4.240
 2296TIP3    H2 6834   8.259   7.447   4.302
 2297TIP3   OH2 6835   4.768   2.630   6.199
 2297TIP3    H1 6836   4.681   2.622   6.238
 2297TIP3    H2 6837   4.776   2.723   6.176
 2298TIP3   OH2 6838   5.153   6.816   6.702
 2298TIP3    H1 6839   5.127   6.898   6.743
 2298TIP3    H2 6840   5.216   6.777   6.763
 2299TIP3   OH2 6841   4.437   3.557   1.720
 2299TIP3    H1 6842   4.378   3.631   1.704
 2299TIP3    H2 6843   4.479   3.577   1.803
 2300TIP3   OH2 6844   0.596   4.577   0.524
 2300TIP3    H1 6845   0.627   4.667   0.511
 2300TIP3    H2 6846   0.660   4.538   0.584
 2301TIP3   OH2 6847   1.246   4.242   2.996
 2301TIP3    H1 6848   1.185   4.306   3.033
 2301TIP3    H2 6849   1.331   4.286   3.000
 2302TIP3   OH2 6850   7.955   3.546   6.772
 2302TIP3    H1 6851   7.929   3.570   6.861
 2302TIP3    H2 6852   7.890   3.481   6.746
 2303TIP3   OH2 6853   4.398   4.409   0.605
 2303TIP3    H1 6854   4.421   4.316   0.607
 2303TIP3    H2 6855   4.309   4.413   0.639
 2304TIP3   OH2 6856   0.789   6.600   2.104
 2304TIP3    H1 6857   0.717   6.601   2.042
 2304TIP3    H2 6858   0.754   6.556   2.182
 2305TIP3   OH2 6859   0.462   4.444   6.534
 2305TIP3    H1 6860   0.376   4.424   6.497
 2305TIP3    H2 6861   0.447   4.522   6.587
 2306TIP3   OH2 6862   2.165   6.960   1.454
 2306TIP3    H1 6863   2.100   6.986   1.519
 2306TIP3    H2 6864   2.179   7.039   1.401
 2307TIP3   OH2 6865   3.816   1.918   2.163
 2307TIP3    H1 6866   3.802   1.824   2.178
 2307TIP3    H2 6867   3.903   1.935   2.198
 2308TIP3   OH2 6868   6.146   3.764   1.115
 2308TIP3    H1 6869   6.060   3.725   1.103
 2308TIP3    H2 6870   6.158   3.768   1.210
 2309TIP3   OH2 6871   5.583   5.117   2.559
 2309TIP3    H1 6872   5.509   5.104   2.499
 2309TIP3    H2 6873   5.577   5.044   2.621
 2310TIP3   OH2 6874   0.298   3.530   2.378
 2310TIP3    H1 6875   0.237   3.543   2.451
 2310TIP3    H2 6876   0.322   3.619   2.351
 2311TIP3   OH2 6877   5.959   0.134   5.254
 2311TIP3    H1 6878   6.053   0.133   5.238
 2311TIP3    H2 6879   5.920   0.113   5.169
 2312TIP3   OH2 6880   6.592   2.545   1.775
 2312TIP3    H1 6881   6.544   2.495   1.710
 2312TIP3    H2 6882   6.526   2.569   1.840
 2313TIP3   OH2 6883   1.809   3.352   6.593
 2313TIP3    H1 6884   1.769   3.267   6.611
 2313TIP3    H2 6885   1.832   3.386   6.679
 2314TIP3   OH2 6886   4.345   6.769   4.300
 2314TIP3    H1 6887   4.333   6.789   4.207
 2314TIP3    H2 6888   4.438   6.780   4.316
 2315TIP3   OH2 6889   1.430   5.078   6.135
 2315TIP3    H1 6890   1.372   5.100   6.062
 2315TIP3    H2 6891   1.513   5.120   6.114
 2316TIP3   OH2 6892   4.361   0.627   5.068
 2316TIP3    H1 6893   4.281   0.576   5.061
 2316TIP3    H2 6894   4.393   0.610   5.156
 2317TIP3   OH2 6895   2.253   1.753   1.086
 2317TIP3    H1 6896   2.250   1.796   1.171
 2317TIP3    H2 6897   2.292   1.667   1.104
 2318TIP3   OH2 6898   1.697   1.131   0.069
 2318TIP3    H1 6899   1.739   1.113  -0.015
 2318TIP3    H2 6900   1.650   1.213   0.055
 2319TIP3   OH2 6901   3.898   6.806   1.691
 2319TIP3    H1 6902   3.955   6.859   1.746
 2319TIP3    H2 6903   3.954   6.737   1.657
 2320TIP3   OH2 6904   7.788   7.461   3.816
 2320TIP3    H1 6905   7.835   7.468   3.900
 2320TIP3    H2 6906   7.713   7.406   3.836
 2321TIP3   OH2 6907   6.155   4.542   5.327
 2321TIP3    H1 6908   6.139   4.630   5.294
 2321TIP3    H2 6909   6.067   4.505   5.339
 2322TIP3   OH2 6910   1.584   4.366   4.104
 2322TIP3    H1 6911   1.591   4.275   4.075
 2322TIP3    H2 6912   1.649   4.413   4.050
 2323TIP3   OH2 6913   2.981   6.624   1.563
 2323TIP3    H1 6914   2.926   6.623   1.485
 2323TIP3    H2 6915   3.038   6.700   1.551
 2324TIP3   OH2 6916   7.858   6.799   4.983
 2324TIP3    H1 6917   7.933   6.859   4.975
 2324TIP3    H2 6918   7.784   6.856   5.005
 2325TIP3   OH2 6919   3.755   1.051   1.799
 2325TIP3    H1 6920   3.736   1.095   1.882
 2325TIP3    H2 6921   3.690   0.981   1.794
 2326TIP3   OH2 6922   2.810   5.203   3.073
 2326TIP3    H1 6923   2.799   5.118   3.117
 2326TIP3    H2 6924   2.905   5.217   3.072
 2327TIP3   OH2 6925   7.454   0.764   5.286
 2327TIP3    H1 6926   7.501   0.691   5.244
 2327TIP3    H2 6927   7.381   0.723   5.331
 2328TIP3   OH2 6928   4.806   6.705   0.452
 2328TIP3    H1 6929   4.790   6.771   0.520
 2328TIP3    H2 6930   4.843   6.755   0.379
 2329TIP3   OH2 6931   3.122   4.763   4.239
 2329TIP3    H1 6932   3.203   4.747   4.189
 2329TIP3    H2 6933   3.093   4.676   4.266
 2330TIP3   OH2 6934   4.681   1.938   2.620
 2330TIP3    H1 6935   4.644   1.922   2.706
 2330TIP3    H2 6936   4.631   1.880   2.561
 2331TIP3   OH2 6937   5.706   7.749   2.386
 2331TIP3    H1 6938   5.631   7.701   2.351
 2331TIP3    H2 6939   5.682   7.767   2.477
 2332TIP3   OH2 6940   7.917   0.704   2.137
 2332TIP3    H1 6941   7.934   0.766   2.066
 2332TIP3    H2 6942   7.824   0.712   2.155
 2333TIP3   OH2 6943   1.130   6.428   5.294
 2333TIP3    H1 6944   1.206   6.380   5.262
 2333TIP3    H2 6945   1.059   6.402   5.236
 2334TIP3   OH2 6946   1.055   3.986   4.324
 2334TIP3    H1 6947   1.093   4.052   4.267
 2334TIP3    H2 6948   1.077   4.015   4.413
 2335TIP3   OH2 6949   3.393   3.204   4.389
 2335TIP3    H1 6950   3.311   3.217   4.436
 2335TIP3    H2 6951   3.448   3.155   4.450
 2336TIP3   OH2 6952   5.397   6.644   2.961
 2336TIP3    H1 6953   5.492   6.647   2.968
 2336TIP3    H2 6954   5.372   6.567   3.014
 2337TIP3   OH2 6955   3.023   0.429   6.523
 2337TIP3    H1 6956   3.016   0.382   6.440
 2337TIP3    H2 6957   3.032   0.360   6.589
 2338TIP3   OH2 6958   0.880   5.742   3.078
 2338TIP3    H1 6959   0.903   5.771   2.990
 2338TIP3    H2 6960   0.827   5.663   3.063
 2339TIP3   OH2 6961   3.223   5.283   6.592
 2339TIP3    H1 6962   3.306   5.304   6.635
 2339TIP3    H2 6963   3.181   5.368   6.579
 2340TIP3   OH2 6964   2.070   4.342   1.099
 2340TIP3    H1 6965   2.080   4.366   1.191
 2340TIP3    H2 6966   2.065   4.426   1.052
 2341TIP3   OH2 6967   4.386   2.378   2.119
 2341TIP3    H1 6968   4.338   2.337   2.191
 2341TIP3    H2 6969   4.349   2.467   2.114
 2342TIP3   OH2 6970   6.272   0.678   6.353
 2342TIP3    H1 6971   6.313   0.764   6.367
 2342TIP3    H2 6972   6.243   0.651   6.440
 2343TIP3   OH2 6973   5.508   5.022   0.025
 2343TIP3    H1 6974   5.507   4.927   0.024
 2343TIP3    H2 6975   5.423   5.047   0.063
 2344TIP3   OH2 6976   1.751   0.430   6.341
 2344TIP3    H1 6977   1.691   0.381   6.285
 2344TIP3    H2 6978   1.803   0.363   6.385
 2345TIP3   OH2 6979   6.809   4.906   6.624
 2345TIP3    H1 6980   6.838   4.855   6.548
 2345TIP3    H2 6981   6.717   4.925   6.607
 2346TIP3   OH2 6982   7.670   0.652   3.197
 2346TIP3    H1 6983   7.735   0.670   3.129
 2346TIP3    H2 6984   7.614   0.730   3.198
 2347TIP3   OH2 6985   0.774   0.808   5.469
 2347TIP3    H1 6986   0.718   0.877   5.433
 2347TIP3    H2 6987   0.803   0.843   5.554
 2348TIP3   OH2 6988   7.911   3.249   2.918
 2348TIP3    H1 6989   7.840   3.313   2.920
 2348TIP3    H2 6990   7.991   3.301   2.917
 2349TIP3   OH2 6991   4.519   4.172   6.453
 2349TIP3    H1 6992   4.537   4.265   6.463
 2349TIP3    H2 6993   4.499   4.162   6.359
 2350TIP3   OH2 6994   7.274   6.650   3.210
 2350TIP3    H1 6995   7.356   6.698   3.216
 2350TIP3    H2 6996   7.295   6.573   3.157
 2351TIP3   OH2 6997   1.607   0.198   1.846
 2351TIP3    H1 6998   1.553   0.145   1.788
 2351TIP3    H2 6999   1.598   0.287   1.813
 2352TIP3   OH2 7000   1.394   3.542   4.606
 2352TIP3    H1 7001   1.393   3.515   4.698
 2352TIP3    H2 7002   1.383   3.460   4.558
 2353TIP3   OH2 7003   2.043   2.112   5.256
 2353TIP3    H1 7004   2.102   2.136   5.185
 2353TIP3    H2 7005   2.008   2.196   5.288
 2354TIP3   OH2 7006   0.219   7.789   3.669
 2354TIP3    H1 7007   0.183   7.857   3.611
 2354TIP3    H2 7008   0.273   7.735   3.611
 2355TIP3   OH2 7009   1.011   7.594   0.368
 2355TIP3    H1 7010   0.964   7.559   0.293
 2355TIP3    H2 7011   1.076   7.527   0.390
 2356TIP3   OH2 7012   2.408   0.779   6.551
 2356TIP3    H1 7013   2.442   0.694   6.524
 2356TIP3    H2 7014   2.424   0.836   6.476
 2357TIP3   OH2 7015   8.183   6.730   1.580
 2357TIP3    H1 7016   8.099   6.705   1.619
 2357TIP3    H2 7017   8.173   6.823   1.558
 2358TIP3   OH2 7018   1.713   5.050   5.852
 2358TIP3    H1 7019   1.688   5.105   5.926
 2358TIP3    H2 7020   1.682   4.962   5.876
 2359TIP3   OH2 7021   7.228   5.047   1.403
 2359TIP3    H1 7022   7.189   5.079   1.484
 2359TIP3    H2 7023   7.284   5.118   1.373
 2360TIP3   OH2 7024   6.789   3.672   4.225
 2360TIP3    H1 7025   6.700   3.708   4.227
 2360TIP3    H2 7026   6.781   3.588   4.270
 2361TIP3   OH2 7027   6.906   6.834   2.192
 2361TIP3    H1 7028   6.876   6.865   2.106
 2361TIP3    H2 7029   6.839   6.865   2.253
 2362TIP3   OH2 7030   7.269   7.306   1.835
 2362TIP3    H1 7031   7.186   7.300   1.787
 2362TIP3    H2 7032   7.332   7.337   1.770
 2363TIP3   OH2 7033   2.709   6.536   3.367
 2363TIP3    H1 7034   2.707   6.622   3.407
 2363TIP3    H2 7035   2.718   6.553   3.273
 2364TIP3   OH2 7036   5.065   2.492   3.018
 2364TIP3    H1 7037   5.089   2.438   3.093
 2364TIP3    H2 7038   4.981   2.530   3.042
 2365TIP3   OH2 7039   6.257   2.032   2.534
 2365TIP3    H1 7040   6.251   2.106   2.595
 2365TIP3    H2 7041   6.348   2.034   2.503
 2366TIP3   OH2 7042   7.067   5.646   5.030
 2366TIP3    H1 7043   7.078   5.559   4.992
 2366TIP3    H2 7044   7.156   5.682   5.033
 2367TIP3   OH2 7045   5.620   6.689   6.116
 2367TIP3    H1 7046   5.527   6.691   6.140
 2367TIP3    H2 7047   5.643   6.596   6.118
 2368TIP3   OH2 7048   4.593   7.064   3.848
 2368TIP3    H1 7049   4.654   7.104   3.787
 2368TIP3    H2 7050   4.574   6.978   3.810
 2369TIP3   OH2 7051   4.711   0.953   3.710
 2369TIP3    H1 7052   4.805   0.951   3.689
 2369TIP3    H2 7053   4.705   1.011   3.786
 2370TIP3   OH2 7054   6.505   5.551   4.089
 2370TIP3    H1 7055   6.551   5.509   4.162
 2370TIP3    H2 7056   6.413   5.548   4.114
 2371TIP3   OH2 7057   1.763   6.604   0.745
 2371TIP3    H1 7058   1.771   6.642   0.658
 2371TIP3    H2 7059   1.669   6.607   0.764
 2372TIP3   OH2 7060   2.908   4.344   2.016
 2372TIP3    H1 7061   2.951   4.358   1.932
 2372TIP3    H2 7062   2.979   4.344   2.080
 2373TIP3   OH2 7063   7.756   2.586   2.467
 2373TIP3    H1 7064   7.743   2.564   2.375
 2373TIP3    H2 7065   7.723   2.510   2.515
 2374TIP3   OH2 7066   2.252   0.844   1.525
 2374TIP3    H1 7067   2.255   0.762   1.573
 2374TIP3    H2 7068   2.293   0.825   1.441
 2375TIP3   OH2 7069   4.191   3.254   4.947
 2375TIP3    H1 7070   4.207   3.160   4.942
 2375TIP3    H2 7071   4.097   3.264   4.935
 2376TIP3   OH2 7072   1.981   4.164   0.931
 2376TIP3    H1 7073   2.053   4.101   0.926
 2376TIP3    H2 7074   2.018   4.238   0.980
 2377TIP3   OH2 7075   4.192   5.798   0.648
 2377TIP3    H1 7076   4.236   5.749   0.579
 2377TIP3    H2 7077   4.138   5.733   0.693
 2378TIP3   OH2 7078   2.887   7.554   3.169
 2378TIP3    H1 7079   2.969   7.579   3.212
 2378TIP3    H2 7080   2.822   7.616   3.204
 2379TIP3   OH2 7081   5.286   0.999   6.413
 2379TIP3    H1 7082   5.293   1.087   6.451
 2379TIP3    H2 7083   5.217   1.006   6.347
 2380TIP3   OH2 7084   8.016   7.776   1.307
 2380TIP3    H1 7085   8.040   7.772   1.214
 2380TIP3    H2 7086   7.974   7.692   1.324
 2381TIP3   OH2 7087   0.862   2.862   6.240
 2381TIP3    H1 7088   0.899   2.861   6.328
 2381TIP3    H2 7089   0.898   2.942   6.200
 2382TIP3   OH2 7090   4.024   3.240   2.095
 2382TIP3    H1 7091   4.063   3.153   2.084
 2382TIP3    H2 7092   4.099   3.297   2.110
 2383TIP3   OH2 7093   4.214   6.297   0.230
 2383TIP3    H1 7094   4.227   6.359   0.301
 2383TIP3    H2 7095   4.283   6.316   0.167
 2384TIP3   OH2 7096   5.775   3.071   5.695
 2384TIP3    H1 7097   5.858   3.117   5.682
 2384TIP3    H2 7098   5.774   3.003   5.628
 2385TIP3   OH2 7099   5.069   7.242   5.480
 2385TIP3    H1 7100   5.099   7.168   5.427
 2385TIP3    H2 7101   4.974   7.244   5.468
 2386TIP3   OH2 7102   6.221   0.935   2.857
 2386TIP3    H1 7103   6.218   0.874   2.930
 2386TIP3    H2 7104   6.143   0.916   2.806
 2387TIP3   OH2 7105   5.052   6.520   4.383
 2387TIP3    H1 7106   4.978   6.559   4.337
 2387TIP3    H2 7107   5.086   6.590   4.438
 2388TIP3   OH2 7108   7.790   4.108   0.432
 2388TIP3    H1 7109   7.850   4.180   0.451
 2388TIP3    H2 7110   7.750   4.133   0.348
 2389TIP3   OH2 7111   6.947   3.047   6.773
 2389TIP3    H1 7112   6.947   3.129   6.725
 2389TIP3    H2 7113   6.863   3.047   6.820
 2390TIP3   OH2 7114   5.793   5.572   4.624
 2390TIP3    H1 7115   5.800   5.629   4.701
 2390TIP3    H2 7116   5.699   5.564   4.609
 2391TIP3   OH2 7117   5.253   2.516   5.197
 2391TIP3    H1 7118   5.311   2.586   5.169
 2391TIP3    H2 7119   5.310   2.439   5.203
 2392TIP3   OH2 7120   2.758   5.994   1.641
 2392TIP3    H1 7121   2.730   5.904   1.659
 2392TIP3    H2 7122   2.677   6.040   1.618
 2393TIP3   OH2 7123   1.331   3.331   4.436
 2393TIP3    H1 7124   1.376   3.250   4.409
 2393TIP3    H2 7125   1.242   3.320   4.403
 2394TIP3   OH2 7126   4.287   2.754   4.531
 2394TIP3    H1 7127   4.325   2.666   4.536
 2394TIP3    H2 7128   4.193   2.739   4.536
 2395TIP3   OH2 7129   6.365   0.100   3.414
 2395TIP3    H1 7130   6.362   0.172   3.477
 2395TIP3    H2 7131   6.372   0.143   3.329
 2396TIP3   OH2 7132   1.124   5.402   5.912
 2396TIP3    H1 7133   1.132   5.484   5.863
 2396TIP3    H2 7134   1.168   5.337   5.857
 2397TIP3   OH2 7135   5.036   4.395   2.828
 2397TIP3    H1 7136   4.981   4.380   2.904
 2397TIP3    H2 7137   5.125   4.403   2.863
 2398TIP3   OH2 7138   2.986   0.306   3.672
 2398TIP3    H1 7139   3.078   0.322   3.652
 2398TIP3    H2 7140   2.968   0.361   3.748
 2399TIP3   OH2 7141   6.079   3.239   6.223
 2399TIP3    H1 7142   6.115   3.222   6.136
 2399TIP3    H2 7143   5.999   3.187   6.227
 2400TIP3   OH2 7144   0.562   5.041   3.463
 2400TIP3    H1 7145   0.510   5.113   3.427
 2400TIP3    H2 7146   0.619   5.014   3.391
 2401TIP3   OH2 7147   8.305   2.011   3.581
 2401TIP3    H1 7148   8.213   2.029   3.561
 2401TIP3    H2 7149   8.308   1.917   3.597
 2402TIP3   OH2 7150   7.573   7.514   5.924
 2402TIP3    H1 7151   7.509   7.555   5.866
 2402TIP3    H2 7152   7.647   7.575   5.925
 2403TIP3   OH2 7153   5.419   0.271   1.195
 2403TIP3    H1 7154   5.470   0.349   1.176
 2403TIP3    H2 7155   5.367   0.294   1.272
 2404TIP3   OH2 7156   2.886   0.015   2.840
 2404TIP3    H1 7157   2.913   0.065   2.916
 2404TIP3    H2 7158   2.828   0.074   2.792
 2405TIP3   OH2 7159   4.105   0.078   0.547
 2405TIP3    H1 7160   4.182   0.062   0.493
 2405TIP3    H2 7161   4.050   0.000   0.535
 2406TIP3   OH2 7162   4.635   6.283   5.732
 2406TIP3    H1 7163   4.550   6.286   5.776
 2406TIP3    H2 7164   4.625   6.341   5.657
 2407TIP3   OH2 7165   3.276   6.947   5.327
 2407TIP3    H1 7166   3.237   6.936   5.414
 2407TIP3    H2 7167   3.265   6.862   5.285
 2408TIP3   OH2 7168   1.947   1.869   3.719
 2408TIP3    H1 7169   1.942   1.792   3.776
 2408TIP3    H2 7170   1.868   1.919   3.740
 2409TIP3   OH2 7171   3.926   6.625   2.938
 2409TIP3    H1 7172   3.854   6.645   2.878
 2409TIP3    H2 7173   3.906   6.675   3.017
 2410TIP3   OH2 7174   3.523   5.239   0.262
 2410TIP3    H1 7175   3.594   5.303   0.259
 2410TIP3    H2 7176   3.566   5.155   0.247
 2411TIP3   OH2 7177   4.912   7.090   1.243
 2411TIP3    H1 7178   4.867   7.152   1.185
 2411TIP3    H2 7179   4.841   7.041   1.285
 2412TIP3   OH2 7180   1.526   0.217   2.444
 2412TIP3    H1 7181   1.553   0.126   2.438
 2412TIP3    H2 7182   1.442   0.221   2.398
 2413TIP3   OH2 7183   0.841   3.169   3.858
 2413TIP3    H1 7184   0.768   3.220   3.892
 2413TIP3    H2 7185   0.804   3.084   3.838
 2414TIP3   OH2 7186   4.114   0.786   0.731
 2414TIP3    H1 7187   4.199   0.772   0.690
 2414TIP3    H2 7188   4.072   0.700   0.729
 2415TIP3   OH2 7189   3.694   1.099   3.502
 2415TIP3    H1 7190   3.744   1.094   3.584
 2415TIP3    H2 7191   3.665   1.010   3.487
 2416TIP3   OH2 7192   0.723   1.884   0.147
 2416TIP3    H1 7193   0.756   1.971   0.122
 2416TIP3    H2 7194   0.798   1.826   0.134
 2417TIP3   OH2 7195   2.784   5.016   0.508
 2417TIP3    H1 7196   2.804   4.955   0.579
 2417TIP3    H2 7197   2.869   5.048   0.479
 2418TIP3   OH2 7198   7.667   1.669   2.031
 2418TIP3    H1 7199   7.674   1.753   2.076
 2418TIP3    H2 7200   7.752   1.656   1.989
 2419TIP3   OH2 7201   7.495   1.065   6.221
 2419TIP3    H1 7202   7.403   1.042   6.205
 2419TIP3    H2 7203   7.498   1.087   6.314
 2420TIP3   OH2 7204   5.438   4.770   2.312
 2420TIP3    H1 7205   5.418   4.677   2.298
 2420TIP3    H2 7206   5.353   4.809   2.333
 2421TIP3   OH2 7207   0.010   2.274   0.449
 2421TIP3    H1 7208  -0.013   2.360   0.414
 2421TIP3    H2 7209  -0.015   2.280   0.542
 2422TIP3   OH2 7210   4.001   4.695   4.126
 2422TIP3    H1 7211   4.081   4.662   4.167
 2422TIP3    H2 7212   3.977   4.629   4.061
 2423TIP3   OH2 7213   6.409   2.587   0.853
 2423TIP3    H1 7214   6.420   2.664   0.908
 2423TIP3    H2 7215   6.353   2.617   0.781
 2424TIP3   OH2 7216   2.861   5.342   6.225
 2424TIP3    H1 7217   2.796   5.329   6.156
 2424TIP3    H2 7218   2.829   5.417   6.275
 2425TIP3   OH2 7219   7.091   7.372   0.248
 2425TIP3    H1 7220   7.035   7.341   0.319
 2425TIP3    H2 7221   7.110   7.294   0.196
 2426TIP3   OH2 7222   7.697   3.778   6.581
 2426TIP3    H1 7223   7.789   3.784   6.605
 2426TIP3    H2 7224   7.697   3.768   6.486
 2427TIP3   OH2 7225   1.416   7.009   5.387
 2427TIP3    H1 7226   1.396   6.932   5.439
 2427TIP3    H2 7227   1.509   6.998   5.364
 2428TIP3   OH2 7228   6.898   3.091   2.832
 2428TIP3    H1 7229   6.824   3.044   2.872
 2428TIP3    H2 7230   6.893   3.179   2.870
 2429TIP3   OH2 7231   4.658   5.020   5.350
 2429TIP3    H1 7232   4.586   4.957   5.349
 2429TIP3    H2 7233   4.642   5.076   5.274
 2430TIP3   OH2 7234   3.307   1.739   3.929
 2430TIP3    H1 7235   3.332   1.670   3.868
 2430TIP3    H2 7236   3.217   1.717   3.955
 2431TIP3   OH2 7237   0.054   0.970   3.806
 2431TIP3    H1 7238   0.003   1.039   3.763
 2431TIP3    H2 7239   0.139   1.011   3.824
 2432TIP3   OH2 7240   1.224   4.827   0.887
 2432TIP3    H1 7241   1.291   4.864   0.944
 2432TIP3    H2 7242   1.251   4.853   0.799
 2433TIP3   OH2 7243   6.471   3.920   1.215
 2433TIP3    H1 7244   6.552   3.870   1.209
 2433TIP3    H2 7245   6.418   3.888   1.142
 2434TIP3   OH2 7246   0.075   7.482   3.584
 2434TIP3    H1 7247   0.073   7.492   3.680
 2434TIP3    H2 7248   0.055   7.390   3.569
 2435TIP3   OH2 7249   1.610   4.402   1.015
 2435TIP3    H1 7250   1.603   4.326   0.958
 2435TIP3    H2 7251   1.520   4.437   1.020
 2436TIP3   OH2 7252   4.625   1.245   3.592
 2436TIP3    H1 7253   4.551   1.197   3.555
 2436TIP3    H2 7254   4.651   1.194   3.669
 2437TIP3   OH2 7255   1.175   3.069   5.570
 2437TIP3    H1 7256   1.228   3.024   5.504
 2437TIP3    H2 7257   1.127   2.999   5.614
 2438TIP3   OH2 7258   7.790   5.283   0.961
 2438TIP3    H1 7259   7.874   5.270   0.917
 2438TIP3    H2 7260   7.725   5.278   0.891
 2439TIP3   OH2 7261   7.366   1.844   4.947
 2439TIP3    H1 7262   7.435   1.816   4.887
 2439TIP3    H2 7263   7.320   1.913   4.900
 2440TIP3   OH2 7264   1.859   5.826   1.396
 2440TIP3    H1 7265   1.893   5.855   1.311
 2440TIP3    H2 7266   1.771   5.861   1.400
 2441TIP3   OH2 7267   4.966   0.248   4.177
 2441TIP3    H1 7268   5.001   0.310   4.241
 2441TIP3    H2 7269   4.879   0.226   4.210
 2442TIP3   OH2 7270   5.169   6.542   1.468
 2442TIP3    H1 7271   5.150   6.597   1.544
 2442TIP3    H2 7272   5.096   6.556   1.408
 2443TIP3   OH2 7273   2.553   4.000   5.686
 2443TIP3    H1 7274   2.567   4.036   5.774
 2443TIP3    H2 7275   2.459   4.007   5.672
 2444TIP3   OH2 7276   5.895   7.623   0.372
 2444TIP3    H1 7277   5.977   7.622   0.322
 2444TIP3    H2 7278   5.918   7.582   0.455
 2445TIP3   OH2 7279   0.461   5.050   2.439
 2445TIP3    H1 7280   0.437   4.972   2.389
 2445TIP3    H2 7281   0.557   5.051   2.438
 2446TIP3   OH2 7282   3.983   0.454   0.443
 2446TIP3    H1 7283   3.904   0.488   0.402
 2446TIP3    H2 7284   4.054   0.504   0.404
 2447TIP3   OH2 7285   5.133   2.248   1.001
 2447TIP3    H1 7286   5.084   2.168   0.980
 2447TIP3    H2 7287   5.138   2.248   1.097
 2448TIP3   OH2 7288   6.248   5.088   0.316
 2448TIP3    H1 7289   6.306   5.163   0.331
 2448TIP3    H2 7290   6.207   5.107   0.231
 2449TIP3   OH2 7291   3.960   5.078   2.534
 2449TIP3    H1 7292   3.894   5.024   2.576
 2449TIP3    H2 7293   4.018   5.015   2.490
 2450TIP3   OH2 7294   4.724   0.952   0.929
 2450TIP3    H1 7295   4.738   0.857   0.927
 2450TIP3    H2 7296   4.629   0.961   0.937
 2451TIP3   OH2 7297   5.667   3.711   3.647
 2451TIP3    H1 7298   5.719   3.789   3.626
 2451TIP3    H2 7299   5.605   3.742   3.713
 2452TIP3   OH2 7300   2.755   6.023   6.294
 2452TIP3    H1 7301   2.675   5.979   6.265
 2452TIP3    H2 7302   2.818   6.007   6.224
 2453TIP3   OH2 7303   7.632   4.408   1.784
 2453TIP3    H1 7304   7.719   4.379   1.758
 2453TIP3    H2 7305   7.646   4.496   1.819
 2454TIP3   OH2 7306   4.068   4.006   6.468
 2454TIP3    H1 7307   4.002   3.982   6.533
 2454TIP3    H2 7308   4.148   3.964   6.498
 2455TIP3   OH2 7309   0.484   0.940   3.519
 2455TIP3    H1 7310   0.465   0.958   3.426
 2455TIP3    H2 7311   0.577   0.959   3.528
 2456TIP3   OH2 7312   4.810   4.404   6.287
 2456TIP3    H1 7313   4.885   4.424   6.344
 2456TIP3    H2 7314   4.845   4.344   6.221
 2457TIP3   OH2 7315   5.278   0.852   6.113
 2457TIP3    H1 7316   5.236   0.936   6.130
 2457TIP3    H2 7317   5.237   0.791   6.173
 2458TIP3   OH2 7318   7.691   6.947   4.066
 2458TIP3    H1 7319   7.612   6.950   4.013
 2458TIP3    H2 7320   7.687   6.864   4.113
 2459TIP3   OH2 7321   5.368   6.653   3.483
 2459TIP3    H1 7322   5.307   6.688   3.418
 2459TIP3    H2 7323   5.364   6.558   3.469
 2460TIP3   OH2 7324   4.365   7.057   6.086
 2460TIP3    H1 7325   4.401   7.131   6.135
 2460TIP3    H2 7326   4.416   7.054   6.005
 2461TIP3   OH2 7327   4.157   0.547   2.983
 2461TIP3    H1 7328   4.166   0.518   3.074
 2461TIP3    H2 7329   4.063   0.535   2.964
 2462TIP3   OH2 7330   6.246   3.957   3.548
 2462TIP3    H1 7331   6.209   4.041   3.521
 2462TIP3    H2 7332   6.334   3.956   3.511
 2463TIP3   OH2 7333   7.317   5.278   1.302
 2463TIP3    H1 7334   7.390   5.253   1.245
 2463TIP3    H2 7335   7.355   5.339   1.365
 2464TIP3   OH2 7336   5.059   6.466   5.213
 2464TIP3    H1 7337   4.984   6.516   5.246
 2464TIP3    H2 7338   5.067   6.393   5.274
 2465TIP3   OH2 7339   7.684   0.218   3.105
 2465TIP3    H1 7340   7.609   0.269   3.076
 2465TIP3    H2 7341   7.649   0.159   3.172
 2466TIP3   OH2 7342   7.349   1.315   3.106
 2466TIP3    H1 7343   7.357   1.321   3.011
 2466TIP3    H2 7344   7.297   1.236   3.121
 2467TIP3   OH2 7345   4.707   5.996   4.187
 2467TIP3    H1 7346   4.618   6.030   4.199
 2467TIP3    H2 7347   4.709   5.915   4.238
 2468TIP3   OH2 7348   4.966   7.181   2.073
 2468TIP3    H1 7349   4.947   7.096   2.113
 2468TIP3    H2 7350   4.900   7.191   2.005
 2469TIP3   OH2 7351   6.474   0.991   2.658
 2469TIP3    H1 7352   6.473   0.941   2.577
 2469TIP3    H2 7353   6.383   0.994   2.686
 2470TIP3   OH2 7354   2.169   4.309   2.877
 2470TIP3    H1 7355   2.231   4.249   2.835
 2470TIP3    H2 7356   2.204   4.396   2.857
 2471TIP3   OH2 7357   3.516   1.846   5.803
 2471TIP3    H1 7358   3.557   1.900   5.735
 2471TIP3    H2 7359   3.541   1.889   5.885
 2472TIP3   OH2 7360   2.511   3.337   0.480
 2472TIP3    H1 7361   2.587   3.280   0.469
 2472TIP3    H2 7362   2.436   3.277   0.477
 2473TIP3   OH2 7363   4.717   6.561   6.695
 2473TIP3    H1 7364   4.802   6.602   6.711
 2473TIP3    H2 7365   4.696   6.586   6.605
 2474TIP3   OH2 7366   3.569   3.015   0.831
 2474TIP3    H1 7367   3.525   3.047   0.753
 2474TIP3    H2 7368   3.660   3.044   0.820
 2475TIP3   OH2 7369   7.616   7.161   0.923
 2475TIP3    H1 7370   7.540   7.214   0.947
 2475TIP3    H2 7371   7.662   7.145   1.005
 2476TIP3   OH2 7372   7.046   1.113   5.917
 2476TIP3    H1 7373   6.968   1.068   5.949
 2476TIP3    H2 7374   7.047   1.095   5.823
 2477TIP3   OH2 7375   1.342   4.149   1.516
 2477TIP3    H1 7376   1.402   4.200   1.571
 2477TIP3    H2 7377   1.285   4.104   1.578
 2478TIP3   OH2 7378   3.409   3.905   3.884
 2478TIP3    H1 7379   3.448   3.921   3.798
 2478TIP3    H2 7380   3.483   3.882   3.941
 2479TIP3   OH2 7381   5.733   4.914   4.178
 2479TIP3    H1 7382   5.671   4.846   4.205
 2479TIP3    H2 7383   5.684   4.996   4.187
 2480TIP3   OH2 7384   0.739   0.013   3.400
 2480TIP3    H1 7385   0.691   0.074   3.346
 2480TIP3    H2 7386   0.816   0.062   3.429
 2481TIP3   OH2 7387   0.391   7.619   3.545
 2481TIP3    H1 7388   0.482   7.628   3.575
 2481TIP3    H2 7389   0.395   7.548   3.481
 2482TIP3   OH2 7390   8.182   7.146   2.123
 2482TIP3    H1 7391   8.183   7.227   2.071
 2482TIP3    H2 7392   8.247   7.090   2.080
 2483TIP3   OH2 7393   5.848   0.060   3.943
 2483TIP3    H1 7394   5.853   0.137   3.886
 2483TIP3    H2 7395   5.894  -0.008   3.894
 2484TIP3   OH2 7396   2.439   0.070   5.415
 2484TIP3    H1 7397   2.454   0.158   5.450
 2484TIP3    H2 7398   2.409   0.084   5.325
 2485TIP3   OH2 7399   0.220   5.246   5.825
 2485TIP3    H1 7400   0.223   5.335   5.789
 2485TIP3    H2 7401   0.308   5.232   5.861
 2486TIP3   OH2 7402   7.582   5.565   5.099
 2486TIP3    H1 7403   7.508   5.610   5.140
 2486TIP3    H2 7404   7.564   5.569   5.005
 2487TIP3   OH2 7405   3.573   3.719   1.716
 2487TIP3    H1 7406   3.618   3.638   1.692
 2487TIP3    H2 7407   3.485   3.691   1.740
 2488TIP3   OH2 7408   6.277   5.553   3.586
 2488TIP3    H1 7409   6.283   5.596   3.672
 2488TIP3    H2 7410   6.262   5.625   3.524
 2489TIP3   OH2 7411   4.708   0.725   6.607
 2489TIP3    H1 7412   4.704   0.697   6.516
 2489TIP3    H2 7413   4.801   0.718   6.630
 2490TIP3   OH2 7414   5.147   6.770   2.287
 2490TIP3    H1 7415   5.236   6.799   2.265
 2490TIP3    H2 7416   5.159   6.704   2.356
 2491TIP3   OH2 7417   7.104   7.001   4.046
 2491TIP3    H1 7418   7.088   6.974   3.956
 2491TIP3    H2 7419   7.145   6.925   4.087
 2492TIP3   OH2 7420   1.523   6.501   5.361
 2492TIP3    H1 7421   1.539   6.544   5.277
 2492TIP3    H2 7422   1.611   6.484   5.397
 2493TIP3   OH2 7423   7.707   2.317   4.072
 2493TIP3    H1 7424   7.643   2.366   4.021
 2493TIP3    H2 7425   7.670   2.229   4.078
 2494TIP3   OH2 7426   2.177   4.964   5.696
 2494TIP3    H1 7427   2.177   4.881   5.649
 2494TIP3    H2 7428   2.184   4.939   5.788
 2495TIP3   OH2 7429   0.677   3.529   2.791
 2495TIP3    H1 7430   0.732   3.476   2.733
 2495TIP3    H2 7431   0.740   3.580   2.843
 2496TIP3   OH2 7432   3.121   4.287   2.196
 2496TIP3    H1 7433   3.208   4.268   2.160
 2496TIP3    H2 7434   3.103   4.214   2.255
 2497TIP3   OH2 7435   7.994   2.860   0.282
 2497TIP3    H1 7436   8.060   2.802   0.244
 2497TIP3    H2 7437   7.918   2.803   0.297
 2498TIP3   OH2 7438   1.655   0.227   3.128
 2498TIP3    H1 7439   1.583   0.188   3.078
 2498TIP3    H2 7440   1.640   0.197   3.218
 2499TIP3   OH2 7441   7.228   5.657   2.405
 2499TIP3    H1 7442   7.194   5.735   2.362
 2499TIP3    H2 7443   7.285   5.616   2.340
 2500TIP3   OH2 7444   6.798   4.578   0.760
 2500TIP3    H1 7445   6.868   4.585   0.695
 2500TIP3    H2 7446   6.720   4.560   0.709
 2501TIP3   OH2 7447   4.224   1.432   0.777
 2501TIP3    H1 7448   4.171   1.358   0.807
 2501TIP3    H2 7449   4.314   1.410   0.800
 2502TIP3   OH2 7450   5.002   0.861   6.475
 2502TIP3    H1 7451   4.935   0.813   6.427
 2502TIP3    H2 7452   5.084   0.834   6.435
 2503TIP3   OH2 7453   7.948   2.725   4.553
 2503TIP3    H1 7454   7.995   2.646   4.527
 2503TIP3    H2 7455   8.017   2.790   4.571
 2504TIP3   OH2 7456   1.259   5.019   5.902
 2504TIP3    H1 7457   1.195   4.976   5.845
 2504TIP3    H2 7458   1.308   5.076   5.844
 2505TIP3   OH2 7459   5.725   4.186   0.524
 2505TIP3    H1 7460   5.718   4.212   0.616
 2505TIP3    H2 7461   5.663   4.243   0.478
 2506TIP3   OH2 7462   5.397   0.764   0.334
 2506TIP3    H1 7463   5.488   0.745   0.312
 2506TIP3    H2 7464   5.362   0.807   0.256
 2507TIP3   OH2 7465   0.113   0.568   1.255
 2507TIP3    H1 7466   0.054   0.523   1.194
 2507TIP3    H2 7467   0.054   0.614   1.314
 2508TIP3   OH2 7468   7.784   0.968   6.351
 2508TIP3    H1 7469   7.735   0.895   6.387
 2508TIP3    H2 7470   7.717   1.034   6.330
 2509TIP3   OH2 7471   6.341   6.395   2.232
 2509TIP3    H1 7472   6.329   6.464   2.167
 2509TIP3    H2 7473   6.395   6.435   2.301
 2510TIP3   OH2 7474   0.873   2.092   0.039
 2510TIP3    H1 7475   0.968   2.089   0.038
 2510TIP3    H2 7476   0.850   2.169  -0.014
 2511TIP3   OH2 7477   0.934   0.298   1.239
 2511TIP3    H1 7478   1.021   0.296   1.200
 2511TIP3    H2 7479   0.949   0.284   1.332
 2512TIP3   OH2 7480   4.949   4.208   3.317
 2512TIP3    H1 7481   5.015   4.177   3.254
 2512TIP3    H2 7482   4.888   4.135   3.326
 2513TIP3   OH2 7483   6.880   0.522   4.120
 2513TIP3    H1 7484   6.906   0.481   4.037
 2513TIP3    H2 7485   6.811   0.583   4.095
 2514TIP3   OH2 7486   5.657   4.762   3.885
 2514TIP3    H1 7487   5.743   4.751   3.926
 2514TIP3    H2 7488   5.598   4.709   3.940
 2515TIP3   OH2 7489   6.695   1.010   4.147
 2515TIP3    H1 7490   6.613   0.965   4.165
 2515TIP3    H2 7491   6.672   1.078   4.084
 2516TIP3   OH2 7492   6.620   3.581   6.462
 2516TIP3    H1 7493   6.633   3.632   6.542
 2516TIP3    H2 7494   6.542   3.619   6.421
 2517TIP3   OH2 7495   4.490   6.096   2.162
 2517TIP3    H1 7496   4.554   6.137   2.105
 2517TIP3    H2 7497   4.521   6.114   2.251
 2518TIP3   OH2 7498   0.414   7.413   3.369
 2518TIP3    H1 7499   0.419   7.430   3.275
 2518TIP3    H2 7500   0.355   7.338   3.378
 2519TIP3   OH2 7501   7.433   5.727   4.092
 2519TIP3    H1 7502   7.475   5.645   4.117
 2519TIP3    H2 7503   7.342   5.717   4.122
 2520TIP3   OH2 7504   6.755   2.898   5.225
 2520TIP3    H1 7505   6.762   2.805   5.248
 2520TIP3    H2 7506   6.773   2.901   5.131
 2521TIP3   OH2 7507   1.528   5.105   3.779
 2521TIP3    H1 7508   1.581   5.180   3.751
 2521TIP3    H2 7509   1.449   5.111   3.727
 2522TIP3   OH2 7510   2.742   4.538   6.695
 2522TIP3    H1 7511   2.755   4.545   6.790
 2522TIP3    H2 7512   2.764   4.447   6.675
 2523TIP3   OH2 7513   6.737   6.912   4.448
 2523TIP3    H1 7514   6.773   6.976   4.386
 2523TIP3    H2 7515   6.767   6.828   4.415
 2524TIP3   OH2 7516   5.566   3.755   0.653
 2524TIP3    H1 7517   5.577   3.675   0.602
 2524TIP3    H2 7518   5.655   3.790   0.661
 2525TIP3   OH2 7519   4.771   7.529   1.406
 2525TIP3    H1 7520   4.711   7.586   1.359
 2525TIP3    H2 7521   4.828   7.588   1.454
 2526TIP3   OH2 7522   5.331   5.966   6.566
 2526TIP3    H1 7523   5.256   5.925   6.525
 2526TIP3    H2 7524   5.297   6.048   6.602
 2527TIP3   OH2 7525   5.969   3.605   1.994
 2527TIP3    H1 7526   5.947   3.516   1.968
 2527TIP3    H2 7527   6.013   3.596   2.079
 2528TIP3   OH2 7528   6.212   5.686   0.757
 2528TIP3    H1 7529   6.160   5.763   0.732
 2528TIP3    H2 7530   6.184   5.618   0.697
 2529TIP3   OH2 7531   6.516   5.963   5.516
 2529TIP3    H1 7532   6.586   6.020   5.486
 2529TIP3    H2 7533   6.478   6.009   5.591
 2530TIP3   OH2 7534   2.738   5.666   1.295
 2530TIP3    H1 7535   2.776   5.748   1.265
 2530TIP3    H2 7536   2.663   5.651   1.237
 2531TIP3   OH2 7537   1.021   4.910   6.479
 2531TIP3    H1 7538   0.939   4.876   6.514
 2531TIP3    H2 7539   1.085   4.898   6.549
 2532TIP3   OH2 7540   2.609   4.437   5.297
 2532TIP3    H1 7541   2.528   4.422   5.346
 2532TIP3    H2 7542   2.583   4.431   5.205
 2533TIP3   OH2 7543   5.936   7.298   6.531
 2533TIP3    H1 7544   5.851   7.311   6.490
 2533TIP3    H2 7545   5.990   7.370   6.498
 2534TIP3   OH2 7546   4.989   2.416   5.701
 2534TIP3    H1 7547   5.074   2.423   5.745
 2534TIP3    H2 7548   4.925   2.424   5.771
 2535TIP3   OH2 7549   0.907   4.681   1.588
 2535TIP3    H1 7550   0.971   4.615   1.563
 2535TIP3    H2 7551   0.888   4.728   1.507
 2536TIP3   OH2 7552   7.149   0.113   0.064
 2536TIP3    H1 7553   7.126   0.174  -0.007
 2536TIP3    H2 7554   7.244   0.121   0.071
 2537TIP3   OH2 7555   6.614   4.530   2.922
 2537TIP3    H1 7556   6.639   4.452   2.872
 2537TIP3    H2 7557   6.691   4.552   2.974
 2538TIP3   OH2 7558   7.657   2.858   5.283
 2538TIP3    H1 7559   7.702   2.932   5.326
 2538TIP3    H2 7560   7.728   2.807   5.244
 2539TIP3   OH2 7561   0.954   6.884   1.208
 2539TIP3    H1 7562   1.028   6.824   1.214
 2539TIP3    H2 7563   0.877   6.827   1.208
 2540TIP3   OH2 7564   6.682   5.091   2.287
 2540TIP3    H1 7565   6.668   5.181   2.257
 2540TIP3    H2 7566   6.611   5.075   2.348
 2541TIP3   OH2 7567   5.767   7.368   1.859
 2541TIP3    H1 7568   5.816   7.287   1.844
 2541TIP3    H2 7569   5.687   7.359   1.808
 2542TIP3   OH2 7570   3.919   6.874   5.242
 2542TIP3    H1 7571   3.890   6.963   5.223
 2542TIP3    H2 7572   3.896   6.860   5.334
 2543TIP3   OH2 7573   3.704   7.685   3.232
 2543TIP3    H1 7574   3.764   7.611   3.237
 2543TIP3    H2 7575   3.736   7.736   3.158
 2544TIP3   OH2 7576   1.308   6.914   4.996
 2544TIP3    H1 7577   1.264   6.861   5.062
 2544TIP3    H2 7578   1.327   6.997   5.040
 2545TIP3   OH2 7579   4.124   0.764   2.740
 2545TIP3    H1 7580   4.130   0.736   2.649
 2545TIP3    H2 7581   4.088   0.689   2.786
 2546TIP3   OH2 7582   6.788   0.889   1.780
 2546TIP3    H1 7583   6.816   0.926   1.696
 2546TIP3    H2 7584   6.752   0.803   1.759
 2547TIP3   OH2 7585   4.829   6.275   0.483
 2547TIP3    H1 7586   4.806   6.277   0.390
 2547TIP3    H2 7587   4.767   6.213   0.521
 2548TIP3   OH2 7588   1.495   2.658   0.258
 2548TIP3    H1 7589   1.566   2.689   0.203
 2548TIP3    H2 7590   1.432   2.729   0.259
 2549TIP3   OH2 7591   4.898   2.480   3.434
 2549TIP3    H1 7592   4.914   2.387   3.419
 2549TIP3    H2 7593   4.985   2.517   3.449
 2550TIP3   OH2 7594   0.967   2.377   4.138
 2550TIP3    H1 7595   1.024   2.326   4.081
 2550TIP3    H2 7596   1.014   2.459   4.152
 2551TIP3   OH2 7597   5.121   3.105   3.502
 2551TIP3    H1 7598   5.150   3.196   3.505
 2551TIP3    H2 7599   5.027   3.109   3.523
 2552TIP3   OH2 7600   4.871   1.152   1.023
 2552TIP3    H1 7601   4.842   1.130   1.111
 2552TIP3    H2 7602   4.820   1.095   0.966
 2553TIP3   OH2 7603   4.938   1.962   3.977
 2553TIP3    H1 7604   4.899   2.018   4.044
 2553TIP3    H2 7605   5.032   1.962   3.996
 2554TIP3   OH2 7606   2.828   2.692   2.074
 2554TIP3    H1 7607   2.905   2.709   2.128
 2554TIP3    H2 7608   2.754   2.718   2.128
 2555TIP3   OH2 7609   1.451   7.055   4.530
 2555TIP3    H1 7610   1.499   6.990   4.478
 2555TIP3    H2 7611   1.448   7.017   4.618
 2556TIP3   OH2 7612   5.103   3.648   0.635
 2556TIP3    H1 7613   5.014   3.683   0.622
 2556TIP3    H2 7614   5.131   3.624   0.547
 2557TIP3   OH2 7615   5.042   1.015   1.687
 2557TIP3    H1 7616   4.980   1.062   1.631
 2557TIP3    H2 7617   5.098   1.085   1.722
 2558TIP3   OH2 7618   4.484   6.266   0.056
 2558TIP3    H1 7619   4.573   6.258   0.020
 2558TIP3    H2 7620   4.427   6.267  -0.021
 2559TIP3   OH2 7621   6.410   4.154   1.970
 2559TIP3    H1 7622   6.367   4.233   2.003
 2559TIP3    H2 7623   6.385   4.150   1.878
 2560TIP3   OH2 7624   1.590   4.044   6.422
 2560TIP3    H1 7625   1.604   3.949   6.425
 2560TIP3    H2 7626   1.673   4.082   6.450
 2561TIP3   OH2 7627   2.924   4.766   4.752
 2561TIP3    H1 7628   2.957   4.822   4.823
 2561TIP3    H2 7629   2.961   4.804   4.672
 2562TIP3   OH2 7630   0.155   1.496   5.083
 2562TIP3    H1 7631   0.068   1.528   5.108
 2562TIP3    H2 7632   0.209   1.575   5.078
 2563TIP3   OH2 7633   7.065   2.817   4.214
 2563TIP3    H1 7634   7.011   2.841   4.139
 2563TIP3    H2 7635   7.050   2.723   4.225
 2564TIP3   OH2 7636   4.815   3.418   4.400
 2564TIP3    H1 7637   4.830   3.512   4.410
 2564TIP3    H2 7638   4.825   3.402   4.306
 2565TIP3   OH2 7639   2.572   6.711   2.229
 2565TIP3    H1 7640   2.636   6.742   2.293
 2565TIP3    H2 7641   2.514   6.653   2.279
 2566TIP3   OH2 7642   3.203   2.670   0.352
 2566TIP3    H1 7643   3.152   2.637   0.427
 2566TIP3    H2 7644   3.292   2.640   0.370
 2567TIP3   OH2 7645   1.123   1.469   3.868
 2567TIP3    H1 7646   1.100   1.418   3.791
 2567TIP3    H2 7647   1.052   1.534   3.876
 2568TIP3   OH2 7648   2.595   0.443   3.575
 2568TIP3    H1 7649   2.676   0.487   3.600
 2568TIP3    H2 7650   2.527   0.487   3.625
 2569TIP3   OH2 7651   2.674   7.494   5.818
 2569TIP3    H1 7652   2.631   7.433   5.758
 2569TIP3    H2 7653   2.764   7.460   5.825
 2570TIP3   OH2 7654   0.389   0.761   5.823
 2570TIP3    H1 7655   0.355   0.671   5.825
 2570TIP3    H2 7656   0.484   0.751   5.821
 2571TIP3   OH2 7657   0.430   5.794   3.546
 2571TIP3    H1 7658   0.346   5.809   3.502
 2571TIP3    H2 7659   0.411   5.810   3.639
 2572TIP3   OH2 7660   8.047   6.378   6.263
 2572TIP3    H1 7661   8.042   6.340   6.175
 2572TIP3    H2 7662   7.999   6.316   6.318
 2573TIP3   OH2 7663   1.781   4.954   2.180
 2573TIP3    H1 7664   1.735   4.884   2.228
 2573TIP3    H2 7665   1.720   4.978   2.110
 2574TIP3   OH2 7666   1.304   1.822   5.870
 2574TIP3    H1 7667   1.347   1.759   5.927
 2574TIP3    H2 7668   1.340   1.907   5.897
 2575TIP3   OH2 7669   3.542   5.237   6.371
 2575TIP3    H1 7670   3.578   5.273   6.289
 2575TIP3    H2 7671   3.462   5.192   6.344
 2576TIP3   OH2 7672   0.980   5.352   0.221
 2576TIP3    H1 7673   0.971   5.447   0.225
 2576TIP3    H2 7674   0.891   5.318   0.232
 2577TIP3   OH2 7675   1.726   6.894   5.827
 2577TIP3    H1 7676   1.674   6.886   5.907
 2577TIP3    H2 7677   1.709   6.983   5.796
 2578TIP3   OH2 7678   5.863   4.490   2.708
 2578TIP3    H1 7679   5.824   4.431   2.644
 2578TIP3    H2 7680   5.951   4.456   2.721
 2579TIP3   OH2 7681   7.559   3.814   1.915
 2579TIP3    H1 7682   7.595   3.753   1.850
 2579TIP3    H2 7683   7.605   3.896   1.900
 2580TIP3   OH2 7684   3.342   1.328   2.360
 2580TIP3    H1 7685   3.335   1.289   2.273
 2580TIP3    H2 7686   3.435   1.347   2.370
 2581TIP3   OH2 7687   6.513   3.721   4.631
 2581TIP3    H1 7688   6.564   3.796   4.662
 2581TIP3    H2 7689   6.509   3.732   4.536
 2582TIP3   OH2 7690   1.702   5.738   0.610
 2582TIP3    H1 7691   1.644   5.804   0.649
 2582TIP3    H2 7692   1.688   5.660   0.664
 2583TIP3   OH2 7693   6.095   5.718   1.683
 2583TIP3    H1 7694   6.165   5.723   1.618
 2583TIP3    H2 7695   6.015   5.712   1.632
 2584TIP3   OH2 7696   1.610   5.696   5.176
 2584TIP3    H1 7697   1.565   5.667   5.097
 2584TIP3    H2 7698   1.558   5.770   5.208
 2585TIP3   OH2 7699   3.137   4.907   0.936
 2585TIP3    H1 7700   3.108   4.979   0.992
 2585TIP3    H2 7701   3.233   4.909   0.941
 2586TIP3   OH2 7702   3.268   1.482   3.438
 2586TIP3    H1 7703   3.305   1.500   3.352
 2586TIP3    H2 7704   3.321   1.410   3.472
 2587TIP3   OH2 7705   5.236   2.423   1.961
 2587TIP3    H1 7706   5.147   2.393   1.941
 2587TIP3    H2 7707   5.223   2.502   2.013
 2588TIP3   OH2 7708   3.173   2.781   1.723
 2588TIP3    H1 7709   3.135   2.695   1.739
 2588TIP3    H2 7710   3.141   2.836   1.794
 2589TIP3   OH2 7711   6.581   1.065   0.344
 2589TIP3    H1 7712   6.555   1.025   0.427
 2589TIP3    H2 7713   6.522   1.139   0.333
 2590TIP3   OH2 7714   2.458   5.670   3.480
 2590TIP3    H1 7715   2.395   5.740   3.497
 2590TIP3    H2 7716   2.537   5.697   3.526
 2591TIP3   OH2 7717   2.882   3.197   0.917
 2591TIP3    H1 7718   2.821   3.238   0.978
 2591TIP3    H2 7719   2.851   3.106   0.910
 2592TIP3   OH2 7720   1.393   2.497   2.596
 2592TIP3    H1 7721   1.337   2.419   2.603
 2592TIP3    H2 7722   1.482   2.463   2.594
 2593TIP3   OH2 7723   2.888   4.759   1.234
 2593TIP3    H1 7724   2.976   4.724   1.224
 2593TIP3    H2 7725   2.901   4.850   1.261
 2594TIP3   OH2 7726   8.144   5.657   3.659
 2594TIP3    H1 7727   8.108   5.591   3.600
 2594TIP3    H2 7728   8.238   5.638   3.663
 2595TIP3   OH2 7729   2.326   6.332   6.522
 2595TIP3    H1 7730   2.290   6.298   6.440
 2595TIP3    H2 7731   2.417   6.352   6.502
 2596TIP3   OH2 7732   5.730   5.392   6.537
 2596TIP3    H1 7733   5.778   5.470   6.566
 2596TIP3    H2 7734   5.765   5.372   6.450
 2597TIP3   OH2 7735   4.011   4.567   6.077
 2597TIP3    H1 7736   4.023   4.549   5.983
 2597TIP3    H2 7737   4.098   4.593   6.107
 2598TIP3   OH2 7738   7.840   2.695   5.141
 2598TIP3    H1 7739   7.851   2.614   5.191
 2598TIP3    H2 7740   7.867   2.673   5.052
 2599TIP3   OH2 7741   4.117   5.599   2.412
 2599TIP3    H1 7742   4.079   5.514   2.388
 2599TIP3    H2 7743   4.111   5.651   2.332
 2600TIP3   OH2 7744   4.218   1.864   1.233
 2600TIP3    H1 7745   4.207   1.958   1.224
 2600TIP3    H2 7746   4.177   1.827   1.155
 2601TIP3   OH2 7747   6.048   2.148   3.564
 2601TIP3    H1 7748   6.014   2.234   3.540
 2601TIP3    H2 7749   6.083   2.112   3.482
 2602TIP3   OH2 7750   4.981   3.873   3.987
 2602TIP3    H1 7751   5.036   3.890   4.063
 2602TIP3    H2 7752   4.898   3.915   4.008
 2603TIP3   OH2 7753   7.425   7.285   4.407
 2603TIP3    H1 7754   7.342   7.321   4.436
 2603TIP3    H2 7755   7.417   7.277   4.312
 2604TIP3   OH2 7756   7.875   1.497   2.325
 2604TIP3    H1 7757   7.894   1.476   2.234
 2604TIP3    H2 7758   7.821   1.424   2.356
 2605TIP3   OH2 7759   8.193   4.411   3.439
 2605TIP3    H1 7760   8.274   4.437   3.395
 2605TIP3    H2 7761   8.198   4.453   3.525
 2606TIP3   OH2 7762   2.886   6.595   4.042
 2606TIP3    H1 7763   2.885   6.574   3.949
 2606TIP3    H2 7764   2.796   6.580   4.071
 2607TIP3   OH2 7765   7.573   4.487   2.527
 2607TIP3    H1 7766   7.646   4.511   2.470
 2607TIP3    H2 7767   7.495   4.510   2.477
 2608TIP3   OH2 7768   5.233   3.103   4.450
 2608TIP3    H1 7769   5.188   3.163   4.509
 2608TIP3    H2 7770   5.326   3.126   4.458
 2609TIP3   OH2 7771   3.919   6.443   0.494
 2609TIP3    H1 7772   4.008   6.475   0.477
 2609TIP3    H2 7773   3.904   6.377   0.427
 2610TIP3   OH2 7774   1.260   1.190   6.499
 2610TIP3    H1 7775   1.341   1.206   6.451
 2610TIP3    H2 7776   1.206   1.139   6.439
 2611TIP3   OH2 7777   1.178   4.757   5.395
 2611TIP3    H1 7778   1.229   4.806   5.330
 2611TIP3    H2 7779   1.165   4.671   5.356
 2612TIP3   OH2 7780   4.661   4.328   3.851
 2612TIP3    H1 7781   4.645   4.419   3.876
 2612TIP3    H2 7782   4.631   4.323   3.760
 2613TIP3   OH2 7783   5.737   0.227   2.534
 2613TIP3    H1 7784   5.777   0.260   2.615
 2613TIP3    H2 7785   5.658   0.279   2.523
 2614TIP3   OH2 7786   5.065   1.746   5.030
 2614TIP3    H1 7787   5.019   1.818   5.073
 2614TIP3    H2 7788   5.051   1.671   5.087
 2615TIP3   OH2 7789   1.602   5.786   3.279
 2615TIP3    H1 7790   1.651   5.840   3.217
 2615TIP3    H2 7791   1.663   5.772   3.351
 2616TIP3   OH2 7792   4.012   3.381   4.635
 2616TIP3    H1 7793   4.090   3.403   4.584
 2616TIP3    H2 7794   3.967   3.465   4.646
 2617TIP3   OH2 7795   3.281   3.362   1.634
 2617TIP3    H1 7796   3.295   3.433   1.696
 2617TIP3    H2 7797   3.357   3.305   1.645
 2618TIP3   OH2 7798   3.585   6.870   3.225
 2618TIP3    H1 7799   3.536   6.789   3.235
 2618TIP3    H2 7800   3.521   6.939   3.244
 2619TIP3   OH2 7801   0.424   5.368   2.003
 2619TIP3    H1 7802   0.451   5.344   2.092
 2619TIP3    H2 7803   0.367   5.296   1.976
 2620TIP3   OH2 7804   6.120   7.126   0.039
 2620TIP3    H1 7805   6.055   7.094   0.102
 2620TIP3    H2 7806   6.163   7.046   0.007
 2621TIP3   OH2 7807   7.242   0.829   1.352
 2621TIP3    H1 7808   7.169   0.863   1.403
 2621TIP3    H2 7809   7.319   0.872   1.390
 2622TIP3   OH2 7810   7.881   5.949   1.841
 2622TIP3    H1 7811   7.847   5.969   1.928
 2622TIP3    H2 7812   7.810   5.973   1.781
 2623TIP3   OH2 7813   2.206   2.280   5.585
 2623TIP3    H1 7814   2.229   2.208   5.643
 2623TIP3    H2 7815   2.273   2.346   5.602
 2624TIP3   OH2 7816   1.393   4.133   4.337
 2624TIP3    H1 7817   1.479   4.151   4.300
 2624TIP3    H2 7818   1.379   4.040   4.322
 2625TIP3   OH2 7819   3.271   6.543   4.441
 2625TIP3    H1 7820   3.362   6.560   4.466
 2625TIP3    H2 7821   3.248   6.616   4.384
 2626TIP3   OH2 7822   6.227   4.659   6.224
 2626TIP3    H1 7823   6.159   4.683   6.161
 2626TIP3    H2 7824   6.297   4.623   6.170
 2627TIP3   OH2 7825   1.571   3.368   6.049
 2627TIP3    H1 7826   1.628   3.419   5.991
 2627TIP3    H2 7827   1.509   3.432   6.084
 2628TIP3   OH2 7828   7.745   5.573   2.820
 2628TIP3    H1 7829   7.810   5.511   2.788
 2628TIP3    H2 7830   7.677   5.574   2.752
 2629TIP3   OH2 7831   7.551   0.698   1.585
 2629TIP3    H1 7832   7.489   0.699   1.659
 2629TIP3    H2 7833   7.627   0.649   1.619
 2630TIP3   OH2 7834   6.581   5.827   4.919
 2630TIP3    H1 7835   6.674   5.803   4.910
 2630TIP3    H2 7836   6.536   5.768   4.858
 2631TIP3   OH2 7837   2.823   5.645   4.945
 2631TIP3    H1 7838   2.737   5.677   4.917
 2631TIP3    H2 7839   2.835   5.562   4.899
 2632TIP3   OH2 7840   6.117   2.328   1.954
 2632TIP3    H1 7841   6.169   2.318   2.034
 2632TIP3    H2 7842   6.048   2.263   1.962
 2633TIP3   OH2 7843   4.282   5.962   2.934
 2633TIP3    H1 7844   4.309   5.898   2.867
 2633TIP3    H2 7845   4.244   5.909   3.004
 2634TIP3   OH2 7846   7.063   5.005   5.123
 2634TIP3    H1 7847   7.132   4.966   5.177
 2634TIP3    H2 7848   6.986   5.009   5.180
 2635TIP3   OH2 7849   7.674   0.587   2.870
 2635TIP3    H1 7850   7.741   0.537   2.917
 2635TIP3    H2 7851   7.602   0.525   2.859
 2636TIP3   OH2 7852   5.830   7.331   4.638
 2636TIP3    H1 7853   5.895   7.332   4.568
 2636TIP3    H2 7854   5.773   7.406   4.619
 2637TIP3   OH2 7855   6.923   3.950   6.693
 2637TIP3    H1 7856   6.899   4.009   6.765
 2637TIP3    H2 7857   7.010   3.980   6.666
 2638TIP3   OH2 7858   2.912   0.270   4.574
 2638TIP3    H1 7859   2.906   0.344   4.635
 2638TIP3    H2 7860   3.006   0.249   4.571
 2639TIP3   OH2 7861   3.538   2.727   5.600
 2639TIP3    H1 7862   3.483   2.657   5.566
 2639TIP3    H2 7863   3.621   2.685   5.622
 2640TIP3   OH2 7864   3.825   0.212   1.557
 2640TIP3    H1 7865   3.871   0.149   1.501
 2640TIP3    H2 7866   3.796   0.161   1.632
 2641TIP3   OH2 7867   2.480   1.230   4.759
 2641TIP3    H1 7868   2.453   1.277   4.838
 2641TIP3    H2 7869   2.481   1.296   4.691
 2642TIP3   OH2 7870   8.244   5.907   1.053
 2642TIP3    H1 7871   8.317   5.962   1.023
 2642TIP3    H2 7872   8.276   5.818   1.043
 2643TIP3   OH2 7873   2.830   3.086   2.720
 2643TIP3    H1 7874   2.835   3.119   2.630
 2643TIP3    H2 7875   2.858   3.159   2.774
 2644TIP3   OH2 7876   4.585   0.042   5.793
 2644TIP3    H1 7877   4.551   0.032   5.881
 2644TIP3    H2 7878   4.632  -0.039   5.775
 2645TIP3   OH2 7879   2.757   1.193   5.443
 2645TIP3    H1 7880   2.676   1.243   5.457
 2645TIP3    H2 7881   2.799   1.192   5.529
 2646TIP3   OH2 7882   1.659   4.709   1.402
 2646TIP3    H1 7883   1.563   4.704   1.409
 2646TIP3    H2 7884   1.680   4.653   1.327
 2647TIP3   OH2 7885   1.677   6.818   2.370
 2647TIP3    H1 7886   1.619   6.806   2.445
 2647TIP3    H2 7887   1.702   6.729   2.344
 2648TIP3   OH2 7888   7.202   5.064   6.509
 2648TIP3    H1 7889   7.169   4.993   6.565
 2648TIP3    H2 7890   7.229   5.132   6.569
 2649TIP3   OH2 7891   0.053   7.158   6.582
 2649TIP3    H1 7892   0.112   7.116   6.519
 2649TIP3    H2 7893  -0.010   7.090   6.604
 2650TIP3   OH2 7894   3.546   7.694   5.532
 2650TIP3    H1 7895   3.467   7.658   5.490
 2650TIP3    H2 7896   3.610   7.701   5.461
 2651TIP3   OH2 7897   2.605   2.102   3.034
 2651TIP3    H1 7898   2.618   2.196   3.037
 2651TIP3    H2 7899   2.637   2.070   3.118
 2652TIP3   OH2 7900   4.531   0.952   5.270
 2652TIP3    H1 7901   4.565   1.025   5.322
 2652TIP3    H2 7902   4.493   0.892   5.334
 2653TIP3   OH2 7903   7.593   0.096   0.750
 2653TIP3    H1 7904   7.502   0.068   0.759
 2653TIP3    H2 7905   7.632   0.080   0.836
 2654TIP3   OH2 7906   3.815   2.161   4.511
 2654TIP3    H1 7907   3.849   2.177   4.423
 2654TIP3    H2 7908   3.888   2.121   4.558
 2655TIP3   OH2 7909   7.900   0.804   0.746
 2655TIP3    H1 7910   7.966   0.826   0.812
 2655TIP3    H2 7911   7.839   0.746   0.792
 2656TIP3   OH2 7912   7.495   6.920   3.082
 2656TIP3    H1 7913   7.570   6.876   3.043
 2656TIP3    H2 7914   7.482   6.876   3.166
 2657TIP3   OH2 7915   7.123   2.897   6.518
 2657TIP3    H1 7916   7.082   2.973   6.477
 2657TIP3    H2 7917   7.080   2.822   6.478
 2658TIP3   OH2 7918   0.706   5.890   6.702
 2658TIP3    H1 7919   0.669   5.811   6.742
 2658TIP3    H2 7920   0.648   5.961   6.730
 2659TIP3   OH2 7921   0.679   3.164   6.524
 2659TIP3    H1 7922   0.612   3.231   6.514
 2659TIP3    H2 7923   0.733   3.172   6.445
 2660TIP3   OH2 7924   0.099   4.134   2.385
 2660TIP3    H1 7925   0.166   4.068   2.403
 2660TIP3    H2 7926   0.144   4.218   2.395
 2661TIP3   OH2 7927   5.164   3.515   6.321
 2661TIP3    H1 7928   5.136   3.606   6.306
 2661TIP3    H2 7929   5.122   3.465   6.251
 2662TIP3   OH2 7930   3.065   2.118   2.529
 2662TIP3    H1 7931   3.049   2.141   2.438
 2662TIP3    H2 7932   3.079   2.023   2.527
 2663TIP3   OH2 7933   7.807   5.106   2.578
 2663TIP3    H1 7934   7.829   5.062   2.660
 2663TIP3    H2 7935   7.732   5.161   2.599
 2664TIP3   OH2 7936   7.258   2.235   5.031
 2664TIP3    H1 7937   7.325   2.282   5.080
 2664TIP3    H2 7938   7.258   2.147   5.069
 2665TIP3   OH2 7939   8.254   6.175   1.264
 2665TIP3    H1 7940   8.289   6.250   1.216
 2665TIP3    H2 7941   8.331   6.122   1.285
 2666TIP3   OH2 7942   5.315   1.845   1.945
 2666TIP3    H1 7943   5.338   1.869   1.856
 2666TIP3    H2 7944   5.373   1.897   2.000
 2667TIP3   OH2 7945   7.788   5.864   6.339
 2667TIP3    H1 7946   7.863   5.806   6.328
 2667TIP3    H2 7947   7.775   5.903   6.253
 2668TIP3   OH2 7948   4.558   2.897   4.295
 2668TIP3    H1 7949   4.474   2.943   4.294
 2668TIP3    H2 7950   4.539   2.812   4.335
 2669TIP3   OH2 7951   5.332   1.715   3.466
 2669TIP3    H1 7952   5.272   1.740   3.397
 2669TIP3    H2 7953   5.418   1.716   3.425
 2670TIP3   OH2 7954   6.832   3.964   1.069
 2670TIP3    H1 7955   6.833   3.974   0.974
 2670TIP3    H2 7956   6.877   4.041   1.102
 2671TIP3   OH2 7957   3.914   3.705   5.234
 2671TIP3    H1 7958   4.006   3.734   5.235
 2671TIP3    H2 7959   3.864   3.786   5.244
 2672TIP3   OH2 7960   4.630   1.194   3.023
 2672TIP3    H1 7961   4.602   1.195   3.115
 2672TIP3    H2 7962   4.557   1.233   2.975
 2673TIP3   OH2 7963   6.946   2.113   1.918
 2673TIP3    H1 7964   6.922   2.031   1.875
 2673TIP3    H2 7965   6.983   2.167   1.848
 2674TIP3   OH2 7966   2.857   1.904   1.788
 2674TIP3    H1 7967   2.843   1.838   1.856
 2674TIP3    H2 7968   2.852   1.854   1.706
 2675TIP3   OH2 7969   5.662   2.499   5.166
 2675TIP3    H1 7970   5.656   2.494   5.261
 2675TIP3    H2 7971   5.573   2.517   5.137
 2676TIP3   OH2 7972   4.345   2.010   2.302
 2676TIP3    H1 7973   4.413   2.077   2.293
 2676TIP3    H2 7974   4.292   2.040   2.376
 2677TIP3   OH2 7975   4.525   2.433   2.457
 2677TIP3    H1 7976   4.483   2.504   2.408
 2677TIP3    H2 7977   4.607   2.472   2.488
 2678TIP3   OH2 7978   7.639   4.544   6.703
 2678TIP3    H1 7979   7.609   4.455   6.685
 2678TIP3    H2 7980   7.717   4.532   6.757
 2679TIP3   OH2 7981   3.467   3.640   6.305
 2679TIP3    H1 7982   3.542   3.596   6.263
 2679TIP3    H2 7983   3.504   3.678   6.385
 2680TIP3   OH2 7984   1.357   6.351   6.736
 2680TIP3    H1 7985   1.339   6.443   6.717
 2680TIP3    H2 7986   1.447   6.338   6.708
 2681TIP3   OH2 7987   2.259   2.093   5.820
 2681TIP3    H1 7988   2.352   2.112   5.829
 2681TIP3    H2 7989   2.223   2.104   5.909
 2682TIP3   OH2 7990   2.718   2.955   1.124
 2682TIP3    H1 7991   2.750   2.872   1.158
 2682TIP3    H2 7992   2.646   2.931   1.065
 2683TIP3   OH2 7993   5.710   1.991   6.254
 2683TIP3    H1 7994   5.666   2.073   6.281
 2683TIP3    H2 7995   5.803   2.007   6.271
 2684TIP3   OH2 7996   8.219   4.087   5.441
 2684TIP3    H1 7997   8.258   4.174   5.448
 2684TIP3    H2 7998   8.288   4.033   5.402
 2685TIP3   OH2 7999   5.767   5.425   2.953
 2685TIP3    H1 8000   5.749   5.451   2.863
 2685TIP3    H2 8001   5.769   5.329   2.951
 2686TIP3   OH2 8002   5.341   0.632   1.953
 2686TIP3    H1 8003   5.343   0.569   1.881
 2686TIP3    H2 8004   5.415   0.690   1.936
 2687TIP3   OH2 8005   0.954   2.318   2.676
 2687TIP3    H1 8006   0.924   2.234   2.641
 2687TIP3    H2 8007   1.049   2.316   2.666
 2688TIP3   OH2 8008   2.220   4.192   4.758
 2688TIP3    H1 8009   2.242   4.265   4.700
 2688TIP3    H2 8010   2.245   4.223   4.846
 2689TIP3   OH2 8011   0.250   3.867   4.129
 2689TIP3    H1 8012   0.191   3.794   4.149
 2689TIP3    H2 8013   0.222   3.898   4.043
 2690TIP3   OH2 8014   6.792   3.079   0.160
 2690TIP3    H1 8015   6.822   3.135   0.232
 2690TIP3    H2 8016   6.863   3.084   0.095
 2691TIP3   OH2 8017   4.777   2.181   4.112
 2691TIP3    H1 8018   4.722   2.137   4.047
 2691TIP3    H2 8019   4.731   2.262   4.132
 2692TIP3   OH2 8020   2.845   7.067   3.998
 2692TIP3    H1 8021   2.785   7.056   3.924
 2692TIP3    H2 8022   2.809   7.142   4.046
 2693TIP3   OH2 8023   2.923   1.208   6.589
 2693TIP3    H1 8024   2.904   1.213   6.495
 2693TIP3    H2 8025   2.860   1.144   6.622
 2694TIP3   OH2 8026   0.880   2.835   0.704
 2694TIP3    H1 8027   0.838   2.786   0.774
 2694TIP3    H2 8028   0.941   2.772   0.665
 2695TIP3   OH2 8029   4.174   4.978   4.555
 2695TIP3    H1 8030   4.226   5.030   4.617
 2695TIP3    H2 8031   4.126   4.915   4.610
 2696TIP3   OH2 8032   2.989   2.462   4.317
 2696TIP3    H1 8033   3.066   2.452   4.260
 2696TIP3    H2 8034   2.953   2.547   4.294
 2697TIP3   OH2 8035   0.232   1.763   6.459
 2697TIP3    H1 8036   0.186   1.700   6.404
 2697TIP3    H2 8037   0.315   1.778   6.414
 2698TIP3   OH2 8038   2.403   0.709   5.584
 2698TIP3    H1 8039   2.395   0.770   5.657
 2698TIP3    H2 8040   2.440   0.630   5.623
 2699TIP3   OH2 8041   6.065   4.859   5.813
 2699TIP3    H1 8042   6.124   4.903   5.874
 2699TIP3    H2 8043   6.007   4.927   5.782
 2700TIP3   OH2 8044   0.878   4.856   5.437
 2700TIP3    H1 8045   0.834   4.843   5.352
 2700TIP3    H2 8046   0.956   4.801   5.433
 2701TIP3   OH2 8047   4.926   2.681   6.660
 2701TIP3    H1 8048   5.005   2.716   6.701
 2701TIP3    H2 8049   4.954   2.600   6.618
 2702TIP3   OH2 8050   1.398   3.807   4.643
 2702TIP3    H1 8051   1.407   3.711   4.646
 2702TIP3    H2 8052   1.464   3.835   4.580
 2703TIP3   OH2 8053   6.727   3.114   2.357
 2703TIP3    H1 8054   6.657   3.178   2.343
 2703TIP3    H2 8055   6.790   3.132   2.288
 2704TIP3   OH2 8056   4.299   1.009   3.048
 2704TIP3    H1 8057   4.341   0.978   2.969
 2704TIP3    H2 8058   4.336   0.956   3.118
 2705TIP3   OH2 8059   7.392   6.691   5.062
 2705TIP3    H1 8060   7.480   6.654   5.072
 2705TIP3    H2 8061   7.352   6.638   4.993
 2706TIP3   OH2 8062   0.476   5.530   2.825
 2706TIP3    H1 8063   0.408   5.552   2.762
 2706TIP3    H2 8064   0.429   5.498   2.901
 2707TIP3   OH2 8065   7.383   6.274   2.105
 2707TIP3    H1 8066   7.411   6.294   2.194
 2707TIP3    H2 8067   7.392   6.178   2.099
 2708TIP3   OH2 8068   5.065   7.534   4.128
 2708TIP3    H1 8069   5.079   7.470   4.197
 2708TIP3    H2 8070   5.014   7.604   4.171
 2709TIP3   OH2 8071   8.180   5.542   2.990
 2709TIP3    H1 8072   8.153   5.466   3.042
 2709TIP3    H2 8073   8.255   5.510   2.939
 2710TIP3   OH2 8074   1.036   3.837   6.120
 2710TIP3    H1 8075   1.129   3.819   6.107
 2710TIP3    H2 8076   1.004   3.862   6.034
 2711TIP3   OH2 8077   0.194   7.087   1.579
 2711TIP3    H1 8078   0.255   7.159   1.561
 2711TIP3    H2 8079   0.193   7.080   1.675
 2712TIP3   OH2 8080   4.547   3.700   5.560
 2712TIP3    H1 8081   4.489   3.623   5.553
 2712TIP3    H2 8082   4.547   3.737   5.471
 2713TIP3   OH2 8083   8.208   5.586   3.279
 2713TIP3    H1 8084   8.291   5.605   3.236
 2713TIP3    H2 8085   8.206   5.490   3.286
 2714TIP3   OH2 8086   1.127   2.493   3.862
 2714TIP3    H1 8087   1.034   2.517   3.857
 2714TIP3    H2 8088   1.142   2.443   3.782
 2715TIP3   OH2 8089   5.205   6.292   3.779
 2715TIP3    H1 8090   5.222   6.250   3.863
 2715TIP3    H2 8091   5.277   6.354   3.768
 2716TIP3   OH2 8092   0.734   7.180   3.840
 2716TIP3    H1 8093   0.642   7.208   3.836
 2716TIP3    H2 8094   0.782   7.252   3.799
 2717TIP3   OH2 8095   0.797   4.241   1.475
 2717TIP3    H1 8096   0.773   4.324   1.433
 2717TIP3    H2 8097   0.884   4.221   1.440
 2718TIP3   OH2 8098   7.028   0.031   0.672
 2718TIP3    H1 8099   7.037   0.062   0.582
 2718TIP3    H2 8100   7.006   0.110   0.723
 2719TIP3   OH2 8101   2.769   0.223   2.304
 2719TIP3    H1 8102   2.709   0.288   2.341
 2719TIP3    H2 8103   2.735   0.139   2.334
 2720TIP3   OH2 8104   7.434   6.597   1.777
 2720TIP3    H1 8105   7.418   6.608   1.871
 2720TIP3    H2 8106   7.384   6.518   1.754
 2721TIP3   OH2 8107   1.013   5.616   6.169
 2721TIP3    H1 8108   0.967   5.603   6.252
 2721TIP3    H2 8109   1.102   5.584   6.184
 2722TIP3   OH2 8110   4.790   4.594   4.203
 2722TIP3    H1 8111   4.866   4.535   4.198
 2722TIP3    H2 8112   4.826   4.675   4.238
 2723TIP3   OH2 8113   6.244   4.697   0.136
 2723TIP3    H1 8114   6.334   4.680   0.163
 2723TIP3    H2 8115   6.201   4.611   0.138
 2724TIP3   OH2 8116   4.067   0.407   5.589
 2724TIP3    H1 8117   4.106   0.359   5.516
 2724TIP3    H2 8118   3.977   0.422   5.562
 2725TIP3   OH2 8119   3.301   5.938   4.486
 2725TIP3    H1 8120   3.240   5.955   4.415
 2725TIP3    H2 8121   3.279   6.003   4.553
 2726TIP3   OH2 8122   3.254   3.546   3.381
 2726TIP3    H1 8123   3.301   3.533   3.464
 2726TIP3    H2 8124   3.182   3.605   3.403
 2727TIP3   OH2 8125   0.072   5.196   4.302
 2727TIP3    H1 8126  -0.005   5.226   4.255
 2727TIP3    H2 8127   0.068   5.100   4.296
 2728TIP3   OH2 8128   7.866   0.042   6.494
 2728TIP3    H1 8129   7.802  -0.015   6.537
 2728TIP3    H2 8130   7.871   0.119   6.550
 2729TIP3   OH2 8131   5.046   4.382   6.417
 2729TIP3    H1 8132   5.060   4.298   6.375
 2729TIP3    H2 8133   5.130   4.402   6.458
 2730TIP3   OH2 8134   4.648   2.653   1.196
 2730TIP3    H1 8135   4.728   2.636   1.147
 2730TIP3    H2 8136   4.579   2.613   1.143
 2731TIP3   OH2 8137   1.141   2.918   1.063
 2731TIP3    H1 8138   1.142   2.895   1.156
 2731TIP3    H2 8139   1.179   2.842   1.019
 2732TIP3   OH2 8140   4.240   1.197   1.378
 2732TIP3    H1 8141   4.209   1.280   1.342
 2732TIP3    H2 8142   4.209   1.131   1.317
 2733TIP3   OH2 8143   2.200   7.673   4.944
 2733TIP3    H1 8144   2.108   7.647   4.945
 2733TIP3    H2 8145   2.225   7.667   4.852
 2734TIP3   OH2 8146   7.817   3.663   2.409
 2734TIP3    H1 8147   7.875   3.737   2.430
 2734TIP3    H2 8148   7.818   3.659   2.313
 2735TIP3   OH2 8149   4.168   0.310   2.561
 2735TIP3    H1 8150   4.080   0.299   2.597
 2735TIP3    H2 8151   4.174   0.246   2.491
 2736TIP3   OH2 8152   2.271   6.182   3.663
 2736TIP3    H1 8153   2.310   6.163   3.748
 2736TIP3    H2 8154   2.197   6.239   3.683
 2737TIP3   OH2 8155   5.380   4.108   3.418
 2737TIP3    H1 8156   5.293   4.144   3.434
 2737TIP3    H2 8157   5.371   4.014   3.433
 2738TIP3   OH2 8158   6.102   1.747   2.821
 2738TIP3    H1 8159   6.030   1.809   2.831
 2738TIP3    H2 8160   6.063   1.662   2.842
 2739TIP3   OH2 8161   3.499   3.337   4.031
 2739TIP3    H1 8162   3.404   3.341   4.020
 2739TIP3    H2 8163   3.513   3.259   4.085
 2740TIP3   OH2 8164   7.044   3.263   1.498
 2740TIP3    H1 8165   7.038   3.350   1.459
 2740TIP3    H2 8166   6.988   3.208   1.444
 2741TIP3   OH2 8167   5.277   4.126   0.865
 2741TIP3    H1 8168   5.183   4.114   0.852
 2741TIP3    H2 8169   5.316   4.046   0.830
 2742TIP3   OH2 8170   4.565   3.353   5.321
 2742TIP3    H1 8171   4.471   3.366   5.328
 2742TIP3    H2 8172   4.576   3.257   5.323
 2743TIP3   OH2 8173   2.557   4.424   5.030
 2743TIP3    H1 8174   2.653   4.430   5.033
 2743TIP3    H2 8175   2.540   4.330   5.021
 2744TIP3   OH2 8176   3.401   4.689   0.550
 2744TIP3    H1 8177   3.434   4.713   0.463
 2744TIP3    H2 8178   3.381   4.772   0.592
 2745TIP3   OH2 8179   0.280   7.485   3.783
 2745TIP3    H1 8180   0.321   7.551   3.839
 2745TIP3    H2 8181   0.289   7.520   3.694
 2746TIP3   OH2 8182   4.003   6.083   4.615
 2746TIP3    H1 8183   3.916   6.070   4.579
 2746TIP3    H2 8184   4.016   6.178   4.615
 2747TIP3   OH2 8185   6.672   2.012   0.908
 2747TIP3    H1 8186   6.736   2.025   0.978
 2747TIP3    H2 8187   6.666   2.098   0.866
 2748TIP3   OH2 8188   4.131   7.082   0.965
 2748TIP3    H1 8189   4.182   7.086   0.884
 2748TIP3    H2 8190   4.128   6.989   0.987
 2749TIP3   OH2 8191   2.883   7.330   1.907
 2749TIP3    H1 8192   2.927   7.247   1.890
 2749TIP3    H2 8193   2.835   7.349   1.826
 2750TIP3   OH2 8194   1.316   3.197   5.178
 2750TIP3    H1 8195   1.379   3.130   5.150
 2750TIP3    H2 8196   1.367   3.278   5.181
 2751TIP3   OH2 8197   5.845   5.456   5.684
 2751TIP3    H1 8198   5.874   5.534   5.732
 2751TIP3    H2 8199   5.773   5.486   5.629
 2752TIP3   OH2 8200   8.032   4.289   5.784
 2752TIP3    H1 8201   7.976   4.245   5.720
 2752TIP3    H2 8202   7.972   4.349   5.830
 2753TIP3   OH2 8203   6.500   5.764   1.570
 2753TIP3    H1 8204   6.542   5.837   1.524
 2753TIP3    H2 8205   6.488   5.797   1.659
 2754TIP3   OH2 8206   1.920   7.035   5.606
 2754TIP3    H1 8207   1.900   7.114   5.655
 2754TIP3    H2 8208   1.993   6.995   5.653
 2755TIP3   OH2 8209   4.289   6.425   4.981
 2755TIP3    H1 8210   4.299   6.483   4.905
 2755TIP3    H2 8211   4.253   6.344   4.945
 2756TIP3   OH2 8212   0.108   1.949   1.636
 2756TIP3    H1 8213   0.150   2.023   1.680
 2756TIP3    H2 8214   0.140   1.953   1.546
 2757TIP3   OH2 8215   6.743   1.556   4.885
 2757TIP3    H1 8216   6.815   1.521   4.937
 2757TIP3    H2 8217   6.725   1.487   4.820
 2758TIP3   OH2 8218   5.111   5.546   0.737
 2758TIP3    H1 8219   5.196   5.504   0.721
 2758TIP3    H2 8220   5.052   5.474   0.758
 2759TIP3   OH2 8221   0.266   6.213   2.181
 2759TIP3    H1 8222   0.339   6.264   2.215
 2759TIP3    H2 8223   0.220   6.182   2.259
 2760TIP3   OH2 8224   2.673   5.595   1.832
 2760TIP3    H1 8225   2.686   5.620   1.740
 2760TIP3    H2 8226   2.623   5.513   1.828
 2761TIP3   OH2 8227   3.665   7.081   3.616
 2761TIP3    H1 8228   3.586   7.030   3.632
 2761TIP3    H2 8229   3.711   7.033   3.547
 2762TIP3   OH2 8230   7.982   2.076   1.860
 2762TIP3    H1 8231   7.942   2.163   1.853
 2762TIP3    H2 8232   7.924   2.020   1.808
 2763TIP3   OH2 8233   7.546   0.738   0.159
 2763TIP3    H1 8234   7.594   0.749   0.241
 2763TIP3    H2 8235   7.614   0.727   0.093
 2764TIP3   OH2 8236   0.303   5.937   1.127
 2764TIP3    H1 8237   0.303   5.883   1.047
 2764TIP3    H2 8238   0.329   6.024   1.097
 2765TIP3   OH2 8239   1.175   5.120   6.315
 2765TIP3    H1 8240   1.227   5.171   6.253
 2765TIP3    H2 8241   1.089   5.163   6.314
 2766TIP3   OH2 8242   2.583   0.374   2.440
 2766TIP3    H1 8243   2.588   0.450   2.382
 2766TIP3    H2 8244   2.490   0.354   2.446
 2767TIP3   OH2 8245   6.318   6.628   5.761
 2767TIP3    H1 8246   6.315   6.709   5.711
 2767TIP3    H2 8247   6.391   6.640   5.822
 2768TIP3   OH2 8248   0.929   3.298   5.730
 2768TIP3    H1 8249   0.934   3.389   5.703
 2768TIP3    H2 8250   0.982   3.294   5.810
 2769TIP3   OH2 8251   7.219   6.515   5.829
 2769TIP3    H1 8252   7.279   6.587   5.848
 2769TIP3    H2 8253   7.143   6.556   5.788
 2770TIP3   OH2 8254   6.137   6.106   1.525
 2770TIP3    H1 8255   6.191   6.028   1.510
 2770TIP3    H2 8256   6.152   6.160   1.448
 2771TIP3   OH2 8257   0.109   4.275   0.587
 2771TIP3    H1 8258   0.054   4.196   0.586
 2771TIP3    H2 8259   0.168   4.262   0.661
 2772TIP3   OH2 8260   7.876   7.383   5.890
 2772TIP3    H1 8261   7.933   7.323   5.841
 2772TIP3    H2 8262   7.863   7.458   5.832
 2773TIP3   OH2 8263   6.991   5.068   4.212
 2773TIP3    H1 8264   6.927   5.065   4.283
 2773TIP3    H2 8265   7.003   5.162   4.195
 2774TIP3   OH2 8266   2.442   7.745   5.613
 2774TIP3    H1 8267   2.399   7.748   5.528
 2774TIP3    H2 8268   2.534   7.726   5.594
 2775TIP3   OH2 8269   4.392   6.814   1.200
 2775TIP3    H1 8270   4.448   6.763   1.259
 2775TIP3    H2 8271   4.437   6.898   1.193
 2776TIP3   OH2 8272   3.520   6.707   5.732
 2776TIP3    H1 8273   3.540   6.662   5.650
 2776TIP3    H2 8274   3.551   6.647   5.800
 2777TIP3   OH2 8275   7.028   3.662   6.299
 2777TIP3    H1 8276   6.976   3.606   6.242
 2777TIP3    H2 8277   6.965   3.718   6.343
 2778TIP3   OH2 8278   1.074   4.748   0.280
 2778TIP3    H1 8279   1.162   4.786   0.274
 2778TIP3    H2 8280   1.086   4.656   0.257
 2779TIP3   OH2 8281   3.270   0.039   2.785
 2779TIP3    H1 8282   3.261   0.087   2.702
 2779TIP3    H2 8283   3.192  -0.017   2.788
 2780TIP3   OH2 8284   7.636   3.552   4.800
 2780TIP3    H1 8285   7.704   3.521   4.740
 2780TIP3    H2 8286   7.683   3.578   4.879
 2781TIP3   OH2 8287   5.005   3.157   3.996
 2781TIP3    H1 8288   4.985   3.089   4.060
 2781TIP3    H2 8289   4.919   3.183   3.961
 2782TIP3   OH2 8290   4.983   3.209   6.716
 2782TIP3    H1 8291   4.949   3.174   6.798
 2782TIP3    H2 8292   4.998   3.131   6.661
 2783TIP3   OH2 8293   4.580   4.431   6.428
 2783TIP3    H1 8294   4.660   4.448   6.379
 2783TIP3    H2 8295   4.591   4.478   6.510
 2784TIP3   OH2 8296   3.121   3.341   4.446
 2784TIP3    H1 8297   3.041   3.368   4.400
 2784TIP3    H2 8298   3.105   3.364   4.537
 2785TIP3   OH2 8299   6.519   3.893   5.465
 2785TIP3    H1 8300   6.482   3.881   5.378
 2785TIP3    H2 8301   6.467   3.962   5.505
 2786TIP3   OH2 8302   7.686   1.464   0.568
 2786TIP3    H1 8303   7.705   1.527   0.638
 2786TIP3    H2 8304   7.630   1.399   0.610
 2787TIP3   OH2 8305   6.846   1.129   3.634
 2787TIP3    H1 8306   6.861   1.115   3.540
 2787TIP3    H2 8307   6.901   1.204   3.656
 2788TIP3   OH2 8308   1.304   0.245   5.433
 2788TIP3    H1 8309   1.258   0.163   5.453
 2788TIP3    H2 8310   1.241   0.313   5.455
 2789TIP3   OH2 8311   2.968   3.918   6.005
 2789TIP3    H1 8312   3.063   3.911   6.015
 2789TIP3    H2 8313   2.954   3.949   5.916
 2790TIP3   OH2 8314   2.483   3.941   6.571
 2790TIP3    H1 8315   2.502   3.949   6.664
 2790TIP3    H2 8316   2.480   4.032   6.539
 2791TIP3   OH2 8317   4.052   4.392   2.136
 2791TIP3    H1 8318   4.017   4.397   2.225
 2791TIP3    H2 8319   4.141   4.360   2.148
 2792TIP3   OH2 8320   1.601   3.954   4.000
 2792TIP3    H1 8321   1.636   3.878   3.954
 2792TIP3    H2 8322   1.556   4.005   3.932
 2793TIP3   OH2 8323   1.921   7.610   3.935
 2793TIP3    H1 8324   1.961   7.697   3.928
 2793TIP3    H2 8325   1.882   7.609   4.022
 2794TIP3   OH2 8326   7.314   0.414   1.958
 2794TIP3    H1 8327   7.293   0.392   1.868
 2794TIP3    H2 8328   7.405   0.387   1.970
 2795TIP3   OH2 8329   5.388   4.223   2.056
 2795TIP3    H1 8330   5.405   4.221   1.961
 2795TIP3    H2 8331   5.294   4.204   2.063
 2796TIP3   OH2 8332   1.618   7.646   0.590
 2796TIP3    H1 8333   1.525   7.671   0.597
 2796TIP3    H2 8334   1.662   7.727   0.563
 2797TIP3   OH2 8335   2.453   5.029   5.065
 2797TIP3    H1 8336   2.543   5.002   5.043
 2797TIP3    H2 8337   2.416   4.953   5.110
 2798TIP3   OH2 8338   2.691   7.200   1.555
 2798TIP3    H1 8339   2.683   7.108   1.528
 2798TIP3    H2 8340   2.785   7.211   1.572
 2799TIP3   OH2 8341   4.574   4.402   2.881
 2799TIP3    H1 8342   4.551   4.402   2.974
 2799TIP3    H2 8343   4.630   4.325   2.870
 2800TIP3   OH2 8344   5.563   2.897   2.501
 2800TIP3    H1 8345   5.643   2.936   2.466
 2800TIP3    H2 8346   5.569   2.909   2.596
 2801TIP3   OH2 8347   3.381   0.979   0.437
 2801TIP3    H1 8348   3.420   0.921   0.372
 2801TIP3    H2 8349   3.292   0.944   0.451
 2802TIP3   OH2 8350   0.919   0.312   3.564
 2802TIP3    H1 8351   0.937   0.340   3.654
 2802TIP3    H2 8352   0.880   0.388   3.522
 2803TIP3   OH2 8353   5.564   5.117   1.593
 2803TIP3    H1 8354   5.555   5.154   1.504
 2803TIP3    H2 8355   5.479   5.079   1.611
 2804TIP3   OH2 8356   7.760   4.440   3.957
 2804TIP3    H1 8357   7.829   4.425   4.022
 2804TIP3    H2 8358   7.741   4.533   3.963
 2805TIP3   OH2 8359   0.140   0.442   6.117
 2805TIP3    H1 8360   0.177   0.384   6.051
 2805TIP3    H2 8361   0.172   0.406   6.200
 2806TIP3   OH2 8362   7.920   1.145   4.281
 2806TIP3    H1 8363   7.978   1.222   4.285
 2806TIP3    H2 8364   7.972   1.079   4.236
 2807TIP3   OH2 8365   1.554   5.113   5.379
 2807TIP3    H1 8366   1.521   5.201   5.363
 2807TIP3    H2 8367   1.643   5.114   5.343
 2808TIP3   OH2 8368   0.524   6.368   0.995
 2808TIP3    H1 8369   0.489   6.417   0.921
 2808TIP3    H2 8370   0.598   6.421   1.026
 2809TIP3   OH2 8371   5.123   6.140   0.602
 2809TIP3    H1 8372   5.116   6.213   0.539
 2809TIP3    H2 8373   5.155   6.181   0.682
 2810TIP3   OH2 8374   4.687   3.524   6.434
 2810TIP3    H1 8375   4.683   3.482   6.348
 2810TIP3    H2 8376   4.774   3.563   6.438
 2811TIP3   OH2 8377   2.747   7.548   4.906
 2811TIP3    H1 8378   2.669   7.581   4.952
 2811TIP3    H2 8379   2.712   7.501   4.830
 2812TIP3   OH2 8380   1.036   3.875   2.752
 2812TIP3    H1 8381   0.991   3.945   2.705
 2812TIP3    H2 8382   1.063   3.915   2.834
 2813TIP3   OH2 8383   5.417   7.532   2.887
 2813TIP3    H1 8384   5.504   7.573   2.885
 2813TIP3    H2 8385   5.426   7.460   2.949
 2814TIP3   OH2 8386   3.687   0.920   3.774
 2814TIP3    H1 8387   3.765   0.970   3.800
 2814TIP3    H2 8388   3.713   0.829   3.783
 2815TIP3   OH2 8389   6.280   2.012   1.386
 2815TIP3    H1 8390   6.331   2.088   1.412
 2815TIP3    H2 8391   6.189   2.036   1.404
 2816TIP3   OH2 8392   0.664   4.513   5.570
 2816TIP3    H1 8393   0.672   4.588   5.628
 2816TIP3    H2 8394   0.601   4.456   5.613
 2817TIP3   OH2 8395   7.075   7.763   5.879
 2817TIP3    H1 8396   7.105   7.754   5.969
 2817TIP3    H2 8397   7.002   7.701   5.872
 2818TIP3   OH2 8398   5.851   2.434   4.060
 2818TIP3    H1 8399   5.893   2.518   4.076
 2818TIP3    H2 8400   5.767   2.456   4.021
 2819TIP3   OH2 8401   1.914   0.388   1.068
 2819TIP3    H1 8402   1.949   0.476   1.083
 2819TIP3    H2 8403   1.840   0.381   1.130
 2820TIP3   OH2 8404   4.698   7.444   0.304
 2820TIP3    H1 8405   4.792   7.454   0.286
 2820TIP3    H2 8406   4.663   7.533   0.302
 2821TIP3   OH2 8407   8.072   5.731   6.573
 2821TIP3    H1 8408   8.068   5.647   6.527
 2821TIP3    H2 8409   7.983   5.744   6.607
 2822TIP3   OH2 8410   6.965   6.679   0.372
 2822TIP3    H1 8411   6.889   6.723   0.409
 2822TIP3    H2 8412   7.027   6.749   0.355
 2823TIP3   OH2 8413   3.675   1.807   6.107
 2823TIP3    H1 8414   3.614   1.878   6.129
 2823TIP3    H2 8415   3.706   1.776   6.192
 2824TIP3   OH2 8416   4.003   4.353   1.850
 2824TIP3    H1 8417   4.020   4.260   1.838
 2824TIP3    H2 8418   4.019   4.369   1.943
 2825TIP3   OH2 8419   7.187   1.751   0.183
 2825TIP3    H1 8420   7.160   1.824   0.238
 2825TIP3    H2 8421   7.131   1.678   0.211
 2826TIP3   OH2 8422   1.360   2.200   6.450
 2826TIP3    H1 8423   1.289   2.137   6.439
 2826TIP3    H2 8424   1.322   2.284   6.425
 2827TIP3   OH2 8425   4.433   1.341   3.194
 2827TIP3    H1 8426   4.436   1.437   3.193
 2827TIP3    H2 8427   4.403   1.318   3.106
 2828TIP3   OH2 8428   7.462   2.852   1.544
 2828TIP3    H1 8429   7.443   2.874   1.635
 2828TIP3    H2 8430   7.522   2.921   1.515
 2829TIP3   OH2 8431   3.987   1.086   5.976
 2829TIP3    H1 8432   4.056   1.148   5.999
 2829TIP3    H2 8433   4.032   1.017   5.928
 2830TIP3   OH2 8434   1.455   0.197   4.041
 2830TIP3    H1 8435   1.529   0.138   4.029
 2830TIP3    H2 8436   1.391   0.145   4.089
 2831TIP3   OH2 8437   2.643   2.429   3.539
 2831TIP3    H1 8438   2.734   2.403   3.556
 2831TIP3    H2 8439   2.591   2.357   3.575
 2832TIP3   OH2 8440   5.016   1.182   5.884
 2832TIP3    H1 8441   4.936   1.234   5.886
 2832TIP3    H2 8442   4.996   1.105   5.937
 2833TIP3   OH2 8443   4.206   1.003   2.271
 2833TIP3    H1 8444   4.224   0.989   2.364
 2833TIP3    H2 8445   4.158   0.926   2.243
 2834TIP3   OH2 8446   1.098   2.326   5.508
 2834TIP3    H1 8447   1.183   2.368   5.516
 2834TIP3    H2 8448   1.055   2.342   5.593
 2835TIP3   OH2 8449   4.158   6.149   0.528
 2835TIP3    H1 8450   4.153   6.168   0.434
 2835TIP3    H2 8451   4.086   6.088   0.544
 2836TIP3   OH2 8452   5.736   4.509   0.522
 2836TIP3    H1 8453   5.763   4.564   0.448
 2836TIP3    H2 8454   5.817   4.466   0.550
 2837TIP3   OH2 8455   7.737   2.887   1.360
 2837TIP3    H1 8456   7.700   2.941   1.290
 2837TIP3    H2 8457   7.729   2.940   1.439
 2838TIP3   OH2 8458   2.520   3.584   2.985
 2838TIP3    H1 8459   2.458   3.517   3.014
 2838TIP3    H2 8460   2.494   3.603   2.894
 2839TIP3   OH2 8461   7.566   6.808   0.938
 2839TIP3    H1 8462   7.597   6.836   0.852
 2839TIP3    H2 8463   7.496   6.869   0.959
 2840TIP3   OH2 8464   0.499   6.014   0.167
 2840TIP3    H1 8465   0.591   5.992   0.185
 2840TIP3    H2 8466   0.452   5.931   0.175
 2841TIP3   OH2 8467   2.827   1.246   4.898
 2841TIP3    H1 8468   2.787   1.332   4.886
 2841TIP3    H2 8469   2.803   1.222   4.988
 2842TIP3   OH2 8470   0.102   4.779   2.602
 2842TIP3    H1 8471   0.069   4.808   2.686
 2842TIP3    H2 8472   0.050   4.701   2.582
 2843TIP3   OH2 8473   0.954   3.598   2.092
 2843TIP3    H1 8474   0.894   3.670   2.073
 2843TIP3    H2 8475   0.986   3.615   2.180
 2844TIP3   OH2 8476   2.163   5.826   6.600
 2844TIP3    H1 8477   2.205   5.912   6.590
 2844TIP3    H2 8478   2.202   5.772   6.531
 2845TIP3   OH2 8479   0.474   6.004   4.608
 2845TIP3    H1 8480   0.460   5.966   4.522
 2845TIP3    H2 8481   0.514   6.089   4.591
 2846TIP3   OH2 8482   4.505   6.184   1.653
 2846TIP3    H1 8483   4.467   6.177   1.741
 2846TIP3    H2 8484   4.434   6.159   1.594
 2847TIP3   OH2 8485   2.683   3.551   4.603
 2847TIP3    H1 8486   2.746   3.617   4.574
 2847TIP3    H2 8487   2.735   3.486   4.650
 2848TIP3   OH2 8488   4.251   3.087   3.459
 2848TIP3    H1 8489   4.266   3.162   3.516
 2848TIP3    H2 8490   4.256   3.011   3.516
 2849TIP3   OH2 8491   6.699   1.400   0.110
 2849TIP3    H1 8492   6.745   1.432   0.032
 2849TIP3    H2 8493   6.747   1.320   0.134
 2850TIP3   OH2 8494   2.278   7.567   6.753
 2850TIP3    H1 8495   2.188   7.591   6.777
 2850TIP3    H2 8496   2.296   7.487   6.802
 2851TIP3   OH2 8497   6.452   5.603   4.751
 2851TIP3    H1 8498   6.422   5.513   4.734
 2851TIP3    H2 8499   6.468   5.639   4.664
 2852TIP3   OH2 8500   7.093   3.988   2.813
 2852TIP3    H1 8501   7.100   4.083   2.803
 2852TIP3    H2 8502   7.101   3.973   2.907
 2853TIP3   OH2 8503   4.262   2.248   3.127
 2853TIP3    H1 8504   4.239   2.328   3.175
 2853TIP3    H2 8505   4.262   2.275   3.035
 2854TIP3   OH2 8506   6.951   4.972   3.016
 2854TIP3    H1 8507   6.991   4.920   3.085
 2854TIP3    H2 8508   6.865   4.932   3.003
 2855TIP3   OH2 8509   1.461   0.589   2.445
 2855TIP3    H1 8510   1.454   0.523   2.376
 2855TIP3    H2 8511   1.428   0.670   2.405
 2856TIP3   OH2 8512   5.952   6.030   6.409
 2856TIP3    H1 8513   6.037   6.029   6.453
 2856TIP3    H2 8514   5.961   5.966   6.339
 2857TIP3   OH2 8515   1.052   0.732   5.406
 2857TIP3    H1 8516   0.960   0.754   5.420
 2857TIP3    H2 8517   1.049   0.655   5.349
 2858TIP3   OH2 8518   6.271   5.289   0.601
 2858TIP3    H1 8519   6.219   5.370   0.595
 2858TIP3    H2 8520   6.335   5.296   0.530
 2859TIP3   OH2 8521   0.008   2.677   2.085
 2859TIP3    H1 8522   0.071   2.630   2.139
 2859TIP3    H2 8523   0.060   2.713   2.013
 2860TIP3   OH2 8524   5.824   2.375   4.970
 2860TIP3    H1 8525   5.743   2.424   4.984
 2860TIP3    H2 8526   5.808   2.289   5.009
 2861TIP3   OH2 8527   2.028   1.168   4.569
 2861TIP3    H1 8528   2.113   1.207   4.545
 2861TIP3    H2 8529   2.030   1.081   4.529
 2862TIP3   OH2 8530   8.238   5.199   1.270
 2862TIP3    H1 8531   8.251   5.293   1.260
 2862TIP3    H2 8532   8.238   5.165   1.180
 2863TIP3   OH2 8533   7.010   7.631   4.621
 2863TIP3    H1 8534   7.010   7.726   4.634
 2863TIP3    H2 8535   7.027   7.595   4.707
 2864TIP3   OH2 8536   1.120   4.542   4.174
 2864TIP3    H1 8537   1.080   4.470   4.223
 2864TIP3    H2 8538   1.176   4.498   4.109
 2865TIP3   OH2 8539   1.275   3.543   3.888
 2865TIP3    H1 8540   1.199   3.487   3.871
 2865TIP3    H2 8541   1.329   3.535   3.809
 2866TIP3   OH2 8542   0.153   2.931   6.041
 2866TIP3    H1 8543   0.164   2.997   5.973
 2866TIP3    H2 8544   0.236   2.882   6.041
 2867TIP3   OH2 8545   4.156   3.716   3.221
 2867TIP3    H1 8546   4.079   3.704   3.276
 2867TIP3    H2 8547   4.137   3.664   3.142
 2868TIP3   OH2 8548   0.836   7.412   3.690
 2868TIP3    H1 8549   0.799   7.381   3.608
 2868TIP3    H2 8550   0.798   7.499   3.702
 2869TIP3   OH2 8551   4.243   7.767   1.696
 2869TIP3    H1 8552   4.221   7.692   1.641
 2869TIP3    H2 8553   4.194   7.752   1.777
 2870TIP3   OH2 8554   3.326   1.413   4.107
 2870TIP3    H1 8555   3.416   1.423   4.079
 2870TIP3    H2 8556   3.319   1.466   4.186
 2871TIP3   OH2 8557   1.549   0.870   6.400
 2871TIP3    H1 8558   1.521   0.887   6.490
 2871TIP3    H2 8559   1.635   0.912   6.393
 2872TIP3   OH2 8560   3.946   5.431   6.772
 2872TIP3    H1 8561   3.972   5.419   6.680
 2872TIP3    H2 8562   4.029   5.439   6.819
 2873TIP3   OH2 8563   8.068   7.162   1.055
 2873TIP3    H1 8564   8.150   7.151   1.102
 2873TIP3    H2 8565   8.017   7.083   1.075
 2874TIP3   OH2 8566   0.217   7.720   5.153
 2874TIP3    H1 8567   0.123   7.736   5.158
 2874TIP3    H2 8568   0.252   7.763   5.231
 2875TIP3   OH2 8569   7.426   3.431   0.010
 2875TIP3    H1 8570   7.439   3.495  -0.059
 2875TIP3    H2 8571   7.456   3.348  -0.028
 2876TIP3   OH2 8572   6.277   6.187   1.747
 2876TIP3    H1 8573   6.233   6.197   1.831
 2876TIP3    H2 8574   6.206   6.175   1.684
 2877TIP3   OH2 8575   5.036   0.075   5.759
 2877TIP3    H1 8576   4.954   0.057   5.712
 2877TIP3    H2 8577   5.104   0.051   5.697
 2878TIP3   OH2 8578   4.013   0.578   5.239
 2878TIP3    H1 8579   3.925   0.545   5.256
 2878TIP3    H2 8580   4.048   0.598   5.326
 2879TIP3   OH2 8581   6.750   3.240   3.030
 2879TIP3    H1 8582   6.690   3.165   3.033
 2879TIP3    H2 8583   6.720   3.292   2.956
 2880TIP3   OH2 8584   0.981   7.529   4.454
 2880TIP3    H1 8585   0.915   7.468   4.422
 2880TIP3    H2 8586   0.932   7.611   4.469
 2881TIP3   OH2 8587   5.225   3.406   0.715
 2881TIP3    H1 8588   5.170   3.336   0.679
 2881TIP3    H2 8589   5.181   3.487   0.689
 2882TIP3   OH2 8590   7.631   2.481   4.601
 2882TIP3    H1 8591   7.537   2.471   4.584
 2882TIP3    H2 8592   7.663   2.532   4.526
 2883TIP3   OH2 8593   2.546   6.497   5.390
 2883TIP3    H1 8594   2.554   6.570   5.328
 2883TIP3    H2 8595   2.457   6.502   5.423
 2884TIP3   OH2 8596   3.964   5.843   4.746
 2884TIP3    H1 8597   3.970   5.913   4.681
 2884TIP3    H2 8598   3.942   5.765   4.694
 2885TIP3   OH2 8599   2.766   6.623   1.108
 2885TIP3    H1 8600   2.716   6.586   1.035
 2885TIP3    H2 8601   2.779   6.715   1.084
 2886TIP3   OH2 8602   3.626   6.686   3.907
 2886TIP3    H1 8603   3.601   6.728   3.989
 2886TIP3    H2 8604   3.595   6.596   3.915
 2887TIP3   OH2 8605   0.660   4.876   6.058
 2887TIP3    H1 8606   0.594   4.870   5.989
 2887TIP3    H2 8607   0.721   4.805   6.039
 2888TIP3   OH2 8608   7.513   0.148   3.296
 2888TIP3    H1 8609   7.515   0.069   3.350
 2888TIP3    H2 8610   7.421   0.163   3.278
 2889TIP3   OH2 8611   7.758   0.819   1.929
 2889TIP3    H1 8612   7.765   0.913   1.946
 2889TIP3    H2 8613   7.677   0.792   1.974
 2890TIP3   OH2 8614   7.775   4.251   0.795
 2890TIP3    H1 8615   7.828   4.281   0.720
 2890TIP3    H2 8616   7.839   4.234   0.864
 2891TIP3   OH2 8617   5.593   6.781   0.784
 2891TIP3    H1 8618   5.536   6.704   0.785
 2891TIP3    H2 8619   5.556   6.839   0.850
 2892TIP3   OH2 8620   2.196   7.212   0.333
 2892TIP3    H1 8621   2.148   7.136   0.366
 2892TIP3    H2 8622   2.209   7.268   0.410
 2893TIP3   OH2 8623   3.494   2.347   3.001
 2893TIP3    H1 8624   3.431   2.307   3.061
 2893TIP3    H2 8625   3.441   2.403   2.944
 2894TIP3   OH2 8626   8.076   2.978   6.230
 2894TIP3    H1 8627   7.990   3.021   6.223
 2894TIP3    H2 8628   8.056   2.885   6.229
 2895TIP3   OH2 8629   2.468   7.022   1.951
 2895TIP3    H1 8630   2.532   6.951   1.959
 2895TIP3    H2 8631   2.508   7.096   1.997
 2896TIP3   OH2 8632   0.559   7.114   5.330
 2896TIP3    H1 8633   0.630   7.117   5.393
 2896TIP3    H2 8634   0.584   7.045   5.268
 2897TIP3   OH2 8635   2.596   0.692   3.856
 2897TIP3    H1 8636   2.634   0.667   3.940
 2897TIP3    H2 8637   2.516   0.739   3.880
 2898TIP3   OH2 8638   3.766   0.323   0.645
 2898TIP3    H1 8639   3.705   0.362   0.707
 2898TIP3    H2 8640   3.770   0.385   0.573
 2899TIP3   OH2 8641   8.005   6.266   3.292
 2899TIP3    H1 8642   7.978   6.241   3.381
 2899TIP3    H2 8643   8.081   6.211   3.274
 2900TIP3   OH2 8644   7.709   2.302   3.465
 2900TIP3    H1 8645   7.723   2.318   3.558
 2900TIP3    H2 8646   7.796   2.307   3.426
 2901TIP3   OH2 8647   0.362   5.528   6.300
 2901TIP3    H1 8648   0.362   5.472   6.378
 2901TIP3    H2 8649   0.434   5.589   6.314
 2902TIP3   OH2 8650   0.962   7.609   1.172
 2902TIP3    H1 8651   1.011   7.562   1.104
 2902TIP3    H2 8652   0.961   7.700   1.143
 2903TIP3   OH2 8653   5.924   6.491   2.447
 2903TIP3    H1 8654   5.940   6.583   2.470
 2903TIP3    H2 8655   6.002   6.445   2.478
 2904TIP3   OH2 8656   0.836   7.779   2.629
 2904TIP3    H1 8657   0.784   7.823   2.696
 2904TIP3    H2 8658   0.775   7.718   2.587
 2905TIP3   OH2 8659   8.131   4.251   3.714
 2905TIP3    H1 8660   8.204   4.311   3.729
 2905TIP3    H2 8661   8.115   4.211   3.799
 2906TIP3   OH2 8662   3.014   5.212   2.811
 2906TIP3    H1 8663   3.018   5.202   2.906
 2906TIP3    H2 8664   3.102   5.239   2.786
 2907TIP3   OH2 8665   6.534   6.271   3.223
 2907TIP3    H1 8666   6.449   6.299   3.257
 2907TIP3    H2 8667   6.587   6.255   3.301
 2908TIP3   OH2 8668   4.586   5.262   3.958
 2908TIP3    H1 8669   4.664   5.273   4.012
 2908TIP3    H2 8670   4.577   5.346   3.912
 2909TIP3   OH2 8671   0.160   1.348   4.853
 2909TIP3    H1 8672   0.168   1.384   4.941
 2909TIP3    H2 8673   0.069   1.318   4.847
 2910TIP3   OH2 8674   3.577   4.876   4.597
 2910TIP3    H1 8675   3.567   4.890   4.692
 2910TIP3    H2 8676   3.490   4.850   4.568
 2911TIP3   OH2 8677   6.004   6.507   1.630
 2911TIP3    H1 8678   6.044   6.593   1.643
 2911TIP3    H2 8679   6.033   6.479   1.543
 2912TIP3   OH2 8680   1.162   6.561   6.453
 2912TIP3    H1 8681   1.208   6.589   6.374
 2912TIP3    H2 8682   1.179   6.467   6.459
 2913TIP3   OH2 8683   3.582   3.456   3.390
 2913TIP3    H1 8684   3.547   3.539   3.423
 2913TIP3    H2 8685   3.539   3.389   3.444
 2914TIP3   OH2 8686   3.956   0.568   0.733
 2914TIP3    H1 8687   3.890   0.628   0.699
 2914TIP3    H2 8688   3.981   0.514   0.658
 2915TIP3   OH2 8689   7.705   1.591   2.613
 2915TIP3    H1 8690   7.698   1.598   2.518
 2915TIP3    H2 8691   7.759   1.666   2.638
 2916TIP3   OH2 8692   0.154   6.852   4.432
 2916TIP3    H1 8693   0.183   6.782   4.372
 2916TIP3    H2 8694   0.235   6.881   4.475
 2917TIP3   OH2 8695   6.238   3.439   2.553
 2917TIP3    H1 8696   6.249   3.389   2.472
 2917TIP3    H2 8697   6.312   3.413   2.608
 2918TIP3   OH2 8698   4.466   7.725   5.321
 2918TIP3    H1 8699   4.407   7.729   5.246
 2918TIP3    H2 8700   4.549   7.695   5.285
 2919TIP3   OH2 8701   3.708   5.345   1.345
 2919TIP3    H1 8702   3.677   5.342   1.435
 2919TIP3    H2 8703   3.638   5.391   1.297
 2920TIP3   OH2 8704   6.609   1.685   3.895
 2920TIP3    H1 8705   6.690   1.723   3.928
 2920TIP3    H2 8706   6.547   1.691   3.968
 2921TIP3   OH2 8707   2.073   3.247   4.201
 2921TIP3    H1 8708   2.122   3.199   4.268
 2921TIP3    H2 8709   1.983   3.246   4.232
 2922TIP3   OH2 8710   5.732   0.856   2.197
 2922TIP3    H1 8711   5.686   0.804   2.132
 2922TIP3    H2 8712   5.670   0.924   2.222
 2923TIP3   OH2 8713   7.508   0.368   5.908
 2923TIP3    H1 8714   7.421   0.349   5.872
 2923TIP3    H2 8715   7.558   0.288   5.893
 2924TIP3   OH2 8716   8.038   2.824   4.265
 2924TIP3    H1 8717   7.993   2.894   4.217
 2924TIP3    H2 8718   7.974   2.754   4.272
 2925TIP3   OH2 8719   3.393   4.718   5.623
 2925TIP3    H1 8720   3.304   4.703   5.655
 2925TIP3    H2 8721   3.430   4.630   5.615
 2926TIP3   OH2 8722   0.645   7.336   1.459
 2926TIP3    H1 8723   0.740   7.328   1.468
 2926TIP3    H2 8724   0.629   7.326   1.365
 2927TIP3   OH2 8725   2.868   5.554   2.027
 2927TIP3    H1 8726   2.831   5.477   1.985
 2927TIP3    H2 8727   2.832   5.628   1.977
 2928TIP3   OH2 8728   4.218   7.590   5.490
 2928TIP3    H1 8729   4.166   7.556   5.563
 2928TIP3    H2 8730   4.285   7.645   5.532
 2929TIP3   OH2 8731   1.133   1.484   1.673
 2929TIP3    H1 8732   1.113   1.450   1.760
 2929TIP3    H2 8733   1.185   1.563   1.690
 2930TIP3   OH2 8734   2.807   0.538   0.964
 2930TIP3    H1 8735   2.723   0.492   0.970
 2930TIP3    H2 8736   2.864   0.492   1.026
 2931TIP3   OH2 8737   7.149   4.199   3.269
 2931TIP3    H1 8738   7.243   4.207   3.286
 2931TIP3    H2 8739   7.108   4.248   3.341
 2932TIP3   OH2 8740   5.427   4.450   2.679
 2932TIP3    H1 8741   5.495   4.397   2.721
 2932TIP3    H2 8742   5.471   4.489   2.603
 2933TIP3   OH2 8743   6.517   3.533   4.110
 2933TIP3    H1 8744   6.542   3.444   4.135
 2933TIP3    H2 8745   6.422   3.533   4.112
 2934TIP3   OH2 8746   7.014   4.518   1.992
 2934TIP3    H1 8747   6.982   4.600   2.031
 2934TIP3    H2 8748   7.089   4.544   1.939
 2935TIP3   OH2 8749   7.869   7.133   6.115
 2935TIP3    H1 8750   7.827   7.086   6.187
 2935TIP3    H2 8751   7.829   7.220   6.117
 2936TIP3   OH2 8752   5.315   7.772   5.741
 2936TIP3    H1 8753   5.330   7.866   5.735
 2936TIP3    H2 8754   5.385   7.733   5.687
 2937TIP3   OH2 8755   1.025   4.313   5.828
 2937TIP3    H1 8756   0.967   4.364   5.772
 2937TIP3    H2 8757   1.000   4.222   5.812
 2938TIP3   OH2 8758   1.753   1.296   4.226
 2938TIP3    H1 8759   1.657   1.299   4.225
 2938TIP3    H2 8760   1.774   1.210   4.190
 2939TIP3   OH2 8761   2.506   5.580   6.741
 2939TIP3    H1 8762   2.532   5.534   6.661
 2939TIP3    H2 8763   2.588   5.616   6.776
 2940TIP3   OH2 8764   2.511   2.103   6.141
 2940TIP3    H1 8765   2.481   2.086   6.051
 2940TIP3    H2 8766   2.540   2.195   6.139
 2941TIP3   OH2 8767   0.718   3.304   0.683
 2941TIP3    H1 8768   0.785   3.279   0.747
 2941TIP3    H2 8769   0.749   3.388   0.648
 2942TIP3   OH2 8770   0.531   6.100   0.951
 2942TIP3    H1 8771   0.500   6.078   0.863
 2942TIP3    H2 8772   0.510   6.193   0.961
 2943TIP3   OH2 8773   0.457   1.796   3.299
 2943TIP3    H1 8774   0.482   1.720   3.351
 2943TIP3    H2 8775   0.530   1.810   3.239
 2944TIP3   OH2 8776   6.417   0.434   6.326
 2944TIP3    H1 8777   6.422   0.529   6.340
 2944TIP3    H2 8778   6.496   0.414   6.276
 2945TIP3   OH2 8779   5.214   5.010   6.136
 2945TIP3    H1 8780   5.154   4.980   6.203
 2945TIP3    H2 8781   5.236   4.931   6.087
 2946TIP3   OH2 8782   3.667   5.292   4.491
 2946TIP3    H1 8783   3.638   5.341   4.567
 2946TIP3    H2 8784   3.762   5.291   4.498
 2947TIP3   OH2 8785   0.750   5.965   4.401
 2947TIP3    H1 8786   0.708   6.038   4.355
 2947TIP3    H2 8787   0.678   5.910   4.430
 2948TIP3   OH2 8788   6.982   1.368   3.221
 2948TIP3    H1 8789   6.899   1.414   3.213
 2948TIP3    H2 8790   7.041   1.415   3.161
 2949TIP3   OH2 8791   4.329   3.386   3.555
 2949TIP3    H1 8792   4.290   3.449   3.615
 2949TIP3    H2 8793   4.416   3.369   3.592
 2950TIP3   OH2 8794   3.934   4.145   4.049
 2950TIP3    H1 8795   3.875   4.078   4.084
 2950TIP3    H2 8796   3.912   4.151   3.956
 2951TIP3   OH2 8797   5.604   7.549   4.946
 2951TIP3    H1 8798   5.541   7.528   5.015
 2951TIP3    H2 8799   5.666   7.477   4.947
 2952TIP3   OH2 8800   8.255   1.319   5.967
 2952TIP3    H1 8801   8.249   1.306   6.062
 2952TIP3    H2 8802   8.342   1.286   5.945
 2953TIP3   OH2 8803   4.771   6.942   3.305
 2953TIP3    H1 8804   4.847   6.971   3.254
 2953TIP3    H2 8805   4.807   6.912   3.388
 2954TIP3   OH2 8806   5.895   4.952   6.213
 2954TIP3    H1 8807   5.822   5.000   6.174
 2954TIP3    H2 8808   5.899   4.870   6.163
 2955TIP3   OH2 8809   7.904   6.580   6.366
 2955TIP3    H1 8810   7.819   6.536   6.367
 2955TIP3    H2 8811   7.961   6.520   6.318
 2956TIP3   OH2 8812   6.507   4.630   3.263
 2956TIP3    H1 8813   6.444   4.694   3.298
 2956TIP3    H2 8814   6.454   4.573   3.207
 2957TIP3   OH2 8815   4.940   6.592   5.978
 2957TIP3    H1 8816   4.985   6.659   5.926
 2957TIP3    H2 8817   4.855   6.631   5.998
 2958TIP3   OH2 8818   7.387   3.604   2.740
 2958TIP3    H1 8819   7.425   3.616   2.827
 2958TIP3    H2 8820   7.461   3.608   2.680
 2959TIP3   OH2 8821   3.136   6.969   4.621
 2959TIP3    H1 8822   3.094   7.054   4.614
 2959TIP3    H2 8823   3.227   6.984   4.595
 2960TIP3   OH2 8824   1.277   4.371   3.321
 2960TIP3    H1 8825   1.288   4.276   3.321
 2960TIP3    H2 8826   1.201   4.386   3.265
 2961TIP3   OH2 8827   1.279   5.162   4.447
 2961TIP3    H1 8828   1.299   5.093   4.383
 2961TIP3    H2 8829   1.283   5.117   4.532
 2962TIP3   OH2 8830   6.291   5.745   0.443
 2962TIP3    H1 8831   6.208   5.772   0.483
 2962TIP3    H2 8832   6.265   5.695   0.365
 2963TIP3   OH2 8833   5.293   3.402   0.984
 2963TIP3    H1 8834   5.268   3.405   0.891
 2963TIP3    H2 8835   5.331   3.315   0.996
 2964TIP3   OH2 8836   5.597   4.963   3.718
 2964TIP3    H1 8837   5.679   4.977   3.670
 2964TIP3    H2 8838   5.622   4.913   3.796
 2965TIP3   OH2 8839   7.316   7.166   5.738
 2965TIP3    H1 8840   7.264   7.195   5.813
 2965TIP3    H2 8841   7.255   7.113   5.686
 2966TIP3   OH2 8842   4.270   3.592   4.115
 2966TIP3    H1 8843   4.281   3.524   4.182
 2966TIP3    H2 8844   4.200   3.559   4.058
 2967TIP3   OH2 8845   1.334   7.809   3.730
 2967TIP3    H1 8846   1.243   7.806   3.762
 2967TIP3    H2 8847   1.387   7.819   3.809
 2968TIP3   OH2 8848   7.491   6.217   5.905
 2968TIP3    H1 8849   7.436   6.263   5.968
 2968TIP3    H2 8850   7.441   6.221   5.823
 2969TIP3   OH2 8851   0.813   3.063   1.670
 2969TIP3    H1 8852   0.850   2.990   1.720
 2969TIP3    H2 8853   0.872   3.136   1.687
 2970TIP3   OH2 8854   8.021   7.249   1.698
 2970TIP3    H1 8855   8.088   7.225   1.762
 2970TIP3    H2 8856   8.048   7.335   1.667
 2971TIP3   OH2 8857   2.992   6.401   2.612
 2971TIP3    H1 8858   3.012   6.333   2.548
 2971TIP3    H2 8859   2.897   6.410   2.608
 2972TIP3   OH2 8860   7.454   2.723   5.425
 2972TIP3    H1 8861   7.524   2.769   5.378
 2972TIP3    H2 8862   7.373   2.757   5.387
 2973TIP3   OH2 8863   5.254   5.726   2.050
 2973TIP3    H1 8864   5.276   5.635   2.070
 2973TIP3    H2 8865   5.250   5.769   2.136
 2974TIP3   OH2 8866   7.111   6.351   6.007
 2974TIP3    H1 8867   7.021   6.383   6.005
 2974TIP3    H2 8868   7.159   6.413   5.952
 2975TIP3   OH2 8869   0.275   7.182   5.398
 2975TIP3    H1 8870   0.222   7.133   5.335
 2975TIP3    H2 8871   0.365   7.157   5.378
 2976TIP3   OH2 8872   4.902   6.871   5.576
 2976TIP3    H1 8873   4.924   6.906   5.490
 2976TIP3    H2 8874   4.812   6.839   5.567
 2977TIP3   OH2 8875   3.127   2.873   5.774
 2977TIP3    H1 8876   3.169   2.940   5.828
 2977TIP3    H2 8877   3.104   2.918   5.693
 2978TIP3   OH2 8878   1.594   0.414   3.758
 2978TIP3    H1 8879   1.607   0.442   3.667
 2978TIP3    H2 8880   1.535   0.479   3.795
 2979TIP3   OH2 8881   0.817   3.413   5.391
 2979TIP3    H1 8882   0.736   3.462   5.403
 2979TIP3    H2 8883   0.855   3.407   5.479
 2980TIP3   OH2 8884   6.957   1.779   3.666
 2980TIP3    H1 8885   6.985   1.719   3.597
 2980TIP3    H2 8886   7.036   1.830   3.686
 2981TIP3   OH2 8887   7.884   3.079   5.104
 2981TIP3    H1 8888   7.835   3.076   5.186
 2981TIP3    H2 8889   7.820   3.054   5.037
 2982TIP3   OH2 8890   3.591   7.297   0.817
 2982TIP3    H1 8891   3.684   7.305   0.837
 2982TIP3    H2 8892   3.566   7.213   0.855
 2983TIP3   OH2 8893   6.620   5.299   4.752
 2983TIP3    H1 8894   6.692   5.246   4.717
 2983TIP3    H2 8895   6.664   5.372   4.796
 2984TIP3   OH2 8896   1.756   0.770   4.848
 2984TIP3    H1 8897   1.835   0.749   4.897
 2984TIP3    H2 8898   1.714   0.839   4.899
 2985TIP3   OH2 8899   6.062   7.072   6.063
 2985TIP3    H1 8900   5.990   7.036   6.011
 2985TIP3    H2 8901   6.100   6.997   6.108
 2986TIP3   OH2 8902   6.627   3.097   0.619
 2986TIP3    H1 8903   6.720   3.114   0.605
 2986TIP3    H2 8904   6.583   3.179   0.596
 2987TIP3   OH2 8905   4.220   3.902   3.665
 2987TIP3    H1 8906   4.165   3.852   3.604
 2987TIP3    H2 8907   4.168   3.980   3.685
 2988TIP3   OH2 8908   3.805   0.524   3.183
 2988TIP3    H1 8909   3.823   0.430   3.191
 2988TIP3    H2 8910   3.754   0.545   3.262
 2989TIP3   OH2 8911   6.564   4.462   1.452
 2989TIP3    H1 8912   6.637   4.405   1.475
 2989TIP3    H2 8913   6.572   4.538   1.510
 2990TIP3   OH2 8914   5.444   1.701   1.526
 2990TIP3    H1 8915   5.526   1.691   1.574
 2990TIP3    H2 8916   5.406   1.613   1.523
 2991TIP3   OH2 8917   0.818   1.812   5.429
 2991TIP3    H1 8918   0.805   1.830   5.522
 2991TIP3    H2 8919   0.741   1.762   5.403
 2992TIP3   OH2 8920   1.475   3.052   1.209
 2992TIP3    H1 8921   1.437   3.005   1.284
 2992TIP3    H2 8922   1.501   3.137   1.245
 2993TIP3   OH2 8923   3.413   6.902   0.893
 2993TIP3    H1 8924   3.477   6.861   0.950
 2993TIP3    H2 8925   3.459   6.916   0.810
 2994TIP3   OH2 8926   5.361   4.071   6.359
 2994TIP3    H1 8927   5.400   4.154   6.330
 2994TIP3    H2 8928   5.430   4.029   6.410
 2995TIP3   OH2 8929   3.396   5.204   6.110
 2995TIP3    H1 8930   3.337   5.132   6.088
 2995TIP3    H2 8931   3.342   5.266   6.159
 2996TIP3   OH2 8932   4.813   6.138   5.216
 2996TIP3    H1 8933   4.780   6.228   5.224
 2996TIP3    H2 8934   4.896   6.146   5.169
 2997TIP3   OH2 8935   6.778   2.079   0.557
 2997TIP3    H1 8936   6.839   2.119   0.619
 2997TIP3    H2 8937   6.798   2.122   0.473
 2998TIP3   OH2 8938   0.197   2.471   4.414
 2998TIP3    H1 8939   0.252   2.428   4.480
 2998TIP3    H2 8940   0.170   2.553   4.455
 2999TIP3   OH2 8941   1.502   5.396   5.342
 2999TIP3    H1 8942   1.578   5.407   5.399
 2999TIP3    H2 8943   1.443   5.466   5.368
 3000TIP3   OH2 8944   2.111   3.571   1.027
 3000TIP3    H1 8945   2.041   3.634   1.044
 3000TIP3    H2 8946   2.187   3.626   1.006
 3001TIP3   OH2 8947   1.963   6.222   5.224
 3001TIP3    H1 8948   1.970   6.137   5.266
 3001TIP3    H2 8949   2.002   6.210   5.138
 3002TIP3   OH2 8950   5.192   3.594   5.964
 3002TIP3    H1 8951   5.261   3.650   5.928
 3002TIP3    H2 8952   5.214   3.586   6.057
 3003TIP3   OH2 8953   6.520   5.929   1.206
 3003TIP3    H1 8954   6.498   5.926   1.113
 3003TIP3    H2 8955   6.611   5.899   1.209
 3004TIP3   OH2 8956   6.327   1.296   3.435
 3004TIP3    H1 8957   6.299   1.301   3.527
 3004TIP3    H2 8958   6.406   1.242   3.437
 3005TIP3   OH2 8959   0.482   4.013   5.790
 3005TIP3    H1 8960   0.544   4.086   5.781
 3005TIP3    H2 8961   0.472   3.979   5.701
 3006TIP3   OH2 8962   0.173   0.745   4.068
 3006TIP3    H1 8963   0.116   0.686   4.117
 3006TIP3    H2 8964   0.116   0.783   4.001
 3007TIP3   OH2 8965   3.813   2.856   6.203
 3007TIP3    H1 8966   3.745   2.874   6.138
 3007TIP3    H2 8967   3.819   2.760   6.205
 3008TIP3   OH2 8968   2.369   0.675   0.378
 3008TIP3    H1 8969   2.399   0.753   0.424
 3008TIP3    H2 8970   2.287   0.651   0.422
 3009TIP3   OH2 8971   0.873   1.506   0.988
 3009TIP3    H1 8972   0.912   1.445   1.050
 3009TIP3    H2 8973   0.866   1.457   0.907
 3010TIP3   OH2 8974   7.125   1.140   5.386
 3010TIP3    H1 8975   7.126   1.114   5.294
 3010TIP3    H2 8976   7.208   1.185   5.399
 3011TIP3   OH2 8977   1.721   2.040   3.697
 3011TIP3    H1 8978   1.717   2.001   3.785
 3011TIP3    H2 8979   1.642   2.094   3.692
 3012TIP3   OH2 8980   6.158   5.270   3.569
 3012TIP3    H1 8981   6.171   5.365   3.573
 3012TIP3    H2 8982   6.142   5.252   3.477
 3013TIP3   OH2 8983   5.991   0.717   2.206
 3013TIP3    H1 8984   6.044   0.787   2.245
 3013TIP3    H2 8985   5.902   0.754   2.203
 3014TIP3   OH2 8986   1.161   2.809   3.317
 3014TIP3    H1 8987   1.234   2.747   3.325
 3014TIP3    H2 8988   1.101   2.767   3.256
 3015TIP3   OH2 8989   2.924   7.668   2.249
 3015TIP3    H1 8990   2.874   7.739   2.207
 3015TIP3    H2 8991   3.013   7.680   2.218
 3016TIP3   OH2 8992   4.921   3.253   4.923
 3016TIP3    H1 8993   4.857   3.281   4.989
 3016TIP3    H2 8994   4.890   3.293   4.842
 3017TIP3   OH2 8995   3.447   4.245   1.365
 3017TIP3    H1 8996   3.513   4.262   1.432
 3017TIP3    H2 8997   3.472   4.162   1.326
 3018TIP3   OH2 8998   5.281   0.261   6.545
 3018TIP3    H1 8999   5.239   0.175   6.546
 3018TIP3    H2 9000   5.319   0.268   6.457
 3019TIP3   OH2 9001   7.261   0.315   4.316
 3019TIP3    H1 9002   7.169   0.290   4.311
 3019TIP3    H2 9003   7.298   0.289   4.231
 3020TIP3   OH2 9004   5.387   1.407   2.703
 3020TIP3    H1 9005   5.417   1.354   2.629
 3020TIP3    H2 9006   5.292   1.413   2.692
 3021TIP3   OH2 9007   7.351   4.480   2.980
 3021TIP3    H1 9008   7.438   4.473   3.018
 3021TIP3    H2 9009   7.291   4.475   3.055
 3022TIP3   OH2 9010   2.884   7.574   0.926
 3022TIP3    H1 9011   2.959   7.543   0.875
 3022TIP3    H2 9012   2.856   7.654   0.881
 3023TIP3   OH2 9013   5.139   3.429   5.183
 3023TIP3    H1 9014   5.095   3.400   5.264
 3023TIP3    H2 9015   5.149   3.350   5.132
 3024TIP3   OH2 9016   8.020   7.222   3.349
 3024TIP3    H1 9017   7.928   7.241   3.368
 3024TIP3    H2 9018   8.040   7.276   3.272
 3025TIP3   OH2 9019   3.914   1.371   5.320
 3025TIP3    H1 9020   3.913   1.333   5.408
 3025TIP3    H2 9021   3.871   1.456   5.331
 3026TIP3   OH2 9022   6.649   5.295   0.715
 3026TIP3    H1 9023   6.596   5.361   0.669
 3026TIP3    H2 9024   6.666   5.228   0.649
 3027TIP3   OH2 9025   7.959   6.650   1.200
 3027TIP3    H1 9026   7.919   6.567   1.173
 3027TIP3    H2 9027   8.030   6.625   1.258
 3028TIP3   OH2 9028   1.328   1.359   1.059
 3028TIP3    H1 9029   1.348   1.327   0.970
 3028TIP3    H2 9030   1.313   1.280   1.110
 3029TIP3   OH2 9031   5.011   0.834   0.613
 3029TIP3    H1 9032   4.959   0.913   0.601
 3029TIP3    H2 9033   5.012   0.792   0.526
 3030TIP3   OH2 9034   5.887   2.782   3.774
 3030TIP3    H1 9035   5.805   2.825   3.751
 3030TIP3    H2 9036   5.955   2.839   3.738
 3031TIP3   OH2 9037   6.480   0.317   1.031
 3031TIP3    H1 9038   6.496   0.228   1.062
 3031TIP3    H2 9039   6.538   0.372   1.083
 3032TIP3   OH2 9040   1.037   5.387   4.996
 3032TIP3    H1 9041   0.958   5.437   5.015
 3032TIP3    H2 9042   1.105   5.453   4.983
 3033TIP3   OH2 9043   5.978   4.425   4.596
 3033TIP3    H1 9044   5.930   4.441   4.514
 3033TIP3    H2 9045   5.909   4.403   4.659
 3034TIP3   OH2 9046   0.915   6.816   3.192
 3034TIP3    H1 9047   0.876   6.872   3.259
 3034TIP3    H2 9048   0.850   6.747   3.178
 3035TIP3   OH2 9049   6.997   2.085   5.600
 3035TIP3    H1 9050   7.045   2.165   5.620
 3035TIP3    H2 9051   6.922   2.114   5.548
 3036TIP3   OH2 9052   4.728   1.012   4.095
 3036TIP3    H1 9053   4.741   1.041   4.185
 3036TIP3    H2 9054   4.634   1.016   4.081
 3037TIP3   OH2 9055   8.093   1.432   1.310
 3037TIP3    H1 9056   8.059   1.518   1.286
 3037TIP3    H2 9057   8.015   1.382   1.336
 3038TIP3   OH2 9058   4.835   7.703   6.088
 3038TIP3    H1 9059   4.835   7.655   6.171
 3038TIP3    H2 9060   4.916   7.675   6.044
 3039TIP3   OH2 9061   0.520   2.589   1.940
 3039TIP3    H1 9062   0.430   2.562   1.920
 3039TIP3    H2 9063   0.511   2.643   2.019
 3040TIP3   OH2 9064   6.422   2.136   1.146
 3040TIP3    H1 9065   6.351   2.140   1.211
 3040TIP3    H2 9066   6.466   2.052   1.163
 3041TIP3   OH2 9067   5.640   4.667   2.811
 3041TIP3    H1 9068   5.672   4.591   2.762
 3041TIP3    H2 9069   5.696   4.669   2.889
 3042TIP3   OH2 9070   3.213   2.592   2.276
 3042TIP3    H1 9071   3.207   2.603   2.371
 3042TIP3    H2 9072   3.293   2.541   2.263
 3043TIP3   OH2 9073   5.175   2.731   1.120
 3043TIP3    H1 9074   5.217   2.652   1.086
 3043TIP3    H2 9075   5.187   2.725   1.215
 3044TIP3   OH2 9076   2.151   0.506   0.650
 3044TIP3    H1 9077   2.229   0.520   0.704
 3044TIP3    H2 9078   2.184   0.466   0.570
 3045TIP3   OH2 9079   0.671   5.174   1.645
 3045TIP3    H1 9080   0.695   5.166   1.737
 3045TIP3    H2 9081   0.657   5.083   1.616
 3046TIP3   OH2 9082   0.238   5.780   1.391
 3046TIP3    H1 9083   0.149   5.804   1.363
 3046TIP3    H2 9084   0.224   5.710   1.455
 3047TIP3   OH2 9085   5.684   3.289   3.805
 3047TIP3    H1 9086   5.724   3.282   3.892
 3047TIP3    H2 9087   5.605   3.235   3.811
 3048TIP3   OH2 9088   3.784   3.195   4.282
 3048TIP3    H1 9089   3.716   3.149   4.232
 3048TIP3    H2 9090   3.748   3.202   4.370
 3049TIP3   OH2 9091   5.917   0.760   4.105
 3049TIP3    H1 9092   5.909   0.666   4.123
 3049TIP3    H2 9093   5.873   0.772   4.021
 3050TIP3   OH2 9094   2.309   7.505   5.468
 3050TIP3    H1 9095   2.322   7.554   5.386
 3050TIP3    H2 9096   2.392   7.460   5.483
 3051TIP3   OH2 9097   1.661   7.208   4.016
 3051TIP3    H1 9098   1.692   7.214   4.106
 3051TIP3    H2 9099   1.566   7.193   4.024
 3052TIP3   OH2 9100   6.425   2.080   5.134
 3052TIP3    H1 9101   6.357   2.081   5.202
 3052TIP3    H2 9102   6.378   2.095   5.053
 3053TIP3   OH2 9103   1.391   1.839   5.027
 3053TIP3    H1 9104   1.414   1.827   4.935
 3053TIP3    H2 9105   1.417   1.757   5.070
 3054TIP3   OH2 9106   1.886   2.154   0.238
 3054TIP3    H1 9107   1.924   2.194   0.316
 3054TIP3    H2 9108   1.962   2.133   0.183
 3055TIP3   OH2 9109   2.339   3.765   6.086
 3055TIP3    H1 9110   2.354   3.788   6.178
 3055TIP3    H2 9111   2.407   3.812   6.038
 3056TIP3   OH2 9112   1.142   4.869   5.670
 3056TIP3    H1 9113   1.149   4.856   5.575
 3056TIP3    H2 9114   1.097   4.791   5.702
 3057TIP3   OH2 9115   4.835   4.964   4.676
 3057TIP3    H1 9116   4.825   4.872   4.703
 3057TIP3    H2 9117   4.759   5.008   4.713
 3058TIP3   OH2 9118   5.997   7.726   4.725
 3058TIP3    H1 9119   6.039   7.802   4.685
 3058TIP3    H2 9120   6.025   7.652   4.672
 3059TIP3   OH2 9121   4.319   2.914   5.774
 3059TIP3    H1 9122   4.388   2.848   5.765
 3059TIP3    H2 9123   4.364   2.991   5.807
 3060TIP3   OH2 9124   3.743   3.295   5.376
 3060TIP3    H1 9125   3.827   3.331   5.404
 3060TIP3    H2 9126   3.751   3.201   5.391
 3061TIP3   OH2 9127   3.959   5.746   1.971
 3061TIP3    H1 9128   3.950   5.841   1.981
 3061TIP3    H2 9129   3.885   5.709   2.019
 3062TIP3   OH2 9130   6.652   4.893   6.254
 3062TIP3    H1 9131   6.673   4.976   6.297
 3062TIP3    H2 9132   6.566   4.907   6.215
 3063TIP3   OH2 9133   7.749   0.523   6.342
 3063TIP3    H1 9134   7.734   0.586   6.271
 3063TIP3    H2 9135   7.698   0.446   6.317
 3064TIP3   OH2 9136   4.955   4.443   0.456
 3064TIP3    H1 9137   4.921   4.524   0.494
 3064TIP3    H2 9138   5.000   4.400   0.529
 3065TIP3   OH2 9139   5.431   3.663   0.898
 3065TIP3    H1 9140   5.404   3.614   0.976
 3065TIP3    H2 9141   5.425   3.599   0.826
 3066TIP3   OH2 9142   6.396   1.176   5.044
 3066TIP3    H1 9143   6.357   1.181   5.131
 3066TIP3    H2 9144   6.373   1.259   5.002
 3067TIP3   OH2 9145   2.903   3.451   1.128
 3067TIP3    H1 9146   2.846   3.387   1.170
 3067TIP3    H2 9147   2.959   3.482   1.198
 3068TIP3   OH2 9148   7.109   5.720   1.433
 3068TIP3    H1 9149   7.109   5.668   1.353
 3068TIP3    H2 9150   7.017   5.736   1.451
 3069TIP3   OH2 9151   4.882   2.498   1.523
 3069TIP3    H1 9152   4.810   2.559   1.540
 3069TIP3    H2 9153   4.954   2.531   1.577
 3070TIP3   OH2 9154   2.820   2.511   4.821
 3070TIP3    H1 9155   2.774   2.451   4.762
 3070TIP3    H2 9156   2.759   2.584   4.834
 3071TIP3   OH2 9157   2.392   2.540   3.684
 3071TIP3    H1 9158   2.340   2.477   3.634
 3071TIP3    H2 9159   2.470   2.555   3.630
 3072TIP3   OH2 9160   4.494   2.739   3.542
 3072TIP3    H1 9161   4.528   2.819   3.504
 3072TIP3    H2 9162   4.552   2.670   3.510
 3073TIP3   OH2 9163   5.846   0.683   2.673
 3073TIP3    H1 9164   5.818   0.671   2.582
 3073TIP3    H2 9165   5.934   0.645   2.676
 3074TIP3   OH2 9166   0.044   1.340   1.378
 3074TIP3    H1 9167  -0.032   1.398   1.389
 3074TIP3    H2 9168   0.022   1.286   1.302
 3075TIP3   OH2 9169   3.271   5.586   5.865
 3075TIP3    H1 9170   3.308   5.669   5.835
 3075TIP3    H2 9171   3.253   5.537   5.784
 3076TIP3   OH2 9172   2.603   6.641   0.811
 3076TIP3    H1 9173   2.650   6.706   0.863
 3076TIP3    H2 9174   2.535   6.608   0.870
 3077TIP3   OH2 9175   4.763   1.268   1.799
 3077TIP3    H1 9176   4.853   1.281   1.767
 3077TIP3    H2 9177   4.759   1.319   1.880
 3078TIP3   OH2 9178   5.904   3.942   4.592
 3078TIP3    H1 9179   5.958   4.005   4.545
 3078TIP3    H2 9180   5.873   3.989   4.669
 3079TIP3   OH2 9181   4.323   7.337   1.907
 3079TIP3    H1 9182   4.385   7.395   1.952
 3079TIP3    H2 9183   4.239   7.383   1.912
 3080TIP3   OH2 9184   3.922   6.786   0.530
 3080TIP3    H1 9185   3.921   6.690   0.538
 3080TIP3    H2 9186   3.960   6.802   0.443
 3081TIP3   OH2 9187   3.309   1.963   1.324
 3081TIP3    H1 9188   3.242   2.000   1.266
 3081TIP3    H2 9189   3.307   2.020   1.401
 3082TIP3   OH2 9190   7.503   6.006   4.221
 3082TIP3    H1 9191   7.537   5.920   4.245
 3082TIP3    H2 9192   7.552   6.029   4.141
 3083TIP3   OH2 9193   1.611   5.960   1.341
 3083TIP3    H1 9194   1.636   6.020   1.270
 3083TIP3    H2 9195   1.555   6.013   1.398
 3084TIP3   OH2 9196   3.823   2.573   6.213
 3084TIP3    H1 9197   3.739   2.528   6.203
 3084TIP3    H2 9198   3.881   2.507   6.249
 3085TIP3   OH2 9199   7.092   4.526   6.324
 3085TIP3    H1 9200   6.999   4.540   6.307
 3085TIP3    H2 9201   7.131   4.614   6.318
 3086TIP3   OH2 9202   7.573   3.974   6.088
 3086TIP3    H1 9203   7.507   4.044   6.083
 3086TIP3    H2 9204   7.643   4.012   6.142
 3087TIP3   OH2 9205   3.536   7.055   5.884
 3087TIP3    H1 9206   3.470   7.042   5.815
 3087TIP3    H2 9207   3.487   7.043   5.966
 3088TIP3   OH2 9208   7.496   3.156   2.834
 3088TIP3    H1 9209   7.400   3.149   2.828
 3088TIP3    H2 9210   7.521   3.204   2.756
 3089TIP3   OH2 9211   2.532   3.463   4.843
 3089TIP3    H1 9212   2.486   3.528   4.790
 3089TIP3    H2 9213   2.476   3.451   4.920
 3090TIP3   OH2 9214   7.423   0.145   2.175
 3090TIP3    H1 9215   7.392   0.235   2.182
 3090TIP3    H2 9216   7.499   0.142   2.233
 3091TIP3   OH2 9217   2.170   7.060   0.720
 3091TIP3    H1 9218   2.103   7.033   0.782
 3091TIP3    H2 9219   2.139   7.143   0.685
 3092TIP3   OH2 9220   8.243   1.961   4.397
 3092TIP3    H1 9221   8.274   2.047   4.425
 3092TIP3    H2 9222   8.313   1.927   4.341
 3093TIP3   OH2 9223   5.767   7.598   1.603
 3093TIP3    H1 9224   5.848   7.572   1.647
 3093TIP3    H2 9225   5.781   7.573   1.511
 3094TIP3   OH2 9226   5.761   0.992   2.929
 3094TIP3    H1 9227   5.732   0.996   3.019
 3094TIP3    H2 9228   5.724   0.910   2.895
 3095TIP3   OH2 9229   1.336   6.198   3.651
 3095TIP3    H1 9230   1.392   6.167   3.579
 3095TIP3    H2 9231   1.298   6.279   3.618
 3096TIP3   OH2 9232   8.016   6.866   2.380
 3096TIP3    H1 9233   8.053   6.805   2.318
 3096TIP3    H2 9234   8.076   6.865   2.455
 3097TIP3   OH2 9235   2.767   3.505   4.991
 3097TIP3    H1 9236   2.796   3.589   4.957
 3097TIP3    H2 9237   2.688   3.484   4.940
 3098TIP3   OH2 9238   1.007   5.694   2.818
 3098TIP3    H1 9239   0.920   5.709   2.780
 3098TIP3    H2 9240   1.055   5.774   2.799
 3099TIP3   OH2 9241   4.079   0.760   4.589
 3099TIP3    H1 9242   4.049   0.671   4.570
 3099TIP3    H2 9243   4.011   0.817   4.553
 3100TIP3   OH2 9244   4.970   1.304   4.313
 3100TIP3    H1 9245   5.002   1.391   4.339
 3100TIP3    H2 9246   4.932   1.317   4.226
 3101TIP3   OH2 9247   6.233   2.079   0.663
 3101TIP3    H1 9248   6.231   2.053   0.755
 3101TIP3    H2 9249   6.318   2.049   0.631
 3102TIP3   OH2 9250   1.770   5.307   4.186
 3102TIP3    H1 9251   1.679   5.335   4.188
 3102TIP3    H2 9252   1.766   5.211   4.183
 3103TIP3   OH2 9253   7.694   4.549   2.248
 3103TIP3    H1 9254   7.627   4.616   2.263
 3103TIP3    H2 9255   7.649   4.480   2.200
 3104TIP3   OH2 9256   6.662   4.087   4.458
 3104TIP3    H1 9257   6.634   4.051   4.542
 3104TIP3    H2 9258   6.690   4.176   4.478
 3105TIP3   OH2 9259   2.357   6.783   1.364
 3105TIP3    H1 9260   2.299   6.846   1.407
 3105TIP3    H2 9261   2.357   6.707   1.423
 3106TIP3   OH2 9262   3.020   4.777   6.710
 3106TIP3    H1 9263   3.052   4.737   6.791
 3106TIP3    H2 9264   3.085   4.844   6.689
 3107TIP3   OH2 9265   5.201   5.768   1.237
 3107TIP3    H1 9266   5.280   5.755   1.290
 3107TIP3    H2 9267   5.150   5.832   1.286
 3108TIP3   OH2 9268   2.264   0.464   6.291
 3108TIP3    H1 9269   2.256   0.508   6.207
 3108TIP3    H2 9270   2.243   0.372   6.274
 3109TIP3   OH2 9271   1.202   0.235   3.648
 3109TIP3    H1 9272   1.122   0.184   3.639
 3109TIP3    H2 9273   1.259   0.204   3.577
 3110TIP3   OH2 9274   5.209   7.288   3.532
 3110TIP3    H1 9275   5.273   7.329   3.590
 3110TIP3    H2 9276   5.237   7.315   3.444
 3111TIP3   OH2 9277   8.026   7.698   0.863
 3111TIP3    H1 9278   8.079   7.621   0.845
 3111TIP3    H2 9279   7.972   7.673   0.938
 3112TIP3   OH2 9280   5.235   3.672   1.759
 3112TIP3    H1 9281   5.317   3.699   1.719
 3112TIP3    H2 9282   5.168   3.694   1.694
 3113TIP3   OH2 9283   3.738   3.068   3.522
 3113TIP3    H1 9284   3.670   3.012   3.484
 3113TIP3    H2 9285   3.792   3.008   3.573
 3114TIP3   OH2 9286   3.161   0.279   5.670
 3114TIP3    H1 9287   3.243   0.285   5.717
 3114TIP3    H2 9288   3.171   0.201   5.615
 3115TIP3   OH2 9289   7.063   4.810   0.452
 3115TIP3    H1 9290   7.127   4.819   0.522
 3115TIP3    H2 9291   7.026   4.723   0.464
 3116TIP3   OH2 9292   2.668   6.997   3.798
 3116TIP3    H1 9293   2.598   6.935   3.816
 3116TIP3    H2 9294   2.630   7.058   3.735
 3117TIP3   OH2 9295   2.533   3.516   5.771
 3117TIP3    H1 9296   2.610   3.557   5.811
 3117TIP3    H2 9297   2.505   3.579   5.704
 3118TIP3   OH2 9298   8.206   6.199   5.147
 3118TIP3    H1 9299   8.212   6.135   5.218
 3118TIP3    H2 9300   8.260   6.161   5.077
 3119TIP3   OH2 9301   5.590   6.237   3.097
 3119TIP3    H1 9302   5.632   6.182   3.031
 3119TIP3    H2 9303   5.551   6.175   3.159
 3120TIP3   OH2 9304   7.067   6.370   1.790
 3120TIP3    H1 9305   7.011   6.390   1.866
 3120TIP3    H2 9306   7.023   6.413   1.716
 3121TIP3   OH2 9307   3.715   1.861   3.621
 3121TIP3    H1 9308   3.642   1.915   3.652
 3121TIP3    H2 9309   3.685   1.771   3.631
 3122TIP3   OH2 9310   4.290   7.185   6.357
 3122TIP3    H1 9311   4.384   7.187   6.375
 3122TIP3    H2 9312   4.267   7.093   6.365
 3123TIP3   OH2 9313   3.567   6.320   1.110
 3123TIP3    H1 9314   3.527   6.405   1.095
 3123TIP3    H2 9315   3.494   6.261   1.125
 3124TIP3   OH2 9316   2.230   6.298   1.210
 3124TIP3    H1 9317   2.164   6.233   1.235
 3124TIP3    H2 9318   2.301   6.285   1.273
 3125TIP3   OH2 9319   2.370   4.334   0.404
 3125TIP3    H1 9320   2.413   4.253   0.431
 3125TIP3    H2 9321   2.412   4.402   0.456
 3126TIP3   OH2 9322   5.788   3.935   5.839
 3126TIP3    H1 9323   5.707   3.981   5.859
 3126TIP3    H2 9324   5.816   3.971   5.756
 3127TIP3   OH2 9325   7.991   0.623   6.404
 3127TIP3    H1 9326   7.914   0.582   6.364
 3127TIP3    H2 9327   8.049   0.550   6.424
 3128TIP3   OH2 9328   0.293   0.374   4.006
 3128TIP3    H1 9329   0.249   0.344   4.085
 3128TIP3    H2 9330   0.334   0.295   3.970
 3129TIP3   OH2 9331   7.729   5.531   3.086
 3129TIP3    H1 9332   7.706   5.544   2.994
 3129TIP3    H2 9333   7.788   5.603   3.106
 3130TIP3   OH2 9334   5.391   3.197   2.466
 3130TIP3    H1 9335   5.325   3.262   2.443
 3130TIP3    H2 9336   5.431   3.172   2.383
 3131TIP3   OH2 9337   1.928   7.229   4.944
 3131TIP3    H1 9338   1.900   7.161   4.882
 3131TIP3    H2 9339   1.983   7.182   5.007
 3132TIP3   OH2 9340   5.866   2.284   6.435
 3132TIP3    H1 9341   5.903   2.202   6.404
 3132TIP3    H2 9342   5.892   2.290   6.527
 3133TIP3   OH2 9343   0.932   5.151   1.302
 3133TIP3    H1 9344   0.934   5.059   1.276
 3133TIP3    H2 9345   0.905   5.197   1.222
 3134TIP3   OH2 9346   6.002   5.233   1.895
 3134TIP3    H1 9347   6.051   5.298   1.844
 3134TIP3    H2 9348   5.940   5.196   1.833
 3135TIP3   OH2 9349   0.011   7.755   5.656
 3135TIP3    H1 9350  -0.002   7.849   5.665
 3135TIP3    H2 9351   0.023   7.723   5.745
 3136TIP3   OH2 9352   5.871   3.637   1.669
 3136TIP3    H1 9353   5.839   3.632   1.759
 3136TIP3    H2 9354   5.832   3.561   1.626
 3137TIP3   OH2 9355   3.280   4.003   4.098
 3137TIP3    H1 9356   3.316   3.942   4.161
 3137TIP3    H2 9357   3.329   3.987   4.017
 3138TIP3   OH2 9358   0.819   0.585   3.576
 3138TIP3    H1 9359   0.746   0.599   3.517
 3138TIP3    H2 9360   0.779   0.567   3.661
 3139TIP3   OH2 9361   1.790   2.992   2.421
 3139TIP3    H1 9362   1.817   2.920   2.363
 3139TIP3    H2 9363   1.704   3.018   2.388
 3140TIP3   OH2 9364   1.139   2.100   0.056
 3140TIP3    H1 9365   1.228   2.125   0.029
 3140TIP3    H2 9366   1.152   2.051   0.137
 3141TIP3   OH2 9367   0.911   6.611   4.828
 3141TIP3    H1 9368   0.905   6.618   4.732
 3141TIP3    H2 9369   0.947   6.696   4.855
 3142TIP3   OH2 9370   2.336   6.585   6.124
 3142TIP3    H1 9371   2.417   6.620   6.163
 3142TIP3    H2 9372   2.341   6.611   6.032
 3143TIP3   OH2 9373   0.619   7.403   1.902
 3143TIP3    H1 9374   0.658   7.315   1.899
 3143TIP3    H2 9375   0.528   7.390   1.875
 3144TIP3   OH2 9376   6.544   1.923   0.044
 3144TIP3    H1 9377   6.466   1.955  -0.001
 3144TIP3    H2 9378   6.574   1.849  -0.009
 3145TIP3   OH2 9379   5.575   1.111   0.853
 3145TIP3    H1 9380   5.651   1.106   0.911
 3145TIP3    H2 9381   5.521   1.035   0.878
 3146TIP3   OH2 9382   1.952   0.172   1.388
 3146TIP3    H1 9383   2.020   0.234   1.360
 3146TIP3    H2 9384   1.993   0.086   1.377
 3147TIP3   OH2 9385   2.833   4.789   4.412
 3147TIP3    H1 9386   2.770   4.822   4.348
 3147TIP3    H2 9387   2.860   4.704   4.378
 3148TIP3   OH2 9388   5.818   5.915   1.244
 3148TIP3    H1 9389   5.771   5.856   1.185
 3148TIP3    H2 9390   5.898   5.868   1.265
 3149TIP3   OH2 9391   1.811   7.370   2.038
 3149TIP3    H1 9392   1.810   7.391   1.945
 3149TIP3    H2 9393   1.719   7.362   2.062
 3150TIP3   OH2 9394   0.326   0.565   2.986
 3150TIP3    H1 9395   0.258   0.533   3.047
 3150TIP3    H2 9396   0.287   0.643   2.947
 3151TIP3   OH2 9397   4.512   7.039   1.757
 3151TIP3    H1 9398   4.457   7.021   1.833
 3151TIP3    H2 9399   4.458   7.092   1.699
 3152TIP3   OH2 9400   4.038   4.828   4.738
 3152TIP3    H1 9401   4.048   4.749   4.792
 3152TIP3    H2 9402   3.949   4.859   4.757
 3153TIP3   OH2 9403   6.604   7.204   6.479
 3153TIP3    H1 9404   6.656   7.250   6.545
 3153TIP3    H2 9405   6.611   7.112   6.503
 3154TIP3   OH2 9406   5.905   2.437   3.223
 3154TIP3    H1 9407   5.828   2.432   3.278
 3154TIP3    H2 9408   5.979   2.437   3.284
 3155TIP3   OH2 9409   5.601   1.045   2.364
 3155TIP3    H1 9410   5.505   1.046   2.360
 3155TIP3    H2 9411   5.623   1.115   2.426
 3156TIP3   OH2 9412   1.480   2.516   5.550
 3156TIP3    H1 9413   1.495   2.424   5.572
 3156TIP3    H2 9414   1.428   2.550   5.622
 3157TIP3   OH2 9415   0.223   2.131   2.779
 3157TIP3    H1 9416   0.299   2.112   2.724
 3157TIP3    H2 9417   0.162   2.059   2.761
 3158TIP3   OH2 9418   6.050   7.229   6.756
 3158TIP3    H1 9419   5.998   7.244   6.677
 3158TIP3    H2 9420   6.026   7.301   6.815
 3159TIP3   OH2 9421   3.087   6.099   3.773
 3159TIP3    H1 9422   3.169   6.072   3.815
 3159TIP3    H2 9423   3.109   6.106   3.681
 3160TIP3   OH2 9424   2.749   6.145   4.459
 3160TIP3    H1 9425   2.695   6.153   4.381
 3160TIP3    H2 9426   2.691   6.110   4.526
 3161TIP3   OH2 9427   3.385   6.935   5.675
 3161TIP3    H1 9428   3.441   6.980   5.611
 3161TIP3    H2 9429   3.437   6.860   5.704
 3162TIP3   OH2 9430   0.622   1.195   0.885
 3162TIP3    H1 9431   0.688   1.241   0.833
 3162TIP3    H2 9432   0.660   1.109   0.902
 3163TIP3   OH2 9433   7.663   4.984   2.811
 3163TIP3    H1 9434   7.707   5.054   2.858
 3163TIP3    H2 9435   7.573   5.015   2.799
 3164TIP3   OH2 9436   2.958   5.744   0.749
 3164TIP3    H1 9437   2.904   5.720   0.674
 3164TIP3    H2 9438   3.048   5.726   0.720
 3165TIP3   OH2 9439   4.099   1.657   3.901
 3165TIP3    H1 9440   4.032   1.718   3.931
 3165TIP3    H2 9441   4.179   1.688   3.943
 3166TIP3   OH2 9442   1.446   6.224   5.531
 3166TIP3    H1 9443   1.380   6.169   5.574
 3166TIP3    H2 9444   1.522   6.166   5.521
 3167TIP3   OH2 9445   5.745   1.816   4.557
 3167TIP3    H1 9446   5.810   1.748   4.539
 3167TIP3    H2 9447   5.713   1.842   4.471
 3168TIP3   OH2 9448   3.289   6.132   4.672
 3168TIP3    H1 9449   3.367   6.181   4.699
 3168TIP3    H2 9450   3.225   6.199   4.648
 3169TIP3   OH2 9451   4.413   0.344   3.818
 3169TIP3    H1 9452   4.461   0.263   3.805
 3169TIP3    H2 9453   4.479   0.409   3.841
 3170TIP3   OH2 9454   5.956   5.798   5.465
 3170TIP3    H1 9455   6.049   5.779   5.450
 3170TIP3    H2 9456   5.909   5.733   5.413
 3171TIP3   OH2 9457   4.394   4.155   4.384
 3171TIP3    H1 9458   4.461   4.198   4.331
 3171TIP3    H2 9459   4.329   4.124   4.320
 3172TIP3   OH2 9460   0.116   2.826   4.097
 3172TIP3    H1 9461   0.097   2.856   4.008
 3172TIP3    H2 9462   0.079   2.738   4.102
 3173TIP3   OH2 9463   2.759   1.549   0.024
 3173TIP3    H1 9464   2.707   1.532  -0.054
 3173TIP3    H2 9465   2.775   1.643   0.023
 3174TIP3   OH2 9466   5.370   2.772   0.421
 3174TIP3    H1 9467   5.384   2.817   0.337
 3174TIP3    H2 9468   5.277   2.783   0.439
 3175TIP3   OH2 9469   7.288   1.726   6.149
 3175TIP3    H1 9470   7.287   1.800   6.090
 3175TIP3    H2 9471   7.234   1.753   6.223
 3176TIP3   OH2 9472   2.041   3.015   1.680
 3176TIP3    H1 9473   2.129   2.999   1.714
 3176TIP3    H2 9474   1.983   2.993   1.753
 3177TIP3   OH2 9475   1.480   7.681   0.121
 3177TIP3    H1 9476   1.559   7.666   0.069
 3177TIP3    H2 9477   1.423   7.733   0.064
 3178TIP3   OH2 9478   3.131   6.854   3.308
 3178TIP3    H1 9479   3.073   6.809   3.370
 3178TIP3    H2 9480   3.219   6.827   3.334
 3179TIP3   OH2 9481   0.022   7.804   1.874
 3179TIP3    H1 9482   0.063   7.718   1.864
 3179TIP3    H2 9483  -0.006   7.806   1.965
 3180TIP3   OH2 9484   1.215   7.686   6.130
 3180TIP3    H1 9485   1.253   7.617   6.075
 3180TIP3    H2 9486   1.130   7.704   6.090
 3181TIP3   OH2 9487   3.271   5.903   3.990
 3181TIP3    H1 9488   3.195   5.900   4.048
 3181TIP3    H2 9489   3.288   5.811   3.969
 3182TIP3   OH2 9490   6.039   2.210   1.169
 3182TIP3    H1 9491   6.041   2.249   1.082
 3182TIP3    H2 9492   6.078   2.276   1.226
 3183TIP3   OH2 9493   2.107   3.751   5.131
 3183TIP3    H1 9494   2.188   3.713   5.165
 3183TIP3    H2 9495   2.136   3.811   5.063
 3184TIP3   OH2 9496   1.805   4.245   1.242
 3184TIP3    H1 9497   1.837   4.219   1.156
 3184TIP3    H2 9498   1.868   4.309   1.273
 3185TIP3   OH2 9499   0.030   1.430   5.612
 3185TIP3    H1 9500   0.101   1.391   5.664
 3185TIP3    H2 9501  -0.026   1.356   5.588
 3186TIP3   OH2 9502   1.433   5.345   1.258
 3186TIP3    H1 9503   1.398   5.270   1.305
 3186TIP3    H2 9504   1.373   5.359   1.185
 3187TIP3   OH2 9505   2.612   4.723   1.399
 3187TIP3    H1 9506   2.676   4.742   1.468
 3187TIP3    H2 9507   2.664   4.707   1.321
 3188TIP3   OH2 9508   4.111   1.421   1.251
 3188TIP3    H1 9509   4.052   1.497   1.260
 3188TIP3    H2 9510   4.055   1.351   1.220
 3189TIP3   OH2 9511   1.456   3.434   3.626
 3189TIP3    H1 9512   1.539   3.410   3.668
 3189TIP3    H2 9513   1.411   3.350   3.613
 3190TIP3   OH2 9514   8.003   4.916   2.769
 3190TIP3    H1 9515   8.023   4.858   2.842
 3190TIP3    H2 9516   7.988   4.857   2.694
 3191TIP3   OH2 9517   6.667   4.156   2.070
 3191TIP3    H1 9518   6.700   4.242   2.044
 3191TIP3    H2 9519   6.577   4.153   2.037
 3192TIP3   OH2 9520   1.462   3.672   2.688
 3192TIP3    H1 9521   1.446   3.705   2.777
 3192TIP3    H2 9522   1.399   3.719   2.634
 3193TIP3   OH2 9523   5.392   5.765   4.543
 3193TIP3    H1 9524   5.461   5.785   4.606
 3193TIP3    H2 9525   5.375   5.849   4.499
 3194TIP3   OH2 9526   5.157   3.051   6.555
 3194TIP3    H1 9527   5.189   3.141   6.567
 3194TIP3    H2 9528   5.125   3.049   6.465
 3195TIP3   OH2 9529   2.764   6.832   0.930
 3195TIP3    H1 9530   2.704   6.907   0.925
 3195TIP3    H2 9531   2.839   6.859   0.876
 3196TIP3   OH2 9532   1.868   0.771   5.217
 3196TIP3    H1 9533   1.798   0.732   5.270
 3196TIP3    H2 9534   1.839   0.861   5.201
 3197TIP3   OH2 9535   8.125   6.427   5.657
 3197TIP3    H1 9536   8.044   6.464   5.691
 3197TIP3    H2 9537   8.101   6.338   5.629
 3198TIP3   OH2 9538   8.192   5.525   1.420
 3198TIP3    H1 9539   8.169   5.529   1.513
 3198TIP3    H2 9540   8.272   5.473   1.417
 3199TIP3   OH2 9541   8.092   0.686   5.701
 3199TIP3    H1 9542   8.164   0.671   5.763
 3199TIP3    H2 9543   8.130   0.670   5.615
 3200TIP3   OH2 9544   0.578   6.283   1.979
 3200TIP3    H1 9545   0.517   6.216   1.949
 3200TIP3    H2 9546   0.637   6.297   1.905
 3201TIP3   OH2 9547   3.211   6.375   3.815
 3201TIP3    H1 9548   3.144   6.342   3.876
 3201TIP3    H2 9549   3.199   6.320   3.737
 3202TIP3   OH2 9550   6.362   7.205   2.108
 3202TIP3    H1 9551   6.449   7.171   2.129
 3202TIP3    H2 9552   6.305   7.128   2.112
 3203TIP3   OH2 9553   7.443   1.642   2.979
 3203TIP3    H1 9554   7.384   1.714   3.002
 3203TIP3    H2 9555   7.470   1.606   3.063
 3204TIP3   OH2 9556   3.154   4.352   3.617
 3204TIP3    H1 9557   3.067   4.324   3.645
 3204TIP3    H2 9558   3.211   4.278   3.636
 3205TIP3   OH2 9559   6.774   4.937   2.598
 3205TIP3    H1 9560   6.768   4.851   2.558
 3205TIP3    H2 9561   6.854   4.934   2.650
 3206TIP3   OH2 9562   1.963   5.749   0.776
 3206TIP3    H1 9563   1.954   5.840   0.746
 3206TIP3    H2 9564   1.873   5.718   0.784
 3207TIP3   OH2 9565   4.157   5.663   1.098
 3207TIP3    H1 9566   4.092   5.694   1.161
 3207TIP3    H2 9567   4.171   5.571   1.121
 3208TIP3   OH2 9568   1.631   3.141   2.768
 3208TIP3    H1 9569   1.596   3.101   2.688
 3208TIP3    H2 9570   1.597   3.087   2.839
 3209TIP3   OH2 9571   0.822   4.472   3.998
 3209TIP3    H1 9572   0.800   4.379   3.998
 3209TIP3    H2 9573   0.843   4.492   3.907
 3210TIP3   OH2 9574   1.902   5.964   5.242
 3210TIP3    H1 9575   1.968   5.949   5.174
 3210TIP3    H2 9576   1.884   5.877   5.277
 3211TIP3   OH2 9577   1.491   0.053   4.691
 3211TIP3    H1 9578   1.487   0.140   4.730
 3211TIP3    H2 9579   1.584   0.034   4.684
 3212TIP3   OH2 9580   1.315   7.431   2.983
 3212TIP3    H1 9581   1.229   7.440   3.024
 3212TIP3    H2 9582   1.376   7.462   3.050
 3213TIP3   OH2 9583   0.213   3.223   6.380
 3213TIP3    H1 9584   0.183   3.300   6.332
 3213TIP3    H2 9585   0.145   3.158   6.367
 3214TIP3   OH2 9586   6.387   5.222   3.054
 3214TIP3    H1 9587   6.377   5.248   3.146
 3214TIP3    H2 9588   6.299   5.198   3.026
 3215TIP3   OH2 9589   6.877   0.300   2.287
 3215TIP3    H1 9590   6.893   0.390   2.315
 3215TIP3    H2 9591   6.831   0.308   2.204
 3216TIP3   OH2 9592   4.170   6.198   5.272
 3216TIP3    H1 9593   4.140   6.213   5.182
 3216TIP3    H2 9594   4.123   6.264   5.324
 3217TIP3   OH2 9595   2.071   1.286   6.391
 3217TIP3    H1 9596   2.137   1.247   6.449
 3217TIP3    H2 9597   2.122   1.324   6.319
 3218TIP3   OH2 9598   3.014   4.745   0.185
 3218TIP3    H1 9599   3.070   4.786   0.251
 3218TIP3    H2 9600   2.937   4.802   0.181
 3219TIP3   OH2 9601   3.050   6.239   0.107
 3219TIP3    H1 9602   2.992   6.303   0.064
 3219TIP3    H2 9603   3.045   6.161   0.052
 3220TIP3   OH2 9604   4.590   7.033   5.434
 3220TIP3    H1 9605   4.542   7.038   5.516
 3220TIP3    H2 9606   4.574   7.117   5.391
 3221TIP3   OH2 9607   1.473   2.217   5.532
 3221TIP3    H1 9608   1.429   2.204   5.448
 3221TIP3    H2 9609   1.413   2.180   5.597
 3222TIP3   OH2 9610   0.501   4.707   4.818
 3222TIP3    H1 9611   0.429   4.766   4.796
 3222TIP3    H2 9612   0.481   4.677   4.907
 3223TIP3   OH2 9613   7.850   2.210   6.366
 3223TIP3    H1 9614   7.877   2.251   6.448
 3223TIP3    H2 9615   7.912   2.140   6.352
 3224TIP3   OH2 9616   1.748   2.823   5.087
 3224TIP3    H1 9617   1.789   2.737   5.094
 3224TIP3    H2 9618   1.754   2.846   4.994
 3225TIP3   OH2 9619   6.587   4.001   4.723
 3225TIP3    H1 9620   6.679   4.015   4.702
 3225TIP3    H2 9621   6.578   4.028   4.814
 3226TIP3   OH2 9622   0.058   4.931   5.368
 3226TIP3    H1 9623   0.073   4.978   5.287
 3226TIP3    H2 9624   0.011   4.994   5.423
 3227TIP3   OH2 9625   0.698   4.361   3.511
 3227TIP3    H1 9626   0.783   4.318   3.503
 3227TIP3    H2 9627   0.715   4.453   3.489
 3228TIP3   OH2 9628   1.097   3.672   1.082
 3228TIP3    H1 9629   1.124   3.739   1.144
 3228TIP3    H2 9630   1.157   3.682   1.008
 3229TIP3   OH2 9631   7.964   4.444   0.094
 3229TIP3    H1 9632   7.971   4.511   0.163
 3229TIP3    H2 9633   7.961   4.361   0.142
 3230TIP3   OH2 9634   1.006   0.112   3.376
 3230TIP3    H1 9635   0.993   0.158   3.293
 3230TIP3    H2 9636   1.022   0.182   3.439
 3231TIP3   OH2 9637   0.976   2.628   1.995
 3231TIP3    H1 9638   1.066   2.657   2.007
 3231TIP3    H2 9639   0.969   2.548   2.046
 3232TIP3   OH2 9640   0.739   7.417   0.444
 3232TIP3    H1 9641   0.806   7.451   0.384
 3232TIP3    H2 9642   0.659   7.463   0.419
 3233TIP3   OH2 9643   1.605   7.401   3.810
 3233TIP3    H1 9644   1.655   7.356   3.878
 3233TIP3    H2 9645   1.514   7.380   3.829
 3234TIP3   OH2 9646   7.081   3.733   2.747
 3234TIP3    H1 9647   7.103   3.819   2.784
 3234TIP3    H2 9648   6.985   3.732   2.748
 3235TIP3   OH2 9649   1.426   1.794   4.717
 3235TIP3    H1 9650   1.513   1.834   4.717
 3235TIP3    H2 9651   1.417   1.756   4.630
 3236TIP3   OH2 9652   7.457   1.596   1.279
 3236TIP3    H1 9653   7.489   1.515   1.318
 3236TIP3    H2 9654   7.433   1.651   1.354
 3237TIP3   OH2 9655   7.932   5.673   1.026
 3237TIP3    H1 9656   7.984   5.612   1.079
 3237TIP3    H2 9657   7.890   5.730   1.091
 3238TIP3   OH2 9658   4.734   7.118   3.630
 3238TIP3    H1 9659   4.818   7.133   3.587
 3238TIP3    H2 9660   4.703   7.036   3.592
 3239TIP3   OH2 9661   1.882   6.578   1.184
 3239TIP3    H1 9662   1.954   6.638   1.205
 3239TIP3    H2 9663   1.848   6.611   1.101
 3240TIP3   OH2 9664   5.479   5.452   5.186
 3240TIP3    H1 9665   5.402   5.420   5.139
 3240TIP3    H2 9666   5.533   5.373   5.200
 3241TIP3   OH2 9667   7.993   2.069   0.411
 3241TIP3    H1 9668   7.919   2.108   0.458
 3241TIP3    H2 9669   8.003   2.122   0.333
 3242TIP3   OH2 9670   1.641   1.954   0.690
 3242TIP3    H1 9671   1.566   1.964   0.748
 3242TIP3    H2 9672   1.708   1.911   0.743
 3243TIP3   OH2 9673   5.538   0.528   5.302
 3243TIP3    H1 9674   5.561   0.536   5.395
 3243TIP3    H2 9675   5.512   0.436   5.292
 3244TIP3   OH2 9676   2.366   1.474   2.208
 3244TIP3    H1 9677   2.320   1.434   2.283
 3244TIP3    H2 9678   2.298   1.482   2.141
 3245TIP3   OH2 9679   0.861   6.547   4.566
 3245TIP3    H1 9680   0.803   6.573   4.495
 3245TIP3    H2 9681   0.817   6.472   4.607
 3246TIP3   OH2 9682   0.357   2.038   4.688
 3246TIP3    H1 9683   0.377   2.011   4.778
 3246TIP3    H2 9684   0.380   2.131   4.685
 3247TIP3   OH2 9685   4.556   2.185   2.328
 3247TIP3    H1 9686   4.623   2.140   2.380
 3247TIP3    H2 9687   4.555   2.274   2.364
 3248TIP3   OH2 9688   1.648   6.935   4.966
 3248TIP3    H1 9689   1.617   6.937   4.875
 3248TIP3    H2 9690   1.612   6.854   5.002
 3249TIP3   OH2 9691   8.154   2.579   3.053
 3249TIP3    H1 9692   8.130   2.564   3.144
 3249TIP3    H2 9693   8.203   2.661   3.054
 3250TIP3   OH2 9694   4.423   5.742   5.327
 3250TIP3    H1 9695   4.463   5.658   5.304
 3250TIP3    H2 9696   4.447   5.755   5.419
 3251TIP3   OH2 9697   7.102   5.932   2.317
 3251TIP3    H1 9698   7.086   5.908   2.408
 3251TIP3    H2 9699   7.090   6.027   2.314
 3252TIP3   OH2 9700   3.802   2.064   1.856
 3252TIP3    H1 9701   3.870   2.132   1.859
 3252TIP3    H2 9702   3.809   2.019   1.941
 3253TIP3   OH2 9703   4.592   2.866   5.200
 3253TIP3    H1 9704   4.638   2.935   5.152
 3253TIP3    H2 9705   4.643   2.855   5.280
 3254TIP3   OH2 9706   5.741   2.978   1.562
 3254TIP3    H1 9707   5.746   3.026   1.479
 3254TIP3    H2 9708   5.671   3.022   1.610
 3255TIP3   OH2 9709   4.241   4.496   5.447
 3255TIP3    H1 9710   4.249   4.549   5.527
 3255TIP3    H2 9711   4.323   4.446   5.443
 3256TIP3   OH2 9712   3.796   7.777   1.739
 3256TIP3    H1 9713   3.881   7.751   1.776
 3256TIP3    H2 9714   3.782   7.716   1.667
 3257TIP3   OH2 9715   2.060   5.115   4.055
 3257TIP3    H1 9716   2.083   5.161   4.136
 3257TIP3    H2 9717   2.111   5.159   3.987
 3258TIP3   OH2 9718   3.195   4.682   4.787
 3258TIP3    H1 9719   3.105   4.709   4.803
 3258TIP3    H2 9720   3.204   4.598   4.833
 3259TIP3   OH2 9721   8.053   1.043   3.449
 3259TIP3    H1 9722   7.988   1.034   3.380
 3259TIP3    H2 9723   8.135   1.011   3.410
 3260TIP3   OH2 9724   7.555   7.550   1.081
 3260TIP3    H1 9725   7.619   7.512   1.022
 3260TIP3    H2 9726   7.574   7.510   1.166
 3261TIP3   OH2 9727   6.078   5.500   0.550
 3261TIP3    H1 9728   6.068   5.477   0.457
 3261TIP3    H2 9729   6.001   5.462   0.592
 3262TIP3   OH2 9730   0.571   2.793   4.953
 3262TIP3    H1 9731   0.563   2.807   5.047
 3262TIP3    H2 9732   0.592   2.700   4.944
 3263TIP3   OH2 9733   7.860   6.675   4.047
 3263TIP3    H1 9734   7.846   6.732   3.971
 3263TIP3    H2 9735   7.894   6.594   4.010
 3264TIP3   OH2 9736   6.904   5.157   6.700
 3264TIP3    H1 9737   6.944   5.122   6.780
 3264TIP3    H2 9738   6.861   5.082   6.660
 3265TIP3   OH2 9739   6.469   2.209   3.359
 3265TIP3    H1 9740   6.379   2.230   3.383
 3265TIP3    H2 9741   6.466   2.190   3.265
 3266TIP3   OH2 9742   0.624   3.065   3.638
 3266TIP3    H1 9743   0.681   2.996   3.672
 3266TIP3    H2 9744   0.588   3.029   3.557
 3267TIP3   OH2 9745   3.882   3.762   1.593
 3267TIP3    H1 9746   3.949   3.698   1.571
 3267TIP3    H2 9747   3.805   3.709   1.614
 3268TIP3   OH2 9748   6.971   3.381   5.843
 3268TIP3    H1 9749   6.992   3.309   5.784
 3268TIP3    H2 9750   6.876   3.380   5.850
 3269TIP3   OH2 9751   2.650   1.900   5.602
 3269TIP3    H1 9752   2.589   1.867   5.668
 3269TIP3    H2 9753   2.604   1.973   5.561
 3270TIP3   OH2 9754   6.053   6.043   4.603
 3270TIP3    H1 9755   5.980   6.004   4.651
 3270TIP3    H2 9756   6.113   5.970   4.587
 3271TIP3   OH2 9757   1.025   4.904   3.495
 3271TIP3    H1 9758   0.978   4.822   3.480
 3271TIP3    H2 9759   1.086   4.910   3.422
 3272TIP3   OH2 9760   3.706   4.589   6.359
 3272TIP3    H1 9761   3.755   4.518   6.401
 3272TIP3    H2 9762   3.694   4.561   6.269
 3273TIP3   OH2 9763   4.406   0.047   4.226
 3273TIP3    H1 9764   4.377   0.135   4.248
 3273TIP3    H2 9765   4.400  -0.001   4.309
 3274TIP3   OH2 9766   1.053   4.640   1.009
 3274TIP3    H1 9767   1.109   4.678   0.942
 3274TIP3    H2 9768   1.017   4.715   1.056
 3275TIP3   OH2 9769   4.717   5.580   0.910
 3275TIP3    H1 9770   4.771   5.635   0.853
 3275TIP3    H2 9771   4.721   5.493   0.871
 3276TIP3   OH2 9772   0.947   2.373   0.522
 3276TIP3    H1 9773   0.893   2.361   0.444
 3276TIP3    H2 9774   1.022   2.423   0.493
 3277TIP3   OH2 9775   8.279   1.676   4.002
 3277TIP3    H1 9776   8.271   1.748   3.940
 3277TIP3    H2 9777   8.198   1.626   3.992
 3278TIP3   OH2 9778   6.344   0.122   4.567
 3278TIP3    H1 9779   6.324   0.031   4.544
 3278TIP3    H2 9780   6.340   0.124   4.663
 3279TIP3   OH2 9781   3.566   3.938   2.036
 3279TIP3    H1 9782   3.523   3.853   2.025
 3279TIP3    H2 9783   3.506   4.000   1.993
 3280TIP3   OH2 9784   2.049   6.377   3.362
 3280TIP3    H1 9785   2.046   6.372   3.458
 3280TIP3    H2 9786   2.052   6.470   3.343
 3281TIP3   OH2 9787   4.231   2.416   2.900
 3281TIP3    H1 9788   4.137   2.423   2.887
 3281TIP3    H2 9789   4.269   2.424   2.812
 3282TIP3   OH2 9790   1.409   7.817   1.156
 3282TIP3    H1 9791   1.428   7.725   1.175
 3282TIP3    H2 9792   1.357   7.815   1.076
 3283TIP3   OH2 9793   2.383   2.301   4.534
 3283TIP3    H1 9794   2.445   2.234   4.564
 3283TIP3    H2 9795   2.333   2.259   4.465
 3284TIP3   OH2 9796   0.299   0.215   2.845
 3284TIP3    H1 9797   0.315   0.294   2.793
 3284TIP3    H2 9798   0.373   0.158   2.825
 3285TIP3   OH2 9799   1.971   7.520   0.925
 3285TIP3    H1 9800   2.007   7.587   0.984
 3285TIP3    H2 9801   1.891   7.491   0.969
 3286TIP3   OH2 9802   4.754   6.718   6.154
 3286TIP3    H1 9803   4.662   6.693   6.159
 3286TIP3    H2 9804   4.781   6.728   6.245
 3287TIP3   OH2 9805   2.644   2.579   3.302
 3287TIP3    H1 9806   2.646   2.513   3.371
 3287TIP3    H2 9807   2.574   2.639   3.328
 3288TIP3   OH2 9808   0.733   0.536   2.299
 3288TIP3    H1 9809   0.731   0.457   2.352
 3288TIP3    H2 9810   0.647   0.540   2.257
 3289TIP3   OH2 9811   7.262   6.036   0.388
 3289TIP3    H1 9812   7.289   6.103   0.452
 3289TIP3    H2 9813   7.254   5.956   0.440
 3290TIP3   OH2 9814   3.335   0.592   4.059
 3290TIP3    H1 9815   3.419   0.547   4.045
 3290TIP3    H2 9816   3.334   0.662   3.994
 3291TIP3   OH2 9817   0.491   4.095   5.254
 3291TIP3    H1 9818   0.584   4.113   5.242
 3291TIP3    H2 9819   0.477   4.011   5.210
 3292TIP3   OH2 9820   6.044   3.350   0.082
 3292TIP3    H1 9821   5.981   3.422   0.083
 3292TIP3    H2 9822   6.020   3.299   0.004
 3293TIP3   OH2 9823   4.028   4.279   5.689
 3293TIP3    H1 9824   3.999   4.194   5.723
 3293TIP3    H2 9825   4.123   4.279   5.703
 3294TIP3   OH2 9826   0.959   3.516   0.123
 3294TIP3    H1 9827   1.044   3.559   0.129
 3294TIP3    H2 9828   0.924   3.544   0.039
 3295TIP3   OH2 9829   5.960   0.233   4.787
 3295TIP3    H1 9830   5.944   0.277   4.704
 3295TIP3    H2 9831   6.036   0.278   4.825
 3296TIP3   OH2 9832   5.580   7.357   5.801
 3296TIP3    H1 9833   5.605   7.423   5.736
 3296TIP3    H2 9834   5.662   7.332   5.843
 3297TIP3   OH2 9835   4.007   6.785   0.273
 3297TIP3    H1 9836   4.077   6.745   0.221
 3297TIP3    H2 9837   3.973   6.855   0.217
 3298TIP3   OH2 9838   5.464   0.576   4.581
 3298TIP3    H1 9839   5.450   0.610   4.492
 3298TIP3    H2 9840   5.480   0.653   4.634
 3299TIP3   OH2 9841   7.605   5.478   3.650
 3299TIP3    H1 9842   7.557   5.544   3.701
 3299TIP3    H2 9843   7.649   5.529   3.582
 3300TIP3   OH2 9844   7.179   0.932   2.831
 3300TIP3    H1 9845   7.102   0.978   2.866
 3300TIP3    H2 9846   7.231   1.001   2.789
 3301TIP3   OH2 9847   7.803   2.328   0.295
 3301TIP3    H1 9848   7.894   2.330   0.267
 3301TIP3    H2 9849   7.806   2.292   0.384
 3302TIP3   OH2 9850   7.816   3.510   6.442
 3302TIP3    H1 9851   7.908   3.508   6.417
 3302TIP3    H2 9852   7.778   3.580   6.389
 3303TIP3   OH2 9853   3.061   3.945   6.349
 3303TIP3    H1 9854   3.116   3.870   6.371
 3303TIP3    H2 9855   3.118   4.003   6.299
 3304TIP3   OH2 9856   6.928   2.344   5.214
 3304TIP3    H1 9857   6.863   2.276   5.192
 3304TIP3    H2 9858   7.001   2.295   5.252
 3305TIP3   OH2 9859   6.292   4.493   6.663
 3305TIP3    H1 9860   6.324   4.557   6.599
 3305TIP3    H2 9861   6.310   4.408   6.624
 3306TIP3   OH2 9862   6.869   2.284   2.345
 3306TIP3    H1 9863   6.776   2.263   2.352
 3306TIP3    H2 9864   6.913   2.199   2.339
 3307TIP3   OH2 9865   5.987   4.444   0.651
 3307TIP3    H1 9866   6.063   4.444   0.592
 3307TIP3    H2 9867   5.991   4.529   0.695
 3308TIP3   OH2 9868   8.152   2.555   4.526
 3308TIP3    H1 9869   8.149   2.480   4.467
 3308TIP3    H2 9870   8.207   2.619   4.481
 3309TIP3   OH2 9871   2.189   2.512   1.690
 3309TIP3    H1 9872   2.278   2.546   1.679
 3309TIP3    H2 9873   2.146   2.528   1.605
 3310TIP3   OH2 9874   2.254   4.539   1.270
 3310TIP3    H1 9875   2.317   4.545   1.199
 3310TIP3    H2 9876   2.305   4.509   1.345
 3311TIP3   OH2 9877   0.926   3.713   5.182
 3311TIP3    H1 9878   0.844   3.759   5.198
 3311TIP3    H2 9879   0.906   3.621   5.199
 3312TIP3   OH2 9880   2.684   6.393   5.822
 3312TIP3    H1 9881   2.685   6.381   5.917
 3312TIP3    H2 9882   2.776   6.404   5.798
 3313TIP3   OH2 9883   2.344   1.077   0.606
 3313TIP3    H1 9884   2.371   1.064   0.697
 3313TIP3    H2 9885   2.248   1.066   0.608
 3314TIP3   OH2 9886   1.377   3.067   0.508
 3314TIP3    H1 9887   1.312   3.033   0.568
 3314TIP3    H2 9888   1.452   3.090   0.564
 3315TIP3   OH2 9889   3.804   6.951   2.635
 3315TIP3    H1 9890   3.764   7.016   2.577
 3315TIP3    H2 9891   3.808   6.995   2.720
 3316TIP3   OH2 9892   0.405   4.238   3.887
 3316TIP3    H1 9893   0.398   4.165   3.948
 3316TIP3    H2 9894   0.368   4.313   3.935
 3317TIP3   OH2 9895   3.025   3.817   4.842
 3317TIP3    H1 9896   2.940   3.843   4.877
 3317TIP3    H2 9897   3.037   3.873   4.765
 3318TIP3   OH2 9898   5.157   6.954   4.701
 3318TIP3    H1 9899   5.111   6.959   4.785
 3318TIP3    H2 9900   5.153   7.044   4.668
 3319TIP3   OH2 9901   0.402   2.607   5.499
 3319TIP3    H1 9902   0.386   2.606   5.405
 3319TIP3    H2 9903   0.331   2.554   5.536
 3320TIP3   OH2 9904   2.576   4.145   2.158
 3320TIP3    H1 9905   2.489   4.146   2.199
 3320TIP3    H2 9906   2.615   4.229   2.184
 3321TIP3   OH2 9907   4.000   3.705   6.476
 3321TIP3    H1 9908   3.997   3.704   6.571
 3321TIP3    H2 9909   4.063   3.637   6.453
 3322TIP3   OH2 9910   4.154   1.923   2.115
 3322TIP3    H1 9911   4.191   1.835   2.115
 3322TIP3    H2 9912   4.200   1.969   2.185
 3323TIP3   OH2 9913   4.221   2.795   3.498
 3323TIP3    H1 9914   4.312   2.775   3.520
 3323TIP3    H2 9915   4.170   2.728   3.544
 3324TIP3   OH2 9916   0.869   4.232   1.754
 3324TIP3    H1 9917   0.869   4.223   1.659
 3324TIP3    H2 9918   0.814   4.309   1.771
 3325TIP3   OH2 9919   3.899   4.180   0.430
 3325TIP3    H1 9920   3.895   4.138   0.344
 3325TIP3    H2 9921   3.809   4.175   0.463
 3326TIP3   OH2 9922   5.152   5.950   5.292
 3326TIP3    H1 9923   5.221   5.959   5.359
 3326TIP3    H2 9924   5.189   5.891   5.227
 3327TIP3   OH2 9925   0.202   4.244   6.090
 3327TIP3    H1 9926   0.270   4.308   6.113
 3327TIP3    H2 9927   0.241   4.160   6.113
 3328TIP3   OH2 9928   1.195   5.109   1.973
 3328TIP3    H1 9929   1.188   5.015   1.991
 3328TIP3    H2 9930   1.128   5.125   1.906
 3329TIP3   OH2 9931   4.994   5.091   6.769
 3329TIP3    H1 9932   5.070   5.150   6.769
 3329TIP3    H2 9933   4.949   5.111   6.852
 3330TIP3   OH2 9934   2.034   3.551   4.461
 3330TIP3    H1 9935   2.047   3.539   4.555
 3330TIP3    H2 9936   2.122   3.542   4.423
 3331TIP3   OH2 9937   4.559   5.227   2.069
 3331TIP3    H1 9938   4.609   5.202   2.146
 3331TIP3    H2 9939   4.507   5.148   2.048
 3332TIP3   OH2 9940   4.251   7.445   3.270
 3332TIP3    H1 9941   4.204   7.388   3.331
 3332TIP3    H2 9942   4.185   7.471   3.206
 3333TIP3   OH2 9943   8.202   5.465   2.374
 3333TIP3    H1 9944   8.283   5.433   2.334
 3333TIP3    H2 9945   8.198   5.421   2.459
 3334TIP3   OH2 9946   4.287   6.905   5.507
 3334TIP3    H1 9947   4.313   6.990   5.471
 3334TIP3    H2 9948   4.326   6.902   5.594
 3335TIP3   OH2 9949   1.483   6.499   0.635
 3335TIP3    H1 9950   1.451   6.573   0.582
 3335TIP3    H2 9951   1.405   6.465   0.679
 3336TIP3   OH2 9952   0.362   1.477   5.626
 3336TIP3    H1 9953   0.325   1.497   5.540
 3336TIP3    H2 9954   0.453   1.507   5.621
 3337TIP3   OH2 9955   5.394   1.577   6.208
 3337TIP3    H1 9956   5.400   1.670   6.186
 3337TIP3    H2 9957   5.387   1.533   6.123
 3338TIP3   OH2 9958   6.463   6.079   6.703
 3338TIP3    H1 9959   6.378   6.099   6.742
 3338TIP3    H2 9960   6.489   6.160   6.659
 3339TIP3   OH2 9961   2.123   5.869   6.138
 3339TIP3    H1 9962   2.074   5.920   6.203
 3339TIP3    H2 9963   2.211   5.906   6.140
 3340TIP3   OH2 9964   6.005   0.986   1.899
 3340TIP3    H1 9965   5.911   0.997   1.889
 3340TIP3    H2 9966   6.029   0.921   1.834
 3341TIP3   OH2 9967   3.586   3.927   5.590
 3341TIP3    H1 9968   3.648   3.963   5.526
 3341TIP3    H2 9969   3.579   3.834   5.566
 3342TIP3   OH2 9970   4.691   3.203   6.011
 3342TIP3    H1 9971   4.606   3.163   5.993
 3342TIP3    H2 9972   4.739   3.136   6.061
 3343TIP3   OH2 9973   2.510   3.051   2.387
 3343TIP3    H1 9974   2.482   3.133   2.428
 3343TIP3    H2 9975   2.605   3.047   2.405
 3344TIP3   OH2 9976   1.819   0.121   3.769
 3344TIP3    H1 9977   1.867   0.053   3.816
 3344TIP3    H2 9978   1.727   0.105   3.792
 3345TIP3   OH2 9979   2.945   7.564   5.730
 3345TIP3    H1 9980   2.914   7.627   5.666
 3345TIP3    H2 9981   3.038   7.552   5.710
 3346TIP3   OH2 9982   1.699   4.360   3.626
 3346TIP3    H1 9983   1.651   4.386   3.547
 3346TIP3    H2 9984   1.785   4.333   3.594
 3347TIP3   OH2 9985   7.948   7.187   6.490
 3347TIP3    H1 9986   8.034   7.227   6.501
 3347TIP3    H2 9987   7.888   7.261   6.485
 3348TIP3   OH2 9988   1.670   6.465   4.580
 3348TIP3    H1 9989   1.755   6.433   4.550
 3348TIP3    H2 9990   1.632   6.509   4.503
 3349TIP3   OH2 9991   5.816   0.802   0.419
 3349TIP3    H1 9992   5.760   0.872   0.452
 3349TIP3    H2 9993   5.758   0.746   0.368
 3350TIP3   OH2 9994   4.558   6.728   1.404
 3350TIP3    H1 9995   4.502   6.660   1.440
 3350TIP3    H2 9996   4.647   6.701   1.428
 3351TIP3   OH2 9997   3.670   4.771   2.587
 3351TIP3    H1 9998   3.628   4.832   2.648
 3351TIP3    H2 9999   3.697   4.697   2.642
 3352TIP3   OH210000   7.836   1.537   1.212
 3352TIP3    H110001   7.794   1.472   1.268
 3352TIP3    H210002   7.807   1.516   1.124
 3353TIP3   OH210003   3.236   3.120   0.271
 3353TIP3    H110004   3.311   3.159   0.226
 3353TIP3    H210005   3.246   3.147   0.362
 3354TIP3   OH210006   1.960   6.067   0.660
 3354TIP3    H110007   1.910   6.134   0.615
 3354TIP3    H210008   1.956   5.991   0.602
 3355TIP3   OH210009   2.024   4.580   3.295
 3355TIP3    H110010   1.953   4.638   3.267
 3355TIP3    H210011   2.071   4.629   3.362
 3356TIP3   OH210012   2.365   3.366   3.077
 3356TIP3    H110013   2.403   3.285   3.042
 3356TIP3    H210014   2.289   3.383   3.020
 3357TIP3   OH210015   5.528   5.634   2.556
 3357TIP3    H110016   5.527   5.540   2.577
 3357TIP3    H210017   5.454   5.670   2.605
 3358TIP3   OH210018   0.711   6.798   1.745
 3358TIP3    H110019   0.624   6.831   1.726
 3358TIP3    H210020   0.703   6.703   1.737
 3359TIP3   OH210021   4.791   7.344   0.861
 3359TIP3    H110022   4.815   7.377   0.947
 3359TIP3    H210023   4.731   7.410   0.826
 3360TIP3   OH210024   0.010   6.088   0.400
 3360TIP3    H110025   0.014   6.114   0.492
 3360TIP3    H210026  -0.064   6.137   0.365
 3361TIP3   OH210027   4.570   7.740   1.555
 3361TIP3    H110028   4.593   7.828   1.527
 3361TIP3    H210029   4.572   7.688   1.474
 3362TIP3   OH210030   8.187   2.898   2.885
 3362TIP3    H110031   8.256   2.860   2.940
 3362TIP3    H210032   8.194   2.992   2.901
 3363TIP3   OH210033   0.836   3.789   1.907
 3363TIP3    H110034   0.882   3.865   1.943
 3363TIP3    H210035   0.851   3.795   1.812
 3364TIP3   OH210036   8.267   0.671   5.916
 3364TIP3    H110037   8.350   0.666   5.964
 3364TIP3    H210038   8.216   0.737   5.963
 3365TIP3   OH210039   3.666   5.885   0.634
 3365TIP3    H110040   3.575   5.913   0.648
 3365TIP3    H210041   3.683   5.826   0.708
 3366TIP3   OH210042   2.844   5.847   0.967
 3366TIP3    H110043   2.880   5.824   0.881
 3366TIP3    H210044   2.883   5.932   0.988
 3367TIP3   OH210045   7.911   6.069   2.519
 3367TIP3    H110046   7.831   6.071   2.571
 3367TIP3    H210047   7.931   6.161   2.502
 3368TIP3   OH210048   4.419   1.852   2.760
 3368TIP3    H110049   4.462   1.773   2.792
 3368TIP3    H210050   4.340   1.821   2.716
 3369TIP3   OH210051   0.847   1.173   2.597
 3369TIP3    H110052   0.794   1.148   2.522
 3369TIP3    H210053   0.910   1.101   2.607
 3370TIP3   OH210054   3.921   5.047   5.922
 3370TIP3    H110055   3.866   5.020   5.996
 3370TIP3    H210056   3.972   4.969   5.901
 3371TIP3   OH210057   3.507   2.937   3.445
 3371TIP3    H110058   3.506   3.032   3.434
 3371TIP3    H210059   3.442   2.904   3.383
 3372TIP3   OH210060   5.328   5.720   5.882
 3372TIP3    H110061   5.346   5.683   5.795
 3372TIP3    H210062   5.367   5.807   5.879
 3373TIP3   OH210063   4.870   5.837   3.919
 3373TIP3    H110064   4.846   5.787   3.997
 3373TIP3    H210065   4.828   5.790   3.847
 3374TIP3   OH210066   8.307   7.183   4.697
 3374TIP3    H110067   8.256   7.264   4.686
 3374TIP3    H210068   8.247   7.113   4.673
 3375TIP3   OH210069   0.753   3.268   2.650
 3375TIP3    H110070   0.828   3.321   2.622
 3375TIP3    H210071   0.681   3.298   2.595
 3376TIP3   OH210072   4.244   0.977   0.313
 3376TIP3    H110073   4.295   1.010   0.387
 3376TIP3    H210074   4.160   1.023   0.320
 3377TIP3   OH210075   3.597   0.178   3.325
 3377TIP3    H110076   3.687   0.168   3.358
 3377TIP3    H210077   3.548   0.108   3.368
 3378TIP3   OH210078   1.639   4.422   4.525
 3378TIP3    H110079   1.564   4.400   4.470
 3378TIP3    H210080   1.689   4.486   4.474
 3379TIP3   OH210081   2.106   4.708   5.892
 3379TIP3    H110082   2.154   4.626   5.892
 3379TIP3    H210083   2.135   4.753   5.972
 3380TIP3   OH210084   3.598   7.007   4.546
 3380TIP3    H110085   3.584   7.060   4.625
 3380TIP3    H210086   3.666   6.944   4.571
 3381TIP3   OH210087   3.635   3.256   2.898
 3381TIP3    H110088   3.680   3.265   2.814
 3381TIP3    H210089   3.694   3.203   2.951
 3382TIP3   OH210090   5.728   0.421   5.502
 3382TIP3    H110091   5.737   0.415   5.407
 3382TIP3    H210092   5.764   0.506   5.525
 3383TIP3   OH210093   7.549   7.476   2.047
 3383TIP3    H110094   7.547   7.526   2.129
 3383TIP3    H210095   7.583   7.390   2.072
 3384TIP3   OH210096   3.041   6.320   0.885
 3384TIP3    H110097   3.121   6.338   0.934
 3384TIP3    H210098   3.064   6.246   0.829
 3385TIP3   OH210099   5.425   7.481   6.005
 3385TIP3    H110100   5.359   7.413   6.004
 3385TIP3    H210101   5.482   7.461   5.931
 3386TIP3   OH210102   1.175   0.958   6.092
 3386TIP3    H110103   1.162   0.998   6.006
 3386TIP3    H210104   1.099   0.902   6.104
 3387TIP3   OH210105   5.825   3.851   1.928
 3387TIP3    H110106   5.761   3.846   1.999
 3387TIP3    H210107   5.874   3.769   1.936
 3388TIP3   OH210108   6.292   3.387   3.792
 3388TIP3    H110109   6.257   3.451   3.854
 3388TIP3    H210110   6.322   3.440   3.718
 3389TIP3   OH210111   1.230   2.429   6.441
 3389TIP3    H110112   1.183   2.511   6.423
 3389TIP3    H210113   1.239   2.427   6.536
 3390TIP3   OH210114   1.481   5.124   5.670
 3390TIP3    H110115   1.452   5.085   5.588
 3390TIP3    H210116   1.570   5.154   5.652
 3391TIP3   OH210117   5.254   4.729   5.710
 3391TIP3    H110118   5.209   4.656   5.754
 3391TIP3    H210119   5.346   4.717   5.732
 3392TIP3   OH210120   5.749   1.834   3.288
 3392TIP3    H110121   5.697   1.868   3.216
 3392TIP3    H210122   5.820   1.897   3.300
 3393TIP3   OH210123   4.153   1.463   4.276
 3393TIP3    H110124   4.170   1.417   4.194
 3393TIP3    H210125   4.065   1.498   4.266
 3394TIP3   OH210126   1.351   1.605   3.965
 3394TIP3    H110127   1.280   1.579   3.906
 3394TIP3    H210128   1.321   1.579   4.052
 3395TIP3   OH210129   8.282   4.547   4.171
 3395TIP3    H110130   8.262   4.517   4.082
 3395TIP3    H210131   8.313   4.637   4.159
 3396TIP3   OH210132   3.754   2.672   1.166
 3396TIP3    H110133   3.684   2.685   1.102
 3396TIP3    H210134   3.833   2.705   1.122
 3397TIP3   OH210135   7.151   2.261   1.161
 3397TIP3    H110136   7.220   2.240   1.099
 3397TIP3    H210137   7.197   2.298   1.236
 3398TIP3   OH210138   5.791   0.094   4.589
 3398TIP3    H110139   5.862   0.146   4.627
 3398TIP3    H210140   5.736   0.071   4.663
 3399TIP3   OH210141   3.631   4.897   3.791
 3399TIP3    H110142   3.563   4.830   3.786
 3399TIP3    H210143   3.656   4.899   3.883
 3400TIP3   OH210144   6.032   3.862   3.010
 3400TIP3    H110145   6.097   3.793   2.993
 3400TIP3    H210146   6.060   3.901   3.092
 3401TIP3   OH210147   0.714   0.200   4.947
 3401TIP3    H110148   0.763   0.190   5.029
 3401TIP3    H210149   0.780   0.194   4.878
 3402TIP3   OH210150   1.329   7.276   4.129
 3402TIP3    H110151   1.288   7.227   4.200
 3402TIP3    H210152   1.296   7.365   4.139
 3403TIP3   OH210153   0.079   2.816   6.686
 3403TIP3    H110154   0.058   2.860   6.604
 3403TIP3    H210155   0.005   2.835   6.743
 3404TIP3   OH210156   6.329   0.072   2.862
 3404TIP3    H110157   6.274   0.072   2.784
 3404TIP3    H210158   6.270   0.045   2.933
 3405TIP3   OH210159   4.590   3.965   2.669
 3405TIP3    H110160   4.496   3.954   2.683
 3405TIP3    H210161   4.605   3.932   2.580
 3406TIP3   OH210162   3.271   2.094   1.769
 3406TIP3    H110163   3.337   2.034   1.804
 3406TIP3    H210164   3.198   2.087   1.831
 3407TIP3   OH210165   4.098   5.815   6.320
 3407TIP3    H110166   4.123   5.866   6.243
 3407TIP3    H210167   4.003   5.816   6.320
 3408TIP3   OH210168   4.459   4.728   1.938
 3408TIP3    H110169   4.553   4.708   1.937
 3408TIP3    H210170   4.416   4.642   1.936
 3409TIP3   OH210171   6.744   4.659   2.521
 3409TIP3    H110172   6.776   4.571   2.543
 3409TIP3    H210173   6.652   4.657   2.546
 3410TIP3   OH210174   7.395   1.385   2.817
 3410TIP3    H110175   7.333   1.452   2.788
 3410TIP3    H210176   7.474   1.434   2.840
 3411TIP3   OH210177   0.340   2.896   1.707
 3411TIP3    H110178   0.433   2.898   1.684
 3411TIP3    H210179   0.299   2.956   1.645
 3412TIP3   OH210180   2.741   6.034   6.675
 3412TIP3    H110181   2.811   6.081   6.720
 3412TIP3    H210182   2.660   6.065   6.717
 3413TIP3   OH210183   6.337   0.231   5.500
 3413TIP3    H110184   6.337   0.168   5.572
 3413TIP3    H210185   6.296   0.309   5.537
 3414TIP3   OH210186   6.954   7.485   4.849
 3414TIP3    H110187   6.920   7.418   4.791
 3414TIP3    H210188   6.896   7.560   4.836
 3415TIP3   OH210189   3.966   5.217   1.322
 3415TIP3    H110190   3.971   5.128   1.289
 3415TIP3    H210191   3.872   5.237   1.324
 3416TIP3   OH210192   2.686   0.037   3.208
 3416TIP3    H110193   2.640   0.086   3.277
 3416TIP3    H210194   2.660   0.080   3.127
 3417TIP3   OH210195   2.057   2.383   6.173
 3417TIP3    H110196   1.967   2.398   6.145
 3417TIP3    H210197   2.048   2.333   6.254
 3418TIP3   OH210198   0.953   3.278   4.849
 3418TIP3    H110199   1.011   3.346   4.814
 3418TIP3    H210200   0.865   3.305   4.822
 3419TIP3   OH210201   2.918   3.757   1.506
 3419TIP3    H110202   2.986   3.811   1.547
 3419TIP3    H210203   2.849   3.819   1.481
 3420TIP3   OH210204   0.398   6.488   6.572
 3420TIP3    H110205   0.381   6.402   6.534
 3420TIP3    H210206   0.321   6.540   6.550
 3421TIP3   OH210207   6.894   2.080   1.063
 3421TIP3    H110208   6.971   2.066   1.007
 3421TIP3    H210209   6.904   2.169   1.095
 3422TIP3   OH210210   7.477   3.647   4.603
 3422TIP3    H110211   7.523   3.614   4.680
 3422TIP3    H210212   7.522   3.727   4.580
 3423TIP3   OH210213   4.170   4.933   5.336
 3423TIP3    H110214   4.115   4.855   5.343
 3423TIP3    H210215   4.112   5.001   5.301
 3424TIP3   OH210216   7.160   6.934   0.343
 3424TIP3    H110217   7.234   6.879   0.368
 3424TIP3    H210218   7.158   6.931   0.248
 3425TIP3   OH210219   8.050   3.060   1.560
 3425TIP3    H110220   8.075   3.010   1.638
 3425TIP3    H210221   8.123   3.121   1.547
 3426TIP3   OH210222   3.169   7.640   2.848
 3426TIP3    H110223   3.110   7.702   2.806
 3426TIP3    H210224   3.142   7.555   2.816
 3427TIP3   OH210225   4.308   0.302   4.279
 3427TIP3    H110226   4.240   0.255   4.327
 3427TIP3    H210227   4.261   0.365   4.225
 3428TIP3   OH210228   3.675   0.519   0.403
 3428TIP3    H110229   3.670   0.607   0.441
 3428TIP3    H210230   3.707   0.533   0.314
 3429TIP3   OH210231   1.985   7.434   5.251
 3429TIP3    H110232   2.072   7.402   5.274
 3429TIP3    H210233   1.934   7.355   5.234
 3430TIP3   OH210234   6.119   2.175   1.719
 3430TIP3    H110235   6.156   2.241   1.778
 3430TIP3    H210236   6.192   2.116   1.700
 3431TIP3   OH210237   6.615   0.701   2.074
 3431TIP3    H110238   6.684   0.674   2.014
 3431TIP3    H210239   6.638   0.791   2.097
 3432TIP3   OH210240   1.835   4.265   5.258
 3432TIP3    H110241   1.789   4.303   5.183
 3432TIP3    H210242   1.896   4.333   5.285
 3433TIP3   OH210243   4.299   7.295   4.050
 3433TIP3    H110244   4.290   7.390   4.044
 3433TIP3    H210245   4.324   7.279   4.141
 3434TIP3   OH210246   0.171   5.214   1.951
 3434TIP3    H110247   0.077   5.201   1.942
 3434TIP3    H210248   0.211   5.159   1.884
 3435TIP3   OH210249   6.656   4.478   5.030
 3435TIP3    H110250   6.568   4.500   4.997
 3435TIP3    H210251   6.639   4.428   5.110
 3436TIP3   OH210252   8.136   7.566   6.256
 3436TIP3    H110253   8.155   7.496   6.319
 3436TIP3    H210254   8.064   7.615   6.296
 3437TIP3   OH210255   3.754   5.717   2.154
 3437TIP3    H110256   3.767   5.692   2.245
 3437TIP3    H210257   3.660   5.712   2.140
 3438TIP3   OH210258   1.407   6.095   4.669
 3438TIP3    H110259   1.438   6.023   4.614
 3438TIP3    H210260   1.342   6.054   4.727
 3439TIP3   OH210261   1.962   7.296   5.699
 3439TIP3    H110262   1.918   7.374   5.664
 3439TIP3    H210263   2.054   7.322   5.705
 3440TIP3   OH210264   2.484   5.529   5.634
 3440TIP3    H110265   2.510   5.618   5.657
 3440TIP3    H210266   2.436   5.496   5.710
 3441TIP3   OH210267   6.849   4.179   3.016
 3441TIP3    H110268   6.903   4.233   3.075
 3441TIP3    H210269   6.904   4.103   2.996
 3442TIP3   OH210270   6.559   4.360   4.728
 3442TIP3    H110271   6.607   4.389   4.651
 3442TIP3    H210272   6.626   4.348   4.795
 3443TIP3   OH210273   6.688   5.587   6.553
 3443TIP3    H110274   6.718   5.497   6.557
 3443TIP3    H210275   6.660   5.607   6.643
 3444TIP3   OH210276   4.478   4.952   0.270
 3444TIP3    H110277   4.566   4.918   0.255
 3444TIP3    H210278   4.441   4.896   0.338
 3445TIP3   OH210279   2.622   6.505   4.990
 3445TIP3    H110280   2.640   6.568   5.060
 3445TIP3    H210281   2.611   6.559   4.911
 3446TIP3   OH210282   7.246   6.941   6.657
 3446TIP3    H110283   7.151   6.931   6.652
 3446TIP3    H210284   7.266   7.010   6.593
 3447TIP3   OH210285   5.012   6.060   2.997
 3447TIP3    H110286   4.925   6.057   3.036
 3447TIP3    H210287   5.000   6.025   2.908
 3448TIP3   OH210288   1.451   1.612   5.982
 3448TIP3    H110289   1.499   1.534   6.012
 3448TIP3    H210290   1.396   1.581   5.910
 3449TIP3   OH210291   7.488   0.775   0.694
 3449TIP3    H110292   7.446   0.822   0.766
 3449TIP3    H210293   7.565   0.734   0.735
 3450TIP3   OH210294   2.318   2.571   0.495
 3450TIP3    H110295   2.379   2.514   0.542
 3450TIP3    H210296   2.250   2.591   0.560
 3451TIP3   OH210297   3.137   7.589   4.968
 3451TIP3    H110298   3.118   7.679   4.998
 3451TIP3    H210299   3.085   7.534   5.026
 3452TIP3   OH210300   0.933   5.372   4.158
 3452TIP3    H110301   1.000   5.304   4.153
 3452TIP3    H210302   0.899   5.378   4.069
 3453TIP3   OH210303   0.539   1.184   5.572
 3453TIP3    H110304   0.486   1.113   5.608
 3453TIP3    H210305   0.521   1.182   5.478
 3454TIP3   OH210306   1.871   1.751   3.480
 3454TIP3    H110307   1.813   1.803   3.425
 3454TIP3    H210308   1.884   1.804   3.559
 3455TIP3   OH210309   6.519   4.081   0.855
 3455TIP3    H110310   6.585   4.045   0.795
 3455TIP3    H210311   6.483   4.004   0.899
 3456TIP3   OH210312   1.257   1.372   2.108
 3456TIP3    H110313   1.309   1.293   2.093
 3456TIP3    H210314   1.310   1.424   2.169
 3457TIP3   OH210315   4.145   0.431   5.059
 3457TIP3    H110316   4.112   0.487   5.129
 3457TIP3    H210317   4.075   0.369   5.043
 3458TIP3   OH210318   5.018   3.560   3.356
 3458TIP3    H110319   4.976   3.517   3.281
 3458TIP3    H210320   5.111   3.540   3.346
 3459TIP3   OH210321   6.082   5.889   4.858
 3459TIP3    H110322   6.002   5.939   4.841
 3459TIP3    H210323   6.119   5.873   4.771
 3460TIP3   OH210324   4.149   7.774   3.063
 3460TIP3    H110325   4.240   7.784   3.036
 3460TIP3    H210326   4.100   7.825   2.999
 3461TIP3   OH210327   6.385   7.593   3.408
 3461TIP3    H110328   6.331   7.669   3.390
 3461TIP3    H210329   6.392   7.591   3.504
 3462TIP3   OH210330   2.512   0.694   3.171
 3462TIP3    H110331   2.589   0.743   3.198
 3462TIP3    H210332   2.442   0.726   3.228
 3463TIP3   OH210333   4.397   2.412   6.606
 3463TIP3    H110334   4.307   2.437   6.586
 3463TIP3    H210335   4.388   2.336   6.663
 3464TIP3   OH210336   4.066   4.272   6.714
 3464TIP3    H110337   4.127   4.282   6.641
 3464TIP3    H210338   4.040   4.361   6.737
 3465TIP3   OH210339   0.603   4.952   4.557
 3465TIP3    H110340   0.588   4.901   4.477
 3465TIP3    H210341   0.675   4.907   4.601
 3466TIP3   OH210342   0.379   2.721   4.158
 3466TIP3    H110343   0.292   2.757   4.144
 3466TIP3    H210344   0.423   2.731   4.074
 3467TIP3   OH210345   1.792   5.854   6.283
 3467TIP3    H110346   1.726   5.903   6.235
 3467TIP3    H210347   1.836   5.801   6.216
 3468TIP3   OH210348   4.093   6.236   3.901
 3468TIP3    H110349   4.071   6.150   3.864
 3468TIP3    H210350   4.123   6.217   3.990
 3469TIP3   OH210351   4.918   0.240   3.109
 3469TIP3    H110352   4.933   0.333   3.121
 3469TIP3    H210353   4.835   0.234   3.063
 3470TIP3   OH210354   4.938   6.820   6.347
 3470TIP3    H110355   5.030   6.797   6.358
 3470TIP3    H210356   4.932   6.856   6.259
 3471TIP3   OH210357   0.127   3.543   4.480
 3471TIP3    H110358   0.033   3.558   4.472
 3471TIP3    H210359   0.140   3.525   4.573
 3472TIP3   OH210360   2.951   7.726   1.466
 3472TIP3    H110361   2.882   7.790   1.445
 3472TIP3    H210362   2.955   7.670   1.388
 3473TIP3   OH210363   0.995   5.676   5.755
 3473TIP3    H110364   0.990   5.764   5.716
 3473TIP3    H210365   1.081   5.643   5.728
 3474TIP3   OH210366   1.566   5.687   1.339
 3474TIP3    H110367   1.472   5.681   1.354
 3474TIP3    H210368   1.578   5.769   1.291
 3475TIP3   OH210369   2.456   1.603   2.559
 3475TIP3    H110370   2.495   1.611   2.472
 3475TIP3    H210371   2.521   1.553   2.610
 3476TIP3   OH210372   8.022   2.418   6.630
 3476TIP3    H110373   7.954   2.441   6.566
 3476TIP3    H210374   7.998   2.330   6.659
 3477TIP3   OH210375   4.493   3.705   0.841
 3477TIP3    H110376   4.424   3.712   0.907
 3477TIP3    H210377   4.557   3.646   0.880
 3478TIP3   OH210378   0.529   5.799   4.417
 3478TIP3    H110379   0.600   5.737   4.436
 3478TIP3    H210380   0.485   5.763   4.340
 3479TIP3   OH210381   3.253   4.149   2.902
 3479TIP3    H110382   3.275   4.198   2.981
 3479TIP3    H210383   3.338   4.120   2.868
 3480TIP3   OH210384   2.957   4.975   4.128
 3480TIP3    H110385   3.031   4.998   4.071
 3480TIP3    H210386   2.996   4.918   4.195
 3481TIP3   OH210387   6.970   0.277   0.795
 3481TIP3    H110388   6.878   0.266   0.820
 3481TIP3    H210389   6.971   0.361   0.748
 3482TIP3   OH210390   0.240   2.815   3.284
 3482TIP3    H110391   0.228   2.724   3.314
 3482TIP3    H210392   0.236   2.867   3.363
 3483TIP3   OH210393   5.800   5.774   2.051
 3483TIP3    H110394   5.748   5.779   2.131
 3483TIP3    H210395   5.875   5.719   2.075
 3484TIP3   OH210396   4.810   6.339   1.021
 3484TIP3    H110397   4.793   6.281   0.947
 3484TIP3    H210398   4.905   6.344   1.026
 3485TIP3   OH210399   7.658   2.792   2.206
 3485TIP3    H110400   7.595   2.723   2.229
 3485TIP3    H210401   7.743   2.751   2.217
 3486TIP3   OH210402   6.339   2.054   4.451
 3486TIP3    H110403   6.426   2.014   4.458
 3486TIP3    H210404   6.297   2.007   4.379
 3487TIP3   OH210405   4.882   1.144   6.493
 3487TIP3    H110406   4.831   1.090   6.554
 3487TIP3    H210407   4.949   1.084   6.459
 3488TIP3   OH210408   6.250   0.145   1.173
 3488TIP3    H110409   6.223   0.150   1.265
 3488TIP3    H210410   6.343   0.122   1.177
 3489TIP3   OH210411   1.895   6.675   3.855
 3489TIP3    H110412   1.932   6.750   3.809
 3489TIP3    H210413   1.925   6.684   3.945
 3490TIP3   OH210414   8.006   4.078   1.955
 3490TIP3    H110415   8.017   4.097   2.048
 3490TIP3    H210416   8.085   4.114   1.914
 3491TIP3   OH210417   7.399   4.185   3.378
 3491TIP3    H110418   7.415   4.113   3.439
 3491TIP3    H210419   7.480   4.237   3.380
 3492TIP3   OH210420   6.199   6.204   4.409
 3492TIP3    H110421   6.119   6.154   4.394
 3492TIP3    H210422   6.169   6.293   4.428
 3493TIP3   OH210423   5.191   1.596   5.270
 3493TIP3    H110424   5.199   1.532   5.198
 3493TIP3    H210425   5.169   1.543   5.347
 3494TIP3   OH210426   4.547   3.939   1.785
 3494TIP3    H110427   4.498   3.886   1.722
 3494TIP3    H210428   4.638   3.929   1.758
 3495TIP3   OH210429   8.204   4.498   3.915
 3495TIP3    H110430   8.135   4.559   3.888
 3495TIP3    H210431   8.260   4.490   3.838
 3496TIP3   OH210432   7.842   0.181   1.409
 3496TIP3    H110433   7.876   0.201   1.323
 3496TIP3    H210434   7.806   0.264   1.441
 3497TIP3   OH210435   6.834   4.579   6.639
 3497TIP3    H110436   6.829   4.615   6.550
 3497TIP3    H210437   6.827   4.484   6.626
 3498TIP3   OH210438   2.827   2.943   0.740
 3498TIP3    H110439   2.919   2.922   0.724
 3498TIP3    H210440   2.778   2.879   0.687
 3499TIP3   OH210441   6.169   2.341   1.382
 3499TIP3    H110442   6.249   2.319   1.430
 3499TIP3    H210443   6.132   2.415   1.430
 3500TIP3   OH210444   1.270   6.561   1.450
 3500TIP3    H110445   1.245   6.580   1.540
 3500TIP3    H210446   1.365   6.549   1.453
 3501TIP3   OH210447   2.511   6.063   1.955
 3501TIP3    H110448   2.493   6.090   2.045
 3501TIP3    H210449   2.607   6.063   1.950
 3502TIP3   OH210450   4.572   3.844   5.914
 3502TIP3    H110451   4.528   3.785   5.853
 3502TIP3    H210452   4.516   3.921   5.919
 3503TIP3   OH210453   3.981   2.547   3.273
 3503TIP3    H110454   3.904   2.504   3.236
 3503TIP3    H210455   3.949   2.633   3.299
 3504TIP3   OH210456   5.040   5.581   1.117
 3504TIP3    H110457   5.100   5.609   1.186
 3504TIP3    H210458   5.007   5.662   1.080
 3505TIP3   OH210459   6.524   4.981   2.673
 3505TIP3    H110460   6.510   4.897   2.715
 3505TIP3    H210461   6.614   4.979   2.643
 3506TIP3   OH210462   3.100   4.249   4.986
 3506TIP3    H110463   3.108   4.157   5.013
 3506TIP3    H210464   3.121   4.248   4.892
 3507TIP3   OH210465   3.858   0.655   6.106
 3507TIP3    H110466   3.823   0.634   6.192
 3507TIP3    H210467   3.848   0.750   6.099
 3508TIP3   OH210468   2.969   3.246   4.999
 3508TIP3    H110469   2.899   3.310   4.990
 3508TIP3    H210470   2.997   3.229   4.909
 3509TIP3   OH210471   5.120   7.786   4.966
 3509TIP3    H110472   5.090   7.702   5.003
 3509TIP3    H210473   5.086   7.785   4.876
 3510TIP3   OH210474   7.977   6.919   6.538
 3510TIP3    H110475   7.972   7.014   6.526
 3510TIP3    H210476   7.960   6.882   6.452
 3511TIP3   OH210477   3.760   3.502   6.453
 3511TIP3    H110478   3.828   3.556   6.414
 3511TIP3    H210479   3.757   3.529   6.545
 3512TIP3   OH210480   1.743   6.726   4.718
 3512TIP3    H110481   1.779   6.744   4.631
 3512TIP3    H210482   1.669   6.667   4.701
 3513TIP3   OH210483   1.579   1.966   4.196
 3513TIP3    H110484   1.643   1.951   4.126
 3513TIP3    H210485   1.578   2.061   4.207
 3514TIP3   OH210486   6.032   6.510   3.948
 3514TIP3    H110487   5.994   6.434   3.993
 3514TIP3    H210488   6.007   6.585   4.003
 3515TIP3   OH210489   4.376   0.852   0.605
 3515TIP3    H110490   4.351   0.930   0.654
 3515TIP3    H210491   4.402   0.789   0.673
 3516TIP3   OH210492   3.766   2.899   1.519
 3516TIP3    H110493   3.730   2.975   1.472
 3516TIP3    H210494   3.782   2.931   1.608
 3517TIP3   OH210495   0.678   5.789   0.738
 3517TIP3    H110496   0.640   5.868   0.701
 3517TIP3    H210497   0.773   5.802   0.729
 3518TIP3   OH210498   2.779   1.349   3.720
 3518TIP3    H110499   2.874   1.347   3.735
 3518TIP3    H210500   2.764   1.434   3.679
 3519TIP3   OH210501   5.489   4.061   2.302
 3519TIP3    H110502   5.451   4.085   2.387
 3519TIP3    H210503   5.417   4.019   2.255
 3520TIP3   OH210504   7.805   2.354   3.697
 3520TIP3    H110505   7.776   2.397   3.778
 3520TIP3    H210506   7.875   2.410   3.664
 3521TIP3   OH210507   3.714   0.499   5.238
 3521TIP3    H110508   3.683   0.590   5.237
 3521TIP3    H210509   3.701   0.469   5.148
 3522TIP3   OH210510   7.613   1.222   6.431
 3522TIP3    H110511   7.562   1.279   6.373
 3522TIP3    H210512   7.649   1.282   6.497
 3523TIP3   OH210513   3.583   2.061   5.650
 3523TIP3    H110514   3.521   2.134   5.647
 3523TIP3    H210515   3.660   2.097   5.695
 3524TIP3   OH210516   7.750   4.537   2.787
 3524TIP3    H110517   7.688   4.523   2.716
 3524TIP3    H210518   7.728   4.470   2.852
 3525TIP3   OH210519   3.499   7.208   6.564
 3525TIP3    H110520   3.549   7.176   6.639
 3525TIP3    H210521   3.552   7.186   6.488
 3526TIP3   OH210522   0.256   6.580   4.365
 3526TIP3    H110523   0.196   6.506   4.372
 3526TIP3    H210524   0.228   6.625   4.285
 3527TIP3   OH210525   7.246   3.814   5.670
 3527TIP3    H110526   7.310   3.834   5.738
 3527TIP3    H210527   7.194   3.743   5.706
 3528TIP3   OH210528   5.127   1.432   3.239
 3528TIP3    H110529   5.183   1.410   3.165
 3528TIP3    H210530   5.039   1.412   3.209
 3529TIP3   OH210531   6.262   4.490   3.711
 3529TIP3    H110532   6.242   4.580   3.684
 3529TIP3    H210533   6.176   4.451   3.726
 3530TIP3   OH210534   5.121   5.654   4.585
 3530TIP3    H110535   5.120   5.651   4.680
 3530TIP3    H210536   5.187   5.720   4.564
 3531TIP3   OH210537   3.342   2.867   2.327
 3531TIP3    H110538   3.429   2.853   2.367
 3531TIP3    H210539   3.325   2.786   2.279
 3532TIP3   OH210540   0.303   5.019   6.316
 3532TIP3    H110541   0.223   5.044   6.362
 3532TIP3    H210542   0.345   5.102   6.292
 3533TIP3   OH210543   4.723   3.006   4.020
 3533TIP3    H110544   4.662   2.933   4.024
 3533TIP3    H210545   4.804   2.968   3.985
 3534TIP3   OH210546   2.121   4.094   0.223
 3534TIP3    H110547   2.129   4.135   0.310
 3534TIP3    H210548   2.211   4.066   0.202
 3535TIP3   OH210549   7.258   3.501   4.683
 3535TIP3    H110550   7.337   3.553   4.671
 3535TIP3    H210551   7.188   3.558   4.651
 3536TIP3   OH210552   4.023   0.849   3.078
 3536TIP3    H110553   4.095   0.912   3.066
 3536TIP3    H210554   4.060   0.780   3.133
 3537TIP3   OH210555   2.995   1.630   3.655
 3537TIP3    H110556   3.090   1.623   3.656
 3537TIP3    H210557   2.978   1.723   3.644
 3538TIP3   OH210558   0.349   3.850   0.958
 3538TIP3    H110559   0.261   3.850   0.920
 3538TIP3    H210560   0.357   3.936   0.999
 3539TIP3   OH210561   6.394   4.001   3.219
 3539TIP3    H110562   6.457   4.056   3.172
 3539TIP3    H210563   6.444   3.964   3.292
 3540TIP3   OH210564   3.450   4.762   2.404
 3540TIP3    H110565   3.474   4.794   2.317
 3540TIP3    H210566   3.530   4.769   2.455
 3541TIP3   OH210567   2.095   0.321   5.045
 3541TIP3    H110568   2.099   0.275   5.129
 3541TIP3    H210569   2.022   0.382   5.055
 3542TIP3   OH210570   2.032   6.148   1.341
 3542TIP3    H110571   2.079   6.079   1.388
 3542TIP3    H210572   1.973   6.101   1.282
 3543TIP3   OH210573   4.466   1.308   4.859
 3543TIP3    H110574   4.456   1.235   4.921
 3543TIP3    H210575   4.433   1.273   4.776
 3544TIP3   OH210576   7.553   4.065   1.229
 3544TIP3    H110577   7.562   4.052   1.135
 3544TIP3    H210578   7.460   4.083   1.242
 3545TIP3   OH210579   7.427   3.584   5.249
 3545TIP3    H110580   7.469   3.530   5.316
 3545TIP3    H210581   7.470   3.669   5.256
 3546TIP3   OH210582   5.877   0.468   0.249
 3546TIP3    H110583   5.876   0.374   0.235
 3546TIP3    H210584   5.837   0.505   0.170
 3547TIP3   OH210585   3.357   3.519   3.129
 3547TIP3    H110586   3.415   3.443   3.136
 3547TIP3    H210587   3.304   3.516   3.208
 3548TIP3   OH210588   6.993   0.271   4.299
 3548TIP3    H110589   6.943   0.352   4.308
 3548TIP3    H210590   6.927   0.203   4.289
 3549TIP3   OH210591   4.083   3.132   4.423
 3549TIP3    H110592   4.059   3.075   4.496
 3549TIP3    H210593   4.003   3.141   4.373
 3550TIP3   OH210594   3.872   7.737   6.368
 3550TIP3    H110595   3.825   7.817   6.345
 3550TIP3    H210596   3.850   7.723   6.461
 3551TIP3   OH210597   3.251   4.947   2.117
 3551TIP3    H110598   3.224   4.994   2.196
 3551TIP3    H210599   3.344   4.930   2.131
 3552TIP3   OH210600   7.994   6.044   1.084
 3552TIP3    H110601   8.063   5.982   1.062
 3552TIP3    H210602   7.930   5.992   1.133
 3553TIP3   OH210603   6.843   5.765   0.460
 3553TIP3    H110604   6.808   5.835   0.405
 3553TIP3    H210605   6.924   5.739   0.416
 3554TIP3   OH210606   4.593   3.367   0.568
 3554TIP3    H110607   4.523   3.301   0.561
 3554TIP3    H210608   4.654   3.330   0.632
 3555TIP3   OH210609   3.829   3.685   0.949
 3555TIP3    H110610   3.854   3.776   0.966
 3555TIP3    H210611   3.771   3.662   1.022
 3556TIP3   OH210612   5.181   6.979   1.868
 3556TIP3    H110613   5.121   6.957   1.939
 3556TIP3    H210614   5.131   7.039   1.812
 3557TIP3   OH210615   1.878   6.687   5.717
 3557TIP3    H110616   1.940   6.657   5.783
 3557TIP3    H210617   1.811   6.733   5.767
 3558TIP3   OH210618   1.504   6.588   5.855
 3558TIP3    H110619   1.478   6.547   5.772
 3558TIP3    H210620   1.479   6.525   5.922
 3559TIP3   OH210621   4.155   5.889   5.850
 3559TIP3    H110622   4.222   5.932   5.797
 3559TIP3    H210623   4.157   5.935   5.934
 3560TIP3   OH210624   2.364   0.847   3.961
 3560TIP3    H110625   2.366   0.936   3.997
 3560TIP3    H210626   2.326   0.794   4.031
 3561TIP3   OH210627   1.079   1.640   4.703
 3561TIP3    H110628   1.083   1.558   4.753
 3561TIP3    H210629   1.107   1.707   4.765
 3562TIP3   OH210630   0.758   4.193   5.239
 3562TIP3    H110631   0.792   4.244   5.313
 3562TIP3    H210632   0.835   4.147   5.205
 3563TIP3   OH210633   3.235   3.951   3.227
 3563TIP3    H110634   3.155   3.940   3.177
 3563TIP3    H210635   3.206   3.957   3.318
 3564TIP3   OH210636   3.071   4.903   4.957
 3564TIP3    H110637   3.061   4.856   5.040
 3564TIP3    H210638   3.164   4.924   4.952
 3565TIP3   OH210639   4.092   6.361   3.669
 3565TIP3    H110640   4.105   6.329   3.759
 3565TIP3    H210641   4.000   6.342   3.651
 3566TIP3   OH210642   0.378   2.472   1.563
 3566TIP3    H110643   0.450   2.534   1.550
 3566TIP3    H210644   0.367   2.468   1.658
 3567TIP3   OH210645   7.643   2.529   6.143
 3567TIP3    H110646   7.560   2.540   6.189
 3567TIP3    H210647   7.636   2.589   6.068
 3568TIP3   OH210648   2.962   1.817   2.929
 3568TIP3    H110649   3.056   1.827   2.910
 3568TIP3    H210650   2.939   1.898   2.975
 3569TIP3   OH210651   3.951   6.862   3.569
 3569TIP3    H110652   4.023   6.852   3.507
 3569TIP3    H210653   3.883   6.907   3.519
 3570TIP3   OH210654   0.044   4.125   6.455
 3570TIP3    H110655   0.004   4.052   6.501
 3570TIP3    H210656  -0.029   4.183   6.432
 3571TIP3   OH210657   3.754   0.553   2.169
 3571TIP3    H110658   3.764   0.638   2.212
 3571TIP3    H210659   3.828   0.548   2.109
 3572TIP3   OH210660   7.043   6.771   1.260
 3572TIP3    H110661   7.098   6.820   1.321
 3572TIP3    H210662   7.077   6.682   1.264
 3573TIP3   OH210663   2.263   6.667   6.409
 3573TIP3    H110664   2.310   6.733   6.459
 3573TIP3    H210665   2.329   6.600   6.389
 3574TIP3   OH210666   1.669   3.537   2.345
 3574TIP3    H110667   1.647   3.631   2.345
 3574TIP3    H210668   1.594   3.495   2.305
 3575TIP3   OH210669   1.780   4.911   5.399
 3575TIP3    H110670   1.779   4.826   5.356
 3575TIP3    H210671   1.829   4.967   5.339
 3576TIP3   OH210672   2.522   5.505   5.360
 3576TIP3    H110673   2.504   5.509   5.454
 3576TIP3    H210674   2.531   5.596   5.333
 3577TIP3   OH210675   6.456   1.667   6.226
 3577TIP3    H110676   6.363   1.683   6.211
 3577TIP3    H210677   6.501   1.733   6.174
 3578TIP3   OH210678   3.481   7.750   1.847
 3578TIP3    H110679   3.540   7.756   1.923
 3578TIP3    H210680   3.413   7.689   1.875
 3579TIP3   OH210681   2.353   6.876   0.695
 3579TIP3    H110682   2.299   6.954   0.685
 3579TIP3    H210683   2.362   6.865   0.790
 3580TIP3   OH210684   7.281   4.191   6.516
 3580TIP3    H110685   7.282   4.097   6.493
 3580TIP3    H210686   7.207   4.226   6.467
 3581TIP3   OH210687   5.092   3.820   0.170
 3581TIP3    H110688   5.058   3.731   0.174
 3581TIP3    H210689   5.184   3.809   0.144
 3582TIP3   OH210690   8.020   2.144   5.719
 3582TIP3    H110691   8.014   2.064   5.770
 3582TIP3    H210692   8.011   2.215   5.783
 3583TIP3   OH210693   7.988   3.014   2.255
 3583TIP3    H110694   8.035   2.965   2.187
 3583TIP3    H210695   7.980   2.953   2.328
 3584TIP3   OH210696   7.396   2.904   1.802
 3584TIP3    H110697   7.467   2.947   1.849
 3584TIP3    H210698   7.322   2.907   1.862
 3585TIP3   OH210699   4.033   3.647   2.995
 3585TIP3    H110700   4.062   3.556   2.988
 3585TIP3    H210701   3.941   3.640   3.021
 3586TIP3   OH210702   5.796   0.115   0.670
 3586TIP3    H110703   5.809   0.023   0.646
 3586TIP3    H210704   5.784   0.113   0.765
 3587TIP3   OH210705   1.834   3.706   4.278
 3587TIP3    H110706   1.866   3.785   4.233
 3587TIP3    H210707   1.892   3.696   4.353
 3588TIP3   OH210708   5.546   5.122   4.171
 3588TIP3    H110709   5.457   5.100   4.199
 3588TIP3    H210710   5.535   5.173   4.091
 3589TIP3   OH210711   7.849   5.850   1.255
 3589TIP3    H110712   7.775   5.905   1.282
 3589TIP3    H210713   7.863   5.792   1.329
 3590TIP3   OH210714   7.751   6.585   1.735
 3590TIP3    H110715   7.738   6.501   1.690
 3590TIP3    H210716   7.699   6.577   1.815
 3591TIP3   OH210717   3.084   1.947   6.545
 3591TIP3    H110718   3.074   1.910   6.458
 3591TIP3    H210719   2.995   1.971   6.571
 3592TIP3   OH210720   5.124   6.169   3.521
 3592TIP3    H110721   5.151   6.205   3.605
 3592TIP3    H210722   5.163   6.082   3.518
 3593TIP3   OH210723   1.246   3.288   4.762
 3593TIP3    H110724   1.188   3.336   4.702
 3593TIP3    H210725   1.311   3.248   4.705
 3594TIP3   OH210726   4.034   6.325   4.183
 3594TIP3    H110727   4.061   6.417   4.184
 3594TIP3    H210728   4.114   6.276   4.206
 3595TIP3   OH210729   3.004   6.841   4.095
 3595TIP3    H110730   2.932   6.888   4.053
 3595TIP3    H210731   2.983   6.749   4.083
 3596TIP3   OH210732   4.878   0.414   5.024
 3596TIP3    H110733   4.812   0.389   5.088
 3596TIP3    H210734   4.919   0.331   4.998
 3597TIP3   OH210735   0.266   2.344   0.857
 3597TIP3    H110736   0.345   2.385   0.893
 3597TIP3    H210737   0.295   2.303   0.776
 3598TIP3   OH210738   4.997   0.114   2.569
 3598TIP3    H110739   4.940   0.130   2.645
 3598TIP3    H210740   5.076   0.076   2.606
 3599TIP3   OH210741   0.654   2.034   1.407
 3599TIP3    H110742   0.657   1.942   1.432
 3599TIP3    H210743   0.704   2.080   1.474
 3600TIP3   OH210744   5.165   1.791   5.489
 3600TIP3    H110745   5.163   1.738   5.409
 3600TIP3    H210746   5.180   1.880   5.458
 3601TIP3   OH210747   4.580   4.918   1.651
 3601TIP3    H110748   4.623   4.982   1.707
 3601TIP3    H210749   4.651   4.865   1.616
 3602TIP3   OH210750   3.974   5.167   0.723
 3602TIP3    H110751   4.017   5.240   0.679
 3602TIP3    H210752   3.995   5.091   0.668
 3603TIP3   OH210753   6.754   0.142   5.709
 3603TIP3    H110754   6.741   0.048   5.723
 3603TIP3    H210755   6.722   0.158   5.620
 3604TIP3   OH210756   2.975   7.357   4.043
 3604TIP3    H110757   2.933   7.320   4.121
 3604TIP3    H210758   2.966   7.452   4.055
 3605TIP3   OH210759   4.258   2.224   0.503
 3605TIP3    H110760   4.269   2.129   0.498
 3605TIP3    H210761   4.213   2.238   0.586
 3606TIP3   OH210762   7.008   3.337   4.900
 3606TIP3    H110763   7.100   3.359   4.909
 3606TIP3    H210764   7.008   3.248   4.865
 3607TIP3   OH210765   8.193   2.506   4.801
 3607TIP3    H110766   8.150   2.535   4.721
 3607TIP3    H210767   8.277   2.471   4.773
 3608TIP3   OH210768   1.642   6.137   5.277
 3608TIP3    H110769   1.711   6.082   5.240
 3608TIP3    H210770   1.678   6.168   5.360
 3609TIP3   OH210771   3.887   6.072   0.500
 3609TIP3    H110772   3.809   6.109   0.458
 3609TIP3    H210773   3.852   6.020   0.573
 3610TIP3   OH210774   5.599   7.249   1.489
 3610TIP3    H110775   5.635   7.165   1.461
 3610TIP3    H210776   5.508   7.229   1.513
 3611TIP3   OH210777   0.181   4.582   2.045
 3611TIP3    H110778   0.176   4.497   2.088
 3611TIP3    H210779   0.225   4.564   1.961
 3612TIP3   OH210780   1.781   0.610   0.522
 3612TIP3    H110781   1.737   0.536   0.565
 3612TIP3    H210782   1.856   0.570   0.477
 3613TIP3   OH210783   1.448   6.575   4.776
 3613TIP3    H110784   1.382   6.542   4.837
 3613TIP3    H210785   1.486   6.497   4.737
 3614TIP3   OH210786   6.398   6.726   2.984
 3614TIP3    H110787   6.423   6.816   2.967
 3614TIP3    H210788   6.441   6.675   2.916
 3615TIP3   OH210789   5.261   2.246   2.404
 3615TIP3    H110790   5.185   2.270   2.457
 3615TIP3    H210791   5.312   2.188   2.460
 3616TIP3   OH210792   6.895   0.263   5.432
 3616TIP3    H110793   6.887   0.353   5.462
 3616TIP3    H210794   6.805   0.229   5.433
 3617TIP3   OH210795   4.257   6.955   6.501
 3617TIP3    H110796   4.339   6.914   6.475
 3617TIP3    H210797   4.274   6.991   6.587
 3618TIP3   OH210798   5.879   3.872   3.625
 3618TIP3    H110799   5.882   3.853   3.719
 3618TIP3    H210800   5.938   3.808   3.586
 3619TIP3   OH210801   6.313   1.864   4.852
 3619TIP3    H110802   6.324   1.956   4.826
 3619TIP3    H210803   6.402   1.829   4.852
 3620TIP3   OH210804   4.909   5.890   0.563
 3620TIP3    H110805   4.935   5.971   0.606
 3620TIP3    H210806   4.820   5.906   0.532
 3621TIP3   OH210807   0.934   3.580   4.893
 3621TIP3    H110808   0.942   3.673   4.913
 3621TIP3    H210809   0.910   3.577   4.801
 3622TIP3   OH210810   3.928   0.244   5.070
 3622TIP3    H110811   3.877   0.219   5.147
 3622TIP3    H210812   3.902   0.181   5.003
 3623TIP3   OH210813   0.059   2.332   6.066
 3623TIP3    H110814   0.036   2.247   6.105
 3623TIP3    H210815   0.037   2.322   5.973
 3624TIP3   OH210816   5.599   3.005   6.492
 3624TIP3    H110817   5.575   3.082   6.440
 3624TIP3    H210818   5.668   3.037   6.550
 3625TIP3   OH210819   8.167   5.319   3.371
 3625TIP3    H110820   8.164   5.226   3.394
 3625TIP3    H210821   8.115   5.362   3.439
 3626TIP3   OH210822   1.502   7.448   4.400
 3626TIP3    H110823   1.447   7.402   4.463
 3626TIP3    H210824   1.592   7.422   4.422
 3627TIP3   OH210825   2.065   7.284   0.623
 3627TIP3    H110826   2.067   7.354   0.687
 3627TIP3    H210827   2.000   7.311   0.559
 3628TIP3   OH210828   2.949   7.255   1.622
 3628TIP3    H110829   2.982   7.166   1.612
 3628TIP3    H210830   3.027   7.310   1.614
 3629TIP3   OH210831   4.769   7.319   5.499
 3629TIP3    H110832   4.722   7.304   5.417
 3629TIP3    H210833   4.752   7.411   5.520
 3630TIP3   OH210834   7.094   5.923   6.678
 3630TIP3    H110835   7.127   5.834   6.691
 3630TIP3    H210836   7.104   5.966   6.763
 3631TIP3   OH210837   4.071   4.013   4.406
 3631TIP3    H110838   4.050   4.104   4.427
 3631TIP3    H210839   4.109   4.017   4.318
 3632TIP3   OH210840   2.585   2.872   6.428
 3632TIP3    H110841   2.578   2.786   6.388
 3632TIP3    H210842   2.565   2.933   6.356
 3633TIP3   OH210843   3.625   5.324   6.119
 3633TIP3    H110844   3.543   5.283   6.092
 3633TIP3    H210845   3.656   5.368   6.040
 3634TIP3   OH210846   3.602   5.240   0.657
 3634TIP3    H110847   3.624   5.219   0.748
 3634TIP3    H210848   3.586   5.335   0.658
 3635TIP3   OH210849   6.330   2.772   0.645
 3635TIP3    H110850   6.278   2.819   0.710
 3635TIP3    H210851   6.336   2.832   0.571
 3636TIP3   OH210852   6.470   7.257   3.389
 3636TIP3    H110853   6.475   7.242   3.295
 3636TIP3    H210854   6.507   7.345   3.401
 3637TIP3   OH210855   0.519   6.841   0.143
 3637TIP3    H110856   0.539   6.867   0.053
 3637TIP3    H210857   0.441   6.786   0.136
 3638TIP3   OH210858   6.611   1.907   3.033
 3638TIP3    H110859   6.520   1.900   3.004
 3638TIP3    H210860   6.635   1.818   3.058
 3639TIP3   OH210861   7.142   1.462   3.474
 3639TIP3    H110862   7.209   1.493   3.413
 3639TIP3    H210863   7.063   1.512   3.451
 3640TIP3   OH210864   5.743   3.034   3.653
 3640TIP3    H110865   5.658   3.046   3.695
 3640TIP3    H210866   5.780   3.122   3.650
 3641TIP3   OH210867   7.057   6.980   5.335
 3641TIP3    H110868   7.045   7.025   5.251
 3641TIP3    H210869   7.150   6.989   5.353
 3642TIP3   OH210870   1.935   1.465   1.017
 3642TIP3    H110871   1.860   1.485   0.961
 3642TIP3    H210872   1.928   1.527   1.089
 3643TIP3   OH210873   3.793   0.955   4.894
 3643TIP3    H110874   3.711   0.905   4.895
 3643TIP3    H210875   3.765   1.046   4.907
 3644TIP3   OH210876   3.867   2.753   4.906
 3644TIP3    H110877   3.959   2.773   4.924
 3644TIP3    H210878   3.869   2.667   4.864
 3645TIP3   OH210879   7.160   4.206   4.156
 3645TIP3    H110880   7.235   4.149   4.169
 3645TIP3    H210881   7.094   4.149   4.115
 3646TIP3   OH210882   5.636   7.467   3.415
 3646TIP3    H110883   5.631   7.425   3.329
 3646TIP3    H210884   5.640   7.561   3.396
 3647TIP3   OH210885   5.446   1.274   5.063
 3647TIP3    H110886   5.495   1.193   5.045
 3647TIP3    H210887   5.440   1.317   4.977
 3648TIP3   OH210888   6.863   6.478   3.491
 3648TIP3    H110889   6.929   6.478   3.421
 3648TIP3    H210890   6.893   6.547   3.551
 3649TIP3   OH210891   0.873   5.012   5.965
 3649TIP3    H110892   0.790   4.990   6.008
 3649TIP3    H210893   0.940   4.992   6.030
 3650TIP3   OH210894   3.488   0.010   1.411
 3650TIP3    H110895   3.470   0.018   1.318
 3650TIP3    H210896   3.551  -0.062   1.417
 3651TIP3   OH210897   5.532   0.899   0.550
 3651TIP3    H110898   5.485   0.845   0.614
 3651TIP3    H210899   5.506   0.864   0.465
 3652TIP3   OH210900   5.218   7.476   5.455
 3652TIP3    H110901   5.175   7.391   5.448
 3652TIP3    H210902   5.217   7.496   5.549
 3653TIP3   OH210903   7.011   2.842   2.984
 3653TIP3    H110904   7.016   2.937   2.977
 3653TIP3    H210905   6.919   2.821   2.968
 3654TIP3   OH210906   2.404   4.046   0.154
 3654TIP3    H110907   2.380   4.094   0.074
 3654TIP3    H210908   2.467   3.981   0.124
 3655TIP3   OH210909   7.811   2.011   1.635
 3655TIP3    H110910   7.719   2.016   1.608
 3655TIP3    H210911   7.859   2.059   1.567
 3656TIP3   OH210912   6.663   0.837   1.014
 3656TIP3    H110913   6.615   0.763   1.051
 3656TIP3    H210914   6.675   0.815   0.922
 3657TIP3   OH210915   5.325   7.648   2.016
 3657TIP3    H110916   5.306   7.692   1.933
 3657TIP3    H210917   5.245   7.603   2.039
 3658TIP3   OH210918   2.301   6.866   6.091
 3658TIP3    H110919   2.294   6.846   6.185
 3658TIP3    H210920   2.247   6.801   6.048
 3659TIP3   OH210921   7.188   2.546   0.876
 3659TIP3    H110922   7.170   2.640   0.873
 3659TIP3    H210923   7.145   2.512   0.798
 3660TIP3   OH210924   1.460   5.211   4.030
 3660TIP3    H110925   1.497   5.148   4.092
 3660TIP3    H210926   1.471   5.169   3.945
 3661TIP3   OH210927   6.191   1.763   6.340
 3661TIP3    H110928   6.112   1.720   6.307
 3661TIP3    H210929   6.213   1.714   6.419
 3662TIP3   OH210930   2.760   7.690   1.968
 3662TIP3    H110931   2.755   7.749   2.044
 3662TIP3    H210932   2.839   7.718   1.921
 3663TIP3   OH210933   2.977   3.534   3.864
 3663TIP3    H110934   2.934   3.583   3.795
 3663TIP3    H210935   3.044   3.593   3.898
 3664TIP3   OH210936   5.848   1.278   4.672
 3664TIP3    H110937   5.811   1.234   4.749
 3664TIP3    H210938   5.811   1.366   4.675
 3665TIP3   OH210939   0.255   0.919   4.453
 3665TIP3    H110940   0.231   0.988   4.514
 3665TIP3    H210941   0.203   0.843   4.480
 3666TIP3   OH210942   2.935   2.558   0.959
 3666TIP3    H110943   2.938   2.537   1.053
 3666TIP3    H210944   2.875   2.633   0.953
 3667TIP3   OH210945   3.306   4.794   4.558
 3667TIP3    H110946   3.244   4.861   4.530
 3667TIP3    H210947   3.277   4.770   4.646
 3668TIP3   OH210948   5.242   7.217   1.065
 3668TIP3    H110949   5.247   7.240   1.158
 3668TIP3    H210950   5.222   7.124   1.065
 3669TIP3   OH210951   2.033   0.170   4.780
 3669TIP3    H110952   2.038   0.201   4.870
 3669TIP3    H210953   2.008   0.078   4.787
 3670TIP3   OH210954   4.119   1.382   3.881
 3670TIP3    H110955   4.123   1.476   3.863
 3670TIP3    H210956   4.209   1.357   3.903
 3671TIP3   OH210957   0.971   6.520   5.499
 3671TIP3    H110958   1.029   6.482   5.432
 3671TIP3    H210959   1.023   6.518   5.579
 3672TIP3   OH210960   4.638   0.908   3.027
 3672TIP3    H110961   4.640   1.001   3.008
 3672TIP3    H210962   4.638   0.903   3.123
 3673TIP3   OH210963   3.797   4.684   5.566
 3673TIP3    H110964   3.774   4.766   5.611
 3673TIP3    H210965   3.748   4.687   5.484
 3674TIP3   OH210966   5.406   6.071   3.952
 3674TIP3    H110967   5.362   6.048   3.870
 3674TIP3    H210968   5.334   6.082   4.015
 3675TIP3   OH210969   4.409   1.224   3.927
 3675TIP3    H110970   4.488   1.177   3.901
 3675TIP3    H210971   4.337   1.176   3.885
 3676TIP3   OH210972   1.203   7.043   4.782
 3676TIP3    H110973   1.243   6.995   4.854
 3676TIP3    H210974   1.156   6.976   4.731
 3677TIP3   OH210975   4.492   2.260   1.462
 3677TIP3    H110976   4.499   2.224   1.550
 3677TIP3    H210977   4.436   2.337   1.471
 3678TIP3   OH210978   3.610   7.551   0.442
 3678TIP3    H110979   3.702   7.545   0.467
 3678TIP3    H210980   3.567   7.485   0.497
 3679TIP3   OH210981   5.078   0.315   1.891
 3679TIP3    H110982   5.055   0.222   1.902
 3679TIP3    H210983   5.000   0.354   1.850
 3680TIP3   OH210984   7.172   3.585   2.502
 3680TIP3    H110985   7.102   3.612   2.443
 3680TIP3    H210986   7.252   3.608   2.456
 3681TIP3   OH210987   7.754   4.723   3.361
 3681TIP3    H110988   7.793   4.715   3.274
 3681TIP3    H210989   7.741   4.817   3.374
 3682TIP3   OH210990   6.331   4.026   6.065
 3682TIP3    H110991   6.362   4.109   6.028
 3682TIP3    H210992   6.286   3.982   5.992
 3683TIP3   OH210993   0.378   7.313   1.536
 3683TIP3    H110994   0.335   7.372   1.474
 3683TIP3    H210995   0.460   7.289   1.494
 3684TIP3   OH210996   3.323   6.560   0.024
 3684TIP3    H110997   3.381   6.538   0.096
 3684TIP3    H210998   3.374   6.620  -0.031
 3685TIP3   OH210999   0.825   0.543   1.295
 3685TIP3    H111000   0.837   0.449   1.304
 3685TIP3    H211001   0.868   0.565   1.212
 3686TIP3   OH211002   5.712   0.020   1.836
 3686TIP3    H111003   5.790   0.024   1.890
 3686TIP3    H211004   5.736   0.065   1.755
 3687TIP3   OH211005   3.002   6.280   1.288
 3687TIP3    H111006   2.964   6.360   1.250
 3687TIP3    H211007   2.996   6.294   1.383
 3688TIP3   OH211008   6.017   6.100   2.490
 3688TIP3    H111009   6.105   6.120   2.459
 3688TIP3    H211010   5.964   6.093   2.410
 3689TIP3   OH211011   7.170   5.175   3.870
 3689TIP3    H111012   7.121   5.201   3.948
 3689TIP3    H211013   7.260   5.165   3.900
 3690TIP3   OH211014   5.332   7.301   2.476
 3690TIP3    H111015   5.339   7.208   2.457
 3690TIP3    H211016   5.245   7.326   2.444
 3691TIP3   OH211017   4.391   6.186   6.535
 3691TIP3    H111018   4.424   6.276   6.545
 3691TIP3    H211019   4.383   6.173   6.441
 3692TIP3   OH211020   1.895   0.157   5.881
 3692TIP3    H111021   1.807   0.191   5.894
 3692TIP3    H211022   1.929   0.207   5.806
 3693TIP3   OH211023   5.593   5.894   3.895
 3693TIP3    H111024   5.556   5.966   3.946
 3693TIP3    H211025   5.533   5.821   3.910
 3694TIP3   OH211026   1.398   1.557   2.287
 3694TIP3    H111027   1.437   1.559   2.374
 3694TIP3    H211028   1.409   1.646   2.253
 3695TIP3   OH211029   3.381   5.389   4.258
 3695TIP3    H111030   3.301   5.338   4.270
 3695TIP3    H211031   3.445   5.347   4.316
 3696TIP3   OH211032   6.011   1.294   4.459
 3696TIP3    H111033   5.953   1.304   4.535
 3696TIP3    H211034   6.099   1.308   4.494
 3697TIP3   OH211035   0.689   5.298   0.179
 3697TIP3    H111036   0.675   5.266   0.268
 3697TIP3    H211037   0.658   5.388   0.181
 3698TIP3   OH211038   1.472   5.496   2.887
 3698TIP3    H111039   1.378   5.504   2.870
 3698TIP3    H211040   1.507   5.456   2.808
 3699TIP3   OH211041   6.972   1.147   3.379
 3699TIP3    H111042   7.052   1.164   3.430
 3699TIP3    H211043   6.984   1.198   3.299
 3700TIP3   OH211044   3.172   3.392   5.931
 3700TIP3    H111045   3.149   3.386   6.024
 3700TIP3    H211046   3.216   3.476   5.923
 3701TIP3   OH211047   6.042   3.628   5.665
 3701TIP3    H111048   6.025   3.664   5.578
 3701TIP3    H211049   6.138   3.626   5.671
 3702TIP3   OH211050   2.371   3.404   6.289
 3702TIP3    H111051   2.388   3.416   6.382
 3702TIP3    H211052   2.293   3.457   6.272
 3703TIP3   OH211053   7.605   6.357   5.350
 3703TIP3    H111054   7.652   6.393   5.425
 3703TIP3    H211055   7.615   6.262   5.360
 3704TIP3   OH211056   2.559   7.725   5.026
 3704TIP3    H111057   2.464   7.734   5.027
 3704TIP3    H211058   2.591   7.802   5.074
 3705TIP3   OH211059   3.610   6.113   2.702
 3705TIP3    H111060   3.679   6.133   2.638
 3705TIP3    H211061   3.604   6.193   2.755
 3706TIP3   OH211062   4.792   1.609   3.241
 3706TIP3    H111063   4.802   1.585   3.149
 3706TIP3    H211064   4.784   1.525   3.286
 3707TIP3   OH211065   5.324   6.678   5.842
 3707TIP3    H111066   5.232   6.705   5.847
 3707TIP3    H211067   5.365   6.717   5.920
 3708TIP3   OH211068   7.764   0.141   3.803
 3708TIP3    H111069   7.763   0.050   3.834
 3708TIP3    H211070   7.767   0.134   3.708
 3709TIP3   OH211071   6.532   4.905   6.558
 3709TIP3    H111072   6.462   4.969   6.544
 3709TIP3    H211073   6.519   4.839   6.490
 3710TIP3   OH211074   7.849   5.734   4.076
 3710TIP3    H111075   7.908   5.751   4.003
 3710TIP3    H211076   7.868   5.644   4.102
 3711TIP3   OH211077   2.457   1.257   1.227
 3711TIP3    H111078   2.507   1.184   1.263
 3711TIP3    H211079   2.503   1.336   1.255
 3712TIP3   OH211080   7.431   1.014   0.544
 3712TIP3    H111081   7.445   0.934   0.593
 3712TIP3    H211082   7.435   0.987   0.452
 3713TIP3   OH211083   5.753   7.383   0.021
 3713TIP3    H111084   5.696   7.452  -0.013
 3713TIP3    H211085   5.697   7.332   0.080
 3714TIP3   OH211086   2.653   5.580   4.234
 3714TIP3    H111087   2.565   5.553   4.262
 3714TIP3    H211088   2.652   5.567   4.139
 3715TIP3   OH211089   3.989   7.036   0.129
 3715TIP3    H111090   4.060   7.099   0.130
 3715TIP3    H211091   3.909   7.090   0.129
 3716TIP3   OH211092   2.915   7.145   6.313
 3716TIP3    H111093   2.963   7.178   6.237
 3716TIP3    H211094   2.880   7.224   6.355
 3717TIP3   OH211095   0.983   1.127   5.872
 3717TIP3    H111096   0.932   1.198   5.835
 3717TIP3    H211097   0.957   1.123   5.963
 3718TIP3   OH211098   4.821   6.169   4.701
 3718TIP3    H111099   4.746   6.173   4.760
 3718TIP3    H211100   4.783   6.164   4.613
 3719TIP3   OH211101   4.982   1.780   3.410
 3719TIP3    H111102   4.961   1.693   3.377
 3719TIP3    H211103   4.919   1.794   3.481
 3720TIP3   OH211104   6.204   5.102   2.012
 3720TIP3    H111105   6.141   5.149   1.957
 3720TIP3    H211106   6.151   5.059   2.079
 3721TIP3   OH211107   1.054   1.625   5.588
 3721TIP3    H111108   1.033   1.621   5.495
 3721TIP3    H211109   1.012   1.704   5.620
 3722TIP3   OH211110   0.086   6.610   6.129
 3722TIP3    H111111   0.016   6.610   6.063
 3722TIP3    H211112   0.141   6.685   6.104
 3723TIP3   OH211113   5.949   1.557   6.691
 3723TIP3    H111114   6.023   1.595   6.740
 3723TIP3    H211115   5.881   1.544   6.757
 3724TIP3   OH211116   1.679   3.192   6.257
 3724TIP3    H111117   1.764   3.157   6.231
 3724TIP3    H211118   1.669   3.272   6.204
 3725TIP3   OH211119   7.437   4.933   4.829
 3725TIP3    H111120   7.373   4.949   4.760
 3725TIP3    H211121   7.415   4.846   4.864
 3726TIP3   OH211122   0.417   6.573   3.925
 3726TIP3    H111123   0.427   6.661   3.889
 3726TIP3    H211124   0.427   6.584   4.019
 3727TIP3   OH211125   6.173   5.257   6.035
 3727TIP3    H111126   6.078   5.247   6.044
 3727TIP3    H211127   6.196   5.328   6.095
 3728TIP3   OH211128   4.862   5.151   1.786
 3728TIP3    H111129   4.881   5.199   1.867
 3728TIP3    H211130   4.924   5.078   1.786
 3729TIP3   OH211131   2.689   4.971   0.887
 3729TIP3    H111132   2.705   5.027   0.963
 3729TIP3    H211133   2.775   4.965   0.844
 3730TIP3   OH211134   5.903   5.269   1.474
 3730TIP3    H111135   5.854   5.348   1.497
 3730TIP3    H211136   5.864   5.239   1.392
 3731TIP3   OH211137   7.521   2.029   1.518
 3731TIP3    H111138   7.491   2.119   1.528
 3731TIP3    H211139   7.550   2.023   1.427
 3732TIP3   OH211140   6.970   4.855   0.964
 3732TIP3    H111141   7.005   4.769   0.987
 3732TIP3    H211142   7.027   4.917   1.010
 3733TIP3   OH211143   3.718   6.820   1.366
 3733TIP3    H111144   3.778   6.891   1.343
 3733TIP3    H211145   3.631   6.853   1.341
 3734TIP3   OH211146   1.419   3.016   6.228
 3734TIP3    H111147   1.508   3.022   6.194
 3734TIP3    H211148   1.365   3.060   6.162
 3735TIP3   OH211149   3.039   5.489   6.424
 3735TIP3    H111150   2.977   5.446   6.483
 3735TIP3    H211151   3.093   5.542   6.482
 3736TIP3   OH211152   4.612   6.815   4.369
 3736TIP3    H111153   4.639   6.735   4.414
 3736TIP3    H211154   4.693   6.864   4.356
 3737TIP3   OH211155   3.332   4.056   6.086
 3737TIP3    H111156   3.274   4.077   6.159
 3737TIP3    H211157   3.312   4.123   6.020
 3738TIP3   OH211158   3.881   6.974   1.234
 3738TIP3    H111159   3.966   6.933   1.215
 3738TIP3    H211160   3.871   7.042   1.167
 3739TIP3   OH211161   5.241   2.456   5.818
 3739TIP3    H111162   5.330   2.421   5.819
 3739TIP3    H211163   5.214   2.456   5.909
 3740TIP3   OH211164   1.362   1.121   3.090
 3740TIP3    H111165   1.394   1.152   3.005
 3740TIP3    H211166   1.280   1.169   3.103
 3741TIP3   OH211167   0.219   5.983   3.059
 3741TIP3    H111168   0.312   5.972   3.078
 3741TIP3    H211169   0.217   6.006   2.966
 3742TIP3   OH211170   2.802   5.226   5.009
 3742TIP3    H111171   2.776   5.138   5.035
 3742TIP3    H211172   2.731   5.282   5.041
 3743TIP3   OH211173   0.177   3.890   4.395
 3743TIP3    H111174   0.203   3.940   4.317
 3743TIP3    H211175   0.249   3.828   4.408
 3744TIP3   OH211176   0.505   0.859   4.533
 3744TIP3    H111177   0.548   0.938   4.566
 3744TIP3    H211178   0.416   0.887   4.512
 3745TIP3   OH211179   7.953   5.976   0.170
 3745TIP3    H111180   7.949   5.958   0.076
 3745TIP3    H211181   7.899   5.908   0.210
 3746TIP3   OH211182   6.058   3.085   5.749
 3746TIP3    H111183   6.107   3.031   5.687
 3746TIP3    H211184   6.037   3.025   5.821
 3747TIP3   OH211185   4.598   2.093   3.920
 3747TIP3    H111186   4.565   2.175   3.884
 3747TIP3    H211187   4.617   2.039   3.844
 3748TIP3   OH211188   6.400   0.316   5.233
 3748TIP3    H111189   6.492   0.292   5.219
 3748TIP3    H211190   6.382   0.291   5.324
 3749TIP3   OH211191   2.467   4.371   2.633
 3749TIP3    H111192   2.422   4.420   2.702
 3749TIP3    H211193   2.435   4.410   2.552
 3750TIP3   OH211194   7.997   6.271   6.012
 3750TIP3    H111195   7.940   6.221   5.954
 3750TIP3    H211196   8.086   6.249   5.983
 3751TIP3   OH211197   5.005   4.582   5.247
 3751TIP3    H111198   5.067   4.519   5.286
 3751TIP3    H211199   5.001   4.558   5.155
 3752TIP3   OH211200   4.203   2.285   5.801
 3752TIP3    H111201   4.298   2.275   5.793
 3752TIP3    H211202   4.167   2.234   5.729
 3753TIP3   OH211203   0.085   7.061   2.457
 3753TIP3    H111204   0.023   7.009   2.508
 3753TIP3    H211205   0.108   7.004   2.383
 3754TIP3   OH211206   5.350   1.092   0.175
 3754TIP3    H111207   5.435   1.050   0.190
 3754TIP3    H211208   5.368   1.163   0.113
 3755TIP3   OH211209   6.538   7.416   5.182
 3755TIP3    H111210   6.624   7.384   5.155
 3755TIP3    H211211   6.485   7.337   5.191
 3756TIP3   OH211212   3.341   4.299   2.541
 3756TIP3    H111213   3.420   4.246   2.529
 3756TIP3    H211214   3.348   4.368   2.476
 3757TIP3   OH211215   3.367   5.224   0.925
 3757TIP3    H111216   3.345   5.211   0.832
 3757TIP3    H211217   3.368   5.319   0.935
 3758TIP3   OH211218   2.592   4.759   0.568
 3758TIP3    H111219   2.626   4.691   0.510
 3758TIP3    H211220   2.646   4.753   0.647
 3759TIP3   OH211221   2.171   1.817   3.212
 3759TIP3    H111222   2.171   1.818   3.307
 3759TIP3    H211223   2.212   1.900   3.187
 3760TIP3   OH211224   5.365   0.506   3.487
 3760TIP3    H111225   5.341   0.564   3.415
 3760TIP3    H211226   5.397   0.427   3.443
 3761TIP3   OH211227   3.200   3.337   2.331
 3761TIP3    H111228   3.244   3.404   2.279
 3761TIP3    H211229   3.235   3.254   2.297
 3762TIP3   OH211230   5.379   6.751   3.758
 3762TIP3    H111231   5.405   6.717   3.672
 3762TIP3    H211232   5.436   6.827   3.772
 3763TIP3   OH211233   2.358   2.342   3.973
 3763TIP3    H111234   2.348   2.391   4.054
 3763TIP3    H211235   2.450   2.353   3.949
 3764TIP3   OH211236   7.787   1.079   0.587
 3764TIP3    H111237   7.873   1.113   0.610
 3764TIP3    H211238   7.794   0.985   0.601
 3765TIP3   OH211239   2.081   7.637   2.825
 3765TIP3    H111240   2.109   7.717   2.868
 3765TIP3    H211241   2.067   7.662   2.734
 3766TIP3   OH211242   7.911   5.569   0.356
 3766TIP3    H111243   7.945   5.653   0.387
 3766TIP3    H211244   7.922   5.509   0.429
 3767TIP3   OH211245   1.836   2.110   6.523
 3767TIP3    H111246   1.756   2.142   6.481
 3767TIP3    H211247   1.874   2.049   6.460
 3768TIP3   OH211248   3.201   4.884   0.341
 3768TIP3    H111249   3.246   4.883   0.425
 3768TIP3    H211250   3.269   4.864   0.276
 3769TIP3   OH211251   8.278   1.893   6.340
 3769TIP3    H111252   8.350   1.879   6.278
 3769TIP3    H211253   8.318   1.939   6.414
 3770TIP3   OH211254   6.582   3.555   5.925
 3770TIP3    H111255   6.614   3.490   5.862
 3770TIP3    H211256   6.514   3.509   5.975
 3771TIP3   OH211257   3.445   5.586   4.740
 3771TIP3    H111258   3.355   5.569   4.767
 3771TIP3    H211259   3.437   5.620   4.651
 3772TIP3   OH211260   0.216   1.035   3.556
 3772TIP3    H111261   0.309   1.011   3.556
 3772TIP3    H211262   0.211   1.114   3.609
 3773TIP3   OH211263   3.674   1.211   4.867
 3773TIP3    H111264   3.579   1.200   4.859
 3773TIP3    H211265   3.695   1.284   4.809
 3774TIP3   OH211266   6.357   6.477   1.343
 3774TIP3    H111267   6.291   6.543   1.322
 3774TIP3    H211268   6.429   6.526   1.381
 3775TIP3   OH211269   3.282   4.551   1.691
 3775TIP3    H111270   3.259   4.619   1.628
 3775TIP3    H211271   3.371   4.573   1.719
 3776TIP3   OH211272   4.650   4.182   4.714
 3776TIP3    H111273   4.703   4.168   4.793
 3776TIP3    H211274   4.565   4.213   4.747
 3777TIP3   OH211275   8.195   4.226   1.553
 3777TIP3    H111276   8.132   4.283   1.510
 3777TIP3    H211277   8.207   4.153   1.492
 3778TIP3   OH211278   3.261   4.810   1.893
 3778TIP3    H111279   3.247   4.878   1.958
 3778TIP3    H211280   3.173   4.777   1.873
 3779TIP3   OH211281   3.026   6.631   6.047
 3779TIP3    H111282   3.080   6.684   5.988
 3779TIP3    H211283   2.942   6.676   6.050
 3780TIP3   OH211284   3.701   1.446   1.139
 3780TIP3    H111285   3.771   1.510   1.154
 3780TIP3    H211286   3.703   1.390   1.217
 3781TIP3   OH211287   7.123   7.413   0.967
 3781TIP3    H111288   7.091   7.406   0.877
 3781TIP3    H211289   7.113   7.325   1.003
 3782TIP3   OH211290   1.920   5.987   6.642
 3782TIP3    H111291   1.985   6.052   6.613
 3782TIP3    H211292   1.836   6.031   6.632
 3783TIP3   OH211293   4.692   0.876   1.855
 3783TIP3    H111294   4.685   0.795   1.906
 3783TIP3    H211295   4.770   0.920   1.889
 3784TIP3   OH211296   0.299   5.110   1.515
 3784TIP3    H111297   0.299   5.147   1.603
 3784TIP3    H211298   0.332   5.021   1.526
 3785TIP3   OH211299   5.968   1.846   1.597
 3785TIP3    H111300   6.009   1.930   1.577
 3785TIP3    H211301   5.929   1.857   1.684
 3786TIP3   OH211302   2.342   1.331   3.784
 3786TIP3    H111303   2.292   1.307   3.707
 3786TIP3    H211304   2.425   1.284   3.776
 3787TIP3   OH211305   1.322   1.465   3.128
 3787TIP3    H111306   1.332   1.475   3.223
 3787TIP3    H211307   1.239   1.418   3.117
 3788TIP3   OH211308   6.804   2.519   2.221
 3788TIP3    H111309   6.834   2.447   2.277
 3788TIP3    H211310   6.709   2.520   2.232
 3789TIP3   OH211311   1.697   3.506   6.404
 3789TIP3    H111312   1.610   3.467   6.411
 3789TIP3    H211313   1.753   3.452   6.459
 3790TIP3   OH211314   2.453   6.820   5.397
 3790TIP3    H111315   2.481   6.909   5.375
 3790TIP3    H211316   2.511   6.793   5.468
 3791TIP3   OH211317   2.608   6.797   3.240
 3791TIP3    H111318   2.600   6.812   3.145
 3791TIP3    H211319   2.523   6.819   3.276
 3792TIP3   OH211320   7.865   7.464   0.511
 3792TIP3    H111321   7.797   7.519   0.472
 3792TIP3    H211322   7.817   7.391   0.551
 3793TIP3   OH211323   7.657   1.971   0.129
 3793TIP3    H111324   7.650   1.912   0.204
 3793TIP3    H211325   7.748   1.964   0.101
 3794TIP3   OH211326   7.608   2.555   4.326
 3794TIP3    H111327   7.638   2.467   4.302
 3794TIP3    H211328   7.519   2.560   4.291
 3795TIP3   OH211329   5.677   2.348   0.473
 3795TIP3    H111330   5.633   2.374   0.392
 3795TIP3    H211331   5.751   2.295   0.443
 3796TIP3   OH211332   6.435   5.371   1.577
 3796TIP3    H111333   6.443   5.278   1.553
 3796TIP3    H211334   6.343   5.380   1.603
 3797TIP3   OH211335   4.795   6.764   4.836
 3797TIP3    H111336   4.751   6.780   4.920
 3797TIP3    H211337   4.838   6.680   4.847
 3798TIP3   OH211338   2.159   4.249   1.526
 3798TIP3    H111339   2.094   4.285   1.586
 3798TIP3    H211340   2.243   4.261   1.571
 3799TIP3   OH211341   2.580   0.177   0.603
 3799TIP3    H111342   2.649   0.162   0.668
 3799TIP3    H211343   2.536   0.093   0.595
 3800TIP3   OH211344   6.087   4.034   2.101
 3800TIP3    H111345   6.092   4.123   2.066
 3800TIP3    H211346   6.015   3.993   2.053
 3801TIP3   OH211347   4.703   0.088   0.990
 3801TIP3    H111348   4.749   0.063   0.910
 3801TIP3    H211349   4.638   0.152   0.960
 3802TIP3   OH211350   5.781   4.456   4.776
 3802TIP3    H111351   5.693   4.492   4.762
 3802TIP3    H211352   5.822   4.517   4.839
 3803TIP3   OH211353   0.769   5.436   3.399
 3803TIP3    H111354   0.680   5.409   3.419
 3803TIP3    H211355   0.819   5.354   3.399
 3804TIP3   OH211356   2.213   7.266   6.362
 3804TIP3    H111357   2.217   7.351   6.405
 3804TIP3    H211358   2.197   7.204   6.433
 3805TIP3   OH211359   1.072   1.175   5.113
 3805TIP3    H111360   1.143   1.160   5.050
 3805TIP3    H211361   1.010   1.104   5.098
 3806TIP3   OH211362   1.559   3.301   1.346
 3806TIP3    H111363   1.625   3.292   1.414
 3806TIP3    H211364   1.583   3.380   1.299
 3807TIP3   OH211365   6.858   1.999   3.032
 3807TIP3    H111366   6.862   2.052   2.952
 3807TIP3    H211367   6.768   1.967   3.036
 3808TIP3   OH211368   3.519   1.986   3.049
 3808TIP3    H111369   3.519   2.054   2.981
 3808TIP3    H211370   3.548   2.032   3.128
 3809TIP3   OH211371   3.055   4.263   6.496
 3809TIP3    H111372   2.959   4.269   6.495
 3809TIP3    H211373   3.084   4.354   6.503
 3810TIP3   OH211374   7.785   5.484   2.094
 3810TIP3    H111375   7.753   5.393   2.093
 3810TIP3    H211376   7.880   5.475   2.101
 3811TIP3   OH211377   1.992   0.813   2.014
 3811TIP3    H111378   2.070   0.818   1.958
 3811TIP3    H211379   1.956   0.902   2.013
 3812TIP3   OH211380   5.665   0.465   6.142
 3812TIP3    H111381   5.719   0.482   6.065
 3812TIP3    H211382   5.577   0.493   6.117
 3813TIP3   OH211383   3.509   4.150   3.624
 3813TIP3    H111384   3.544   4.112   3.544
 3813TIP3    H211385   3.537   4.242   3.622
 3814TIP3   OH211386   7.150   1.995   1.577
 3814TIP3    H111387   7.149   1.994   1.481
 3814TIP3    H211388   7.152   1.903   1.602
 3815TIP3   OH211389   5.116   3.442   2.800
 3815TIP3    H111390   5.150   3.367   2.849
 3815TIP3    H211391   5.131   3.420   2.708
 3816TIP3   OH211392   3.815   1.287   4.300
 3816TIP3    H111393   3.896   1.269   4.347
 3816TIP3    H211394   3.745   1.268   4.363
 3817TIP3   OH211395   0.666   4.237   2.490
 3817TIP3    H111396   0.581   4.227   2.448
 3817TIP3    H211397   0.671   4.164   2.552
 3818TIP3   OH211398   8.124   3.737   6.413
 3818TIP3    H111399   8.063   3.702   6.348
 3818TIP3    H211400   8.147   3.824   6.380
 3819TIP3   OH211401   5.729   2.181   0.685
 3819TIP3    H111402   5.707   2.256   0.629
 3819TIP3    H211403   5.652   2.124   0.680
 3820TIP3   OH211404   2.529   2.486   1.882
 3820TIP3    H111405   2.470   2.491   1.957
 3820TIP3    H211406   2.495   2.552   1.821
 3821TIP3   OH211407   5.167   3.560   6.692
 3821TIP3    H111408   5.204   3.638   6.649
 3821TIP3    H211409   5.102   3.595   6.752
 3822TIP3   OH211410   2.674   5.804   5.457
 3822TIP3    H111411   2.689   5.767   5.370
 3822TIP3    H211412   2.653   5.896   5.441
 3823TIP3   OH211413   6.279  -0.001   6.765
 3823TIP3    H111414   6.363  -0.001   6.812
 3823TIP3    H211415   6.248   0.090   6.770
 3824TIP3   OH211416   4.299   7.598   4.701
 3824TIP3    H111417   4.321   7.671   4.643
 3824TIP3    H211418   4.280   7.525   4.642
 3825TIP3   OH211419   5.003   2.216   3.472
 3825TIP3    H111420   4.992   2.180   3.560
 3825TIP3    H211421   5.015   2.139   3.416
 3826TIP3   OH211422   1.422   4.970   0.651
 3826TIP3    H111423   1.464   5.022   0.582
 3826TIP3    H211424   1.339   4.942   0.613
 3827TIP3   OH211425   2.002   2.614   0.243
 3827TIP3    H111426   2.031   2.558   0.315
 3827TIP3    H211427   2.070   2.605   0.176
 3828TIP3   OH211428   5.837   1.619   4.891
 3828TIP3    H111429   5.809   1.536   4.931
 3828TIP3    H211430   5.920   1.639   4.934
 3829TIP3   OH211431   3.838   2.177   3.461
 3829TIP3    H111432   3.859   2.188   3.553
 3829TIP3    H211433   3.921   2.148   3.421
 3830TIP3   OH211434   0.024   4.766   1.500
 3830TIP3    H111435   0.033   4.860   1.485
 3830TIP3    H211436  -0.045   4.760   1.567
 3831TIP3   OH211437   4.425   1.275   6.437
 3831TIP3    H111438   4.455   1.306   6.523
 3831TIP3    H211439   4.504   1.244   6.393
 3832TIP3   OH211440   6.160   6.253   2.009
 3832TIP3    H111441   6.077   6.267   1.965
 3832TIP3    H211442   6.174   6.333   2.060
 3833TIP3   OH211443   2.052   1.028   6.073
 3833TIP3    H111444   2.082   1.118   6.062
 3833TIP3    H211445   1.956   1.035   6.072
 3834TIP3   OH211446   1.679   0.242   6.149
 3834TIP3    H111447   1.638   0.240   6.062
 3834TIP3    H211448   1.759   0.192   6.140
 3835TIP3   OH211449   7.259   6.980   1.020
 3835TIP3    H111450   7.199   7.031   0.965
 3835TIP3    H211451   7.223   6.892   1.020
 3836TIP3   OH211452   7.624   2.274   5.778
 3836TIP3    H111453   7.627   2.366   5.752
 3836TIP3    H211454   7.611   2.276   5.872
 3837TIP3   OH211455   1.177   7.724   0.168
 3837TIP3    H111456   1.198   7.817   0.176
 3837TIP3    H211457   1.123   7.706   0.245
 3838TIP3   OH211458   8.022   0.792   0.522
 3838TIP3    H111459   7.993   0.729   0.456
 3838TIP3    H211460   7.965   0.778   0.597
 3839TIP3   OH211461   7.610   3.801   0.142
 3839TIP3    H111462   7.525   3.802   0.098
 3839TIP3    H211463   7.588   3.787   0.234
 3840TIP3   OH211464   3.154   6.850   0.432
 3840TIP3    H111465   3.222   6.842   0.365
 3840TIP3    H211466   3.079   6.888   0.386
 3841TIP3   OH211467   2.695   1.329   0.659
 3841TIP3    H111468   2.718   1.267   0.589
 3841TIP3    H211469   2.665   1.407   0.613
 3842TIP3   OH211470   2.980   5.796   6.633
 3842TIP3    H111471   3.057   5.740   6.642
 3842TIP3    H211472   2.972   5.839   6.718
 3843TIP3   OH211473   1.011   1.766   0.162
 3843TIP3    H111474   1.050   1.679   0.171
 3843TIP3    H211475   1.078   1.825   0.196
 3844TIP3   OH211476   4.364   3.380   5.930
 3844TIP3    H111477   4.458   3.368   5.917
 3844TIP3    H211478   4.344   3.327   6.008
 3845TIP3   OH211479   5.085   1.691   1.390
 3845TIP3    H111480   5.059   1.672   1.299
 3845TIP3    H211481   5.009   1.668   1.442
 3846TIP3   OH211482   6.968   5.547   4.737
 3846TIP3    H111483   7.056   5.533   4.704
 3846TIP3    H211484   6.920   5.583   4.663
 3847TIP3   OH211485   4.302   4.799   4.826
 3847TIP3    H111486   4.213   4.834   4.824
 3847TIP3    H211487   4.328   4.796   4.734
 3848TIP3   OH211488   6.373   6.416   4.672
 3848TIP3    H111489   6.301   6.479   4.680
 3848TIP3    H211490   6.445   6.456   4.721
 3849TIP3   OH211491   7.779   4.004   2.568
 3849TIP3    H111492   7.749   4.008   2.659
 3849TIP3    H211493   7.788   4.095   2.541
 3850TIP3   OH211494   8.130   3.850   2.224
 3850TIP3    H111495   8.060   3.793   2.191
 3850TIP3    H211496   8.112   3.858   2.318
 3851TIP3   OH211497   1.372   7.018   2.323
 3851TIP3    H111498   1.350   7.085   2.258
 3851TIP3    H211499   1.349   7.057   2.407
 3852TIP3   OH211500   0.604   0.089   2.053
 3852TIP3    H111501   0.584   0.080   2.146
 3852TIP3    H211502   0.681   0.145   2.050
 3853TIP3   OH211503   3.648   0.972   4.617
 3853TIP3    H111504   3.669   0.987   4.709
 3853TIP3    H211505   3.662   0.879   4.603
 3854TIP3   OH211506   4.689   7.768   4.749
 3854TIP3    H111507   4.680   7.750   4.842
 3854TIP3    H211508   4.719   7.685   4.711
 3855TIP3   OH211509   6.581   6.100   6.320
 3855TIP3    H111510   6.661   6.048   6.317
 3855TIP3    H211511   6.510   6.035   6.320
 3856TIP3   OH211512   1.681   6.277   1.710
 3856TIP3    H111513   1.595   6.249   1.676
 3856TIP3    H211514   1.662   6.313   1.796
 3857TIP3   OH211515   6.837   0.626   3.567
 3857TIP3    H111516   6.894   0.549   3.568
 3857TIP3    H211517   6.897   0.700   3.561
 3858TIP3   OH211518   0.910   2.693   4.861
 3858TIP3    H111519   0.919   2.785   4.837
 3858TIP3    H211520   0.996   2.667   4.893
 3859TIP3   OH211521   2.346   1.964   0.051
 3859TIP3    H111522   2.373   2.048   0.014
 3859TIP3    H211523   2.417   1.941   0.111
 3860TIP3   OH211524   1.150   2.102   4.967
 3860TIP3    H111525   1.212   2.051   4.915
 3860TIP3    H211526   1.190   2.189   4.973
 3861TIP3   OH211527   4.660   5.466   0.479
 3861TIP3    H111528   4.644   5.375   0.505
 3861TIP3    H211529   4.663   5.463   0.383
 3862TIP3   OH211530   7.015   5.340   5.742
 3862TIP3    H111531   7.021   5.294   5.826
 3862TIP3    H211532   6.941   5.399   5.752
 3863TIP3   OH211533   0.065   0.148   5.041
 3863TIP3    H111534   0.069   0.213   4.971
 3863TIP3    H211535   0.121   0.077   5.011
 3864TIP3   OH211536   7.055   3.142   6.428
 3864TIP3    H111537   7.128   3.200   6.453
 3864TIP3    H211538   6.996   3.199   6.379
 3865TIP3   OH211539   2.155   5.220   4.290
 3865TIP3    H111540   2.250   5.227   4.287
 3865TIP3    H211541   2.138   5.171   4.371
 3866TIP3   OH211542   4.372   7.382   3.771
 3866TIP3    H111543   4.320   7.358   3.694
 3866TIP3    H211544   4.352   7.314   3.836
 3867TIP3   OH211545   0.594   3.445   1.453
 3867TIP3    H111546   0.664   3.399   1.499
 3867TIP3    H211547   0.579   3.524   1.505
 3868TIP3   OH211548   2.186   5.302   0.667
 3868TIP3    H111549   2.169   5.396   0.658
 3868TIP3    H211550   2.274   5.297   0.704
 3869TIP3   OH211551   5.105   6.220   5.355
 3869TIP3    H111552   5.025   6.207   5.406
 3869TIP3    H211553   5.127   6.133   5.322
 3870TIP3   OH211554   1.769   1.668   3.163
 3870TIP3    H111555   1.830   1.601   3.195
 3870TIP3    H211556   1.709   1.620   3.106
 3871TIP3   OH211557   0.933   2.604   2.449
 3871TIP3    H111558   0.946   2.542   2.377
 3871TIP3    H211559   0.889   2.552   2.517
 3872TIP3   OH211560   5.062   4.994   3.890
 3872TIP3    H111561   5.142   4.994   3.837
 3872TIP3    H211562   5.018   5.075   3.866
 3873TIP3   OH211563   7.430   7.733   1.396
 3873TIP3    H111564   7.362   7.683   1.352
 3873TIP3    H211565   7.385   7.780   1.466
 3874TIP3   OH211566   7.369   4.281   0.765
 3874TIP3    H111567   7.463   4.295   0.776
 3874TIP3    H211568   7.361   4.198   0.719
 3875TIP3   OH211569   2.390   4.400   6.524
 3875TIP3    H111570   2.397   4.493   6.542
 3875TIP3    H211571   2.395   4.393   6.429
 3876TIP3   OH211572   1.432   4.076   5.959
 3876TIP3    H111573   1.526   4.096   5.965
 3876TIP3    H211574   1.399   4.137   5.894
 3877TIP3   OH211575   4.670   0.306   4.297
 3877TIP3    H111576   4.700   0.389   4.333
 3877TIP3    H211577   4.576   0.305   4.312
 3878TIP3   OH211578   5.794   3.089   0.027
 3878TIP3    H111579   5.819   2.999   0.005
 3878TIP3    H211580   5.704   3.081   0.059
 3879TIP3   OH211581   3.423   4.824   1.190
 3879TIP3    H111582   3.408   4.895   1.128
 3879TIP3    H211583   3.393   4.745   1.145
 3880TIP3   OH211584   4.397   5.249   2.651
 3880TIP3    H111585   4.341   5.178   2.683
 3880TIP3    H211586   4.366   5.264   2.561
 3881TIP3   OH211587   4.446   3.028   3.257
 3881TIP3    H111588   4.382   3.066   3.317
 3881TIP3    H211589   4.528   3.070   3.280
 3882TIP3   OH211590   2.620   3.503   6.240
 3882TIP3    H111591   2.525   3.487   6.235
 3882TIP3    H211592   2.653   3.431   6.295
 3883TIP3   OH211593   1.150   3.709   0.146
 3883TIP3    H111594   1.112   3.795   0.131
 3883TIP3    H211595   1.243   3.720   0.129
 3884TIP3   OH211596   6.868   5.708   2.999
 3884TIP3    H111597   6.806   5.645   3.035
 3884TIP3    H211598   6.949   5.659   2.987
 3885TIP3   OH211599   1.305   7.593   0.586
 3885TIP3    H111600   1.287   7.518   0.643
 3885TIP3    H211601   1.284   7.562   0.498
 3886TIP3   OH211602   0.441   4.169   5.517
 3886TIP3    H111603   0.476   4.145   5.431
 3886TIP3    H211604   0.386   4.095   5.542
 3887TIP3   OH211605   3.823   0.233   3.544
 3887TIP3    H111606   3.908   0.253   3.583
 3887TIP3    H211607   3.780   0.177   3.608
 3888TIP3   OH211608   6.141   7.820   1.619
 3888TIP3    H111609   6.047   7.838   1.625
 3888TIP3    H211610   6.157   7.751   1.684
 3889TIP3   OH211611   0.473   3.024   6.275
 3889TIP3    H111612   0.433   2.947   6.315
 3889TIP3    H211613   0.543   2.989   6.220
 3890TIP3   OH211614   5.385   1.905   4.785
 3890TIP3    H111615   5.354   1.852   4.712
 3890TIP3    H211616   5.375   1.996   4.756
 3891TIP3   OH211617   2.434   1.295   3.482
 3891TIP3    H111618   2.388   1.216   3.453
 3891TIP3    H211619   2.473   1.331   3.403
 3892TIP3   OH211620   4.749   3.759   1.127
 3892TIP3    H111621   4.698   3.762   1.208
 3892TIP3    H211622   4.840   3.764   1.156
 3893TIP3   OH211623   6.985   0.996   0.063
 3893TIP3    H111624   6.960   0.907   0.040
 3893TIP3    H211625   6.956   1.049  -0.011
 3894TIP3   OH211626   1.580   2.003   4.579
 3894TIP3    H111627   1.651   1.959   4.627
 3894TIP3    H211628   1.591   2.096   4.600
 3895TIP3   OH211629   4.171   2.912   1.006
 3895TIP3    H111630   4.209   2.839   0.958
 3895TIP3    H211631   4.225   2.987   0.982
 3896TIP3   OH211632   3.288   2.166   1.496
 3896TIP3    H111633   3.228   2.238   1.481
 3896TIP3    H211634   3.271   2.139   1.586
 3897TIP3   OH211635   1.190   5.280   5.675
 3897TIP3    H111636   1.243   5.232   5.611
 3897TIP3    H211637   1.103   5.241   5.669
 3898TIP3   OH211638   5.766   5.669   1.005
 3898TIP3    H111639   5.791   5.750   0.959
 3898TIP3    H211640   5.849   5.629   1.029
 3899TIP3   OH211641   6.767   3.978   6.201
 3899TIP3    H111642   6.707   3.915   6.162
 3899TIP3    H211643   6.736   3.988   6.292
 3900TIP3   OH211644   1.401   0.655   6.346
 3900TIP3    H111645   1.434   0.606   6.271
 3900TIP3    H211646   1.464   0.727   6.357
 3901TIP3   OH211647   4.110   2.142   3.498
 3901TIP3    H111648   4.181   2.187   3.544
 3901TIP3    H211649   4.078   2.077   3.561
 3902TIP3   OH211650   4.933   2.788   0.210
 3902TIP3    H111651   4.961   2.749   0.128
 3902TIP3    H211652   4.859   2.735   0.238
 3903TIP3   OH211653   2.270   1.198   3.251
 3903TIP3    H111654   2.195   1.205   3.192
 3903TIP3    H211655   2.322   1.276   3.234
 3904TIP3   OH211656   7.251   6.742   1.460
 3904TIP3    H111657   7.343   6.714   1.458
 3904TIP3    H211658   7.201   6.662   1.444
 3905TIP3   OH211659   4.854   4.359   3.030
 3905TIP3    H111660   4.878   4.406   3.109
 3905TIP3    H211661   4.791   4.293   3.060
 3906TIP3   OH211662   6.137   6.976   0.528
 3906TIP3    H111663   6.117   6.888   0.558
 3906TIP3    H211664   6.232   6.985   0.538
 3907TIP3   OH211665   7.586   2.087   6.268
 3907TIP3    H111666   7.670   2.127   6.288
 3907TIP3    H211667   7.607   2.012   6.213
 3908TIP3   OH211668   3.392   0.279   0.245
 3908TIP3    H111669   3.487   0.277   0.244
 3908TIP3    H211670   3.366   0.193   0.279
 3909TIP3   OH211671   4.467   7.118   5.837
 3909TIP3    H111672   4.541   7.176   5.821
 3909TIP3    H211673   4.391   7.163   5.800
 3910TIP3   OH211674   1.754   7.236   4.274
 3910TIP3    H111675   1.820   7.305   4.268
 3910TIP3    H211676   1.715   7.248   4.360
 3911TIP3   OH211677   7.863   0.926   3.283
 3911TIP3    H111678   7.952   0.898   3.259
 3911TIP3    H211679   7.830   0.970   3.205
 3912TIP3   OH211680   5.930   3.063   3.919
 3912TIP3    H111681   5.842   3.025   3.922
 3912TIP3    H211682   5.950   3.083   4.011
 3913TIP3   OH211683   3.527   3.423   0.805
 3913TIP3    H111684   3.460   3.358   0.823
 3913TIP3    H211685   3.509   3.494   0.867
 3914TIP3   OH211686   2.299   0.655   4.728
 3914TIP3    H111687   2.260   0.742   4.722
 3914TIP3    H211688   2.288   0.630   4.820
 3915TIP3   OH211689   5.192   0.884   2.177
 3915TIP3    H111690   5.231   0.807   2.219
 3915TIP3    H211691   5.238   0.958   2.216
 3916TIP3   OH211692   3.618   6.497   6.395
 3916TIP3    H111693   3.591   6.505   6.303
 3916TIP3    H211694   3.546   6.536   6.445
 3917TIP3   OH211695   6.263   5.044   5.902
 3917TIP3    H111696   6.227   5.113   5.958
 3917TIP3    H211697   6.302   5.091   5.829
 3918TIP3   OH211698   4.094   1.420   4.675
 3918TIP3    H111699   4.119   1.466   4.756
 3918TIP3    H211700   4.108   1.485   4.606
 3919TIP3   OH211701   7.199   7.466   4.480
 3919TIP3    H111702   7.133   7.534   4.497
 3919TIP3    H211703   7.164   7.388   4.523
 3920TIP3   OH211704   4.948   3.744   3.165
 3920TIP3    H111705   4.865   3.704   3.139
 3920TIP3    H211706   4.963   3.714   3.255
 3921TIP3   OH211707   1.689   0.688   0.240
 3921TIP3    H111708   1.716   0.705   0.330
 3921TIP3    H211709   1.768   0.697   0.188
 3922TIP3   OH211710   5.803   3.639   5.824
 3922TIP3    H111711   5.783   3.732   5.835
 3922TIP3    H211712   5.888   3.637   5.780
 3923TIP3   OH211713   5.561   4.966   5.922
 3923TIP3    H111714   5.636   5.011   5.960
 3923TIP3    H211715   5.523   4.917   5.995
 3924TIP3   OH211716   0.474   7.298   4.715
 3924TIP3    H111717   0.463   7.282   4.809
 3924TIP3    H211718   0.390   7.336   4.687
 3925TIP3   OH211719   6.342   4.954   2.258
 3925TIP3    H111720   6.300   5.016   2.318
 3925TIP3    H211721   6.334   4.995   2.172
 3926TIP3   OH211722   8.208   2.374   2.125
 3926TIP3    H111723   8.253   2.362   2.042
 3926TIP3    H211724   8.247   2.453   2.162
 3927TIP3   OH211725   7.710   6.790   1.163
 3927TIP3    H111726   7.786   6.734   1.151
 3927TIP3    H211727   7.658   6.777   1.084
 3928TIP3   OH211728   2.329   5.752   1.003
 3928TIP3    H111729   2.235   5.743   1.015
 3928TIP3    H211730   2.349   5.699   0.926
 3929TIP3   OH211731   6.237   1.611   3.599
 3929TIP3    H111732   6.276   1.591   3.684
 3929TIP3    H211733   6.149   1.575   3.604
 3930TIP3   OH211734   8.053   4.698   0.534
 3930TIP3    H111735   7.983   4.634   0.546
 3930TIP3    H211736   8.097   4.672   0.453
 3931TIP3   OH211737   1.039   0.499   4.283
 3931TIP3    H111738   1.006   0.581   4.318
 3931TIP3    H211739   1.122   0.485   4.329
 3932TIP3   OH211740   3.294   2.248   6.056
 3932TIP3    H111741   3.298   2.204   6.141
 3932TIP3    H211742   3.200   2.252   6.036
 3933TIP3   OH211743   5.603   0.920   4.421
 3933TIP3    H111744   5.691   0.957   4.415
 3933TIP3    H211745   5.560   0.970   4.490
 3934TIP3   OH211746   3.916   2.900   3.684
 3934TIP3    H111747   3.912   2.819   3.734
 3934TIP3    H211748   4.008   2.927   3.690
 3935TIP3   OH211749   4.538   5.490   5.863
 3935TIP3    H111750   4.563   5.398   5.867
 3935TIP3    H211751   4.537   5.519   5.954
 3936TIP3   OH211752   4.882   3.823   4.363
 3936TIP3    H111753   4.884   3.890   4.430
 3936TIP3    H211754   4.792   3.790   4.365
 3937TIP3   OH211755   6.604   6.631   2.780
 3937TIP3    H111756   6.627   6.663   2.692
 3937TIP3    H211757   6.653   6.550   2.788
 3938TIP3   OH211758   5.383   2.579   2.681
 3938TIP3    H111759   5.309   2.610   2.629
 3938TIP3    H211760   5.352   2.584   2.771
 3939TIP3   OH211761   2.227   7.806   5.375
 3939TIP3    H111762   2.183   7.737   5.324
 3939TIP3    H211763   2.287   7.846   5.313
 3940TIP3   OH211764   1.396   3.937   0.763
 3940TIP3    H111765   1.491   3.955   0.761
 3940TIP3    H211766   1.356   4.024   0.775
 3941TIP3   OH211767   8.306   7.344   2.322
 3941TIP3    H111768   8.295   7.251   2.342
 3941TIP3    H211769   8.250   7.359   2.246
 3942TIP3   OH211770   6.099   4.783   4.492
 3942TIP3    H111771   6.148   4.702   4.478
 3942TIP3    H211772   6.098   4.825   4.406
 3943TIP3   OH211773   2.514   0.550   6.399
 3943TIP3    H111774   2.430   0.532   6.357
 3943TIP3    H211775   2.574   0.562   6.326
 3944TIP3   OH211776   6.296   3.000   4.537
 3944TIP3    H111777   6.366   3.017   4.474
 3944TIP3    H211778   6.277   2.906   4.527
 3945TIP3   OH211779   4.261   7.189   5.631
 3945TIP3    H111780   4.247   7.281   5.655
 3945TIP3    H211781   4.272   7.190   5.536
 3946TIP3   OH211782   4.583   3.308   5.663
 3946TIP3    H111783   4.649   3.241   5.676
 3946TIP3    H211784   4.562   3.304   5.570
 3947TIP3   OH211785   5.264   2.295   0.320
 3947TIP3    H111786   5.314   2.376   0.324
 3947TIP3    H211787   5.246   2.273   0.412
 3948TIP3   OH211788   5.163   5.215   5.459
 3948TIP3    H111789   5.140   5.233   5.368
 3948TIP3    H211790   5.136   5.124   5.473
 3949TIP3   OH211791   5.117   1.433   2.650
 3949TIP3    H111792   5.116   1.519   2.690
 3949TIP3    H211793   5.080   1.375   2.717
 3950TIP3   OH211794   6.621   7.035   0.051
 3950TIP3    H111795   6.637   7.127   0.031
 3950TIP3    H211796   6.645   6.988  -0.028
 3951TIP3   OH211797   7.597   7.221   5.364
 3951TIP3    H111798   7.607   7.265   5.279
 3951TIP3    H211799   7.503   7.222   5.381
 3952TIP3   OH211800   7.076   4.129   2.459
 3952TIP3    H111801   7.097   4.188   2.532
 3952TIP3    H211802   7.078   4.042   2.498
 3953TIP3   OH211803   3.184   0.292   5.308
 3953TIP3    H111804   3.277   0.271   5.301
 3953TIP3    H211805   3.175   0.374   5.260
 3954TIP3   OH211806   2.493   4.718   2.504
 3954TIP3    H111807   2.585   4.711   2.480
 3954TIP3    H211808   2.464   4.801   2.466
 3955TIP3   OH211809   4.929   2.851   6.022
 3955TIP3    H111810   4.943   2.915   5.952
 3955TIP3    H211811   5.006   2.861   6.079
 3956TIP3   OH211812   0.927   1.368   5.749
 3956TIP3    H111813   0.833   1.356   5.765
 3956TIP3    H211814   0.932   1.409   5.663
 3957TIP3   OH211815   5.744   1.690   2.072
 3957TIP3    H111816   5.781   1.776   2.095
 3957TIP3    H211817   5.716   1.654   2.156
 3958TIP3   OH211818   3.944   0.270   2.721
 3958TIP3    H111819   3.910   0.180   2.719
 3958TIP3    H211820   3.867   0.325   2.731
 3959TIP3   OH211821   6.328   6.048   4.084
 3959TIP3    H111822   6.348   5.989   4.011
 3959TIP3    H211823   6.238   6.026   4.108
 3960TIP3   OH211824   7.215   2.822   2.049
 3960TIP3    H111825   7.143   2.768   2.017
 3960TIP3    H211826   7.175   2.908   2.065
 3961TIP3   OH211827   0.763   1.695   6.389
 3961TIP3    H111828   0.838   1.720   6.335
 3961TIP3    H211829   0.790   1.716   6.478
 3962TIP3   OH211830   1.832   7.057   4.754
 3962TIP3    H111831   1.803   7.030   4.667
 3962TIP3    H211832   1.815   6.980   4.809
 3963TIP3   OH211833   5.212   0.608   1.643
 3963TIP3    H111834   5.260   0.535   1.603
 3963TIP3    H211835   5.254   0.686   1.607
 3964TIP3   OH211836   1.024   3.830   4.077
 3964TIP3    H111837   1.000   3.883   4.000
 3964TIP3    H211838   1.024   3.892   4.149
 3965TIP3   OH211839   5.395   4.618   1.110
 3965TIP3    H111840   5.333   4.564   1.062
 3965TIP3    H211841   5.441   4.668   1.042
 3966TIP3   OH211842   5.984   4.087   3.388
 3966TIP3    H111843   5.943   4.107   3.472
 3966TIP3    H211844   5.927   4.021   3.349
 3967TIP3   OH211845   6.736   6.187   1.166
 3967TIP3    H111846   6.651   6.182   1.209
 3967TIP3    H211847   6.716   6.204   1.074
 3968TIP3   OH211848   5.690   3.845   5.376
 3968TIP3    H111849   5.598   3.856   5.398
 3968TIP3    H211850   5.702   3.751   5.368
 3969TIP3   OH211851   1.507   4.362   6.016
 3969TIP3    H111852   1.423   4.358   5.971
 3969TIP3    H211853   1.490   4.323   6.102
 3970TIP3   OH211854   7.607   5.428   4.040
 3970TIP3    H111855   7.603   5.389   4.127
 3970TIP3    H211856   7.700   5.424   4.016
 3971TIP3   OH211857   1.767   4.862   1.624
 3971TIP3    H111858   1.687   4.900   1.658
 3971TIP3    H211859   1.738   4.806   1.551
 3972TIP3   OH211860   0.045   3.839   0.219
 3972TIP3    H111861   0.020   3.836   0.312
 3972TIP3    H211862  -0.009   3.771   0.178
 3973TIP3   OH211863   1.712   0.341   4.330
 3973TIP3    H111864   1.748   0.402   4.394
 3973TIP3    H211865   1.781   0.330   4.265
 3974TIP3   OH211866   5.390   0.477   2.181
 3974TIP3    H111867   5.380   0.491   2.087
 3974TIP3    H211868   5.370   0.562   2.220
 3975TIP3   OH211869   7.232   2.883   5.340
 3975TIP3    H111870   7.146   2.924   5.349
 3975TIP3    H211871   7.269   2.923   5.262
 3976TIP3   OH211872   2.438   1.774   4.046
 3976TIP3    H111873   2.424   1.865   4.021
 3976TIP3    H211874   2.463   1.730   3.965
 3977TIP3   OH211875   1.519   5.668   3.638
 3977TIP3    H111876   1.457   5.672   3.711
 3977TIP3    H211877   1.600   5.636   3.678
 3978TIP3   OH211878   5.704   3.563   0.827
 3978TIP3    H111879   5.640   3.634   0.831
 3978TIP3    H211880   5.658   3.491   0.783
 3979TIP3   OH211881   2.892   2.133   1.504
 3979TIP3    H111882   2.867   2.122   1.412
 3979TIP3    H211883   2.939   2.053   1.526
 3980TIP3   OH211884   7.247   1.968   3.642
 3980TIP3    H111885   7.277   1.878   3.636
 3980TIP3    H211886   7.233   1.995   3.552
 3981TIP3   OH211887   1.303   5.492   4.993
 3981TIP3    H111888   1.287   5.462   4.903
 3981TIP3    H211889   1.399   5.492   5.001
 3982TIP3   OH211890   4.322   2.234   4.045
 3982TIP3    H111891   4.283   2.249   4.131
 3982TIP3    H211892   4.326   2.138   4.037
 3983TIP3   OH211893   2.471   2.997   0.257
 3983TIP3    H111894   2.463   3.080   0.209
 3983TIP3    H211895   2.558   2.964   0.234
 3984TIP3   OH211896   7.933   3.834   5.152
 3984TIP3    H111897   7.851   3.822   5.105
 3984TIP3    H211898   7.992   3.769   5.115
 3985TIP3   OH211899   3.231   7.411   4.568
 3985TIP3    H111900   3.221   7.504   4.547
 3985TIP3    H211901   3.179   7.399   4.648
 3986TIP3   OH211902   0.558   4.907   6.296
 3986TIP3    H111903   0.594   4.928   6.209
 3986TIP3    H211904   0.464   4.920   6.287
 3987TIP3   OH211905   2.920   3.072   5.501
 3987TIP3    H111906   2.911   3.168   5.503
 3987TIP3    H211907   2.877   3.043   5.582
 3988TIP3   OH211908   1.196   4.797   4.550
 3988TIP3    H111909   1.141   4.869   4.582
 3988TIP3    H211910   1.285   4.832   4.553
 3989TIP3   OH211911   2.074   1.173   4.238
 3989TIP3    H111912   2.010   1.102   4.248
 3989TIP3    H211913   2.024   1.253   4.256
 3990TIP3   OH211914   1.294   3.314   6.701
 3990TIP3    H111915   1.302   3.375   6.628
 3990TIP3    H211916   1.334   3.360   6.775
 3991TIP3   OH211917   6.900   4.541   4.890
 3991TIP3    H111918   6.820   4.500   4.924
 3991TIP3    H211919   6.941   4.473   4.837
 3992TIP3   OH211920   8.295   0.188   1.218
 3992TIP3    H111921   8.227   0.128   1.189
 3992TIP3    H211922   8.369   0.132   1.240
 3993TIP3   OH211923   0.521   5.831   1.348
 3993TIP3    H111924   0.426   5.830   1.354
 3993TIP3    H211925   0.540   5.882   1.270
 3994TIP3   OH211926   7.482   3.337   4.820
 3994TIP3    H111927   7.483   3.292   4.735
 3994TIP3    H211928   7.544   3.409   4.810
 3995TIP3   OH211929   4.487   7.474   5.983
 3995TIP3    H111930   4.544   7.544   5.951
 3995TIP3    H211931   4.545   7.399   5.992
 3996TIP3   OH211932   3.020   7.153   2.648
 3996TIP3    H111933   2.978   7.086   2.701
 3996TIP3    H211934   3.025   7.114   2.561
 3997TIP3   OH211935   0.757   1.306   4.677
 3997TIP3    H111936   0.687   1.333   4.737
 3997TIP3    H211937   0.806   1.240   4.726
 3998TIP3   OH211938   0.820   3.351   2.093
 3998TIP3    H111939   0.887   3.412   2.061
 3998TIP3    H211940   0.868   3.289   2.147
 3999TIP3   OH211941   3.579   1.399   3.987
 3999TIP3    H111942   3.668   1.376   3.960
 3999TIP3    H211943   3.591   1.467   4.053
 4000TIP3   OH211944   2.042   7.507   1.229
 4000TIP3    H111945   2.075   7.518   1.318
 4000TIP3    H211946   1.999   7.590   1.209
 4001TIP3   OH211947   6.193   0.089   5.928
 4001TIP3    H111948   6.132   0.163   5.933
 4001TIP3    H211949   6.247   0.107   5.851
 4002TIP3   OH211950   2.548   4.400   6.300
 4002TIP3    H111951   2.585   4.324   6.346
 4002TIP3    H211952   2.528   4.368   6.212
 4003TIP3   OH211953   1.588   5.836   2.914
 4003TIP3    H111954   1.543   5.762   2.955
 4003TIP3    H211955   1.562   5.831   2.822
 4004TIP3   OH211956   7.713   3.820   5.563
 4004TIP3    H111957   7.712   3.819   5.659
 4004TIP3    H211958   7.665   3.741   5.537
 4005TIP3   OH211959   4.653   5.265   6.572
 4005TIP3    H111960   4.748   5.257   6.565
 4005TIP3    H211961   4.639   5.350   6.615
 4006TIP3   OH211962   6.783   3.700   2.049
 4006TIP3    H111963   6.806   3.727   1.960
 4006TIP3    H211964   6.799   3.777   2.103
 4007TIP3   OH211965   1.257   0.657   3.820
 4007TIP3    H111966   1.251   0.563   3.833
 4007TIP3    H211967   1.168   0.690   3.837
 4008TIP3   OH211968   0.605   1.452   6.356
 4008TIP3    H111969   0.644   1.536   6.381
 4008TIP3    H211970   0.655   1.425   6.279
 4009TIP3   OH211971   8.245   1.925   3.880
 4009TIP3    H111972   8.314   1.979   3.919
 4009TIP3    H211973   8.225   1.967   3.797
 4010TIP3   OH211974   5.296   7.104   0.308
 4010TIP3    H111975   5.363   7.089   0.375
 4010TIP3    H211976   5.292   7.022   0.259
 4011TIP3   OH211977   2.489   2.323   4.783
 4011TIP3    H111978   2.418   2.385   4.765
 4011TIP3    H211979   2.466   2.283   4.867
 4012TIP3   OH211980   3.306   1.982   2.280
 4012TIP3    H111981   3.382   1.970   2.222
 4012TIP3    H211982   3.323   2.065   2.324
 4013TIP3   OH211983   8.257   6.963   3.252
 4013TIP3    H111984   8.205   7.024   3.304
 4013TIP3    H211985   8.314   6.919   3.315
 4014TIP3   OH211986   5.430   2.280   4.173
 4014TIP3    H111987   5.514   2.291   4.217
 4014TIP3    H211988   5.428   2.350   4.107
 4015TIP3   OH211989   2.219   0.073   6.754
 4015TIP3    H111990   2.280   0.075   6.681
 4015TIP3    H211991   2.260   0.015   6.818
 4016TIP3   OH211992   5.343   2.041   3.984
 4016TIP3    H111993   5.282   2.096   3.936
 4016TIP3    H211994   5.353   2.084   4.069
 4017TIP3   OH211995   6.665   6.286   3.465
 4017TIP3    H111996   6.615   6.273   3.545
 4017TIP3    H211997   6.732   6.350   3.489
 4018TIP3   OH211998   5.068   7.016   5.044
 4018TIP3    H111999   4.989   7.025   4.990
 4018TIP3    H212000   5.127   7.084   5.010
 4019TIP3   OH212001   0.990   7.506   3.995
 4019TIP3    H112002   1.003   7.430   3.938
 4019TIP3    H212003   1.057   7.495   4.063
 4020TIP3   OH212004   4.244   1.726   2.585
 4020TIP3    H112005   4.241   1.630   2.590
 4020TIP3    H212006   4.180   1.749   2.518
 4021TIP3   OH212007   8.248   0.658   1.999
 4021TIP3    H112008   8.289   0.666   1.913
 4021TIP3    H212009   8.320   0.640   2.059
 4022TIP3   OH212010   1.110   0.981   3.748
 4022TIP3    H112011   1.022   1.007   3.721
 4022TIP3    H212012   1.111   0.886   3.739
 4023TIP3   OH212013   4.950   5.717   2.693
 4023TIP3    H112014   5.014   5.782   2.665
 4023TIP3    H212015   4.975   5.637   2.646
 4024TIP3   OH212016   1.934   7.466   1.805
 4024TIP3    H112017   2.011   7.509   1.843
 4024TIP3    H212018   1.970   7.393   1.756
 4025TIP3   OH212019   4.884   2.225   6.091
 4025TIP3    H112020   4.891   2.227   5.996
 4025TIP3    H212021   4.964   2.181   6.121
 4026TIP3   OH212022   4.056   1.065   6.556
 4026TIP3    H112023   3.986   1.037   6.497
 4026TIP3    H212024   4.077   1.154   6.526
 4027TIP3   OH212025   8.159   1.293   1.050
 4027TIP3    H112026   8.203   1.228   1.105
 4027TIP3    H212027   8.134   1.363   1.110
 4028TIP3   OH212028   6.668   0.947   2.979
 4028TIP3    H112029   6.665   1.032   2.933
 4028TIP3    H212030   6.761   0.924   2.980
 4029TIP3   OH212031   8.020   7.204   0.064
 4029TIP3    H112032   8.039   7.296   0.084
 4029TIP3    H212033   7.946   7.207   0.004
 4030TIP3   OH212034   8.215   5.558   3.950
 4030TIP3    H112035   8.225   5.531   4.041
 4030TIP3    H212036   8.196   5.477   3.903
 4031TIP3   OH212037   5.545   0.075   2.156
 4031TIP3    H112038   5.595   0.150   2.190
 4031TIP3    H212039   5.465   0.114   2.121
 4032TIP3   OH212040   7.351   4.416   5.513
 4032TIP3    H112041   7.290   4.449   5.579
 4032TIP3    H212042   7.297   4.401   5.435
 4033TIP3   OH212043   2.094   3.520   4.731
 4033TIP3    H112044   2.039   3.544   4.806
 4033TIP3    H212045   2.111   3.427   4.742
 4034TIP3   OH212046   4.392   2.528   4.330
 4034TIP3    H112047   4.303   2.513   4.361
 4034TIP3    H212048   4.431   2.441   4.325
 4035TIP3   OH212049   6.561   2.902   2.065
 4035TIP3    H112050   6.635   2.862   2.112
 4035TIP3    H212051   6.576   2.996   2.073
 4036TIP3   OH212052   0.227   3.435   1.587
 4036TIP3    H112053   0.278   3.385   1.650
 4036TIP3    H212054   0.274   3.426   1.504
 4037TIP3   OH212055   1.860   4.858   4.562
 4037TIP3    H112056   1.923   4.857   4.633
 4037TIP3    H212057   1.867   4.771   4.523
 4038TIP3   OH212058   1.800   0.789   6.620
 4038TIP3    H112059   1.861   0.854   6.585
 4038TIP3    H212060   1.807   0.798   6.715
 4039TIP3   OH212061   7.492   4.187   2.480
 4039TIP3    H112062   7.496   4.096   2.451
 4039TIP3    H212063   7.480   4.182   2.575
 4040TIP3   OH212064   4.562   2.481   5.244
 4040TIP3    H112065   4.501   2.543   5.205
 4040TIP3    H212066   4.615   2.534   5.304
 4041TIP3   OH212067   5.515   0.232   1.705
 4041TIP3    H112068   5.586   0.264   1.649
 4041TIP3    H212069   5.559   0.202   1.784
 4042TIP3   OH212070   2.734   6.759   3.532
 4042TIP3    H112071   2.758   6.843   3.572
 4042TIP3    H212072   2.755   6.694   3.599
 4043TIP3   OH212073   7.969   3.879   5.478
 4043TIP3    H112074   7.887   3.832   5.495
 4043TIP3    H212075   7.950   3.934   5.403
 4044TIP3   OH212076   4.878   5.736   5.771
 4044TIP3    H112077   4.837   5.822   5.776
 4044TIP3    H212078   4.825   5.687   5.708
 4045TIP3   OH212079   2.490   5.134   4.658
 4045TIP3    H112080   2.581   5.110   4.640
 4045TIP3    H212081   2.477   5.216   4.611
 4046TIP3   OH212082   1.508   4.782   5.082
 4046TIP3    H112083   1.458   4.703   5.063
 4046TIP3    H212084   1.587   4.775   5.028
 4047TIP3   OH212085   1.057   4.470   2.059
 4047TIP3    H112086   1.071   4.405   1.990
 4047TIP3    H212087   0.974   4.444   2.100
 4048TIP3   OH212088   3.843   0.914   4.316
 4048TIP3    H112089   3.877   0.985   4.371
 4048TIP3    H212090   3.889   0.923   4.233
 4049TIP3   OH212091   5.504   0.689   3.848
 4049TIP3    H112092   5.425   0.678   3.794
 4049TIP3    H212093   5.575   0.700   3.784
 4050TIP3   OH212094   3.033   7.245   6.086
 4050TIP3    H112095   3.043   7.337   6.110
 4050TIP3    H212096   3.042   7.244   5.990
 4051TIP3   OH212097   0.130   3.851   3.119
 4051TIP3    H112098   0.044   3.866   3.159
 4051TIP3    H212099   0.168   3.781   3.172
 4052TIP3   OH212100   2.047   5.697   4.663
 4052TIP3    H112101   2.107   5.770   4.654
 4052TIP3    H212102   2.034   5.688   4.758
 4053TIP3   OH212103   5.316   2.499   1.028
 4053TIP3    H112104   5.271   2.415   1.014
 4053TIP3    H212105   5.405   2.475   1.054
 4054TIP3   OH212106   1.232   0.817   3.519
 4054TIP3    H112107   1.199   0.727   3.524
 4054TIP3    H212108   1.327   0.807   3.510
 4055TIP3   OH212109   2.441   5.948   0.346
 4055TIP3    H112110   2.387   5.883   0.302
 4055TIP3    H212111   2.420   6.030   0.302
 4056TIP3   OH212112   1.697   5.598   0.853
 4056TIP3    H112113   1.620   5.548   0.879
 4056TIP3    H212114   1.768   5.534   0.852
 4057TIP3   OH212115   7.745   7.003   1.688
 4057TIP3    H112116   7.676   7.003   1.755
 4057TIP3    H212117   7.702   6.966   1.610
 4058TIP3   OH212118   5.301   7.106   4.272
 4058TIP3    H112119   5.344   7.045   4.332
 4058TIP3    H212120   5.351   7.097   4.190
 4059TIP3   OH212121   3.157   0.702   3.004
 4059TIP3    H112122   3.117   0.788   3.011
 4059TIP3    H212123   3.097   0.643   3.049
 4060TIP3   OH212124   3.109   2.995   4.281
 4060TIP3    H112125   3.050   3.048   4.228
 4060TIP3    H212126   3.186   2.982   4.226
 4061TIP3   OH212127   5.281   4.485   5.292
 4061TIP3    H112128   5.319   4.419   5.350
 4061TIP3    H212129   5.304   4.456   5.204
 4062TIP3   OH212130   4.261   4.424   1.650
 4062TIP3    H112131   4.323   4.468   1.591
 4062TIP3    H212132   4.226   4.352   1.598
 4063TIP3   OH212133   7.195   0.582   1.447
 4063TIP3    H112134   7.155   0.524   1.383
 4063TIP3    H212135   7.200   0.667   1.403
 4064TIP3   OH212136   4.421   2.051   6.619
 4064TIP3    H112137   4.498   2.100   6.591
 4064TIP3    H212138   4.437   2.032   6.711
 4065TIP3   OH212139   6.943   2.325   3.428
 4065TIP3    H112140   6.906   2.331   3.516
 4065TIP3    H212141   6.920   2.237   3.399
 4066TIP3   OH212142   7.496   6.901   5.407
 4066TIP3    H112143   7.586   6.876   5.386
 4066TIP3    H212144   7.496   6.911   5.502
 4067TIP3   OH212145   4.005   7.548   3.510
 4067TIP3    H112146   4.055   7.480   3.554
 4067TIP3    H212147   4.051   7.630   3.530
 4068TIP3   OH212148   4.564   3.707   3.819
 4068TIP3    H112149   4.508   3.765   3.872
 4068TIP3    H212150   4.649   3.750   3.818
 4069TIP3   OH212151   2.894   6.181   3.306
 4069TIP3    H112152   2.805   6.168   3.339
 4069TIP3    H212153   2.920   6.267   3.340
 4070TIP3   OH212154   5.710   1.035   3.681
 4070TIP3    H112155   5.658   1.020   3.760
 4070TIP3    H212156   5.800   1.039   3.711
 4071TIP3   OH212157   2.385   0.223   1.337
 4071TIP3    H112158   2.446   0.235   1.410
 4071TIP3    H212159   2.414   0.143   1.294
 4072TIP3   OH212160   1.222   5.394   6.161
 4072TIP3    H112161   1.317   5.406   6.159
 4072TIP3    H212162   1.195   5.399   6.070
 4073TIP3   OH212163   4.113   2.108   2.822
 4073TIP3    H112164   4.103   2.018   2.851
 4073TIP3    H212165   4.208   2.124   2.823
 4074TIP3   OH212166   5.425   5.700   1.031
 4074TIP3    H112167   5.451   5.612   1.004
 4074TIP3    H212168   5.380   5.688   1.114
 4075TIP3   OH212169   7.401   3.801   4.960
 4075TIP3    H112170   7.382   3.738   4.890
 4075TIP3    H212171   7.496   3.811   4.959
 4076TIP3   OH212172   4.292   6.830   4.002
 4076TIP3    H112173   4.236   6.769   3.954
 4076TIP3    H212174   4.330   6.886   3.934
 4077TIP3   OH212175   2.700   4.239   2.849
 4077TIP3    H112176   2.646   4.222   2.926
 4077TIP3    H212177   2.654   4.195   2.777
 4078TIP3   OH212178   2.781   0.524   0.065
 4078TIP3    H112179   2.779   0.435   0.031
 4078TIP3    H212180   2.796   0.514   0.159
 4079TIP3   OH212181   7.980   4.634   5.786
 4079TIP3    H112182   7.921   4.709   5.796
 4079TIP3    H212183   7.965   4.582   5.866
 4080TIP3   OH212184   6.959   7.018   5.930
 4080TIP3    H112185   6.980   6.930   5.897
 4080TIP3    H212186   6.877   7.007   5.979
 4081TIP3   OH212187   1.613   0.198   1.155
 4081TIP3    H112188   1.532   0.248   1.147
 4081TIP3    H212189   1.607   0.157   1.241
 4082TIP3   OH212190   7.533   5.715   1.360
 4082TIP3    H112191   7.619   5.675   1.347
 4082TIP3    H212192   7.478   5.679   1.291
 4083TIP3   OH212193   8.185   0.927   4.414
 4083TIP3    H112194   8.215   0.836   4.424
 4083TIP3    H212195   8.234   0.960   4.339
 4084TIP3   OH212196   8.209   5.579   5.047
 4084TIP3    H112197   8.145   5.513   5.019
 4084TIP3    H212198   8.207   5.575   5.143
 4085TIP3   OH212199   2.581   7.035   0.978
 4085TIP3    H112200   2.576   7.034   1.074
 4085TIP3    H212201   2.520   7.104   0.952
 4086TIP3   OH212202   0.019   4.933   5.682
 4086TIP3    H112203   0.016   4.845   5.717
 4086TIP3    H212204  -0.067   4.947   5.642
 4087TIP3   OH212205   5.217   0.256   1.009
 4087TIP3    H112206   5.295   0.255   1.065
 4087TIP3    H212207   5.156   0.196   1.052
 4088TIP3   OH212208   4.822   2.082   3.246
 4088TIP3    H112209   4.904   2.041   3.218
 4088TIP3    H212210   4.764   2.008   3.264
 4089TIP3   OH212211   4.300   3.125   5.451
 4089TIP3    H112212   4.327   3.054   5.393
 4089TIP3    H212213   4.365   3.124   5.522
 4090TIP3   OH212214   3.624   3.848   3.707
 4090TIP3    H112215   3.694   3.811   3.761
 4090TIP3    H212216   3.668   3.916   3.655
 4091TIP3   OH212217   2.506   6.951   5.824
 4091TIP3    H112218   2.469   7.037   5.803
 4091TIP3    H212219   2.469   6.929   5.909
 4092TIP3   OH212220   5.091   3.778   6.260
 4092TIP3    H112221   5.152   3.840   6.221
 4092TIP3    H212222   5.005   3.818   6.248
 4093TIP3   OH212223   2.897   2.944   5.263
 4093TIP3    H112224   2.838   2.873   5.285
 4093TIP3    H212225   2.903   2.996   5.344
 4094TIP3   OH212226   0.587   1.725   4.078
 4094TIP3    H112227   0.632   1.758   4.000
 4094TIP3    H212228   0.509   1.681   4.044
 4095TIP3   OH212229   3.596   2.518   5.895
 4095TIP3    H112230   3.647   2.590   5.930
 4095TIP3    H212231   3.505   2.544   5.908
 4096TIP3   OH212232   0.764   7.128   3.187
 4096TIP3    H112233   0.719   7.212   3.170
 4096TIP3    H212234   0.703   7.062   3.153
 4097TIP3   OH212235   6.217   6.551   2.018
 4097TIP3    H112236   6.124   6.556   2.040
 4097TIP3    H212237   6.236   6.633   1.972
 4098TIP3   OH212238   5.024   6.345   2.317
 4098TIP3    H112239   5.042   6.292   2.240
 4098TIP3    H212240   5.109   6.383   2.341
 4099TIP3   OH212241   4.453   0.787   0.239
 4099TIP3    H112242   4.403   0.743   0.170
 4099TIP3    H212243   4.394   0.855   0.272
 4100TIP3   OH212244   4.488   5.728   1.973
 4100TIP3    H112245   4.529   5.642   1.971
 4100TIP3    H212246   4.405   5.716   1.927
 4101TIP3   OH212247   7.317   2.866   0.349
 4101TIP3    H112248   7.318   2.878   0.254
 4101TIP3    H212249   7.337   2.773   0.361
 4102TIP3   OH212250   5.004   1.386   6.516
 4102TIP3    H112251   4.995   1.426   6.603
 4102TIP3    H212252   4.936   1.318   6.513
 4103TIP3   OH212253   6.557   3.788   6.084
 4103TIP3    H112254   6.463   3.775   6.071
 4103TIP3    H212255   6.597   3.708   6.051
 4104TIP3   OH212256   7.210   2.898   3.709
 4104TIP3    H112257   7.205   2.803   3.717
 4104TIP3    H212258   7.159   2.919   3.631
 4105TIP3   OH212259   3.338   1.822   5.380
 4105TIP3    H112260   3.321   1.905   5.334
 4105TIP3    H212261   3.432   1.807   5.366
 4106TIP3   OH212262   1.432   5.870   5.514
 4106TIP3    H112263   1.524   5.870   5.542
 4106TIP3    H212264   1.386   5.913   5.586
 4107TIP3   OH212265   1.509   5.305   4.374
 4107TIP3    H112266   1.560   5.226   4.394
 4107TIP3    H212267   1.418   5.279   4.388
 4108TIP3   OH212268   3.842   6.841   3.884
 4108TIP3    H112269   3.791   6.916   3.911
 4108TIP3    H212270   3.782   6.766   3.891
 4109TIP3   OH212271   6.914   5.864   0.723
 4109TIP3    H112272   6.917   5.800   0.652
 4109TIP3    H212273   6.873   5.941   0.683
 4110TIP3   OH212274   5.691   0.585   5.887
 4110TIP3    H112275   5.641   0.648   5.938
 4110TIP3    H212276   5.651   0.586   5.800
 4111TIP3   OH212277   6.553   4.074   5.878
 4111TIP3    H112278   6.525   4.125   5.953
 4111TIP3    H212279   6.648   4.066   5.889
 4112TIP3   OH212280   6.836   0.664   3.222
 4112TIP3    H112281   6.909   0.723   3.240
 4112TIP3    H212282   6.759   0.709   3.256
 4113TIP3   OH212283   2.707   4.886   4.158
 4113TIP3    H112284   2.790   4.924   4.129
 4113TIP3    H212285   2.643   4.957   4.144
 4114TIP3   OH212286   5.094   2.988   5.588
 4114TIP3    H112287   5.039   2.976   5.511
 4114TIP3    H212288   5.121   2.899   5.613
 4115TIP3   OH212289   2.158   6.986   5.781
 4115TIP3    H112290   2.202   6.937   5.713
 4115TIP3    H212291   2.123   6.920   5.841
 4116TIP3   OH212292   2.333   7.289   2.509
 4116TIP3    H112293   2.340   7.384   2.515
 4116TIP3    H212294   2.404   7.256   2.565
 4117TIP3   OH212295   3.484   6.425   3.584
 4117TIP3    H112296   3.527   6.504   3.550
 4117TIP3    H212297   3.391   6.446   3.585
 4118TIP3   OH212298   0.692   3.829   0.552
 4118TIP3    H112299   0.734   3.864   0.630
 4118TIP3    H212300   0.723   3.886   0.481
 4119TIP3   OH212301   3.432   3.868   2.387
 4119TIP3    H112302   3.479   3.798   2.342
 4119TIP3    H212303   3.358   3.824   2.429
 4120TIP3   OH212304   6.363   3.073   6.042
 4120TIP3    H112305   6.415   2.997   6.017
 4120TIP3    H212306   6.331   3.109   5.960
 4121TIP3   OH212307   5.504   1.937   0.518
 4121TIP3    H112308   5.423   1.910   0.475
 4121TIP3    H212309   5.559   1.859   0.517
 4122TIP3   OH212310   3.630   7.042   5.571
 4122TIP3    H112311   3.677   7.111   5.618
 4122TIP3    H212312   3.589   7.088   5.497
 4123TIP3   OH212313   1.207   4.658   6.485
 4123TIP3    H112314   1.207   4.571   6.527
 4123TIP3    H212315   1.160   4.644   6.403
 4124TIP3   OH212316   3.231   0.321   3.906
 4124TIP3    H112317   3.293   0.370   3.960
 4124TIP3    H212318   3.250   0.349   3.817
 4125TIP3   OH212319   0.245   1.028   6.102
 4125TIP3    H112320   0.208   1.059   6.185
 4125TIP3    H212321   0.296   0.951   6.126
 4126TIP3   OH212322   1.555   7.047   0.247
 4126TIP3    H112323   1.494   7.092   0.188
 4126TIP3    H212324   1.500   7.014   0.318
 4127TIP3   OH212325   5.284   3.504   3.271
 4127TIP3    H112326   5.287   3.419   3.227
 4127TIP3    H212327   5.354   3.554   3.229
 4128TIP3   OH212328   2.020   4.275   2.039
 4128TIP3    H112329   2.037   4.187   2.007
 4128TIP3    H212330   2.059   4.333   1.974
 4129TIP3   OH212331   5.876   3.012   2.658
 4129TIP3    H112332   5.872   3.071   2.733
 4129TIP3    H212333   5.852   3.066   2.583
 4130TIP3   OH212334   7.187   6.785   4.191
 4130TIP3    H112335   7.147   6.831   4.265
 4130TIP3    H212336   7.197   6.695   4.221
 4131TIP3   OH212337   5.034   1.775   2.398
 4131TIP3    H112338   5.017   1.869   2.406
 4131TIP3    H212339   5.099   1.756   2.465
 4132TIP3   OH212340   7.199   0.320   0.593
 4132TIP3    H112341   7.148   0.379   0.648
 4132TIP3    H212342   7.159   0.325   0.507
 4133TIP3   OH212343   7.170   4.642   5.108
 4133TIP3    H112344   7.076   4.654   5.121
 4133TIP3    H212345   7.209   4.723   5.142
 4134TIP3   OH212346   2.574   1.468   6.662
 4134TIP3    H112347   2.590   1.471   6.567
 4134TIP3    H212348   2.495   1.520   6.674
 4135TIP3   OH212349   4.334   1.683   4.036
 4135TIP3    H112350   4.423   1.719   4.036
 4135TIP3    H212351   4.344   1.595   4.071
 4136TIP3   OH212352   2.824   2.439   4.043
 4136TIP3    H112353   2.855   2.442   3.952
 4136TIP3    H212354   2.888   2.384   4.089
 4137TIP3   OH212355   2.721   1.349   2.193
 4137TIP3    H112356   2.780   1.287   2.151
 4137TIP3    H212357   2.652   1.366   2.128
 4138TIP3   OH212358   1.836   6.579   6.054
 4138TIP3    H112359   1.748   6.614   6.065
 4138TIP3    H212360   1.878   6.593   6.140
 4139TIP3   OH212361   1.658   2.405   2.623
 4139TIP3    H112362   1.718   2.409   2.549
 4139TIP3    H212363   1.703   2.349   2.687
 4140TIP3   OH212364   4.085   4.658   0.288
 4140TIP3    H112365   4.056   4.571   0.259
 4140TIP3    H212366   4.155   4.681   0.227
 4141TIP3   OH212367   2.154   2.130   6.077
 4141TIP3    H112368   2.063   2.133   6.108
 4141TIP3    H212369   2.196   2.206   6.119
 4142TIP3   OH212370   0.632   2.646   5.352
 4142TIP3    H112371   0.589   2.597   5.422
 4142TIP3    H212372   0.576   2.722   5.338
 4143TIP3   OH212373   2.396   2.411   2.105
 4143TIP3    H112374   2.328   2.350   2.076
 4143TIP3    H212375   2.364   2.445   2.189
 4144TIP3   OH212376   3.068   2.410   4.937
 4144TIP3    H112377   3.011   2.443   4.867
 4144TIP3    H212378   3.149   2.460   4.929
 4145TIP3   OH212379   1.635   0.458   3.475
 4145TIP3    H112380   1.649   0.526   3.409
 4145TIP3    H212381   1.718   0.412   3.480
 4146TIP3   OH212382   2.892   2.101   1.218
 4146TIP3    H112383   2.894   2.010   1.247
 4146TIP3    H212384   2.976   2.115   1.175
 4147TIP3   OH212385   1.405   4.667   4.809
 4147TIP3    H112386   1.325   4.720   4.809
 4147TIP3    H212387   1.401   4.619   4.892
 4148TIP3   OH212388   2.869   4.278   6.738
 4148TIP3    H112389   2.788   4.232   6.762
 4148TIP3    H212390   2.914   4.217   6.680
 4149TIP3   OH212391   1.546   2.679   2.973
 4149TIP3    H112392   1.619   2.655   2.916
 4149TIP3    H212393   1.587   2.728   3.045
 4150TIP3   OH212394   6.529   3.017   1.494
 4150TIP3    H112395   6.613   2.996   1.535
 4150TIP3    H212396   6.486   2.932   1.482
 4151TIP3   OH212397   7.389   5.826   4.847
 4151TIP3    H112398   7.315   5.856   4.795
 4151TIP3    H212399   7.358   5.826   4.937
 4152TIP3   OH212400   3.454   2.630   0.454
 4152TIP3    H112401   3.476   2.718   0.484
 4152TIP3    H212402   3.506   2.618   0.375
 4153TIP3   OH212403   2.943   3.864   4.244
 4153TIP3    H112404   3.008   3.822   4.301
 4153TIP3    H212405   2.861   3.819   4.263
 4154TIP3   OH212406   0.286   1.809   4.364
 4154TIP3    H112407   0.277   1.718   4.390
 4154TIP3    H212408   0.203   1.832   4.324
 4155TIP3   OH212409   0.635   2.333   1.460
 4155TIP3    H112410   0.620   2.275   1.534
 4155TIP3    H212411   0.581   2.297   1.390
 4156TIP3   OH212412   1.728   0.540   1.436
 4156TIP3    H112413   1.667   0.597   1.484
 4156TIP3    H212414   1.809   0.544   1.487
 4157TIP3   OH212415   8.196   2.441   0.653
 4157TIP3    H112416   8.127   2.387   0.690
 4157TIP3    H212417   8.240   2.480   0.729
 4158TIP3   OH212418   1.231   3.106   6.545
 4158TIP3    H112419   1.242   3.159   6.624
 4158TIP3    H212420   1.205   3.168   6.477
 4159TIP3   OH212421   5.932   4.380   5.318
 4159TIP3    H112422   5.855   4.400   5.372
 4159TIP3    H212423   5.969   4.301   5.357
 4160TIP3   OH212424   3.652   7.089   6.385
 4160TIP3    H112425   3.699   7.029   6.442
 4160TIP3    H212426   3.721   7.136   6.337
 4161TIP3   OH212427   6.826   2.682   3.201
 4161TIP3    H112428   6.739   2.689   3.241
 4161TIP3    H212429   6.852   2.772   3.184
 4162TIP3   OH212430   2.705   0.807   3.294
 4162TIP3    H112431   2.645   0.879   3.312
 4162TIP3    H212432   2.792   0.847   3.295
 4163TIP3   OH212433   6.272   6.320   5.489
 4163TIP3    H112434   6.309   6.301   5.403
 4163TIP3    H212435   6.204   6.254   5.501
 4164TIP3   OH212436   3.684   5.254   5.368
 4164TIP3    H112437   3.622   5.302   5.313
 4164TIP3    H212438   3.748   5.320   5.394
 4165TIP3   OH212439   7.746   1.751   2.360
 4165TIP3    H112440   7.651   1.754   2.364
 4165TIP3    H212441   7.766   1.667   2.320
 4166TIP3   OH212442   6.338   3.488   1.167
 4166TIP3    H112443   6.301   3.558   1.112
 4166TIP3    H212444   6.417   3.461   1.121
 4167TIP3   OH212445   4.449   7.771   2.095
 4167TIP3    H112446   4.525   7.816   2.129
 4167TIP3    H212447   4.467   7.759   2.002
 4168TIP3   OH212448   0.286   6.239   4.204
 4168TIP3    H112449   0.216   6.193   4.251
 4168TIP3    H212450   0.242   6.283   4.131
 4169TIP3   OH212451   2.723   1.547   1.593
 4169TIP3    H112452   2.686   1.470   1.637
 4169TIP3    H212453   2.804   1.565   1.640
 4170TIP3   OH212454   4.475   5.258   1.546
 4170TIP3    H112455   4.523   5.245   1.628
 4170TIP3    H212456   4.528   5.215   1.480
 4171TIP3   OH212457   7.192   5.153   5.681
 4171TIP3    H112458   7.258   5.171   5.615
 4171TIP3    H212459   7.126   5.221   5.668
 4172TIP3   OH212460   3.327   0.911   1.990
 4172TIP3    H112461   3.291   0.878   1.908
 4172TIP3    H212462   3.384   0.840   2.022
 4173TIP3   OH212463   8.296   6.590   5.875
 4173TIP3    H112464   8.260   6.515   5.827
 4173TIP3    H212465   8.225   6.655   5.874
 4174TIP3   OH212466   4.363   1.032   4.861
 4174TIP3    H112467   4.286   0.997   4.905
 4174TIP3    H212468   4.354   1.003   4.770
 4175TIP3   OH212469   4.339   1.982   0.387
 4175TIP3    H112470   4.249   1.988   0.356
 4175TIP3    H212471   4.362   1.890   0.374
 4176TIP3   OH212472   2.293   1.967   2.828
 4176TIP3    H112473   2.304   1.891   2.770
 4176TIP3    H212474   2.262   2.036   2.770
 4177TIP3   OH212475   0.423   1.025   5.767
 4177TIP3    H112476   0.389   0.937   5.782
 4177TIP3    H212477   0.509   1.025   5.808
 4178TIP3   OH212478   3.545   6.911   5.232
 4178TIP3    H112479   3.456   6.918   5.266
 4178TIP3    H212480   3.544   6.831   5.179
 4179TIP3   OH212481   7.855   3.434   5.082
 4179TIP3    H112482   7.864   3.384   5.001
 4179TIP3    H212483   7.771   3.406   5.119
 4180TIP3   OH212484   4.562   6.224   2.901
 4180TIP3    H112485   4.574   6.313   2.934
 4180TIP3    H212486   4.574   6.168   2.978
 4181TIP3   OH212487   1.711   2.939   1.151
 4181TIP3    H112488   1.634   2.980   1.189
 4181TIP3    H212489   1.778   3.008   1.153
 4182TIP3   OH212490   3.123   4.421   5.736
 4182TIP3    H112491   3.091   4.507   5.764
 4182TIP3    H212492   3.084   4.408   5.650
 4183TIP3   OH212493   3.758   5.391   2.962
 4183TIP3    H112494   3.831   5.454   2.965
 4183TIP3    H212495   3.747   5.362   3.052
 4184TIP3   OH212496   0.966   0.207   0.915
 4184TIP3    H112497   0.908   0.217   0.991
 4184TIP3    H212498   1.054   0.215   0.951
 4185TIP3   OH212499   4.279   6.304   5.555
 4185TIP3    H112500   4.188   6.299   5.583
 4185TIP3    H212501   4.316   6.375   5.609
 4186TIP3   OH212502   6.784   6.437   1.289
 4186TIP3    H112503   6.789   6.345   1.265
 4186TIP3    H212504   6.799   6.484   1.207
 4187TIP3   OH212505   1.189   3.781   3.355
 4187TIP3    H112506   1.228   3.740   3.432
 4187TIP3    H212507   1.149   3.709   3.306
 4188TIP3   OH212508   4.443   7.312   4.685
 4188TIP3    H112509   4.349   7.311   4.667
 4188TIP3    H212510   4.461   7.228   4.727
 4189TIP3   OH212511   6.771   4.843   3.893
 4189TIP3    H112512   6.853   4.850   3.943
 4189TIP3    H212513   6.783   4.903   3.820
 4190TIP3   OH212514   2.701   6.203   3.091
 4190TIP3    H112515   2.661   6.287   3.114
 4190TIP3    H212516   2.695   6.151   3.171
 4191TIP3   OH212517   5.818   5.856   6.595
 4191TIP3    H112518   5.761   5.914   6.546
 4191TIP3    H212519   5.906   5.873   6.559
 4192TIP3   OH212520   3.350   7.667   4.793
 4192TIP3    H112521   3.338   7.671   4.698
 4192TIP3    H212522   3.269   7.628   4.826
 4193TIP3   OH212523   0.429   3.389   4.628
 4193TIP3    H112524   0.400   3.344   4.548
 4193TIP3    H212525   0.358   3.373   4.691
 4194TIP3   OH212526   0.848   5.680   1.302
 4194TIP3    H112527   0.787   5.713   1.236
 4194TIP3    H212528   0.906   5.754   1.320
 4195TIP3   OH212529   2.140   7.294   0.950
 4195TIP3    H112530   2.095   7.374   0.924
 4195TIP3    H212531   2.080   7.223   0.926
 4196TIP3   OH212532   5.400   5.085   2.358
 4196TIP3    H112533   5.370   5.105   2.269
 4196TIP3    H212534   5.325   5.042   2.400
 4197TIP3   OH212535   7.614   2.822   3.763
 4197TIP3    H112536   7.654   2.779   3.687
 4197TIP3    H212537   7.569   2.898   3.725
 4198TIP3   OH212538   3.684   2.254   2.567
 4198TIP3    H112539   3.692   2.187   2.500
 4198TIP3    H212540   3.679   2.205   2.649
 4199TIP3   OH212541   6.351   5.075   6.369
 4199TIP3    H112542   6.260   5.063   6.394
 4199TIP3    H212543   6.379   5.153   6.417
 4200TIP3   OH212544   4.748   3.139   1.185
 4200TIP3    H112545   4.835   3.141   1.145
 4200TIP3    H212546   4.734   3.229   1.216
 4201TIP3   OH212547   7.423   5.725   0.515
 4201TIP3    H112548   7.434   5.633   0.495
 4201TIP3    H212549   7.494   5.769   0.468
 4202TIP3   OH212550   2.939   1.516   2.879
 4202TIP3    H112551   2.956   1.609   2.896
 4202TIP3    H212552   2.950   1.506   2.785
 4203TIP3   OH212553   3.668   3.814   3.415
 4203TIP3    H112554   3.647   3.784   3.326
 4203TIP3    H212555   3.595   3.786   3.469
 4204TIP3   OH212556   4.780   3.106   0.514
 4204TIP3    H112557   4.760   3.013   0.527
 4204TIP3    H212558   4.775   3.144   0.601
 4205TIP3   OH212559   0.170   6.263   5.310
 4205TIP3    H112560   0.173   6.286   5.217
 4205TIP3    H212561   0.198   6.343   5.355
 4206TIP3   OH212562   7.944   4.095   5.322
 4206TIP3    H112563   7.983   4.143   5.395
 4206TIP3    H212564   8.016   4.086   5.259
 4207TIP3   OH212565   0.889   7.203   3.403
 4207TIP3    H112566   0.956   7.141   3.430
 4207TIP3    H212567   0.845   7.161   3.329
 4208TIP3   OH212568   0.746   3.170   5.566
 4208TIP3    H112569   0.810   3.210   5.626
 4208TIP3    H212570   0.661   3.191   5.605
 4209TIP3   OH212571   4.992   2.052   2.470
 4209TIP3    H112572   5.028   2.131   2.512
 4209TIP3    H212573   4.900   2.073   2.456
 4210TIP3   OH212574   5.665   6.231   4.777
 4210TIP3    H112575   5.599   6.266   4.717
 4210TIP3    H212576   5.715   6.308   4.805
 4211TIP3   OH212577   4.161   3.852   2.401
 4211TIP3    H112578   4.160   3.786   2.332
 4211TIP3    H212579   4.086   3.831   2.456
 4212TIP3   OH212580   3.522   4.119   5.792
 4212TIP3    H112581   3.428   4.130   5.805
 4212TIP3    H212582   3.529   4.052   5.723
 4213TIP3   OH212583   5.283   1.868   1.081
 4213TIP3    H112584   5.363   1.819   1.099
 4213TIP3    H212585   5.258   1.841   0.992
 4214TIP3   OH212586   3.696   2.260   5.388
 4214TIP3    H112587   3.615   2.276   5.436
 4214TIP3    H212588   3.765   2.268   5.453
 4215TIP3   OH212589   0.009   6.705   5.147
 4215TIP3    H112590   0.010   6.619   5.190
 4215TIP3    H212591  -0.057   6.755   5.195
 4216TIP3   OH212592   8.232   6.953   2.980
 4216TIP3    H112593   8.316   6.926   2.944
 4216TIP3    H212594   8.244   6.948   3.075
 4217TIP3   OH212595   7.549   7.335   0.169
 4217TIP3    H112596   7.569   7.284   0.247
 4217TIP3    H212597   7.454   7.343   0.168
 4218TIP3   OH212598   6.210   5.156   2.460
 4218TIP3    H112599   6.155   5.081   2.484
 4218TIP3    H212600   6.178   5.228   2.513
 4219TIP3   OH212601   0.165   6.070   5.533
 4219TIP3    H112602   0.226   6.123   5.585
 4219TIP3    H212603   0.178   6.100   5.443
 4220TIP3   OH212604   3.108   3.835   0.699
 4220TIP3    H112605   3.143   3.856   0.613
 4220TIP3    H212606   3.178   3.859   0.760
 4221TIP3   OH212607   5.829   6.676   5.259
 4221TIP3    H112608   5.736   6.699   5.260
 4221TIP3    H212609   5.834   6.598   5.203
 4222TIP3   OH212610   2.101   6.798   1.034
 4222TIP3    H112611   2.194   6.804   1.011
 4222TIP3    H212612   2.101   6.776   1.128
 4223TIP3   OH212613   8.087   3.954   1.199
 4223TIP3    H112614   8.095   3.878   1.141
 4223TIP3    H212615   8.049   4.022   1.144
 4224TIP3   OH212616   0.749   6.996   5.133
 4224TIP3    H112617   0.762   7.038   5.047
 4224TIP3    H212618   0.825   7.023   5.185
 4225TIP3   OH212619   0.107   6.431   1.445
 4225TIP3    H112620   0.197   6.421   1.414
 4225TIP3    H212621   0.111   6.412   1.538
 4226TIP3   OH212622   7.390   4.060   4.232
 4226TIP3    H112623   7.445   4.095   4.162
 4226TIP3    H212624   7.443   4.068   4.311
 4227TIP3   OH212625   3.958   1.243   1.065
 4227TIP3    H112626   3.871   1.281   1.054
 4227TIP3    H212627   3.951   1.190   1.144
 4228TIP3   OH212628   7.026   3.173   5.133
 4228TIP3    H112629   7.000   3.219   5.053
 4228TIP3    H212630   7.111   3.211   5.156
 4229TIP3   OH212631   7.316   7.798   1.662
 4229TIP3    H112632   7.377   7.862   1.700
 4229TIP3    H212633   7.243   7.796   1.723
 4230TIP3   OH212634   5.302   4.945   3.211
 4230TIP3    H112635   5.328   5.026   3.167
 4230TIP3    H212636   5.242   4.973   3.280
 4231TIP3   OH212637   5.706   1.405   3.887
 4231TIP3    H112638   5.690   1.416   3.793
 4231TIP3    H212639   5.619   1.398   3.925
 4232TIP3   OH212640   1.897   7.585   5.759
 4232TIP3    H112641   1.992   7.571   5.751
 4232TIP3    H212642   1.865   7.579   5.669
 4233TIP3   OH212643   1.306   3.836   4.894
 4233TIP3    H112644   1.350   3.837   4.809
 4233TIP3    H212645   1.256   3.918   4.896
 4234TIP3   OH212646   5.309   2.748   1.408
 4234TIP3    H112647   5.314   2.661   1.448
 4234TIP3    H212648   5.379   2.798   1.451
 4235TIP3   OH212649   6.729   7.472   2.516
 4235TIP3    H112650   6.792   7.544   2.516
 4235TIP3    H212651   6.672   7.489   2.442
 4236TIP3   OH212652   2.513   3.403   5.352
 4236TIP3    H112653   2.546   3.314   5.352
 4236TIP3    H212654   2.452   3.407   5.425
 4237TIP3   OH212655   5.058   3.875   5.989
 4237TIP3    H112656   5.137   3.869   5.935
 4237TIP3    H212657   5.034   3.784   6.006
 4238TIP3   OH212658   0.330   1.299   6.748
 4238TIP3    H112659   0.407   1.255   6.784
 4238TIP3    H212660   0.365   1.350   6.675
 4239TIP3   OH212661   0.454   1.820   5.458
 4239TIP3    H112662   0.414   1.897   5.417
 4239TIP3    H212663   0.426   1.823   5.549
 4240TIP3   OH212664   5.083   4.426   4.652
 4240TIP3    H112665   5.122   4.509   4.625
 4240TIP3    H212666   5.013   4.451   4.712
 4241TIP3   OH212667   0.716   5.719   2.783
 4241TIP3    H112668   0.715   5.754   2.694
 4241TIP3    H212669   0.641   5.659   2.786
 4242TIP3   OH212670   4.503   2.810   6.133
 4242TIP3    H112671   4.435   2.758   6.177
 4242TIP3    H212672   4.541   2.863   6.203
 4243TIP3   OH212673   1.448   3.776   0.054
 4243TIP3    H112674   1.447   3.871   0.061
 4243TIP3    H212675   1.415   3.757  -0.034
 4244TIP3   OH212676   1.736   5.708   4.220
 4244TIP3    H112677   1.748   5.657   4.300
 4244TIP3    H212678   1.658   5.670   4.179
 4245TIP3   OH212679   2.147   2.776   2.345
 4245TIP3    H112680   2.211   2.802   2.410
 4245TIP3    H212681   2.148   2.847   2.280
 4246TIP3   OH212682   0.811   2.396   6.725
 4246TIP3    H112683   0.846   2.417   6.812
 4246TIP3    H212684   0.824   2.476   6.674
 4247TIP3   OH212685   1.002   5.173   1.790
 4247TIP3    H112686   0.981   5.095   1.740
 4247TIP3    H212687   1.012   5.242   1.724
 4248TIP3   OH212688   6.122   4.658   0.468
 4248TIP3    H112689   6.080   4.711   0.400
 4248TIP3    H212690   6.069   4.674   0.546
 4249TIP3   OH212691   5.879   2.845   4.792
 4249TIP3    H112692   5.918   2.871   4.875
 4249TIP3    H212693   5.827   2.921   4.765
 4250TIP3   OH212694   0.088   2.714   4.455
 4250TIP3    H112695   0.174   2.756   4.458
 4250TIP3    H212696   0.032   2.779   4.412
 4251TIP3   OH212697   0.387   5.121   5.015
 4251TIP3    H112698   0.384   5.120   4.919
 4251TIP3    H212699   0.443   5.047   5.038
 4252TIP3   OH212700   0.088   2.503   1.576
 4252TIP3    H112701   0.183   2.517   1.576
 4252TIP3    H212702   0.071   2.455   1.495
 4253TIP3   OH212703   3.004   4.977   2.588
 4253TIP3    H112704   2.919   5.005   2.554
 4253TIP3    H212705   2.992   4.976   2.683
 4254TIP3   OH212706   7.336   1.997   1.832
 4254TIP3    H112707   7.274   2.017   1.762
 4254TIP3    H212708   7.315   2.059   1.901
 4255TIP3   OH212709   4.923   2.776   1.190
 4255TIP3    H112710   4.880   2.733   1.116
 4255TIP3    H212711   5.016   2.774   1.170
 4256TIP3   OH212712   2.214   5.454   0.981
 4256TIP3    H112713   2.257   5.471   0.897
 4256TIP3    H212714   2.129   5.417   0.957
 4257TIP3   OH212715   4.878   3.851   6.481
 4257TIP3    H112716   4.810   3.886   6.423
 4257TIP3    H212717   4.832   3.831   6.562
 4258TIP3   OH212718   0.787   5.387   4.378
 4258TIP3    H112719   0.843   5.358   4.306
 4258TIP3    H212720   0.708   5.333   4.370
 4259TIP3   OH212721   5.874   7.606   5.894
 4259TIP3    H112722   5.942   7.558   5.942
 4259TIP3    H212723   5.798   7.604   5.952
 4260TIP3   OH212724   2.429   6.261   2.200
 4260TIP3    H112725   2.400   6.282   2.112
 4260TIP3    H212726   2.354   6.283   2.256
 4261TIP3   OH212727   4.759   5.132   2.569
 4261TIP3    H112728   4.761   5.123   2.664
 4261TIP3    H212729   4.666   5.138   2.548
 4262TIP3   OH212730   7.683   6.035   3.258
 4262TIP3    H112731   7.747   6.032   3.187
 4262TIP3    H212732   7.723   5.985   3.329
 4263TIP3   OH212733   6.500   1.812   5.195
 4263TIP3    H112734   6.491   1.907   5.186
 4263TIP3    H212735   6.574   1.789   5.138
 4264TIP3   OH212736   5.668   0.531   2.215
 4264TIP3    H112737   5.655   0.549   2.122
 4264TIP3    H212738   5.592   0.479   2.240
 4265TIP3   OH212739   2.320   0.741   2.634
 4265TIP3    H112740   2.405   0.709   2.605
 4265TIP3    H212741   2.325   0.738   2.730
 4266TIP3   OH212742   8.232   0.326   1.895
 4266TIP3    H112743   8.306   0.374   1.857
 4266TIP3    H212744   8.273   0.258   1.948
 4267TIP3   OH212745   4.152   0.879   6.713
 4267TIP3    H112746   4.115   0.954   6.666
 4267TIP3    H212747   4.219   0.916   6.770
 4268TIP3   OH212748   4.266   1.055   3.760
 4268TIP3    H112749   4.239   1.066   3.669
 4268TIP3    H212750   4.220   0.977   3.790
 4269TIP3   OH212751   1.855   5.454   4.378
 4269TIP3    H112752   1.937   5.492   4.345
 4269TIP3    H212753   1.822   5.402   4.305
 4270TIP3   OH212754   7.340   7.507   1.650
 4270TIP3    H112755   7.428   7.480   1.625
 4270TIP3    H212756   7.349   7.598   1.676
 4271TIP3   OH212757   7.006   7.259   3.121
 4271TIP3    H112758   7.071   7.259   3.191
 4271TIP3    H212759   7.035   7.329   3.062
 4272TIP3   OH212760   7.410   5.959   1.395
 4272TIP3    H112761   7.382   5.886   1.341
 4272TIP3    H212762   7.362   5.948   1.477
 4273TIP3   OH212763   4.315   2.338   0.264
 4273TIP3    H112764   4.306   2.319   0.358
 4273TIP3    H212765   4.374   2.413   0.260
 4274TIP3   OH212766   7.526   4.005   1.696
 4274TIP3    H112767   7.516   3.911   1.679
 4274TIP3    H212768   7.619   4.016   1.715
 4275TIP3   OH212769   4.921   4.066   3.702
 4275TIP3    H112770   4.881   4.133   3.757
 4275TIP3    H212771   4.998   4.037   3.752
 4276TIP3   OH212772   0.912   1.719   6.122
 4276TIP3    H112773   0.979   1.652   6.135
 4276TIP3    H212774   0.958   1.791   6.078
 4277TIP3   OH212775   5.696   2.072   1.508
 4277TIP3    H112776   5.730   2.157   1.536
 4277TIP3    H212777   5.717   2.068   1.414
 4278TIP3   OH212778   7.556   3.190   1.737
 4278TIP3    H112779   7.472   3.216   1.774
 4278TIP3    H212780   7.621   3.221   1.800
 4279TIP3   OH212781   4.727   5.833   2.536
 4279TIP3    H112782   4.756   5.803   2.623
 4279TIP3    H212783   4.803   5.876   2.499
 4280TIP3   OH212784   0.497   3.645   1.596
 4280TIP3    H112785   0.506   3.740   1.593
 4280TIP3    H212786   0.478   3.626   1.688
 4281TIP3   OH212787   6.297   4.989   1.007
 4281TIP3    H112788   6.300   5.079   1.040
 4281TIP3    H212789   6.205   4.963   1.017
 4282TIP3   OH212790   8.049   7.169   4.338
 4282TIP3    H112791   8.103   7.247   4.327
 4282TIP3    H212792   8.101   7.112   4.395
 4283TIP3   OH212793   2.498   7.332   6.266
 4283TIP3    H112794   2.454   7.384   6.199
 4283TIP3    H212795   2.495   7.242   6.231
 4284TIP3   OH212796   5.866   0.250   3.362
 4284TIP3    H112797   5.879   0.173   3.305
 4284TIP3    H212798   5.922   0.317   3.323
 4285TIP3   OH212799   3.515   3.669   5.286
 4285TIP3    H112800   3.433   3.622   5.273
 4285TIP3    H212801   3.566   3.612   5.344
 4286TIP3   OH212802   6.328   1.351   2.015
 4286TIP3    H112803   6.265   1.409   2.057
 4286TIP3    H212804   6.282   1.317   1.939
 4287TIP3   OH212805   7.244   5.913   0.097
 4287TIP3    H112806   7.243   5.940   0.189
 4287TIP3    H212807   7.299   5.835   0.095
 4288TIP3   OH212808   8.238   6.210   2.490
 4288TIP3    H112809   8.145   6.235   2.493
 4288TIP3    H212810   8.264   6.202   2.582
 4289TIP3   OH212811   7.965   0.124   0.961
 4289TIP3    H112812   7.950   0.062   0.890
 4289TIP3    H212813   8.060   0.138   0.961
 4290TIP3   OH212814   4.981   0.709   6.079
 4290TIP3    H112815   4.964   0.624   6.040
 4290TIP3    H212816   4.976   0.771   6.006
 4291TIP3   OH212817   2.821   3.849   0.655
 4291TIP3    H112818   2.791   3.785   0.720
 4291TIP3    H212819   2.905   3.814   0.624
 4292TIP3   OH212820   3.598   3.745   0.783
 4292TIP3    H112821   3.677   3.781   0.822
 4292TIP3    H212822   3.556   3.696   0.854
 4293TIP3   OH212823   6.088   0.379   1.799
 4293TIP3    H112824   6.129   0.414   1.878
 4293TIP3    H212825   6.004   0.425   1.794
 4294TIP3   OH212826   5.843   5.344   5.158
 4294TIP3    H112827   5.814   5.283   5.225
 4294TIP3    H212828   5.801   5.312   5.077
 4295TIP3   OH212829   7.058   4.375   2.886
 4295TIP3    H112830   7.016   4.375   2.971
 4295TIP3    H212831   7.080   4.467   2.871
 4296TIP3   OH212832   7.656   7.179   2.785
 4296TIP3    H112833   7.624   7.260   2.744
 4296TIP3    H212834   7.643   7.112   2.719
 4297TIP3   OH212835   4.130   1.861   0.971
 4297TIP3    H112836   4.110   1.793   0.907
 4297TIP3    H212837   4.209   1.903   0.938
 4298TIP3   OH212838   0.853   0.913   3.981
 4298TIP3    H112839   0.877   0.944   4.068
 4298TIP3    H212840   0.791   0.978   3.948
 4299TIP3   OH212841   2.091   2.768   4.225
 4299TIP3    H112842   2.168   2.756   4.280
 4299TIP3    H212843   2.120   2.743   4.137
 4300TIP3   OH212844   0.797   2.111   1.104
 4300TIP3    H112845   0.703   2.107   1.089
 4300TIP3    H212846   0.809   2.185   1.163
 4301TIP3   OH212847   5.900   2.042   2.682
 4301TIP3    H112848   5.929   1.986   2.753
 4301TIP3    H212849   5.972   2.104   2.669
 4302TIP3   OH212850   3.908   4.506   3.386
 4302TIP3    H112851   3.877   4.591   3.418
 4302TIP3    H212852   3.998   4.500   3.418
 4303TIP3   OH212853   7.764   6.185   5.871
 4303TIP3    H112854   7.673   6.206   5.892
 4303TIP3    H212855   7.759   6.127   5.796
 4304TIP3   OH212856   6.191   0.898   5.513
 4304TIP3    H112857   6.133   0.875   5.440
 4304TIP3    H212858   6.155   0.980   5.547
 4305TIP3   OH212859   0.189   3.748   3.473
 4305TIP3    H112860   0.271   3.794   3.490
 4305TIP3    H212861   0.207   3.692   3.398
 4306TIP3   OH212862   4.697   4.249   2.148
 4306TIP3    H112863   4.761   4.232   2.218
 4306TIP3    H212864   4.748   4.245   2.067
 4307TIP3   OH212865   1.165   5.775   2.536
 4307TIP3    H112866   1.069   5.772   2.539
 4307TIP3    H212867   1.189   5.850   2.590
 4308TIP3   OH212868   4.607   6.931   0.424
 4308TIP3    H112869   4.597   6.865   0.493
 4308TIP3    H212870   4.544   6.999   0.446
 4309TIP3   OH212871   8.043   6.303   4.884
 4309TIP3    H112872   8.018   6.350   4.804
 4309TIP3    H212873   8.026   6.366   4.954
 4310TIP3   OH212874   4.378   3.884   3.890
 4310TIP3    H112875   4.293   3.860   3.854
 4310TIP3    H212876   4.417   3.942   3.825
 4311TIP3   OH212877   6.804   4.358   1.487
 4311TIP3    H112878   6.847   4.430   1.532
 4311TIP3    H212879   6.873   4.293   1.475
 4312TIP3   OH212880   8.224   6.408   0.278
 4312TIP3    H112881   8.209   6.472   0.209
 4312TIP3    H212882   8.141   6.361   0.287
 4313TIP3   OH212883   7.314   4.840   3.793
 4313TIP3    H112884   7.302   4.857   3.886
 4313TIP3    H212885   7.342   4.749   3.788
 4314TIP3   OH212886   1.466   2.949   5.691
 4314TIP3    H112887   1.525   3.016   5.656
 4314TIP3    H212888   1.485   2.947   5.785
 4315TIP3   OH212889   5.387   5.471   3.581
 4315TIP3    H112890   5.420   5.484   3.670
 4315TIP3    H212891   5.375   5.376   3.574
 4316TIP3   OH212892   3.615   4.203   4.374
 4316TIP3    H112893   3.547   4.250   4.422
 4316TIP3    H212894   3.659   4.271   4.322
 4317TIP3   OH212895   7.438   1.743   3.886
 4317TIP3    H112896   7.529   1.765   3.909
 4317TIP3    H212897   7.393   1.827   3.887
 4318TIP3   OH212898   1.981   7.123   3.931
 4318TIP3    H112899   1.904   7.087   3.888
 4318TIP3    H212900   1.979   7.217   3.910
 4319TIP3   OH212901   7.711   0.356   3.434
 4319TIP3    H112902   7.631   0.306   3.415
 4319TIP3    H212903   7.776   0.289   3.452
 4320TIP3   OH212904   4.676   5.236   3.655
 4320TIP3    H112905   4.588   5.268   3.636
 4320TIP3    H212906   4.704   5.192   3.575
 4321TIP3   OH212907   1.729   0.545   4.547
 4321TIP3    H112908   1.765   0.604   4.481
 4321TIP3    H212909   1.806   0.502   4.585
 4322TIP3   OH212910   2.920   1.493   0.978
 4322TIP3    H112911   2.996   1.551   0.979
 4322TIP3    H212912   2.866   1.525   0.906
 4323TIP3   OH212913   5.778   1.481   5.731
 4323TIP3    H112914   5.731   1.562   5.712
 4323TIP3    H212915   5.804   1.447   5.645
 4324TIP3   OH212916   3.452   1.360   4.995
 4324TIP3    H112917   3.458   1.281   5.049
 4324TIP3    H212918   3.364   1.393   5.010
 4325TIP3   OH212919   0.845   1.882   5.680
 4325TIP3    H112920   0.759   1.923   5.696
 4325TIP3    H212921   0.908   1.952   5.699
 4326TIP3   OH212922   6.475   3.488   5.258
 4326TIP3    H112923   6.540   3.510   5.192
 4326TIP3    H212924   6.511   3.523   5.340
 4327TIP3   OH212925   0.137   5.250   3.612
 4327TIP3    H112926   0.206   5.236   3.677
 4327TIP3    H212927   0.060   5.273   3.663
 4328TIP3   OH212928   6.407   7.777   0.082
 4328TIP3    H112929   6.489   7.786   0.130
 4328TIP3    H212930   6.414   7.838   0.009
 4329TIP3   OH212931   4.278   1.400   3.552
 4329TIP3    H112932   4.281   1.440   3.639
 4329TIP3    H212933   4.364   1.417   3.514
 4330TIP3   OH212934   3.702   1.579   3.572
 4330TIP3    H112935   3.716   1.568   3.666
 4330TIP3    H212936   3.755   1.509   3.532
 4331TIP3   OH212937   5.608   5.603   2.288
 4331TIP3    H112938   5.556   5.669   2.242
 4331TIP3    H212939   5.562   5.589   2.370
 4332TIP3   OH212940   6.605   6.045   1.921
 4332TIP3    H112941   6.687   6.002   1.896
 4332TIP3    H212942   6.619   6.074   2.011
 4333TIP3   OH212943   4.319   7.088   3.892
 4333TIP3    H112944   4.414   7.087   3.895
 4333TIP3    H212945   4.293   7.152   3.958
 4334TIP3   OH212946   2.305   3.424   0.032
 4334TIP3    H112947   2.294   3.496   0.095
 4334TIP3    H212948   2.216   3.406   0.001
 4335TIP3   OH212949   7.205   0.202   6.322
 4335TIP3    H112950   7.134   0.264   6.306
 4335TIP3    H212951   7.161   0.122   6.351
 4336TIP3   OH212952   1.814   2.898   3.532
 4336TIP3    H112953   1.898   2.867   3.565
 4336TIP3    H212954   1.778   2.824   3.483
 4337TIP3   OH212955   7.079   5.591   1.200
 4337TIP3    H112956   7.075   5.499   1.171
 4337TIP3    H212957   7.017   5.637   1.144
 4338TIP3   OH212958   5.464   4.498   0.567
 4338TIP3    H112959   5.450   4.548   0.648
 4338TIP3    H212960   5.558   4.507   0.551
 4339TIP3   OH212961   4.130   2.157   1.124
 4339TIP3    H112962   4.221   2.144   1.097
 4339TIP3    H212963   4.136   2.186   1.216
 4340TIP3   OH212964   5.665   3.926   2.816
 4340TIP3    H112965   5.755   3.958   2.818
 4340TIP3    H212966   5.640   3.921   2.909
 4341TIP3   OH212967   5.132   4.180   3.524
 4341TIP3    H112968   5.073   4.157   3.596
 4341TIP3    H212969   5.075   4.222   3.459
 4342TIP3   OH212970   3.483   0.314   2.085
 4342TIP3    H112971   3.513   0.281   2.000
 4342TIP3    H212972   3.534   0.264   2.149
 4343TIP3   OH212973   5.012  -0.005   2.958
 4343TIP3    H112974   5.065   0.071   2.933
 4343TIP3    H212975   4.962   0.025   3.034
 4344TIP3   OH212976   6.848   3.006   3.262
 4344TIP3    H112977   6.909   3.059   3.210
 4344TIP3    H212978   6.786   2.970   3.198
 4345TIP3   OH212979   7.792   2.176   0.542
 4345TIP3    H112980   7.710   2.128   0.527
 4345TIP3    H212981   7.774   2.230   0.619
 4346TIP3   OH212982   6.421   5.441   1.876
 4346TIP3    H112983   6.451   5.419   1.787
 4346TIP3    H212984   6.475   5.516   1.901
 4347TIP3   OH212985   5.197   7.693   6.287
 4347TIP3    H112986   5.177   7.768   6.342
 4347TIP3    H212987   5.225   7.731   6.203
 4348TIP3   OH212988   6.325   3.897   0.977
 4348TIP3    H112989   6.257   3.846   1.022
 4348TIP3    H212990   6.338   3.851   0.894
 4349TIP3   OH212991   5.059   2.536   4.904
 4349TIP3    H112992   5.090   2.624   4.883
 4349TIP3    H212993   5.016   2.505   4.824
 4350TIP3   OH212994   5.178   0.560   1.002
 4350TIP3    H112995   5.118   0.575   0.929
 4350TIP3    H212996   5.185   0.465   1.008
 4351TIP3   OH212997   7.633   3.316   6.531
 4351TIP3    H112998   7.694   3.388   6.515
 4351TIP3    H212999   7.595   3.336   6.617
 4352TIP3   OH213000   7.300   6.228   6.704
 4352TIP3    H113001   7.280   6.168   6.775
 4352TIP3    H213002   7.393   6.250   6.717
 4353TIP3   OH213003   0.129   1.425   6.326
 4353TIP3    H113004   0.203   1.384   6.372
 4353TIP3    H213005   0.065   1.441   6.395
 4354TIP3   OH213006   7.587   4.583   5.952
 4354TIP3    H113007   7.628   4.663   5.985
 4354TIP3    H213008   7.659   4.530   5.920
 4355TIP3   OH213009   2.622   2.438   0.130
 4355TIP3    H113010   2.669   2.502   0.183
 4355TIP3    H213011   2.558   2.400   0.191
 4356TIP3   OH213012   1.779   1.655   4.566
 4356TIP3    H113013   1.730   1.653   4.483
 4356TIP3    H213014   1.848   1.590   4.554
 4357TIP3   OH213015   2.769   6.638   1.376
 4357TIP3    H113016   2.704   6.568   1.374
 4357TIP3    H213017   2.773   6.670   1.286
 4358TIP3   OH213018   4.906   5.466   2.548
 4358TIP3    H113019   5.001   5.469   2.536
 4358TIP3    H213020   4.872   5.433   2.466
 4359TIP3   OH213021   7.953   2.977   5.895
 4359TIP3    H113022   7.936   3.018   5.980
 4359TIP3    H213023   8.030   2.922   5.910
 4360TIP3   OH213024   6.406   1.930   6.424
 4360TIP3    H113025   6.364   1.995   6.480
 4360TIP3    H213026   6.334   1.886   6.380
 4361TIP3   OH213027   3.551   0.464   5.737
 4361TIP3    H113028   3.501   0.544   5.722
 4361TIP3    H213029   3.598   0.479   5.819
 4362TIP3   OH213030   7.657   2.570   0.228
 4362TIP3    H113031   7.603   2.608   0.297
 4362TIP3    H213032   7.694   2.490   0.266
 4363TIP3   OH213033   7.965   3.979   3.209
 4363TIP3    H113034   8.027   4.044   3.175
 4363TIP3    H213035   7.928   4.019   3.287
 4364TIP3   OH213036   5.710   3.884   4.166
 4364TIP3    H113037   5.619   3.895   4.139
 4364TIP3    H213038   5.705   3.863   4.259
 4365TIP3   OH213039   0.089   6.031   0.837
 4365TIP3    H113040   0.111   6.101   0.775
 4365TIP3    H213041   0.146   5.958   0.811
 4366TIP3   OH213042   5.535   0.517   2.829
 4366TIP3    H113043   5.606   0.452   2.834
 4366TIP3    H213044   5.470   0.477   2.771
 4367TIP3   OH213045   7.288   0.145   1.393
 4367TIP3    H113046   7.305   0.153   1.299
 4367TIP3    H213047   7.370   0.173   1.434
 4368TIP3   OH213048   0.900   2.429   2.220
 4368TIP3    H113049   0.992   2.410   2.204
 4368TIP3    H213050   0.853   2.349   2.195
 4369TIP3   OH213051   1.215   0.358   6.728
 4369TIP3    H113052   1.232   0.421   6.658
 4369TIP3    H213053   1.266   0.281   6.704
 4370TIP3   OH213054   0.910   1.223   3.294
 4370TIP3    H113055   0.958   1.155   3.341
 4370TIP3    H213056   0.844   1.176   3.244
 4371TIP3   OH213057   0.917   2.897   5.225
 4371TIP3    H113058   0.927   2.974   5.282
 4371TIP3    H213059   0.997   2.895   5.172
 4372TIP3   OH213060   3.154   6.519   5.754
 4372TIP3    H113061   3.209   6.486   5.683
 4372TIP3    H213062   3.149   6.446   5.816
 4373TIP3   OH213063   8.237   5.115   4.897
 4373TIP3    H113064   8.259   5.176   4.826
 4373TIP3    H213065   8.270   5.157   4.976
 4374TIP3   OH213066   4.157   1.542   2.024
 4374TIP3    H113067   4.195   1.556   1.938
 4374TIP3    H213068   4.090   1.475   2.011
 4375TIP3   OH213069   1.528   7.588   6.170
 4375TIP3    H113070   1.459   7.545   6.221
 4375TIP3    H213071   1.497   7.584   6.080
 4376TIP3   OH213072   1.328   5.380   4.754
 4376TIP3    H113073   1.410   5.336   4.731
 4376TIP3    H213074   1.299   5.420   4.672
 4377TIP3   OH213075   6.482   5.352   3.526
 4377TIP3    H113076   6.533   5.325   3.602
 4377TIP3    H213077   6.442   5.435   3.552
 4378TIP3   OH213078   6.915   4.106   4.093
 4378TIP3    H113079   6.844   4.043   4.107
 4378TIP3    H213080   6.875   4.192   4.108
 4379TIP3   OH213081   6.418   5.475   2.350
 4379TIP3    H113082   6.463   5.458   2.432
 4379TIP3    H213083   6.409   5.389   2.309
 4380TIP3   OH213084   6.589   6.094   1.516
 4380TIP3    H113085   6.558   6.113   1.427
 4380TIP3    H213086   6.538   6.154   1.571
 4381TIP3   OH213087   1.877   5.369   2.875
 4381TIP3    H113088   1.818   5.444   2.875
 4381TIP3    H213089   1.962   5.405   2.850
 4382TIP3   OH213090   4.224   5.760   1.803
 4382TIP3    H113091   4.151   5.720   1.851
 4382TIP3    H213092   4.189   5.777   1.715
 4383TIP3   OH213093   4.807   0.017   3.899
 4383TIP3    H113094   4.834   0.039   3.810
 4383TIP3    H213095   4.732   0.074   3.916
 4384TIP3   OH213096   0.076   0.704   4.772
 4384TIP3    H113097   0.000   0.690   4.716
 4384TIP3    H213098   0.053   0.663   4.855
 4385TIP3   OH213099   0.879   4.408   1.013
 4385TIP3    H113100   0.799   4.430   1.060
 4385TIP3    H213101   0.929   4.490   1.012
 4386TIP3   OH213102   5.934   3.966   0.433
 4386TIP3    H113103   5.892   3.881   0.419
 4386TIP3    H213104   5.864   4.023   0.466
 4387TIP3   OH213105   2.797   5.144   1.499
 4387TIP3    H113106   2.768   5.235   1.499
 4387TIP3    H213107   2.886   5.147   1.464
 4388TIP3   OH213108   4.576   3.680   5.077
 4388TIP3    H113109   4.590   3.742   5.005
 4388TIP3    H213110   4.517   3.614   5.040
 4389TIP3   OH213111   6.915   0.928   5.390
 4389TIP3    H113112   6.871   1.007   5.422
 4389TIP3    H213113   7.004   0.958   5.367
 4390TIP3   OH213114   4.561   4.620   4.390
 4390TIP3    H113115   4.562   4.539   4.441
 4390TIP3    H213116   4.644   4.620   4.343
 4391TIP3   OH213117   0.515   6.395   0.426
 4391TIP3    H113118   0.474   6.365   0.345
 4391TIP3    H213119   0.555   6.478   0.403
 4392TIP3   OH213120   1.663   1.312   3.851
 4392TIP3    H113121   1.753   1.291   3.875
 4392TIP3    H213122   1.609   1.268   3.916
 4393TIP3   OH213123   6.995   1.001   4.095
 4393TIP3    H113124   6.900   0.999   4.102
 4393TIP3    H213125   7.020   1.084   4.136
 4394TIP3   OH213126   6.915   0.588   2.321
 4394TIP3    H113127   6.838   0.610   2.374
 4394TIP3    H213128   6.952   0.672   2.296
 4395TIP3   OH213129   5.674   1.554   0.230
 4395TIP3    H113130   5.756   1.517   0.197
 4395TIP3    H213131   5.664   1.637   0.184
 4396TIP3   OH213132   5.747   7.180   5.382
 4396TIP3    H113133   5.727   7.192   5.289
 4396TIP3    H213134   5.739   7.085   5.396
 4397TIP3   OH213135   6.625   3.646   1.451
 4397TIP3    H113136   6.550   3.586   1.450
 4397TIP3    H213137   6.654   3.650   1.360
 4398TIP3   OH213138   5.077   3.425   1.183
 4398TIP3    H113139   5.144   3.419   1.114
 4398TIP3    H213140   5.007   3.366   1.153
 4399TIP3   OH213141   6.733   4.688   3.642
 4399TIP3    H113142   6.684   4.765   3.612
 4399TIP3    H213143   6.750   4.706   3.735
 4400TIP3   OH213144   4.029   7.683   1.891
 4400TIP3    H113145   4.048   7.711   1.980
 4400TIP3    H213146   4.037   7.587   1.894
 4401TIP3   OH213147   3.172   3.822   5.313
 4401TIP3    H113148   3.086   3.832   5.355
 4401TIP3    H213149   3.233   3.861   5.376
 4402TIP3   OH213150   0.275   0.013   2.155
 4402TIP3    H113151   0.309  -0.050   2.091
 4402TIP3    H213152   0.257  -0.040   2.233
 4403TIP3   OH213153   5.685   6.742   6.460
 4403TIP3    H113154   5.699   6.803   6.388
 4403TIP3    H213155   5.595   6.757   6.488
 4404TIP3   OH213156   0.170   0.311   4.242
 4404TIP3    H113157   0.119   0.259   4.304
 4404TIP3    H213158   0.241   0.348   4.295
 4405TIP3   OH213159   7.063   6.087   5.955
 4405TIP3    H113160   7.075   6.177   5.985
 4405TIP3    H213161   7.035   6.039   6.033
 4406TIP3   OH213162   1.224   7.304   3.268
 4406TIP3    H113163   1.274   7.355   3.332
 4406TIP3    H213164   1.286   7.282   3.199
 4407TIP3   OH213165   4.460   2.183   5.829
 4407TIP3    H113166   4.393   2.117   5.842
 4407TIP3    H213167   4.533   2.137   5.789
 4408TIP3   OH213168   4.980   5.401   4.780
 4408TIP3    H113169   5.031   5.404   4.699
 4408TIP3    H213170   4.968   5.308   4.798
 4409TIP3   OH213171   4.713   4.441   5.999
 4409TIP3    H113172   4.620   4.461   5.992
 4409TIP3    H213173   4.726   4.415   6.090
 4410TIP3   OH213174   3.607   3.341   2.358
 4410TIP3    H113175   3.592   3.256   2.317
 4410TIP3    H213176   3.640   3.320   2.445
 4411TIP3   OH213177   5.538   2.343   4.873
 4411TIP3    H113178   5.605   2.314   4.811
 4411TIP3    H213179   5.508   2.263   4.916
 4412TIP3   OH213180   4.337   0.735   6.033
 4412TIP3    H113181   4.274   0.668   6.060
 4412TIP3    H213182   4.416   0.686   6.010
 4413TIP3   OH213183   8.285   0.119   5.285
 4413TIP3    H113184   8.245   0.032   5.290
 4413TIP3    H213185   8.315   0.126   5.194
 4414TIP3   OH213186   7.797   1.382   0.980
 4414TIP3    H113187   7.836   1.295   0.984
 4414TIP3    H213188   7.706   1.367   0.954
 4415TIP3   OH213189   4.347   7.244   1.667
 4415TIP3    H113190   4.307   7.323   1.632
 4415TIP3    H213191   4.357   7.261   1.760
 4416TIP3   OH213192   1.608   2.350   3.151
 4416TIP3    H113193   1.573   2.334   3.063
 4416TIP3    H213194   1.702   2.336   3.142
 4417TIP3   OH213195   6.438   0.603   0.773
 4417TIP3    H113196   6.438   0.612   0.678
 4417TIP3    H213197   6.401   0.685   0.805
 4418TIP3   OH213198   6.584   5.073   0.898
 4418TIP3    H113199   6.615   5.111   0.980
 4418TIP3    H213200   6.585   5.146   0.836
 4419TIP3   OH213201   6.039   2.282   5.988
 4419TIP3    H113202   5.998   2.361   6.023
 4419TIP3    H213203   5.986   2.210   6.021
 4420TIP3   OH213204   8.294   4.090   3.529
 4420TIP3    H113205   8.364   4.091   3.593
 4420TIP3    H213206   8.225   4.143   3.569
 4421TIP3   OH213207   6.168   5.274   4.344
 4421TIP3    H113208   6.108   5.220   4.292
 4421TIP3    H213209   6.140   5.260   4.435
 4422TIP3   OH213210   5.930   3.442   3.762
 4422TIP3    H113211   5.915   3.494   3.840
 4422TIP3    H213212   5.853   3.386   3.756
 4423TIP3   OH213213   8.248   4.986   6.588
 4423TIP3    H113214   8.288   4.920   6.644
 4423TIP3    H213215   8.316   5.052   6.575
 4424TIP3   OH213216   0.570   5.792   5.418
 4424TIP3    H113217   0.618   5.744   5.351
 4424TIP3    H213218   0.618   5.773   5.499
 4425TIP3   OH213219   0.648   1.027   3.229
 4425TIP3    H113220   0.686   0.992   3.309
 4425TIP3    H213221   0.566   0.978   3.219
 4426TIP3   OH213222   5.072   0.054   1.160
 4426TIP3    H113223   5.082  -0.029   1.206
 4426TIP3    H213224   5.006   0.101   1.210
 4427TIP3   OH213225   5.210   0.621   2.976
 4427TIP3    H113226   5.216   0.627   2.881
 4427TIP3    H213227   5.271   0.552   3.000
 4428TIP3   OH213228   5.962   7.535   0.955
 4428TIP3    H113229   5.890   7.474   0.970
 4428TIP3    H213230   6.036   7.479   0.932
 4429TIP3   OH213231   6.970   2.701   4.509
 4429TIP3    H113232   6.993   2.667   4.422
 4429TIP3    H213233   7.028   2.654   4.569
 4430TIP3   OH213234   5.375   0.955   0.936
 4430TIP3    H113235   5.410   0.900   1.006
 4430TIP3    H213236   5.297   0.996   0.974
 4431TIP3   OH213237   5.595   7.640   0.428
 4431TIP3    H113238   5.603   7.735   0.416
 4431TIP3    H213239   5.675   7.605   0.389
 4432TIP3   OH213240   7.507   2.493   0.808
 4432TIP3    H113241   7.506   2.580   0.769
 4432TIP3    H213242   7.463   2.503   0.892
 4433TIP3   OH213243   1.337   4.187   5.337
 4433TIP3    H113244   1.271   4.236   5.385
 4433TIP3    H213245   1.318   4.095   5.358
 4434TIP3   OH213246   4.429   4.142   4.079
 4434TIP3    H113247   4.467   4.223   4.111
 4434TIP3    H213248   4.472   4.127   3.995
 4435TIP3   OH213249   1.536   7.275   1.320
 4435TIP3    H113250   1.448   7.267   1.283
 4435TIP3    H213251   1.525   7.259   1.414
 4436TIP3   OH213252   0.828   6.264   5.991
 4436TIP3    H113253   0.869   6.177   5.992
 4436TIP3    H213254   0.881   6.316   6.052
 4437TIP3   OH213255   6.024   1.662   4.191
 4437TIP3    H113256   5.948   1.710   4.160
 4437TIP3    H213257   5.988   1.577   4.220
 4438TIP3   OH213258   5.078   2.965   3.208
 4438TIP3    H113259   5.002   2.906   3.215
 4438TIP3    H213260   5.078   3.015   3.289
 4439TIP3   OH213261   7.425   0.968   1.505
 4439TIP3    H113262   7.355   0.981   1.570
 4439TIP3    H213263   7.498   0.931   1.555
 4440TIP3   OH213264   2.552   0.442   4.273
 4440TIP3    H113265   2.628   0.438   4.331
 4440TIP3    H213266   2.487   0.492   4.322
 4441TIP3   OH213267   7.231   3.334   5.981
 4441TIP3    H113268   7.221   3.419   6.023
 4441TIP3    H213269   7.162   3.280   6.020
 4442TIP3   OH213270   2.781   6.317   4.705
 4442TIP3    H113271   2.740   6.270   4.633
 4442TIP3    H213272   2.826   6.390   4.663
 4443TIP3   OH213273   5.326   0.081   1.987
 4443TIP3    H113274   5.288   0.142   1.924
 4443TIP3    H213275   5.374   0.018   1.933
 4444TIP3   OH213276   2.615   1.191   3.864
 4444TIP3    H113277   2.666   1.251   3.809
 4444TIP3    H213278   2.626   1.106   3.821
 4445TIP3   OH213279   5.069   5.321   3.581
 4445TIP3    H113280   5.158   5.293   3.562
 4445TIP3    H213281   5.035   5.351   3.496
 4446TIP3   OH213282   1.613   1.558   4.955
 4446TIP3    H113283   1.540   1.572   5.015
 4446TIP3    H213284   1.572   1.545   4.870
 4447TIP3   OH213285   6.182   0.545   1.257
 4447TIP3    H113286   6.237   0.538   1.335
 4447TIP3    H213287   6.235   0.596   1.195
 4448TIP3   OH213288   4.883   5.735   6.435
 4448TIP3    H113289   4.810   5.791   6.460
 4448TIP3    H213290   4.907   5.690   6.517
 4449TIP3   OH213291   0.983   5.098   2.266
 4449TIP3    H113292   0.948   5.186   2.279
 4449TIP3    H213293   0.919   5.054   2.211
 4450TIP3   OH213294   2.632   4.182   0.849
 4450TIP3    H113295   2.573   4.181   0.925
 4450TIP3    H213296   2.643   4.275   0.829
 4451TIP3   OH213297   2.363   1.758   3.698
 4451TIP3    H113298   2.304   1.703   3.749
 4451TIP3    H213299   2.433   1.699   3.670
 4452TIP3   OH213300   0.313   0.405   6.352
 4452TIP3    H113301   0.404   0.395   6.380
 4452TIP3    H213302   0.286   0.489   6.387
 4453TIP3   OH213303   1.135   0.525   5.214
 4453TIP3    H113304   1.087   0.465   5.272
 4453TIP3    H213305   1.086   0.525   5.132
 4454TIP3   OH213306   7.855   3.521   4.614
 4454TIP3    H113307   7.867   3.484   4.527
 4454TIP3    H213308   7.905   3.603   4.612
 4455TIP3   OH213309   7.452   0.523   5.145
 4455TIP3    H113310   7.521   0.493   5.086
 4455TIP3    H213311   7.373   0.478   5.115
 4456TIP3   OH213312   5.132   6.396   1.704
 4456TIP3    H113313   5.131   6.381   1.609
 4456TIP3    H213314   5.039   6.394   1.729
 4457TIP3   OH213315   1.206   1.948   0.314
 4457TIP3    H113316   1.172   1.948   0.403
 4457TIP3    H213317   1.283   1.891   0.317
 4458TIP3   OH213318   4.831   4.138   3.971
 4458TIP3    H113319   4.838   4.175   4.060
 4458TIP3    H213320   4.789   4.207   3.920
 4459TIP3   OH213321   6.829   5.290   5.501
 4459TIP3    H113322   6.894   5.328   5.560
 4459TIP3    H213323   6.842   5.196   5.507
 4460TIP3   OH213324   6.337   6.349   3.993
 4460TIP3    H113325   6.291   6.413   4.048
 4460TIP3    H213326   6.339   6.269   4.046
 4461TIP3   OH213327   6.425   1.510   3.782
 4461TIP3    H113328   6.398   1.484   3.870
 4461TIP3    H213329   6.499   1.568   3.795
 4462TIP3   OH213330   2.196   0.734   4.167
 4462TIP3    H113331   2.103   0.741   4.188
 4462TIP3    H213332   2.238   0.795   4.228
 4463TIP3   OH213333   5.042   4.129   6.613
 4463TIP3    H113334   5.056   4.173   6.696
 4463TIP3    H213335   4.962   4.168   6.578
 4464TIP3   OH213336   7.544   0.418   0.280
 4464TIP3    H113337   7.528   0.347   0.343
 4464TIP3    H213338   7.560   0.494   0.335
 4465TIP3   OH213339   8.250   1.649   5.328
 4465TIP3    H113340   8.236   1.641   5.234
 4465TIP3    H213341   8.172   1.609   5.367
 4466TIP3   OH213342   4.181   3.912   1.097
 4466TIP3    H113343   4.113   3.877   1.154
 4466TIP3    H213344   4.133   3.968   1.035
 4467TIP3   OH213345   8.241   5.539   5.659
 4467TIP3    H113346   8.181   5.474   5.696
 4467TIP3    H213347   8.328   5.499   5.669
 4468TIP3   OH213348   5.990   0.838   1.384
 4468TIP3    H113349   6.052   0.782   1.433
 4468TIP3    H213350   5.996   0.923   1.427
 4469TIP3   OH213351   5.936   4.662   3.469
 4469TIP3    H113352   5.999   4.653   3.540
 4469TIP3    H213353   5.905   4.573   3.453
 4470TIP3   OH213354   6.064   7.707   3.203
 4470TIP3    H113355   6.091   7.791   3.166
 4470TIP3    H213356   6.003   7.729   3.273
 4471TIP3   OH213357   2.737   7.379   4.682
 4471TIP3    H113358   2.702   7.290   4.678
 4471TIP3    H213359   2.711   7.420   4.599
 4472TIP3   OH213360   3.320   2.655   1.205
 4472TIP3    H113361   3.393   2.710   1.177
 4472TIP3    H213362   3.288   2.613   1.125
 4473TIP3   OH213363   2.033   4.355   3.783
 4473TIP3    H113364   1.990   4.344   3.698
 4473TIP3    H213365   1.962   4.377   3.843
 4474TIP3   OH213366   6.119   6.807   2.788
 4474TIP3    H113367   6.067   6.875   2.746
 4474TIP3    H213368   6.085   6.803   2.878
 4475TIP3   OH213369   6.852   7.021   4.218
 4475TIP3    H113370   6.853   7.077   4.141
 4475TIP3    H213371   6.941   7.027   4.253
 4476TIP3   OH213372   1.877   6.600   4.943
 4476TIP3    H113373   1.853   6.661   4.873
 4476TIP3    H213374   1.932   6.650   5.002
 4477TIP3   OH213375   0.069   3.806   5.348
 4477TIP3    H113376   0.155   3.767   5.333
 4477TIP3    H213377   0.068   3.882   5.290
 4478TIP3   OH213378   1.528   3.338   2.164
 4478TIP3    H113379   1.591   3.318   2.095
 4478TIP3    H213380   1.442   3.326   2.124
 4479TIP3   OH213381   6.617   7.193   4.734
 4479TIP3    H113382   6.710   7.185   4.754
 4479TIP3    H213383   6.604   7.287   4.721
 4480TIP3   OH213384   4.134   1.453   3.308
 4480TIP3    H113385   4.189   1.442   3.386
 4480TIP3    H213386   4.184   1.510   3.251
 4481TIP3   OH213387   5.227   1.111   2.811
 4481TIP3    H113388   5.194   1.054   2.880
 4481TIP3    H213389   5.179   1.083   2.733
 4482TIP3   OH213390   1.236   3.684   4.400
 4482TIP3    H113391   1.294   3.649   4.468
 4482TIP3    H213392   1.290   3.745   4.351
 4483TIP3   OH213393   7.148   7.053   3.718
 4483TIP3    H113394   7.138   7.025   3.627
 4483TIP3    H213395   7.060   7.052   3.755
 4484TIP3   OH213396   7.199   6.806   1.903
 4484TIP3    H113397   7.141   6.786   1.830
 4484TIP3    H213398   7.178   6.741   1.970
 4485TIP3   OH213399   7.033   2.746   0.544
 4485TIP3    H113400   7.064   2.756   0.454
 4485TIP3    H213401   7.033   2.652   0.560
 4486TIP3   OH213402   2.510   6.150   4.295
 4486TIP3    H113403   2.480   6.059   4.285
 4486TIP3    H213404   2.542   6.174   4.208
 4487TIP3   OH213405   6.997   7.317   5.713
 4487TIP3    H113406   7.059   7.390   5.721
 4487TIP3    H213407   7.027   7.268   5.637
 4488TIP3   OH213408   3.104   3.534   0.441
 4488TIP3    H113409   3.013   3.539   0.412
 4488TIP3    H213410   3.099   3.513   0.534
 4489TIP3   OH213411   7.029   7.586   1.612
 4489TIP3    H113412   7.116   7.561   1.581
 4489TIP3    H213413   7.038   7.593   1.707
 4490TIP3   OH213414   7.071   1.602   2.113
 4490TIP3    H113415   7.099   1.645   2.031
 4490TIP3    H213416   6.990   1.557   2.090
 4491TIP3   OH213417   1.550   3.865   5.419
 4491TIP3    H113418   1.459   3.889   5.437
 4491TIP3    H213419   1.600   3.945   5.438
 4492TIP3   OH213420   0.964   7.789   0.962
 4492TIP3    H113421   0.890   7.750   0.916
 4492TIP3    H213422   1.009   7.841   0.895
 4493TIP3   OH213423   7.794   5.009   3.661
 4493TIP3    H113424   7.782   5.101   3.685
 4493TIP3    H213425   7.747   4.999   3.578
 4494TIP3   OH213426   2.644   5.445   3.491
 4494TIP3    H113427   2.637   5.530   3.535
 4494TIP3    H213428   2.735   5.441   3.461
 4495TIP3   OH213429   4.795   5.119   2.215
 4495TIP3    H113430   4.848   5.067   2.154
 4495TIP3    H213431   4.723   5.062   2.241
 4496TIP3   OH213432   3.167   3.644   6.433
 4496TIP3    H113433   3.201   3.618   6.348
 4496TIP3    H213434   3.245   3.666   6.484
 4497TIP3   OH213435   5.714   5.466   1.555
 4497TIP3    H113436   5.730   5.540   1.613
 4497TIP3    H213437   5.619   5.452   1.558
 4498TIP3   OH213438   4.033   3.132   2.958
 4498TIP3    H113439   4.084   3.111   3.036
 4498TIP3    H213440   3.987   3.050   2.937
 4499TIP3   OH213441   1.655   4.866   3.753
 4499TIP3    H113442   1.618   4.954   3.760
 4499TIP3    H213443   1.717   4.860   3.826
 4500TIP3   OH213444   5.596   7.438   4.138
 4500TIP3    H113445   5.641   7.520   4.160
 4500TIP3    H213446   5.607   7.383   4.216
 4501TIP3   OH213447   3.365   1.511   3.173
 4501TIP3    H113448   3.284   1.491   3.126
 4501TIP3    H213449   3.434   1.479   3.115
 4502TIP3   OH213450   4.761   3.064   0.235
 4502TIP3    H113451   4.809   2.981   0.239
 4502TIP3    H213452   4.751   3.090   0.326
 4503TIP3   OH213453   6.030   4.658   4.736
 4503TIP3    H113454   6.069   4.716   4.670
 4503TIP3    H213455   6.011   4.577   4.689
 4504TIP3   OH213456   3.489   3.957   4.429
 4504TIP3    H113457   3.558   3.904   4.468
 4504TIP3    H213458   3.528   4.043   4.417
 4505TIP3   OH213459   5.424   5.188   5.340
 4505TIP3    H113460   5.345   5.234   5.368
 4505TIP3    H213461   5.398   5.095   5.338
 4506TIP3   OH213462   7.585   0.586   4.233
 4506TIP3    H113463   7.546   0.511   4.187
 4506TIP3    H213464   7.511   0.639   4.260
 4507TIP3   OH213465   1.902   7.170   6.076
 4507TIP3    H113466   1.996   7.164   6.059
 4507TIP3    H213467   1.896   7.200   6.166
 4508TIP3   OH213468   1.800   1.327   5.634
 4508TIP3    H113469   1.795   1.265   5.707
 4508TIP3    H213470   1.778   1.412   5.673
 4509TIP3   OH213471   7.517   5.304   2.154
 4509TIP3    H113472   7.582   5.235   2.150
 4509TIP3    H213473   7.485   5.303   2.244
 4510TIP3   OH213474   2.553   1.493   2.023
 4510TIP3    H113475   2.486   1.491   2.092
 4510TIP3    H213476   2.521   1.431   1.958
 4511TIP3   OH213477   2.862   4.603   5.595
 4511TIP3    H113478   2.777   4.642   5.615
 4511TIP3    H213479   2.841   4.514   5.566
 4512TIP3   OH213480   7.996   6.980   0.644
 4512TIP3    H113481   7.917   6.968   0.591
 4512TIP3    H213482   7.984   6.921   0.719
 4513TIP3   OH213483   3.495   3.259   5.075
 4513TIP3    H113484   3.547   3.335   5.049
 4513TIP3    H213485   3.405   3.292   5.077
 4514TIP3   OH213486   5.257   6.310   4.714
 4514TIP3    H113487   5.204   6.390   4.714
 4514TIP3    H213488   5.252   6.277   4.624
 4515TIP3   OH213489   4.501   3.931   4.517
 4515TIP3    H113490   4.498   4.016   4.474
 4515TIP3    H213491   4.415   3.892   4.502
 4516TIP3   OH213492   1.824   5.959   3.168
 4516TIP3    H113493   1.851   5.970   3.077
 4516TIP3    H213494   1.864   6.033   3.214
 4517TIP3   OH213495   2.660   6.803   0.153
 4517TIP3    H113496   2.699   6.750   0.222
 4517TIP3    H213497   2.602   6.743   0.106
 4518TIP3   OH213498   2.077   4.719   3.947
 4518TIP3    H113499   2.094   4.780   4.018
 4518TIP3    H213500   2.106   4.634   3.981
 4519TIP3   OH213501   4.248   3.775   4.647
 4519TIP3    H113502   4.183   3.837   4.679
 4519TIP3    H213503   4.219   3.754   4.558
 4520TIP3   OH213504   0.469   7.098   0.126
 4520TIP3    H113505   0.402   7.127   0.188
 4520TIP3    H213506   0.485   7.007   0.149
 4521TIP3   OH213507   1.960   6.697   0.418
 4521TIP3    H113508   1.871   6.728   0.433
 4521TIP3    H213509   1.976   6.716   0.325
 4522TIP3   OH213510   3.432   2.443   2.231
 4522TIP3    H113511   3.512   2.482   2.196
 4522TIP3    H213512   3.463   2.378   2.295
 4523TIP3   OH213513   4.276   4.687   5.639
 4523TIP3    H113514   4.308   4.699   5.729
 4523TIP3    H213515   4.356   4.686   5.586
 4524TIP3   OH213516   5.796   5.624   3.416
 4524TIP3    H113517   5.852   5.697   3.441
 4524TIP3    H213518   5.732   5.662   3.355
 4525TIP3   OH213519   1.819   0.237   4.084
 4525TIP3    H113520   1.749   0.260   4.024
 4525TIP3    H213521   1.893   0.291   4.056
 4526TIP3   OH213522   3.639   6.639   2.331
 4526TIP3    H113523   3.611   6.666   2.419
 4526TIP3    H213524   3.587   6.560   2.313
 4527TIP3   OH213525   3.310   4.558   4.388
 4527TIP3    H113526   3.296   4.634   4.444
 4527TIP3    H213527   3.349   4.493   4.445
 4528TIP3   OH213528   3.270   3.344   6.393
 4528TIP3    H113529   3.246   3.320   6.482
 4528TIP3    H213530   3.223   3.425   6.376
 4529TIP3   OH213531   3.377   3.407   2.605
 4529TIP3    H113532   3.429   3.390   2.526
 4529TIP3    H213533   3.289   3.424   2.573
 4530TIP3   OH213534   7.282   1.986   5.170
 4530TIP3    H113535   7.337   1.934   5.112
 4530TIP3    H213536   7.287   1.942   5.255
 4531TIP3   OH213537   0.111   5.343   2.601
 4531TIP3    H113538   0.191   5.290   2.607
 4531TIP3    H213539   0.042   5.279   2.586
 4532TIP3   OH213540   2.275   7.599   4.673
 4532TIP3    H113541   2.288   7.681   4.626
 4532TIP3    H213542   2.311   7.531   4.615
 4533TIP3   OH213543   7.277   3.347   2.073
 4533TIP3    H113544   7.216   3.295   2.022
 4533TIP3    H213545   7.361   3.303   2.063
 4534TIP3   OH213546   4.772   2.672   2.824
 4534TIP3    H113547   4.776   2.761   2.789
 4534TIP3    H213548   4.745   2.684   2.915
 4535TIP3   OH213549   0.480   0.967   2.934
 4535TIP3    H113550   0.574   0.978   2.922
 4535TIP3    H213551   0.444   1.055   2.920
 4536TIP3   OH213552   5.628   3.482   5.042
 4536TIP3    H113553   5.537   3.474   5.070
 4536TIP3    H213554   5.663   3.394   5.049
 4537TIP3   OH213555   1.291   0.285   1.540
 4537TIP3    H113556   1.357   0.221   1.566
 4537TIP3    H213557   1.309   0.301   1.447
 4538TIP3   OH213558   2.413   0.262   3.891
 4538TIP3    H113559   2.508   0.256   3.905
 4538TIP3    H213560   2.385   0.330   3.952
 4539TIP3   OH213561   3.291   0.561   4.349
 4539TIP3    H113562   3.307   0.615   4.271
 4539TIP3    H213563   3.306   0.621   4.422
 4540TIP3   OH213564   4.401   4.234   4.900
 4540TIP3    H113565   4.347   4.199   4.829
 4540TIP3    H213566   4.338   4.266   4.965
 4541TIP3   OH213567   2.775   3.015   5.754
 4541TIP3    H113568   2.740   3.100   5.728
 4541TIP3    H213569   2.710   2.981   5.816
 4542TIP3   OH213570   0.230   7.456   0.097
 4542TIP3    H113571   0.134   7.453   0.096
 4542TIP3    H213572   0.253   7.467   0.189
 4543TIP3   OH213573   7.689   3.893   4.233
 4543TIP3    H113574   7.761   3.930   4.182
 4543TIP3    H213575   7.660   3.964   4.289
 4544TIP3   OH213576   5.418   6.234   1.046
 4544TIP3    H113577   5.424   6.159   1.105
 4544TIP3    H213578   5.394   6.308   1.103
 4545TIP3   OH213579   0.563   2.932   4.692
 4545TIP3    H113580   0.643   2.982   4.673
 4545TIP3    H213581   0.595   2.844   4.712
 4546TIP3   OH213582   0.101   5.464   0.891
 4546TIP3    H113583   0.096   5.382   0.842
 4546TIP3    H213584   0.194   5.480   0.903
 4547TIP3   OH213585   4.381   3.172   1.952
 4547TIP3    H113586   4.450   3.186   2.017
 4547TIP3    H213587   4.331   3.097   1.985
 4548TIP3   OH213588   6.400   5.325   0.368
 4548TIP3    H113589   6.405   5.399   0.428
 4548TIP3    H213590   6.397   5.365   0.281
 4549TIP3   OH213591   7.061   5.584   4.168
 4549TIP3    H113592   6.998   5.656   4.170
 4549TIP3    H213593   7.097   5.581   4.257
 4550TIP3   OH213594   0.961   3.148   2.255
 4550TIP3    H113595   1.040   3.104   2.287
 4550TIP3    H213596   0.893   3.080   2.260
 4551TIP3   OH213597   2.098   7.200   5.420
 4551TIP3    H113598   2.061   7.120   5.382
 4551TIP3    H213599   2.053   7.211   5.503
 4552TIP3   OH213600   4.453   2.289   4.408
 4552TIP3    H113601   4.424   2.306   4.497
 4552TIP3    H213602   4.431   2.197   4.393
 4553TIP3   OH213603   7.142   2.621   3.640
 4553TIP3    H113604   7.049   2.640   3.624
 4553TIP3    H213605   7.144   2.585   3.729
 4554TIP3   OH213606   7.974   5.031   4.868
 4554TIP3    H113607   8.068   5.047   4.867
 4554TIP3    H213608   7.938   5.091   4.803
 4555TIP3   OH213609   2.041   7.208   0.083
 4555TIP3    H113610   2.003   7.292   0.108
 4555TIP3    H213611   2.093   7.182   0.160
 4556TIP3   OH213612   0.661   5.685   5.160
 4556TIP3    H113613   0.603   5.612   5.141
 4556TIP3    H213614   0.640   5.751   5.093
 4557TIP3   OH213615   3.113   4.720   5.661
 4557TIP3    H113616   3.067   4.791   5.705
 4557TIP3    H213617   3.044   4.669   5.618
 4558TIP3   OH213618   2.123   3.915   3.058
 4558TIP3    H113619   2.095   3.877   2.975
 4558TIP3    H213620   2.210   3.879   3.072
 4559TIP3   OH213621   1.862   1.422   4.815
 4559TIP3    H113622   1.858   1.424   4.719
 4559TIP3    H213623   1.944   1.377   4.833
 4560TIP3   OH213624   3.061   1.176   3.971
 4560TIP3    H113625   3.056   1.239   3.899
 4560TIP3    H213626   2.977   1.130   3.970
 4561TIP3   OH213627   3.331   6.150   0.032
 4561TIP3    H113628   3.412   6.173  -0.012
 4561TIP3    H213629   3.262   6.193  -0.019
 4562TIP3   OH213630   6.632   3.689   0.094
 4562TIP3    H113631   6.614   3.771   0.048
 4562TIP3    H213632   6.557   3.633   0.074
 4563TIP3   OH213633   0.075   3.194   4.190
 4563TIP3    H113634   0.061   3.247   4.111
 4563TIP3    H213635  -0.012   3.167   4.217
 4564TIP3   OH213636   3.928   4.437   2.362
 4564TIP3    H113637   3.971   4.393   2.435
 4564TIP3    H213638   3.920   4.528   2.390
 4565TIP3   OH213639   5.223   4.646   4.105
 4565TIP3    H113640   5.280   4.613   4.174
 4565TIP3    H213641   5.169   4.571   4.080
 4566TIP3   OH213642   0.020   5.041   2.774
 4566TIP3    H113643   0.111   5.067   2.761
 4566TIP3    H213644  -0.026   5.079   2.699
 4567TIP3   OH213645   7.865   1.067   4.855
 4567TIP3    H113646   7.871   1.157   4.886
 4567TIP3    H213647   7.930   1.062   4.785
 4568TIP3   OH213648   1.684   6.975   2.795
 4568TIP3    H113649   1.606   7.024   2.770
 4568TIP3    H213650   1.756   7.037   2.786
 4569TIP3   OH213651   5.776   3.352   6.069
 4569TIP3    H113652   5.727   3.291   6.124
 4569TIP3    H213653   5.866   3.319   6.071
 4570TIP3   OH213654   1.877   3.188   1.321
 4570TIP3    H113655   1.942   3.140   1.371
 4570TIP3    H213656   1.927   3.255   1.274
 4571TIP3   OH213657   3.139   1.123   0.523
 4571TIP3    H113658   3.044   1.131   0.535
 4571TIP3    H213659   3.149   1.094   0.432
 4572TIP3   OH213660   0.127   0.686   4.451
 4572TIP3    H113661   0.049   0.682   4.506
 4572TIP3    H213662   0.108   0.630   4.376
 4573TIP3   OH213663   5.295   5.664   5.289
 4573TIP3    H113664   5.344   5.587   5.259
 4573TIP3    H213665   5.296   5.724   5.214
 4574TIP3   OH213666   4.457   5.479   2.957
 4574TIP3    H113667   4.548   5.493   2.985
 4574TIP3    H213668   4.456   5.504   2.865
 4575TIP3   OH213669   3.078   7.642   3.337
 4575TIP3    H113670   3.168   7.632   3.369
 4575TIP3    H213671   3.027   7.667   3.414
 4576TIP3   OH213672   4.095   6.565   5.390
 4576TIP3    H113673   4.088   6.532   5.300
 4576TIP3    H213674   4.019   6.527   5.434
 4577TIP3   OH213675   5.209   3.449   0.391
 4577TIP3    H113676   5.207   3.439   0.296
 4577TIP3    H213677   5.145   3.386   0.423
 4578TIP3   OH213678   5.804   6.302   0.366
 4578TIP3    H113679   5.767   6.279   0.280
 4578TIP3    H213680   5.764   6.240   0.427
 4579TIP3   OH213681   7.678   6.197   6.168
 4579TIP3    H113682   7.590   6.174   6.138
 4579TIP3    H213683   7.736   6.168   6.098
 4580TIP3   OH213684   3.948   4.010   6.707
 4580TIP3    H113685   4.003   4.087   6.717
 4580TIP3    H213686   3.860   4.040   6.732
 4581TIP3   OH213687   7.702   3.315   2.218
 4581TIP3    H113688   7.697   3.352   2.306
 4581TIP3    H213689   7.690   3.221   2.230
 4582TIP3   OH213690   0.338   1.594   2.380
 4582TIP3    H113691   0.299   1.680   2.398
 4582TIP3    H213692   0.272   1.548   2.328
 4583TIP3   OH213693   7.965   1.685   6.174
 4583TIP3    H113694   7.909   1.655   6.245
 4583TIP3    H213695   8.053   1.658   6.199
 4584TIP3   OH213696   0.193   3.108   0.570
 4584TIP3    H113697   0.128   3.178   0.559
 4584TIP3    H213698   0.267   3.135   0.516
 4585TIP3   OH213699   3.680   4.030   6.646
 4585TIP3    H113700   3.617   4.098   6.620
 4585TIP3    H213701   3.706   3.989   6.564
 4586TIP3   OH213702   6.614   0.648   6.465
 4586TIP3    H113703   6.632   0.737   6.434
 4586TIP3    H213704   6.597   0.657   6.559
 4587TIP3   OH213705   2.036   6.593   0.835
 4587TIP3    H113706   2.024   6.678   0.877
 4587TIP3    H213707   1.950   6.571   0.800
 4588TIP3   OH213708   5.462   1.142   1.271
 4588TIP3    H113709   5.374   1.107   1.261
 4588TIP3    H213710   5.469   1.211   1.205
 4589TIP3   OH213711   3.040   1.828   6.279
 4589TIP3    H113712   2.990   1.828   6.197
 4589TIP3    H213713   3.012   1.748   6.324
 4590TIP3   OH213714   4.491   4.166   1.642
 4590TIP3    H113715   4.493   4.082   1.686
 4590TIP3    H213716   4.415   4.162   1.584
 4591TIP3   OH213717   4.067   1.226   2.208
 4591TIP3    H113718   3.990   1.188   2.167
 4591TIP3    H213719   4.121   1.151   2.234
 4592TIP3   OH213720   7.458   4.655   3.279
 4592TIP3    H113721   7.534   4.602   3.254
 4592TIP3    H213722   7.488   4.745   3.273
 4593TIP3   OH213723   7.197   6.069   5.212
 4593TIP3    H113724   7.116   6.102   5.251
 4593TIP3    H213725   7.240   6.146   5.175
 4594TIP3   OH213726   1.889   1.153   2.054
 4594TIP3    H113727   1.955   1.193   2.112
 4594TIP3    H213728   1.939   1.121   1.979
 4595TIP3   OH213729   8.218   4.950   6.304
 4595TIP3    H113730   8.207   4.997   6.386
 4595TIP3    H213731   8.173   5.005   6.239
 4596TIP3   OH213732   0.769   3.690   1.390
 4596TIP3    H113733   0.861   3.662   1.389
 4596TIP3    H213734   0.725   3.628   1.449
 4597TIP3   OH213735   6.411   2.654   3.479
 4597TIP3    H113736   6.399   2.737   3.527
 4597TIP3    H213737   6.505   2.648   3.465
 4598TIP3   OH213738   3.102   2.308   0.443
 4598TIP3    H113739   3.075   2.375   0.506
 4598TIP3    H213740   3.028   2.248   0.438
 4599TIP3   OH213741   1.680   5.979   5.547
 4599TIP3    H113742   1.742   5.916   5.510
 4599TIP3    H213743   1.733   6.056   5.567
 4600TIP3   OH213744   6.290   6.358   3.316
 4600TIP3    H113745   6.227   6.334   3.248
 4600TIP3    H213746   6.277   6.452   3.328
 4601TIP3   OH213747   7.028   6.518   0.619
 4601TIP3    H113748   7.009   6.583   0.552
 4601TIP3    H213749   7.070   6.446   0.572
 4602TIP3   OH213750   2.488   7.449   0.794
 4602TIP3    H113751   2.466   7.516   0.729
 4602TIP3    H213752   2.572   7.414   0.764
 4603TIP3   OH213753   7.898   6.401   0.847
 4603TIP3    H113754   7.947   6.347   0.785
 4603TIP3    H213755   7.935   6.379   0.932
 4604TIP3   OH213756   6.309   1.849   0.836
 4604TIP3    H113757   6.307   1.758   0.863
 4604TIP3    H213758   6.399   1.878   0.853
 4605TIP3   OH213759   7.460   7.140   6.281
 4605TIP3    H113760   7.447   7.102   6.194
 4605TIP3    H213761   7.548   7.112   6.307
 4606TIP3   OH213762   0.428   7.226   0.483
 4606TIP3    H113763   0.519   7.196   0.474
 4606TIP3    H213764   0.377   7.165   0.430
 4607TIP3   OH213765   1.528   5.536   3.162
 4607TIP3    H113766   1.527   5.523   3.067
 4607TIP3    H213767   1.550   5.628   3.174
 4608TIP3   OH213768   6.037   4.586   1.537
 4608TIP3    H113769   6.047   4.665   1.484
 4608TIP3    H213770   6.115   4.584   1.592
 4609TIP3   OH213771   5.603   0.190   6.495
 4609TIP3    H113772   5.689   0.157   6.520
 4609TIP3    H213773   5.541   0.133   6.540
 4610TIP3   OH213774   2.456   1.833   1.620
 4610TIP3    H113775   2.398   1.889   1.568
 4610TIP3    H213776   2.471   1.881   1.701
 4611TIP3   OH213777   4.601   4.734   5.113
 4611TIP3    H113778   4.678   4.691   5.149
 4611TIP3    H213779   4.541   4.663   5.092
 4612TIP3   OH213780   1.181   0.387   4.557
 4612TIP3    H113781   1.204   0.401   4.649
 4612TIP3    H213782   1.263   0.402   4.509
 4613TIP3   OH213783   6.812   4.614   3.066
 4613TIP3    H113784   6.876   4.549   3.094
 4613TIP3    H213785   6.803   4.673   3.141
 4614TIP3   OH213786   1.115   4.170   2.487
 4614TIP3    H113787   1.121   4.168   2.583
 4614TIP3    H213788   1.206   4.178   2.458
 4615TIP3   OH213789   7.859   6.436   5.740
 4615TIP3    H113790   7.768   6.462   5.721
 4615TIP3    H213791   7.850   6.366   5.805
 4616TIP3   OH213792   0.796   4.691   2.651
 4616TIP3    H113793   0.883   4.654   2.666
 4616TIP3    H213794   0.736   4.629   2.693
 4617TIP3   OH213795   2.910   2.174   5.423
 4617TIP3    H113796   2.977   2.135   5.366
 4617TIP3    H213797   2.910   2.117   5.501
 4618TIP3   OH213798   6.988   6.146   5.700
 4618TIP3    H113799   7.025   6.134   5.788
 4618TIP3    H213800   7.019   6.233   5.673
 4619TIP3   OH213801   1.977   4.411   1.361
 4619TIP3    H113802   2.032   4.386   1.435
 4619TIP3    H213803   1.978   4.507   1.362
 4620TIP3   OH213804   0.997   6.301   6.743
 4620TIP3    H113805   1.041   6.288   6.659
 4620TIP3    H213806   1.049   6.252   6.806
 4621TIP3   OH213807   6.518   3.203   2.626
 4621TIP3    H113808   6.510   3.144   2.551
 4621TIP3    H213809   6.520   3.144   2.702
 4622TIP3   OH213810   2.660   7.772   5.825
 4622TIP3    H113811   2.667   7.677   5.838
 4622TIP3    H213812   2.649   7.807   5.913
 4623TIP3   OH213813   2.324   2.288   4.245
 4623TIP3    H113814   2.317   2.193   4.235
 4623TIP3    H213815   2.242   2.321   4.208
 4624TIP3   OH213816   6.005   6.963   0.263
 4624TIP3    H113817   6.069   6.940   0.330
 4624TIP3    H213818   5.925   6.917   0.290
 4625TIP3   OH213819   5.020   0.655   1.815
 4625TIP3    H113820   5.099   0.639   1.762
 4625TIP3    H213821   4.963   0.706   1.758
 4626TIP3   OH213822   2.548   5.574   1.116
 4626TIP3    H113823   2.468   5.597   1.067
 4626TIP3    H213824   2.583   5.498   1.070
 4627TIP3   OH213825   5.962   2.123   0.544
 4627TIP3    H113826   5.894   2.166   0.596
 4627TIP3    H213827   6.041   2.129   0.598
 4628TIP3   OH213828   2.945   0.166   4.892
 4628TIP3    H113829   3.024   0.220   4.880
 4628TIP3    H213830   2.907   0.198   4.973
 4629TIP3   OH213831   6.284   7.029   6.243
 4629TIP3    H113832   6.221   7.061   6.307
 4629TIP3    H213833   6.330   6.958   6.287
 4630TIP3   OH213834   0.405   7.432   4.185
 4630TIP3    H113835   0.402   7.337   4.172
 4630TIP3    H213836   0.318   7.463   4.159
 4631TIP3   OH213837   7.518   5.959   5.943
 4631TIP3    H113838   7.500   6.053   5.940
 4631TIP3    H213839   7.483   5.925   5.861
 4632TIP3   OH213840   1.707   4.286   3.169
 4632TIP3    H113841   1.643   4.281   3.098
 4632TIP3    H213842   1.791   4.293   3.125
 4633TIP3   OH213843   8.087   2.086   2.779
 4633TIP3    H113844   8.161   2.026   2.779
 4633TIP3    H213845   8.039   2.065   2.860
 4634TIP3   OH213846   6.867   5.323   1.965
 4634TIP3    H113847   6.800   5.319   2.032
 4634TIP3    H213848   6.908   5.409   1.976
 4635TIP3   OH213849   4.264   2.373   6.289
 4635TIP3    H113850   4.234   2.354   6.200
 4635TIP3    H213851   4.271   2.287   6.331
 4636TIP3   OH213852   0.764  -0.001   3.750
 4636TIP3    H113853   0.731   0.088   3.741
 4636TIP3    H213854   0.735  -0.029   3.837
 4637TIP3   OH213855   0.650   3.342   1.874
 4637TIP3    H113856   0.708   3.340   1.798
 4637TIP3    H213857   0.709   3.352   1.949
 4638TIP3   OH213858   2.069   2.515   3.604
 4638TIP3    H113859   2.123   2.452   3.651
 4638TIP3    H213860   2.012   2.462   3.549
 4639TIP3   OH213861   0.574   6.577   1.949
 4639TIP3    H113862   0.552   6.484   1.955
 4639TIP3    H213863   0.490   6.620   1.930
 4640TIP3   OH213864   0.682   5.043   5.764
 4640TIP3    H113865   0.770   5.052   5.799
 4640TIP3    H213866   0.684   5.089   5.681
 4641TIP3   OH213867   1.590   7.328   0.144
 4641TIP3    H113868   1.507   7.356   0.183
 4641TIP3    H213869   1.571   7.323   0.050
 4642TIP3   OH213870   6.425   5.275   4.945
 4642TIP3    H113871   6.493   5.232   4.894
 4642TIP3    H213872   6.472   5.331   5.007
 4643TIP3   OH213873   3.008   0.798   5.609
 4643TIP3    H113874   2.918   0.804   5.576
 4643TIP3    H213875   3.011   0.857   5.683
 4644TIP3   OH213876   2.464   4.191   1.070
 4644TIP3    H113877   2.480   4.283   1.089
 4644TIP3    H213878   2.436   4.154   1.155
 4645TIP3   OH213879   5.576   7.697   3.213
 4645TIP3    H113880   5.605   7.741   3.292
 4645TIP3    H213881   5.486   7.668   3.233
 4646TIP3   OH213882   4.464   3.836   0.423
 4646TIP3    H113883   4.399   3.803   0.485
 4646TIP3    H213884   4.541   3.782   0.438
 4647TIP3   OH213885   3.242   1.325   0.674
 4647TIP3    H113886   3.206   1.250   0.626
 4647TIP3    H213887   3.225   1.400   0.616
 4648TIP3   OH213888   0.044   3.035   6.270
 4648TIP3    H113889  -0.047   3.037   6.240
 4648TIP3    H213890   0.095   3.013   6.192
 4649TIP3   OH213891   2.947   0.496   0.733
 4649TIP3    H113892   2.907   0.531   0.813
 4649TIP3    H213893   2.912   0.551   0.663
 4650TIP3   OH213894   0.515   4.646   1.382
 4650TIP3    H113895   0.443   4.664   1.322
 4650TIP3    H213896   0.509   4.552   1.399
 4651TIP3   OH213897   6.321   7.644   4.810
 4651TIP3    H113898   6.332   7.736   4.786
 4651TIP3    H213899   6.360   7.596   4.737
 4652TIP3   OH213900   0.671   7.489   6.039
 4652TIP3    H113901   0.672   7.435   6.118
 4652TIP3    H213902   0.736   7.557   6.056
 4653TIP3   OH213903   1.587   3.791   2.249
 4653TIP3    H113904   1.649   3.851   2.210
 4653TIP3    H213905   1.602   3.708   2.203
 4654TIP3   OH213906   4.315   1.308   2.134
 4654TIP3    H113907   4.305   1.387   2.081
 4654TIP3    H213908   4.226   1.277   2.149
 4655TIP3   OH213909   2.370   0.220   6.511
 4655TIP3    H113910   2.367   0.210   6.416
 4655TIP3    H213911   2.463   0.230   6.531
 4656TIP3   OH213912   1.000   6.433   0.196
 4656TIP3    H113913   0.996   6.460   0.288
 4656TIP3    H213914   1.081   6.472   0.163
 4657TIP3   OH213915   6.096   4.503   4.145
 4657TIP3    H113916   6.059   4.575   4.195
 4657TIP3    H213917   6.021   4.447   4.125
 4658TIP3   OH213918   5.664   7.604   6.044
 4658TIP3    H113919   5.653   7.675   6.108
 4658TIP3    H213920   5.589   7.547   6.058
 4659TIP3   OH213921   6.013   4.082   1.762
 4659TIP3    H113922   5.966   4.138   1.701
 4659TIP3    H213923   5.975   3.995   1.749
 4660TIP3   OH213924   0.461   6.055   5.361
 4660TIP3    H113925   0.463   6.110   5.439
 4660TIP3    H213926   0.477   5.966   5.394
 4661TIP3   OH213927   3.723   7.201   5.013
 4661TIP3    H113928   3.691   7.145   4.942
 4661TIP3    H213929   3.674   7.283   5.002
 4662TIP3   OH213930   3.132   4.189   6.211
 4662TIP3    H113931   3.084   4.225   6.137
 4662TIP3    H213932   3.075   4.202   6.286
 4663TIP3   OH213933   7.779   3.964   1.832
 4663TIP3    H113934   7.783   3.874   1.799
 4663TIP3    H213935   7.862   3.976   1.878
 4664TIP3   OH213936   6.336   3.052   5.022
 4664TIP3    H113937   6.313   3.089   4.937
 4664TIP3    H213938   6.391   3.117   5.064
 4665TIP3   OH213939   4.958   6.546   4.956
 4665TIP3    H113940   4.980   6.576   5.044
 4665TIP3    H213941   4.986   6.454   4.954
 4666TIP3   OH213942   3.425   4.493   2.348
 4666TIP3    H113943   3.510   4.458   2.324
 4666TIP3    H213944   3.437   4.588   2.350
 4667TIP3   OH213945   3.344   3.201   3.126
 4667TIP3    H113946   3.368   3.109   3.113
 4667TIP3    H213947   3.343   3.239   3.039
 4668TIP3   OH213948   7.392   1.418   2.517
 4668TIP3    H113949   7.446   1.367   2.456
 4668TIP3    H213950   7.433   1.406   2.602
 4669TIP3   OH213951   7.098   5.389   3.427
 4669TIP3    H113952   7.090   5.400   3.332
 4669TIP3    H213953   7.009   5.371   3.457
 4670TIP3   OH213954   4.514   1.791   1.169
 4670TIP3    H113955   4.457   1.803   1.245
 4670TIP3    H213956   4.601   1.782   1.207
 4671TIP3   OH213957   7.373   5.203   4.310
 4671TIP3    H113958   7.361   5.173   4.220
 4671TIP3    H213959   7.468   5.205   4.321
 4672TIP3   OH213960   7.711   3.466   4.327
 4672TIP3    H113961   7.691   3.555   4.356
 4672TIP3    H213962   7.648   3.448   4.258
 4673TIP3   OH213963   0.102   0.132   4.042
 4673TIP3    H113964   0.143   0.175   4.116
 4673TIP3    H213965   0.035   0.075   4.081
 4674TIP3   OH213966   3.132   7.434   0.854
 4674TIP3    H113967   3.120   7.344   0.825
 4674TIP3    H213968   3.185   7.474   0.784
 4675TIP3   OH213969   5.785   7.341   4.907
 4675TIP3    H113970   5.868   7.389   4.910
 4675TIP3    H213971   5.790   7.290   4.827
 4676TIP3   OH213972   0.538   0.673   0.069
 4676TIP3    H113973   0.456   0.647   0.027
 4676TIP3    H213974   0.512   0.706   0.155
 4677TIP3   OH213975   7.272   4.614   2.159
 4677TIP3    H113976   7.361   4.597   2.187
 4677TIP3    H213977   7.220   4.544   2.198
 4678TIP3   OH213978   6.681   2.711   5.760
 4678TIP3    H113979   6.594   2.729   5.724
 4678TIP3    H213980   6.696   2.619   5.740
 4679TIP3   OH213981   7.327   5.605   3.530
 4679TIP3    H113982   7.326   5.694   3.495
 4679TIP3    H213983   7.417   5.576   3.519
 4680TIP3   OH213984   1.172   0.786   4.068
 4680TIP3    H113985   1.158   0.875   4.100
 4680TIP3    H213986   1.088   0.760   4.031
 4681TIP3   OH213987   3.972   7.589   3.210
 4681TIP3    H113988   4.040   7.613   3.148
 4681TIP3    H213989   4.004   7.622   3.294
 4682TIP3   OH213990   5.880   4.536   3.826
 4682TIP3    H113991   5.960   4.483   3.827
 4682TIP3    H213992   5.906   4.619   3.868
 4683TIP3   OH213993   6.405   7.589   4.526
 4683TIP3    H113994   6.370   7.502   4.545
 4683TIP3    H213995   6.441   7.582   4.438
 4684TIP3   OH213996   2.518   0.576   5.340
 4684TIP3    H113997   2.441   0.599   5.288
 4684TIP3    H213998   2.512   0.633   5.417
 4685TIP3   OH213999   4.004   6.258   1.597
 4685TIP3    H114000   3.915   6.258   1.562
 4685TIP3    H214001   4.032   6.167   1.589
 4686TIP3   OH214002   1.961   7.417   4.160
 4686TIP3    H114003   1.912   7.480   4.214
 4686TIP3    H214004   1.946   7.445   4.070
 4687TIP3   OH214005   7.975   6.458   4.644
 4687TIP3    H114006   8.000   6.489   4.557
 4687TIP3    H214007   7.929   6.376   4.628
 4688TIP3   OH214008   6.661   4.923   3.207
 4688TIP3    H114009   6.652   4.908   3.112
 4688TIP3    H214010   6.587   4.877   3.245
 4689TIP3   OH214011   1.184   1.949   1.821
 4689TIP3    H114012   1.237   1.981   1.894
 4689TIP3    H214013   1.189   2.018   1.755
 4690TIP3   OH214014   5.591   6.782   5.344
 4690TIP3    H114015   5.523   6.716   5.352
 4690TIP3    H214016   5.632   6.785   5.430
 4691TIP3   OH214017   1.693   2.378   2.307
 4691TIP3    H114018   1.741   2.333   2.238
 4691TIP3    H214019   1.696   2.470   2.282
 4692TIP3   OH214020   1.702   5.271   6.600
 4692TIP3    H114021   1.667   5.354   6.633
 4692TIP3    H214022   1.647   5.250   6.525
 4693TIP3   OH214023   7.529   5.584   4.846
 4693TIP3    H114024   7.484   5.668   4.847
 4693TIP3    H214025   7.572   5.581   4.760
 4694TIP3   OH214026   6.853   3.639   0.688
 4694TIP3    H114027   6.864   3.546   0.664
 4694TIP3    H214028   6.817   3.680   0.609
 4695TIP3   OH214029   1.394   7.419   3.476
 4695TIP3    H114030   1.382   7.506   3.437
 4695TIP3    H214031   1.324   7.412   3.541
 4696TIP3   OH214032   0.080   2.292   4.725
 4696TIP3    H114033   0.083   2.233   4.800
 4696TIP3    H214034   0.172   2.307   4.702
 4697TIP3   OH214035   6.305   4.016   2.718
 4697TIP3    H114036   6.222   4.039   2.760
 4697TIP3    H214037   6.367   4.081   2.752
 4698TIP3   OH214038   2.434   3.447   0.821
 4698TIP3    H114039   2.350   3.458   0.778
 4698TIP3    H214040   2.418   3.383   0.890
 4699TIP3   OH214041   1.254   1.185   3.935
 4699TIP3    H114042   1.279   1.276   3.919
 4699TIP3    H214043   1.204   1.188   4.018
 4700TIP3   OH214044   0.274   1.971   5.289
 4700TIP3    H114045   0.183   1.949   5.309
 4700TIP3    H214046   0.268   2.050   5.236
 4701TIP3   OH214047   6.174   6.241   1.274
 4701TIP3    H114048   6.202   6.193   1.195
 4701TIP3    H214049   6.236   6.313   1.281
 4702TIP3   OH214050   0.859   6.371   1.789
 4702TIP3    H114051   0.848   6.278   1.810
 4702TIP3    H214052   0.901   6.408   1.867
 4703TIP3   OH214053   8.138   4.754   1.695
 4703TIP3    H114054   8.156   4.817   1.765
 4703TIP3    H214055   8.081   4.689   1.735
 4704TIP3   OH214056   5.129   4.067   3.180
 4704TIP3    H114057   5.209   4.015   3.171
 4704TIP3    H214058   5.095   4.075   3.091
 4705TIP3   OH214059   4.050   2.664   6.039
 4705TIP3    H114060   4.030   2.614   5.960
 4705TIP3    H214061   3.969   2.709   6.060
 4706TIP3   OH214062   5.999   2.061   4.281
 4706TIP3    H114063   6.003   2.061   4.377
 4706TIP3    H214064   6.075   2.008   4.254
 4707TIP3   OH214065   2.347   0.132   0.420
 4707TIP3    H114066   2.415   0.095   0.364
 4707TIP3    H214067   2.354   0.082   0.502
 4708TIP3   OH214068   8.272   5.250   4.649
 4708TIP3    H114069   8.227   5.310   4.589
 4708TIP3    H214070   8.310   5.183   4.592
 4709TIP3   OH214071   1.362   3.872   4.227
 4709TIP3    H114072   1.337   3.864   4.135
 4709TIP3    H214073   1.447   3.828   4.233
 4710TIP3   OH214074   3.946   4.224   4.890
 4710TIP3    H114075   3.858   4.239   4.856
 4710TIP3    H214076   3.984   4.159   4.830
 4711TIP3   OH214077   5.921   6.664   6.563
 4711TIP3    H114078   5.912   6.684   6.656
 4711TIP3    H214079   5.842   6.701   6.523
 4712TIP3   OH214080   5.834   4.950   2.890
 4712TIP3    H114081   5.913   4.996   2.859
 4712TIP3    H214082   5.764   5.015   2.881
 4713TIP3   OH214083   6.409   6.303   0.325
 4713TIP3    H114084   6.315   6.319   0.315
 4713TIP3    H214085   6.425   6.219   0.283
 4714TIP3   OH214086   7.537   0.550   4.817
 4714TIP3    H114087   7.593   0.495   4.872
 4714TIP3    H214088   7.551   0.517   4.728
 4715TIP3   OH214089   3.074   6.424   4.186
 4715TIP3    H114090   2.992   6.432   4.234
 4715TIP3    H214091   3.076   6.500   4.128
 4716TIP3   OH214092   4.720   3.118   3.352
 4716TIP3    H114093   4.694   3.210   3.348
 4716TIP3    H214094   4.770   3.110   3.433
 4717TIP3   OH214095   4.058   6.245   5.947
 4717TIP3    H114096   4.018   6.248   5.860
 4717TIP3    H214097   4.021   6.320   5.994
 4718TIP3   OH214098   2.128   4.278   5.891
 4718TIP3    H114099   2.089   4.213   5.950
 4718TIP3    H214100   2.053   4.321   5.850
 4719TIP3   OH214101   0.102   1.873   4.177
 4719TIP3    H114102   0.097   1.924   4.096
 4719TIP3    H214103   0.061   1.789   4.155
 4720TIP3   OH214104   6.230   3.791   3.258
 4720TIP3    H114105   6.282   3.726   3.307
 4720TIP3    H214106   6.287   3.867   3.251
 4721TIP3   OH214107   7.894   7.551   1.357
 4721TIP3    H114108   7.800   7.557   1.374
 4721TIP3    H214109   7.901   7.491   1.283
 4722TIP3   OH214110   5.382   6.888   2.185
 4722TIP3    H114111   5.408   6.799   2.159
 4722TIP3    H214112   5.433   6.945   2.126
 4723TIP3   OH214113   2.378   2.655   2.862
 4723TIP3    H114114   2.370   2.591   2.791
 4723TIP3    H214115   2.337   2.734   2.828
 4724TIP3   OH214116   2.987   4.003   2.882
 4724TIP3    H114117   3.055   4.065   2.858
 4724TIP3    H214118   3.008   3.975   2.971
 4725TIP3   OH214119   8.052   2.859   5.238
 4725TIP3    H114120   7.989   2.800   5.197
 4725TIP3    H214121   8.014   2.946   5.229
 4726TIP3   OH214122   3.278   0.642   2.224
 4726TIP3    H114123   3.289   0.612   2.134
 4726TIP3    H214124   3.353   0.699   2.239
 4727TIP3   OH214125   0.903   6.016   5.949
 4727TIP3    H114126   0.869   5.927   5.955
 4727TIP3    H214127   0.995   6.008   5.973
 4728TIP3   OH214128   2.076   1.215   5.207
 4728TIP3    H114129   2.160   1.256   5.224
 4728TIP3    H214130   2.016   1.258   5.269
 4729TIP3   OH214131   2.658   0.526   1.586
 4729TIP3    H114132   2.576   0.480   1.605
 4729TIP3    H214133   2.724   0.482   1.639
 4730TIP3   OH214134   2.663   1.021   6.002
 4730TIP3    H114135   2.627   1.091   6.057
 4730TIP3    H214136   2.743   0.995   6.046
 4731TIP3   OH214137   6.722   0.723   5.089
 4731TIP3    H114138   6.806   0.677   5.100
 4731TIP3    H214139   6.687   0.730   5.177
 4732TIP3   OH214140   0.558   6.735   4.174
 4732TIP3    H114141   0.496   6.808   4.178
 4732TIP3    H214142   0.620   6.760   4.106
 4733TIP3   OH214143   1.685   4.208   2.866
 4733TIP3    H114144   1.718   4.126   2.903
 4733TIP3    H214145   1.761   4.267   2.868
 4734TIP3   OH214146   4.927   6.267   3.886
 4734TIP3    H114147   4.928   6.225   3.972
 4734TIP3    H214148   5.019   6.281   3.864
 4735TIP3   OH214149   5.259   6.450   2.661
 4735TIP3    H114150   5.170   6.482   2.651
 4735TIP3    H214151   5.252   6.381   2.727
 4736TIP3   OH214152   6.315   5.027   0.725
 4736TIP3    H114153   6.267   5.109   0.712
 4736TIP3    H214154   6.311   4.982   0.641
 4737TIP3   OH214155   5.242   6.143   0.137
 4737TIP3    H114156   5.156   6.132   0.178
 4737TIP3    H214157   5.296   6.185   0.204
 4738TIP3   OH214158   8.084   2.816   2.089
 4738TIP3    H114159   8.013   2.756   2.110
 4738TIP3    H214160   8.164   2.765   2.101
 4739TIP3   OH214161   5.260   6.078   1.794
 4739TIP3    H114162   5.214   6.151   1.753
 4739TIP3    H214163   5.243   6.003   1.736
 4740TIP3   OH214164   5.604   4.924   3.127
 4740TIP3    H114165   5.636   4.935   3.037
 4740TIP3    H214166   5.509   4.917   3.118
 4741TIP3   OH214167   8.061   1.756   3.183
 4741TIP3    H114168   8.116   1.696   3.132
 4741TIP3    H214169   7.976   1.712   3.188
 4742TIP3   OH214170   0.176   7.400   6.361
 4742TIP3    H114171   0.144   7.316   6.394
 4742TIP3    H214172   0.149   7.403   6.270
 4743TIP3   OH214173   8.252   2.269   4.496
 4743TIP3    H114174   8.273   2.295   4.586
 4743TIP3    H214175   8.325   2.302   4.444
 4744TIP3   OH214176   4.238   0.206   4.581
 4744TIP3    H114177   4.253   0.149   4.656
 4744TIP3    H214178   4.202   0.149   4.514
 4745TIP3   OH214179   7.150   6.977   3.452
 4745TIP3    H114180   7.208   6.905   3.477
 4745TIP3    H214181   7.065   6.935   3.438
 4746TIP3   OH214182   1.417   1.635   0.808
 4746TIP3    H114183   1.369   1.558   0.837
 4746TIP3    H214184   1.422   1.625   0.713
 4747TIP3   OH214185   2.650   0.313   1.388
 4747TIP3    H114186   2.743   0.298   1.406
 4747TIP3    H214187   2.632   0.398   1.426
 4748TIP3   OH214188   8.245   3.586   1.671
 4748TIP3    H114189   8.297   3.574   1.750
 4748TIP3    H214190   8.166   3.535   1.686
 4749TIP3   OH214191   4.666   3.971   3.822
 4749TIP3    H114192   4.602   4.040   3.804
 4749TIP3    H214193   4.723   4.008   3.890
 4750TIP3   OH214194   5.091   6.850   0.055
 4750TIP3    H114195   5.083   6.877  -0.037
 4750TIP3    H214196   5.185   6.848   0.072
 4751TIP3   OH214197   7.499   2.540   2.709
 4751TIP3    H114198   7.434   2.609   2.692
 4751TIP3    H214199   7.487   2.518   2.801
 4752TIP3   OH214200   7.989   4.671   5.520
 4752TIP3    H114201   7.899   4.678   5.489
 4752TIP3    H214202   7.981   4.647   5.612
 4753TIP3   OH214203   1.773   2.158   1.248
 4753TIP3    H114204   1.860   2.134   1.279
 4753TIP3    H214205   1.722   2.077   1.254
 4754TIP3   OH214206   4.824   2.876   4.417
 4754TIP3    H114207   4.742   2.915   4.386
 4754TIP3    H214208   4.859   2.940   4.480
 4755TIP3   OH214209   3.113   2.399   3.267
 4755TIP3    H114210   3.135   2.423   3.357
 4755TIP3    H214211   3.093   2.305   3.271
 4756TIP3   OH214212   7.671   4.855   6.027
 4756TIP3    H114213   7.606   4.907   5.979
 4756TIP3    H214214   7.743   4.917   6.042
 4757TIP3   OH214215   2.988   1.918   5.234
 4757TIP3    H114216   2.938   1.893   5.156
 4757TIP3    H214217   3.079   1.908   5.209
 4758TIP3   OH214218   4.832   0.110   5.553
 4758TIP3    H114219   4.744   0.074   5.543
 4758TIP3    H214220   4.881   0.072   5.480
 4759TIP3   OH214221   0.676   2.635   0.814
 4759TIP3    H114222   0.606   2.643   0.750
 4759TIP3    H214223   0.680   2.721   0.857
 4760TIP3   OH214224   6.719   5.570   3.476
 4760TIP3    H114225   6.728   5.616   3.560
 4760TIP3    H214226   6.670   5.630   3.420
 4761TIP3   OH214227   1.937   4.692   1.458
 4761TIP3    H114228   1.867   4.723   1.400
 4761TIP3    H214229   2.018   4.709   1.409
 4762TIP3   OH214230   6.938   4.249   0.546
 4762TIP3    H114231   6.971   4.244   0.456
 4762TIP3    H214232   6.844   4.260   0.536
 4763TIP3   OH214233   1.197   1.215   0.631
 4763TIP3    H114234   1.277   1.164   0.634
 4763TIP3    H214235   1.167   1.208   0.540
 4764TIP3   OH214236   7.257   4.396   5.235
 4764TIP3    H114237   7.183   4.342   5.260
 4764TIP3    H214238   7.219   4.470   5.188
 4765TIP3   OH214239   4.701   2.329   0.266
 4765TIP3    H114240   4.653   2.260   0.311
 4765TIP3    H214241   4.793   2.302   0.273
 4766TIP3   OH214242   2.722   7.648   1.258
 4766TIP3    H114243   2.709   7.586   1.187
 4766TIP3    H214244   2.738   7.594   1.335
 4767TIP3   OH214245   7.214   2.182   6.611
 4767TIP3    H114246   7.168   2.260   6.638
 4767TIP3    H214247   7.265   2.209   6.534
 4768TIP3   OH214248   6.936   1.597   6.732
 4768TIP3    H114249   6.934   1.693   6.726
 4768TIP3    H214250   6.863   1.568   6.678
 4769TIP3   OH214251   6.244   3.523   4.106
 4769TIP3    H114252   6.158   3.561   4.123
 4769TIP3    H214253   6.226   3.429   4.093
 4770TIP3   OH214254   4.356   2.653   1.029
 4770TIP3    H114255   4.315   2.685   1.110
 4770TIP3    H214256   4.283   2.639   0.969
 4771TIP3   OH214257   2.486   7.642   0.580
 4771TIP3    H114258   2.425   7.714   0.596
 4771TIP3    H214259   2.527   7.663   0.497
 4772TIP3   OH214260   3.417   3.868   3.027
 4772TIP3    H114261   3.474   3.945   3.027
 4772TIP3    H214262   3.361   3.880   3.104
 4773TIP3   OH214263   6.809   4.943   5.279
 4773TIP3    H114264   6.846   4.914   5.363
 4773TIP3    H214265   6.834   4.876   5.217
 4774TIP3   OH214266   5.070   1.665   5.941
 4774TIP3    H114267   5.135   1.729   5.971
 4774TIP3    H214268   5.116   1.614   5.874
 4775TIP3   OH214269   4.133   4.894   1.404
 4775TIP3    H114270   4.174   4.928   1.324
 4775TIP3    H214271   4.206   4.883   1.465
 4776TIP3   OH214272   6.963   0.551   5.932
 4776TIP3    H114273   6.983   0.471   5.883
 4776TIP3    H214274   6.987   0.531   6.022
 4777TIP3   OH214275   2.960   5.453   0.442
 4777TIP3    H114276   2.873   5.458   0.403
 4777TIP3    H214277   3.019   5.442   0.367
 4778TIP3   OH214278   1.131   5.165   0.392
 4778TIP3    H114279   1.206   5.126   0.348
 4778TIP3    H214280   1.098   5.231   0.331
 4779TIP3   OH214281   7.142   4.493   2.494
 4779TIP3    H114282   7.063   4.484   2.548
 4779TIP3    H214283   7.214   4.476   2.554
 4780TIP3   OH214284   7.736   2.927   2.734
 4780TIP3    H114285   7.725   2.909   2.828
 4780TIP3    H214286   7.777   2.848   2.699
 4781TIP3   OH214287   1.607   7.433   4.778
 4781TIP3    H114288   1.560   7.490   4.840
 4781TIP3    H214289   1.547   7.360   4.763
 4782TIP3   OH214290   4.227   6.593   3.637
 4782TIP3    H114291   4.198   6.505   3.659
 4782TIP3    H214292   4.188   6.648   3.706
 4783TIP3   OH214293   2.264   3.899   4.344
 4783TIP3    H114294   2.237   3.812   4.376
 4783TIP3    H214295   2.283   3.885   4.251
 4784TIP3   OH214296   0.851   0.678   1.929
 4784TIP3    H114297   0.760   0.709   1.930
 4784TIP3    H214298   0.847   0.590   1.968
 4785TIP3   OH214299   0.364   3.470   3.449
 4785TIP3    H114300   0.419   3.408   3.401
 4785TIP3    H214301   0.405   3.477   3.535
 4786TIP3   OH214302   6.511   1.556   6.482
 4786TIP3    H114303   6.426   1.577   6.521
 4786TIP3    H214304   6.494   1.560   6.387
 4787TIP3   OH214305   3.239   2.710   3.460
 4787TIP3    H114306   3.159   2.756   3.486
 4787TIP3    H214307   3.252   2.735   3.368
 4788TIP3   OH214308   1.794   4.617   4.427
 4788TIP3    H114309   1.873   4.613   4.373
 4788TIP3    H214310   1.725   4.645   4.367
 4789TIP3   OH214311   6.735   4.307   2.796
 4789TIP3    H114312   6.796   4.269   2.859
 4789TIP3    H214313   6.730   4.243   2.724
 4790TIP3   OH214314   6.317   6.526   6.760
 4790TIP3    H114315   6.249   6.460   6.745
 4790TIP3    H214316   6.268   6.604   6.786
 4791TIP3   OH214317   6.433   6.536   0.933
 4791TIP3    H114318   6.433   6.607   0.997
 4791TIP3    H214319   6.524   6.529   0.905
 4792TIP3   OH214320   5.045   1.980   6.035
 4792TIP3    H114321   4.966   1.953   6.081
 4792TIP3    H214322   5.098   2.025   6.102
 4793TIP3   OH214323   4.409   4.128   2.858
 4793TIP3    H114324   4.337   4.189   2.876
 4793TIP3    H214325   4.420   4.131   2.763
 4794TIP3   OH214326   7.266   3.546   1.283
 4794TIP3    H114327   7.317   3.466   1.294
 4794TIP3    H214328   7.331   3.613   1.263
 4795TIP3   OH214329   3.123   2.687   1.376
 4795TIP3    H114330   3.191   2.682   1.309
 4795TIP3    H214331   3.103   2.780   1.383
 4796TIP3   OH214332   5.325   4.034   2.913
 4796TIP3    H114333   5.315   4.129   2.905
 4796TIP3    H214334   5.275   3.997   2.841
 4797TIP3   OH214335   6.818   7.564   3.367
 4797TIP3    H114336   6.862   7.483   3.389
 4797TIP3    H214337   6.888   7.627   3.352
 4798TIP3   OH214338   3.094   2.175   6.781
 4798TIP3    H114339   3.103   2.126   6.699
 4798TIP3    H214340   3.029   2.125   6.831
 4799TIP3   OH214341   2.890   5.256   2.167
 4799TIP3    H114342   2.879   5.191   2.098
 4799TIP3    H214343   2.802   5.291   2.181
 4800TIP3   OH214344   1.513   0.105   0.331
 4800TIP3    H114345   1.560   0.176   0.376
 4800TIP3    H214346   1.498   0.138   0.243
 4801TIP3   OH214347   4.142   4.733   2.046
 4801TIP3    H114348   4.068   4.678   2.017
 4801TIP3    H214349   4.183   4.761   1.964
 4802TIP3   OH214350   3.065   2.889   1.929
 4802TIP3    H114351   3.060   2.867   2.022
 4802TIP3    H214352   3.025   2.976   1.922
 4803TIP3   OH214353   4.229   7.047   6.777
 4803TIP3    H114354   4.263   7.099   6.849
 4803TIP3    H214355   4.164   7.104   6.735
 4804TIP3   OH214356   7.189   5.922   4.692
 4804TIP3    H114357   7.184   6.013   4.666
 4804TIP3    H214358   7.134   5.875   4.629
 4805TIP3   OH214359   6.841   5.446   6.155
 4805TIP3    H114360   6.808   5.521   6.206
 4805TIP3    H214361   6.763   5.396   6.133
 4806TIP3   OH214362   2.763   1.717   1.995
 4806TIP3    H114363   2.691   1.678   1.944
 4806TIP3    H214364   2.804   1.642   2.038
 4807TIP3   OH214365   7.223   3.195   0.997
 4807TIP3    H114366   7.185   3.118   1.038
 4807TIP3    H214367   7.215   3.179   0.903
 4808TIP3   OH214368   6.883   5.330   5.231
 4808TIP3    H114369   6.970   5.364   5.250
 4808TIP3    H214370   6.850   5.301   5.316
 4809TIP3   OH214371   8.091   0.946   5.759
 4809TIP3    H114372   8.090   0.851   5.760
 4809TIP3    H214373   8.168   0.970   5.812
 4810TIP3   OH214374   5.485   1.166   5.515
 4810TIP3    H114375   5.469   1.259   5.529
 4810TIP3    H214376   5.401   1.131   5.484
 4811TIP3   OH214377   6.515   1.299   3.171
 4811TIP3    H114378   6.479   1.230   3.116
 4811TIP3    H214379   6.536   1.370   3.110
 4812TIP3   OH214380   7.703   0.226   1.715
 4812TIP3    H114381   7.651   0.188   1.786
 4812TIP3    H214382   7.794   0.213   1.742
 4813TIP3   OH214383   5.616   0.487   6.410
 4813TIP3    H114384   5.600   0.399   6.442
 4813TIP3    H214385   5.650   0.475   6.321
 4814TIP3   OH214386   0.296   2.166   5.097
 4814TIP3    H114387   0.259   2.241   5.143
 4814TIP3    H214388   0.377   2.199   5.058
 4815TIP3   OH214389   2.444   5.313   0.742
 4815TIP3    H114390   2.491   5.315   0.658
 4815TIP3    H214391   2.507   5.347   0.806
 4816TIP3   OH214392   4.712   5.719   2.942
 4816TIP3    H114393   4.799   5.743   2.972
 4816TIP3    H214394   4.687   5.790   2.882
 4817TIP3   OH214395   4.483   2.815   4.717
 4817TIP3    H114396   4.503   2.767   4.636
 4817TIP3    H214397   4.479   2.906   4.690
 4818TIP3   OH214398   5.643   5.253   3.713
 4818TIP3    H114399   5.668   5.343   3.694
 4818TIP3    H214400   5.595   5.224   3.635
 4819TIP3   OH214401   1.710   5.028   5.002
 4819TIP3    H114402   1.723   4.958   4.938
 4819TIP3    H214403   1.616   5.026   5.020
 4820TIP3   OH214404   0.667   3.841   5.273
 4820TIP3    H114405   0.654   3.849   5.367
 4820TIP3    H214406   0.579   3.830   5.238
 4821TIP3   OH214407   3.335   0.572   0.166
 4821TIP3    H114408   3.346   0.481   0.196
 4821TIP3    H214409   3.323   0.564   0.071
 4822TIP3   OH214410   1.520   5.806   6.621
 4822TIP3    H114411   1.577   5.882   6.627
 4822TIP3    H214412   1.432   5.843   6.611
 4823TIP3   OH214413   4.879   2.454   6.450
 4823TIP3    H114414   4.819   2.486   6.382
 4823TIP3    H214415   4.956   2.425   6.403
 4824TIP3   OH214416   6.052   4.820   0.268
 4824TIP3    H114417   5.970   4.792   0.226
 4824TIP3    H214418   6.121   4.782   0.214
 4825TIP3   OH214419   1.514   3.597   0.593
 4825TIP3    H114420   1.501   3.648   0.513
 4825TIP3    H214421   1.429   3.556   0.610
 4826TIP3   OH214422   5.394   7.621   1.531
 4826TIP3    H114423   5.319   7.563   1.540
 4826TIP3    H214424   5.451   7.598   1.604
 4827TIP3   OH214425   3.490   7.671   1.477
 4827TIP3    H114426   3.457   7.585   1.451
 4827TIP3    H214427   3.417   7.712   1.522
 4828TIP3   OH214428   6.221   2.624   4.186
 4828TIP3    H114429   6.162   2.623   4.261
 4828TIP3    H214430   6.189   2.696   4.132
 4829TIP3   OH214431   0.506   1.832   2.526
 4829TIP3    H114432   0.559   1.791   2.594
 4829TIP3    H214433   0.417   1.831   2.561
 4830TIP3   OH214434   5.057   0.561   5.837
 4830TIP3    H114435   5.136   0.599   5.800
 4830TIP3    H214436   5.066   0.467   5.820
 4831TIP3   OH214437   2.444   1.643   3.154
 4831TIP3    H114438   2.374   1.685   3.204
 4831TIP3    H214439   2.459   1.702   3.081
 4832TIP3   OH214440   6.146   0.562   4.170
 4832TIP3    H114441   6.060   0.524   4.151
 4832TIP3    H214442   6.144   0.582   4.263
 4833TIP3   OH214443   0.977   1.492   4.202
 4833TIP3    H114444   0.947   1.557   4.139
 4833TIP3    H214445   0.955   1.529   4.287
 4834TIP3   OH214446   1.318   7.502   3.799
 4834TIP3    H114447   1.239   7.476   3.752
 4834TIP3    H214448   1.336   7.591   3.771
 4835TIP3   OH214449   6.175   4.137   0.464
 4835TIP3    H114450   6.114   4.064   0.453
 4835TIP3    H214451   6.124   4.214   0.440
 4836TIP3   OH214452   1.055   1.877   5.962
 4836TIP3    H114453   1.137   1.858   5.917
 4836TIP3    H214454   1.017   1.951   5.914
 4837TIP3   OH214455   1.862   1.206   1.475
 4837TIP3    H114456   1.796   1.257   1.521
 4837TIP3    H214457   1.838   1.213   1.382
 4838TIP3   OH214458   5.155   1.974   6.699
 4838TIP3    H114459   5.136   1.881   6.687
 4838TIP3    H214460   5.072   2.018   6.682
 4839TIP3   OH214461   6.978   6.887   0.727
 4839TIP3    H114462   7.018   6.962   0.682
 4839TIP3    H214463   7.052   6.834   0.755
 4840TIP3   OH214464   0.245   6.805   5.366
 4840TIP3    H114465   0.323   6.830   5.416
 4840TIP3    H214466   0.176   6.795   5.433
 4841TIP3   OH214467   3.042   4.179   0.013
 4841TIP3    H114468   3.110   4.237  -0.022
 4841TIP3    H214469   3.058   4.095  -0.030
 4842TIP3   OH214470   6.664   3.584   2.292
 4842TIP3    H114471   6.698   3.627   2.213
 4842TIP3    H214472   6.728   3.603   2.360
 4843TIP3   OH214473   0.187   1.806   1.355
 4843TIP3    H114474   0.279   1.790   1.333
 4843TIP3    H214475   0.183   1.901   1.370
 4844TIP3   OH214476   6.321   5.030   3.976
 4844TIP3    H114477   6.405   5.049   4.018
 4844TIP3    H214478   6.298   5.111   3.931
 4845TIP3   OH214479   5.819   3.634   4.024
 4845TIP3    H114480   5.824   3.729   4.030
 4845TIP3    H214481   5.726   3.614   4.034
 4846TIP3   OH214482   7.037   2.700   1.895
 4846TIP3    H114483   6.969   2.767   1.891
 4846TIP3    H214484   6.995   2.622   1.856
 4847TIP3   OH214485   4.061   3.331   3.437
 4847TIP3    H114486   4.150   3.337   3.472
 4847TIP3    H214487   4.004   3.338   3.513
 4848TIP3   OH214488   5.727   6.363   1.519
 4848TIP3    H114489   5.760   6.438   1.569
 4848TIP3    H214490   5.804   6.328   1.474
 4849TIP3   OH214491   0.440   0.803   1.691
 4849TIP3    H114492   0.415   0.895   1.698
 4849TIP3    H214493   0.360   0.759   1.661
 4850TIP3   OH214494   4.283   0.159   6.733
 4850TIP3    H114495   4.297   0.160   6.828
 4850TIP3    H214496   4.189   0.144   6.722
 4851TIP3   OH214497   2.654   5.338   0.969
 4851TIP3    H114498   2.658   5.273   1.039
 4851TIP3    H214499   2.720   5.310   0.906
 4852TIP3   OH214500   2.561   4.130   0.544
 4852TIP3    H114501   2.608   4.128   0.628
 4852TIP3    H214502   2.561   4.039   0.514
 4853TIP3   OH214503   0.644   5.576   0.942
 4853TIP3    H114504   0.677   5.626   0.867
 4853TIP3    H214505   0.700   5.498   0.945
 4854TIP3   OH214506   4.634   5.508   2.044
 4854TIP3    H114507   4.591   5.423   2.035
 4854TIP3    H214508   4.653   5.515   2.137
 4855TIP3   OH214509   4.668   3.927   6.341
 4855TIP3    H114510   4.675   3.917   6.246
 4855TIP3    H214511   4.647   4.020   6.354
 4856TIP3   OH214512   5.474   2.714   3.116
 4856TIP3    H114513   5.479   2.619   3.126
 4856TIP3    H214514   5.557   2.739   3.076
 4857TIP3   OH214515   0.968   3.564   5.674
 4857TIP3    H114516   1.023   3.601   5.605
 4857TIP3    H214517   0.952   3.637   5.734
 4858TIP3   OH214518   3.664   4.921   6.097
 4858TIP3    H114519   3.695   4.830   6.092
 4858TIP3    H214520   3.594   4.919   6.162
 4859TIP3   OH214521   1.856   7.387   0.169
 4859TIP3    H114522   1.878   7.468   0.125
 4859TIP3    H214523   1.762   7.374   0.151
 4860TIP3   OH214524   7.910   3.730   1.291
 4860TIP3    H114525   7.889   3.823   1.300
 4860TIP3    H214526   7.827   3.689   1.270
 4861TIP3   OH214527   1.283   2.943   1.965
 4861TIP3    H114528   1.348   2.991   2.016
 4861TIP3    H214529   1.237   2.890   2.030
 4862TIP3   OH214530   0.340   6.900   1.035
 4862TIP3    H114531   0.409   6.836   1.054
 4862TIP3    H214532   0.371   6.946   0.957
 4863TIP3   OH214533   5.167   6.401   4.158
 4863TIP3    H114534   5.135   6.441   4.239
 4863TIP3    H214535   5.099   6.420   4.094
 4864TIP3   OH214536   3.796   1.197   4.018
 4864TIP3    H114537   3.814   1.225   4.108
 4864TIP3    H214538   3.716   1.145   4.025
 4865TIP3   OH214539   5.854   3.386   6.435
 4865TIP3    H114540   5.945   3.367   6.412
 4865TIP3    H214541   5.844   3.354   6.525
 4866TIP3   OH214542   6.397   6.714   3.890
 4866TIP3    H114543   6.443   6.656   3.951
 4866TIP3    H214544   6.348   6.655   3.833
 4867TIP3   OH214545   7.754   4.031   3.888
 4867TIP3    H114546   7.705   4.075   3.819
 4867TIP3    H214547   7.792   3.955   3.846
 4868TIP3   OH214548   0.724   7.677   3.701
 4868TIP3    H114549   0.668   7.662   3.777
 4868TIP3    H214550   0.719   7.772   3.687
 4869TIP3   OH214551   2.578   4.407   5.691
 4869TIP3    H114552   2.651   4.378   5.636
 4869TIP3    H214553   2.612   4.485   5.735
 4870TIP3   OH214554   4.254   6.613   2.754
 4870TIP3    H114555   4.288   6.636   2.667
 4870TIP3    H214556   4.162   6.639   2.752
 4871TIP3   OH214557   5.693   1.264   3.465
 4871TIP3    H114558   5.633   1.241   3.394
 4871TIP3    H214559   5.695   1.187   3.522
 4872TIP3   OH214560   5.417   3.110   1.034
 4872TIP3    H114561   5.398   3.118   1.127
 4872TIP3    H214562   5.389   3.021   1.011
 4873TIP3   OH214563   1.980   2.648   1.181
 4873TIP3    H114564   1.934   2.571   1.145
 4873TIP3    H214565   1.989   2.707   1.106
 4874TIP3   OH214566   4.407   3.452   6.391
 4874TIP3    H114567   4.398   3.496   6.306
 4874TIP3    H214568   4.489   3.488   6.427
 4875TIP3   OH214569   7.626   1.616   4.540
 4875TIP3    H114570   7.630   1.669   4.460
 4875TIP3    H214571   7.717   1.591   4.556
 4876TIP3   OH214572   4.726   0.910   6.308
 4876TIP3    H114573   4.638   0.876   6.289
 4876TIP3    H214574   4.777   0.832   6.331
 4877TIP3   OH214575   6.773   3.117   5.962
 4877TIP3    H114576   6.695   3.098   5.911
 4877TIP3    H214577   6.822   3.035   5.963
 4878TIP3   OH214578   0.546   6.181   6.021
 4878TIP3    H114579   0.538   6.254   6.083
 4878TIP3    H214580   0.629   6.197   5.977
 4879TIP3   OH214581   5.435   7.160   1.820
 4879TIP3    H114582   5.363   7.108   1.855
 4879TIP3    H214583   5.501   7.159   1.889
 4880TIP3   OH214584   2.005   0.339   0.792
 4880TIP3    H114585   2.042   0.403   0.732
 4880TIP3    H214586   2.009   0.381   0.878
 4881TIP3   OH214587   4.160   4.370   1.214
 4881TIP3    H114588   4.070   4.375   1.246
 4881TIP3    H214589   4.198   4.455   1.234
 4882TIP3   OH214590   6.269   7.069   0.886
 4882TIP3    H114591   6.179   7.058   0.916
 4882TIP3    H214592   6.260   7.103   0.797
 4883TIP3   OH214593   7.936   1.407   2.963
 4883TIP3    H114594   7.858   1.417   2.908
 4883TIP3    H214595   7.903   1.411   3.053
 4884TIP3   OH214596   5.632   4.095   0.873
 4884TIP3    H114597   5.628   4.002   0.893
 4884TIP3    H214598   5.716   4.107   0.829
 4885TIP3   OH214599   6.992   3.968   0.370
 4885TIP3    H114600   6.943   4.043   0.336
 4885TIP3    H214601   6.926   3.899   0.381
 4886TIP3   OH214602   8.098   0.794   1.659
 4886TIP3    H114603   8.061   0.706   1.673
 4886TIP3    H214604   8.176   0.796   1.713
 4887TIP3   OH214605   7.595   4.096   4.405
 4887TIP3    H114606   7.619   4.188   4.395
 4887TIP3    H214607   7.640   4.068   4.485
 4888TIP3   OH214608   3.735   1.374   1.839
 4888TIP3    H114609   3.761   1.418   1.758
 4888TIP3    H214610   3.691   1.442   1.891
 4889TIP3   OH214611   3.006   7.336   4.340
 4889TIP3    H114612   2.957   7.276   4.396
 4889TIP3    H214613   3.092   7.296   4.330
 4890TIP3   OH214614   0.267   1.453   3.356
 4890TIP3    H114615   0.268   1.549   3.359
 4890TIP3    H214616   0.288   1.432   3.265
 4891TIP3   OH214617   2.046   3.359   6.439
 4891TIP3    H114618   2.115   3.374   6.504
 4891TIP3    H214619   1.965   3.361   6.489
 4892TIP3   OH214620   5.437   4.640   1.369
 4892TIP3    H114621   5.389   4.622   1.289
 4892TIP3    H214622   5.498   4.710   1.345
 4893TIP3   OH214623   0.192   1.800   2.552
 4893TIP3    H114624   0.164   1.709   2.563
 4893TIP3    H214625   0.179   1.818   2.459
 4894TIP3   OH214626   4.529   5.843   5.846
 4894TIP3    H114627   4.493   5.767   5.801
 4894TIP3    H214628   4.583   5.887   5.779
 4895TIP3   OH214629   3.844   6.000   5.392
 4895TIP3    H114630   3.812   6.078   5.347
 4895TIP3    H214631   3.808   6.006   5.480
 4896TIP3   OH214632   2.979   4.473   5.264
 4896TIP3    H114633   2.958   4.446   5.175
 4896TIP3    H214634   2.945   4.562   5.271
 4897TIP3   OH214635   4.376   0.282   5.539
 4897TIP3    H114636   4.294   0.282   5.490
 4897TIP3    H214637   4.364   0.215   5.606
 4898TIP3   OH214638   7.144   2.232   5.310
 4898TIP3    H114639   7.164   2.318   5.346
 4898TIP3    H214640   7.206   2.173   5.354
 4899TIP3   OH214641   3.950   6.815   5.679
 4899TIP3    H114642   3.889   6.838   5.749
 4899TIP3    H214643   4.005   6.747   5.717
 4900TIP3   OH214644   0.065   1.537   2.574
 4900TIP3    H114645  -0.014   1.558   2.625
 4900TIP3    H214646   0.127   1.503   2.639
 4901TIP3   OH214647   6.946   4.483   5.312
 4901TIP3    H114648   6.996   4.403   5.328
 4901TIP3    H214649   6.855   4.455   5.312
 4902TIP3   OH214650   4.867   2.834   6.443
 4902TIP3    H114651   4.897   2.826   6.533
 4902TIP3    H214652   4.777   2.803   6.445
 4903TIP3   OH214653   7.437   3.061   3.744
 4903TIP3    H114654   7.428   3.098   3.656
 4903TIP3    H214655   7.353   3.018   3.760
 4904TIP3   OH214656   5.112   4.695   4.819
 4904TIP3    H114657   5.125   4.696   4.724
 4904TIP3    H214658   5.067   4.778   4.837
 4905TIP3   OH214659   6.804   0.502   4.413
 4905TIP3    H114660   6.878   0.556   4.386
 4905TIP3    H214661   6.764   0.550   4.485
 4906TIP3   OH214662   8.109   6.390   1.867
 4906TIP3    H114663   8.021   6.395   1.904
 4906TIP3    H214664   8.149   6.315   1.911
 4907TIP3   OH214665   6.034   4.939   1.528
 4907TIP3    H114666   5.958   4.988   1.557
 4907TIP3    H214667   6.076   4.910   1.609
 4908TIP3   OH214668   6.711   0.096   4.533
 4908TIP3    H114669   6.766   0.166   4.568
 4908TIP3    H214670   6.663   0.062   4.609
 4909TIP3   OH214671   6.149   4.739   3.690
 4909TIP3    H114672   6.236   4.777   3.700
 4909TIP3    H214673   6.089   4.812   3.709
 4910TIP3   OH214674   7.998   7.652   6.495
 4910TIP3    H114675   8.069   7.612   6.546
 4910TIP3    H214676   8.008   7.746   6.510
 4911TIP3   OH214677   7.661   1.083   1.973
 4911TIP3    H114678   7.650   1.175   1.996
 4911TIP3    H214679   7.575   1.043   1.990
 4912TIP3   OH214680   3.364   3.087   2.675
 4912TIP3    H114681   3.387   3.180   2.673
 4912TIP3    H214682   3.342   3.069   2.766
 4913TIP3   OH214683   0.446   1.287   4.824
 4913TIP3    H114684   0.365   1.249   4.858
 4913TIP3    H214685   0.430   1.381   4.823
 4914TIP3   OH214686   7.643   0.139   4.409
 4914TIP3    H114687   7.648   0.046   4.386
 4914TIP3    H214688   7.563   0.148   4.460
 4915TIP3   OH214689   4.841   5.377   2.306
 4915TIP3    H114690   4.841   5.288   2.271
 4915TIP3    H214691   4.748   5.399   2.316
 4916TIP3   OH214692   5.094   4.087   1.455
 4916TIP3    H114693   5.179   4.053   1.427
 4916TIP3    H214694   5.116   4.159   1.514
 4917TIP3   OH214695   0.699   6.432   5.488
 4917TIP3    H114696   0.687   6.382   5.569
 4917TIP3    H214697   0.785   6.473   5.498
 4918TIP3   OH214698   7.057   3.824   4.806
 4918TIP3    H114699   7.138   3.836   4.756
 4918TIP3    H214700   7.026   3.738   4.780
 4919TIP3   OH214701   7.752   0.552   5.536
 4919TIP3    H114702   7.819   0.487   5.555
 4919TIP3    H214703   7.754   0.561   5.440
 4920TIP3   OH214704   1.377   7.279   4.656
 4920TIP3    H114705   1.434   7.211   4.621
 4920TIP3    H214706   1.317   7.233   4.714
 4921TIP3   OH214707   5.313   4.528   2.029
 4921TIP3    H114708   5.385   4.465   2.034
 4921TIP3    H214709   5.284   4.539   2.119
 4922TIP3   OH214710   7.543   5.804   1.639
 4922TIP3    H114711   7.453   5.774   1.644
 4922TIP3    H214712   7.568   5.793   1.548
 4923TIP3   OH214713   0.590   1.631   5.674
 4923TIP3    H114714   0.509   1.679   5.691
 4923TIP3    H214715   0.645   1.649   5.750
 4924TIP3   OH214716   2.246   6.814   5.604
 4924TIP3    H114717   2.181   6.763   5.557
 4924TIP3    H214718   2.319   6.823   5.542
 4925TIP3   OH214719   6.470   1.055   3.664
 4925TIP3    H114720   6.431   1.085   3.746
 4925TIP3    H214721   6.520   1.130   3.632
 4926TIP3   OH214722   1.112   4.183   4.148
 4926TIP3    H114723   1.202   4.216   4.144
 4926TIP3    H214724   1.097   4.143   4.063
 4927TIP3   OH214725   2.596   3.042   1.465
 4927TIP3    H114726   2.634   3.099   1.398
 4927TIP3    H214727   2.632   2.956   1.447
 4928TIP3   OH214728   1.206   7.364   4.464
 4928TIP3    H114729   1.126   7.415   4.473
 4928TIP3    H214730   1.245   7.364   4.551
 4929TIP3   OH214731   1.086   6.262   6.428
 4929TIP3    H114732   1.025   6.302   6.366
 4929TIP3    H214733   1.117   6.183   6.384
 4930TIP3   OH214734   0.953   4.035   3.073
 4930TIP3    H114735   0.917   4.117   3.038
 4930TIP3    H214736   0.903   4.019   3.153
 4931TIP3   OH214737   4.313   6.714   5.326
 4931TIP3    H114738   4.303   6.790   5.383
 4931TIP3    H214739   4.238   6.658   5.347
 4932TIP3   OH214740   1.062   1.033   1.309
 4932TIP3    H114741   1.051   0.945   1.342
 4932TIP3    H214742   1.074   1.087   1.387
 4933TIP3   OH214743   2.035   6.249   0.389
 4933TIP3    H114744   2.100   6.186   0.418
 4933TIP3    H214745   2.020   6.305   0.465
 4934TIP3   OH214746   5.815   5.388   0.719
 4934TIP3    H114747   5.737   5.427   0.757
 4934TIP3    H214748   5.786   5.353   0.635
 4935TIP3   OH214749   2.523   4.181   3.135
 4935TIP3    H114750   2.540   4.269   3.168
 4935TIP3    H214751   2.428   4.178   3.121
 4936TIP3   OH214752   1.282   4.756   3.911
 4936TIP3    H114753   1.235   4.827   3.867
 4936TIP3    H214754   1.213   4.704   3.951
 4937TIP3   OH214755   7.887   2.028   2.357
 4937TIP3    H114756   7.913   1.998   2.270
 4937TIP3    H214757   7.812   1.973   2.380
 4938TIP3   OH214758   5.601   3.922   6.495
 4938TIP3    H114759   5.572   3.962   6.577
 4938TIP3    H214760   5.588   3.828   6.508
 4939TIP3   OH214761   7.150   4.361   2.233
 4939TIP3    H114762   7.106   4.357   2.318
 4939TIP3    H214763   7.242   4.348   2.253
 4940TIP3   OH214764   7.889   0.542   5.858
 4940TIP3    H114765   7.800   0.579   5.857
 4940TIP3    H214766   7.946   0.616   5.836
 4941TIP3   OH214767   2.068   0.484   6.072
 4941TIP3    H114768   2.066   0.388   6.065
 4941TIP3    H214769   2.110   0.512   5.991
 4942TIP3   OH214770   6.766   5.959   2.865
 4942TIP3    H114771   6.783   5.880   2.915
 4942TIP3    H214772   6.800   6.030   2.919
 4943TIP3   OH214773   1.360   5.627   5.429
 4943TIP3    H114774   1.321   5.621   5.342
 4943TIP3    H214775   1.367   5.721   5.446
 4944TIP3   OH214776   0.492   5.952   3.081
 4944TIP3    H114777   0.518   6.036   3.043
 4944TIP3    H214778   0.534   5.951   3.167
 4945TIP3   OH214779   5.513   4.698   6.746
 4945TIP3    H114780   5.536   4.745   6.825
 4945TIP3    H214781   5.507   4.606   6.773
 4946TIP3   OH214782   6.486   7.029   1.799
 4946TIP3    H114783   6.477   6.972   1.722
 4946TIP3    H214784   6.552   7.093   1.773
 4947TIP3   OH214785   5.623   0.904   3.174
 4947TIP3    H114786   5.709   0.882   3.211
 4947TIP3    H214787   5.561   0.861   3.233
 4948TIP3   OH214788   3.412   6.352   1.409
 4948TIP3    H114789   3.380   6.380   1.495
 4948TIP3    H214790   3.395   6.427   1.352
 4949TIP3   OH214791   3.972   6.231   5.082
 4949TIP3    H114792   3.890   6.249   5.036
 4949TIP3    H214793   4.013   6.160   5.031
 4950TIP3   OH214794   3.451   5.908   2.809
 4950TIP3    H114795   3.505   5.980   2.776
 4950TIP3    H214796   3.397   5.948   2.877
 4951TIP3   OH214797   3.690   6.855   0.381
 4951TIP3    H114798   3.622   6.800   0.421
 4951TIP3    H214799   3.752   6.873   0.452
 4952TIP3   OH214800   3.928   7.118   4.750
 4952TIP3    H114801   3.914   7.195   4.695
 4952TIP3    H214802   3.966   7.153   4.831
 4953TIP3   OH214803   5.988   5.711   5.075
 4953TIP3    H114804   5.935   5.711   5.155
 4953TIP3    H214805   5.933   5.671   5.009
 4954TIP3   OH214806   1.193   2.918   5.153
 4954TIP3    H114807   1.209   2.982   5.084
 4954TIP3    H214808   1.246   2.949   5.227
 4955TIP3   OH214809   1.486   6.067   3.434
 4955TIP3    H114810   1.464   5.988   3.384
 4955TIP3    H214811   1.538   6.119   3.373
 4956TIP3   OH214812   2.856   1.202   1.421
 4956TIP3    H114813   2.858   1.255   1.342
 4956TIP3    H214814   2.931   1.143   1.412
 4957TIP3   OH214815   4.232   5.370   4.357
 4957TIP3    H114816   4.325   5.379   4.380
 4957TIP3    H214817   4.224   5.413   4.272
 4958TIP3   OH214818   3.223   5.905   4.831
 4958TIP3    H114819   3.252   5.989   4.794
 4958TIP3    H214820   3.170   5.865   4.762
 4959TIP3   OH214821   0.166   0.718   6.418
 4959TIP3    H114822   0.190   0.656   6.486
 4959TIP3    H214823   0.070   0.718   6.419
 4960TIP3   OH214824   8.036   5.119   4.449
 4960TIP3    H114825   7.955   5.087   4.410
 4960TIP3    H214826   8.077   5.172   4.381
 4961TIP3   OH214827   5.437   2.435   1.785
 4961TIP3    H114828   5.382   2.452   1.862
 4961TIP3    H214829   5.492   2.361   1.811
 4962TIP3   OH214830   2.074   1.975   0.520
 4962TIP3    H114831   2.069   1.894   0.571
 4962TIP3    H214832   1.982   1.997   0.501
 4963TIP3   OH214833   5.426   4.902   4.777
 4963TIP3    H114834   5.368   4.978   4.772
 4963TIP3    H214835   5.457   4.901   4.867
 4964TIP3   OH214836   7.390   0.140   6.664
 4964TIP3    H114837   7.384   0.093   6.581
 4964TIP3    H214838   7.397   0.071   6.730
 4965TIP3   OH214839   5.703   3.094   1.328
 4965TIP3    H114840   5.784   3.146   1.330
 4965TIP3    H214841   5.693   3.067   1.237
 4966TIP3   OH214842   4.729   2.914   3.707
 4966TIP3    H114843   4.809   2.923   3.760
 4966TIP3    H214844   4.662   2.885   3.770
 4967TIP3   OH214845   4.772   0.320   3.653
 4967TIP3    H114846   4.859   0.348   3.623
 4967TIP3    H214847   4.769   0.347   3.744
 4968TIP3   OH214848   2.065   2.138   3.104
 4968TIP3    H114849   2.080   2.114   3.196
 4968TIP3    H214850   2.147   2.116   3.060
 4969TIP3   OH214851   1.399   1.009   5.052
 4969TIP3    H114852   1.487   0.972   5.053
 4969TIP3    H214853   1.350   0.959   5.117
 4970TIP3   OH214854   2.906   2.285   0.075
 4970TIP3    H114855   2.840   2.215   0.075
 4970TIP3    H214856   2.855   2.366   0.076
 4971TIP3   OH214857   0.540   4.628   5.798
 4971TIP3    H114858   0.505   4.544   5.828
 4971TIP3    H214859   0.614   4.645   5.855
 4972TIP3   OH214860   7.094   7.635   6.629
 4972TIP3    H114861   7.159   7.577   6.591
 4972TIP3    H214862   7.091   7.710   6.570
 4973TIP3   OH214863   4.317   2.456   1.566
 4973TIP3    H114864   4.354   2.532   1.521
 4973TIP3    H214865   4.233   2.440   1.523
 4974TIP3   OH214866   4.879   6.647   5.349
 4974TIP3    H114867   4.826   6.687   5.419
 4974TIP3    H214868   4.815   6.607   5.291
 4975TIP3   OH214869   5.436   0.239   5.395
 4975TIP3    H114870   5.344   0.262   5.379
 4975TIP3    H214871   5.438   0.211   5.487
 4976TIP3   OH214872   1.915   5.697   1.942
 4976TIP3    H114873   1.872   5.621   1.981
 4976TIP3    H214874   2.003   5.666   1.919
 4977TIP3   OH214875   2.504   6.346   4.772
 4977TIP3    H114876   2.480   6.367   4.862
 4977TIP3    H214877   2.593   6.382   4.762
 4978TIP3   OH214878   8.281   3.751   3.667
 4978TIP3    H114879   8.207   3.735   3.609
 4978TIP3    H214880   8.354   3.769   3.608
 4979TIP3   OH214881   7.655   6.876   0.110
 4979TIP3    H114882   7.598   6.800   0.097
 4979TIP3    H214883   7.614   6.926   0.180
 4980TIP3   OH214884   0.325   0.361   0.339
 4980TIP3    H114885   0.231   0.344   0.336
 4980TIP3    H214886   0.364   0.278   0.367
 4981TIP3   OH214887   2.551   4.809   0.149
 4981TIP3    H114888   2.514   4.842   0.067
 4981TIP3    H214889   2.500   4.852   0.218
 4982TIP3   OH214890   2.362   6.959   4.670
 4982TIP3    H114891   2.412   6.916   4.600
 4982TIP3    H214892   2.277   6.914   4.669
 4983TIP3   OH214893   0.626   3.659   3.964
 4983TIP3    H114894   0.544   3.637   4.008
 4983TIP3    H214895   0.693   3.646   4.031
 4984TIP3   OH214896   1.237   6.588   0.137
 4984TIP3    H114897   1.301   6.573   0.206
 4984TIP3    H214898   1.218   6.682   0.141
 4985TIP3   OH214899   3.433   1.096   5.080
 4985TIP3    H114900   3.348   1.056   5.098
 4985TIP3    H214901   3.475   1.102   5.166
 4986TIP3   OH214902   5.680   1.699   0.489
 4986TIP3    H114903   5.712   1.643   0.559
 4986TIP3    H214904   5.651   1.639   0.421
 4987TIP3   OH214905   6.490   0.208   4.376
 4987TIP3    H114906   6.573   0.177   4.411
 4987TIP3    H214907   6.425   0.182   4.440
 4988TIP3   OH214908   4.796   5.404   6.315
 4988TIP3    H114909   4.831   5.408   6.404
 4988TIP3    H214910   4.762   5.315   6.306
 4989TIP3   OH214911   1.748   3.386   2.582
 4989TIP3    H114912   1.735   3.426   2.496
 4989TIP3    H214913   1.808   3.313   2.566
 4990TIP3   OH214914   2.754   1.903   4.354
 4990TIP3    H114915   2.813   1.829   4.366
 4990TIP3    H214916   2.793   1.975   4.403
 4991TIP3   OH214917   7.529   7.802   6.611
 4991TIP3    H114918   7.477   7.728   6.642
 4991TIP3    H214919   7.563   7.843   6.690
 4992TIP3   OH214920   7.033   6.449   4.364
 4992TIP3    H114921   7.035   6.492   4.450
 4992TIP3    H214922   6.958   6.390   4.369
 4993TIP3   OH214923   0.120   5.804   4.381
 4993TIP3    H114924   0.114   5.736   4.448
 4993TIP3    H214925   0.193   5.777   4.326
 4994TIP3   OH214926   1.953   1.937   6.356
 4994TIP3    H114927   1.909   1.858   6.324
 4994TIP3    H214928   2.044   1.911   6.368
 4995TIP3   OH214929   1.393   1.544   5.691
 4995TIP3    H114930   1.320   1.497   5.731
 4995TIP3    H214931   1.354   1.623   5.653
 4996TIP3   OH214932   2.960   0.853   3.315
 4996TIP3    H114933   2.961   0.932   3.369
 4996TIP3    H214934   3.050   0.845   3.283
 4997TIP3   OH214935   3.103   1.162   4.875
 4997TIP3    H114936   3.104   1.161   4.971
 4997TIP3    H214937   3.010   1.161   4.852
 4998TIP3   OH214938   2.936   3.808   2.418
 4998TIP3    H114939   2.909   3.871   2.485
 4998TIP3    H214940   3.030   3.798   2.431
 4999TIP3   OH214941   2.420   3.670   5.588
 4999TIP3    H114942   2.376   3.756   5.586
 4999TIP3    H214943   2.366   3.615   5.531
 5000TIP3   OH214944   6.619   6.787   0.372
 5000TIP3    H114945   6.556   6.718   0.392
 5000TIP3    H214946   6.590   6.861   0.425
 5001TIP3   OH214947   0.708   2.842   0.977
 5001TIP3    H114948   0.638   2.811   1.035
 5001TIP3    H214949   0.770   2.885   1.036
 5002TIP3   OH214950   0.225   0.282   2.502
 5002TIP3    H114951   0.297   0.278   2.440
 5002TIP3    H214952   0.191   0.193   2.507
 5003TIP3   OH214953   5.996   0.692   4.728
 5003TIP3    H114954   5.969   0.746   4.801
 5003TIP3    H214955   6.001   0.603   4.764
 5004TIP3   OH214956   2.457   4.776   3.963
 5004TIP3    H114957   2.430   4.710   3.899
 5004TIP3    H214958   2.541   4.808   3.931
 5005TIP3   OH214959   4.112   2.580   3.622
 5005TIP3    H114960   4.077   2.507   3.572
 5005TIP3    H214961   4.043   2.603   3.684
 5006TIP3   OH214962   1.357   3.219   0.292
 5006TIP3    H114963   1.266   3.249   0.284
 5006TIP3    H214964   1.359   3.174   0.377
 5007TIP3   OH214965   1.918   7.427   0.456
 5007TIP3    H114966   1.921   7.431   0.360
 5007TIP3    H214967   1.922   7.518   0.485
 5008TIP3   OH214968   6.732   1.810   5.727
 5008TIP3    H114969   6.766   1.728   5.764
 5008TIP3    H214970   6.637   1.798   5.726
 5009TIP3   OH214971   8.104   6.202   6.722
 5009TIP3    H114972   8.171   6.269   6.736
 5009TIP3    H214973   8.149   6.130   6.680
 5010TIP3   OH214974   7.435   1.794   0.056
 5010TIP3    H114975   7.355   1.799   0.107
 5010TIP3    H214976   7.465   1.703   0.067
 5011TIP3   OH214977   4.546   4.112   6.175
 5011TIP3    H114978   4.591   4.079   6.097
 5011TIP3    H214979   4.453   4.108   6.153
 5012TIP3   OH214980   1.519   7.492   0.381
 5012TIP3    H114981   1.559   7.537   0.455
 5012TIP3    H214982   1.532   7.551   0.307
 5013TIP3   OH214983   2.708   6.502   2.069
 5013TIP3    H114984   2.752   6.550   1.999
 5013TIP3    H214985   2.689   6.568   2.135
 5014TIP3   OH214986   3.320   6.673   5.224
 5014TIP3    H114987   3.236   6.630   5.209
 5014TIP3    H214988   3.359   6.678   5.136
 5015TIP3   OH214989   3.798   6.527   5.399
 5015TIP3    H114990   3.791   6.619   5.372
 5015TIP3    H214991   3.771   6.528   5.492
 5016TIP3   OH214992   5.633   4.391   0.231
 5016TIP3    H114993   5.555   4.402   0.285
 5016TIP3    H214994   5.666   4.479   0.217
 5017TIP3   OH214995   6.271   5.537   3.071
 5017TIP3    H114996   6.207   5.600   3.102
 5017TIP3    H214997   6.339   5.537   3.138
 5018TIP3   OH214998   1.503   3.013   2.972
 5018TIP3    H114999   1.554   2.995   3.051
 5018TIP3    H215000   1.473   2.926   2.944
 5019TIP3   OH215001   7.025   0.642   0.994
 5019TIP3    H115002   7.000   0.677   1.079
 5019TIP3    H215003   7.034   0.548   1.008
 5020TIP3   OH215004   0.473   4.506   0.259
 5020TIP3    H115005   0.403   4.441   0.260
 5020TIP3    H215006   0.507   4.507   0.348
 5021TIP3   OH215007   3.146   1.231   2.648
 5021TIP3    H115008   3.154   1.139   2.672
 5021TIP3    H215009   3.236   1.265   2.654
 5022TIP3   OH215010   6.297   4.886   0.488
 5022TIP3    H115011   6.274   4.948   0.419
 5022TIP3    H215012   6.217   4.834   0.501
 5023TIP3   OH215013   7.400   2.239   6.405
 5023TIP3    H115014   7.460   2.314   6.405
 5023TIP3    H215015   7.446   2.173   6.352
 5024TIP3   OH215016   3.508   3.068   5.282
 5024TIP3    H115017   3.416   3.046   5.270
 5024TIP3    H215018   3.522   3.146   5.229
 5025TIP3   OH215019   0.099   7.272   3.794
 5025TIP3    H115020   0.033   7.286   3.862
 5025TIP3    H215021   0.149   7.353   3.792
 5026TIP3   OH215022   7.818   5.101   6.034
 5026TIP3    H115023   7.878   5.170   6.065
 5026TIP3    H215024   7.753   5.147   5.982
 5027TIP3   OH215025   2.068   2.871   3.271
 5027TIP3    H115026   2.106   2.892   3.356
 5027TIP3    H215027   2.116   2.926   3.209
 5028TIP3   OH215028   0.822   4.793   6.632
 5028TIP3    H115029   0.756   4.848   6.676
 5028TIP3    H215030   0.874   4.756   6.704
 5029TIP3   OH215031   7.799   4.847   1.294
 5029TIP3    H115032   7.890   4.840   1.265
 5029TIP3    H215033   7.760   4.911   1.235
 5030TIP3   OH215034   1.812   1.492   5.171
 5030TIP3    H115035   1.828   1.431   5.243
 5030TIP3    H215036   1.761   1.563   5.210
 5031TIP3   OH215037   4.713   4.182   2.784
 5031TIP3    H115038   4.806   4.191   2.764
 5031TIP3    H215039   4.687   4.101   2.739
 5032TIP3   OH215040   1.761   7.371   1.455
 5032TIP3    H115041   1.825   7.412   1.396
 5032TIP3    H215042   1.697   7.331   1.396
 5033TIP3   OH215043   2.641   6.279   3.439
 5033TIP3    H115044   2.556   6.256   3.402
 5033TIP3    H215045   2.650   6.373   3.425
 5034TIP3   OH215046   1.211   2.222   0.326
 5034TIP3    H115047   1.249   2.251   0.243
 5034TIP3    H215048   1.222   2.127   0.325
 5035TIP3   OH215049   1.275   0.383   3.859
 5035TIP3    H115050   1.332   0.341   3.923
 5035TIP3    H215051   1.262   0.318   3.791
 5036TIP3   OH215052   4.521   7.256   0.926
 5036TIP3    H115053   4.613   7.238   0.905
 5036TIP3    H215054   4.524   7.296   1.013
 5037TIP3   OH215055   6.768   4.627   2.187
 5037TIP3    H115056   6.736   4.714   2.165
 5037TIP3    H215057   6.760   4.622   2.283
 5038TIP3   OH215058   6.855   0.421   0.247
 5038TIP3    H115059   6.905   0.392   0.171
 5038TIP3    H215060   6.822   0.508   0.222
 5039TIP3   OH215061   1.177   0.974   1.587
 5039TIP3    H115062   1.205   0.908   1.523
 5039TIP3    H215063   1.152   0.924   1.664
 5040TIP3   OH215064   7.508   3.397   5.476
 5040TIP3    H115065   7.436   3.433   5.528
 5040TIP3    H215066   7.586   3.407   5.531
 5041TIP3   OH215067   4.455   7.168   2.820
 5041TIP3    H115068   4.452   7.212   2.905
 5041TIP3    H215069   4.387   7.211   2.768
 5042TIP3   OH215070   3.527   7.580   2.229
 5042TIP3    H115071   3.434   7.594   2.251
 5042TIP3    H215072   3.536   7.485   2.224
 5043TIP3   OH215073   3.749   1.267   5.997
 5043TIP3    H115074   3.797   1.190   5.966
 5043TIP3    H215075   3.816   1.320   6.041
 5044TIP3   OH215076   1.861   4.703   5.136
 5044TIP3    H115077   1.905   4.732   5.216
 5044TIP3    H215078   1.918   4.633   5.102
 5045TIP3   OH215079   3.155   2.950   1.253
 5045TIP3    H115080   3.227   2.971   1.194
 5045TIP3    H215081   3.135   3.032   1.297
 5046TIP3   OH215082   1.945   4.387   6.127
 5046TIP3    H115083   1.899   4.352   6.051
 5046TIP3    H215084   2.038   4.370   6.108
 5047TIP3   OH215085   7.827   1.613   3.239
 5047TIP3    H115086   7.745   1.565   3.229
 5047TIP3    H215087   7.806   1.685   3.299
 5048TIP3   OH215088   1.608   4.860   0.814
 5048TIP3    H115089   1.687   4.869   0.761
 5048TIP3    H215090   1.540   4.905   0.763
 5049TIP3   OH215091   4.822   1.703   5.835
 5049TIP3    H115092   4.842   1.757   5.758
 5049TIP3    H215093   4.905   1.660   5.856
 5050TIP3   OH215094   3.831   3.369   3.261
 5050TIP3    H115095   3.884   3.338   3.334
 5050TIP3    H215096   3.749   3.398   3.300
 5051TIP3   OH215097   5.080   5.220   3.154
 5051TIP3    H115098   5.060   5.141   3.204
 5051TIP3    H215099   5.175   5.223   3.149
 5052TIP3   OH215100   1.256   7.762   0.920
 5052TIP3    H115101   1.220   7.681   0.956
 5052TIP3    H215102   1.213   7.772   0.835
 5053TIP3   OH215103   7.628   6.689   5.702
 5053TIP3    H115104   7.616   6.679   5.608
 5053TIP3    H215105   7.604   6.780   5.720
 5054TIP3   OH215106   2.351   5.394   0.397
 5054TIP3    H115107   2.428   5.344   0.422
 5054TIP3    H215108   2.322   5.435   0.479
 5055TIP3   OH215109   5.655   2.508   1.601
 5055TIP3    H115110   5.568   2.527   1.636
 5055TIP3    H215111   5.668   2.574   1.532
 5056TIP3   OH215112   6.420   2.706   1.929
 5056TIP3    H115113   6.457   2.792   1.951
 5056TIP3    H215114   6.376   2.720   1.845
 5057TIP3   OH215115   2.644   5.520   0.088
 5057TIP3    H115116   2.724   5.485   0.048
 5057TIP3    H215117   2.640   5.610   0.056
 5058TIP3   OH215118   5.318   2.749   4.737
 5058TIP3    H115119   5.268   2.696   4.675
 5058TIP3    H215120   5.367   2.810   4.681
 5059TIP3   OH215121   7.229   3.974   0.560
 5059TIP3    H115122   7.173   4.004   0.631
 5059TIP3    H215123   7.172   3.971   0.483
 5060TIP3   OH215124   8.110   2.399   3.791
 5060TIP3    H115125   8.060   2.382   3.871
 5060TIP3    H215126   8.046   2.439   3.731
 5061TIP3   OH215127   4.994   0.732   4.004
 5061TIP3    H115128   5.066   0.704   4.060
 5061TIP3    H215129   5.012   0.691   3.919
 5062TIP3   OH215130   3.151   5.046   5.415
 5062TIP3    H115131   3.120   4.969   5.368
 5062TIP3    H215132   3.106   5.042   5.499
 5063TIP3   OH215133   8.232   2.634   1.060
 5063TIP3    H115134   8.265   2.573   0.993
 5063TIP3    H215135   8.160   2.680   1.017
 5064TIP3   OH215136   0.375   2.769   6.001
 5064TIP3    H115137   0.347   2.681   6.027
 5064TIP3    H215138   0.455   2.784   6.051
 5065TIP3   OH215139   6.299   5.926   1.374
 5065TIP3    H115140   6.226   5.876   1.336
 5065TIP3    H215141   6.367   5.925   1.306
 5066TIP3   OH215142   7.363   7.286   4.831
 5066TIP3    H115143   7.445   7.285   4.781
 5066TIP3    H215144   7.356   7.198   4.868
 5067TIP3   OH215145   5.409   6.552   0.756
 5067TIP3    H115146   5.323   6.538   0.715
 5067TIP3    H215147   5.467   6.490   0.711
 5068TIP3   OH215148   3.036   2.720   0.055
 5068TIP3    H115149   3.048   2.655   0.124
 5068TIP3    H215150   3.011   2.669  -0.022
 5069TIP3   OH215151   3.530   4.123   2.440
 5069TIP3    H115152   3.613   4.126   2.393
 5069TIP3    H215153   3.491   4.039   2.414
 5070TIP3   OH215154   5.066   2.975   1.536
 5070TIP3    H115155   5.009   2.973   1.459
 5070TIP3    H215156   5.006   2.984   1.610
 5071TIP3   OH215157   5.437   2.126   5.005
 5071TIP3    H115158   5.437   2.034   5.031
 5071TIP3    H215159   5.345   2.152   5.011
 5072TIP3   OH215160   1.895   2.123   6.141
 5072TIP3    H115161   1.902   2.037   6.182
 5072TIP3    H215162   1.829   2.169   6.193
 5073TIP3   OH215163   5.617   5.837   6.035
 5073TIP3    H115164   5.629   5.757   5.983
 5073TIP3    H215165   5.700   5.884   6.027
 5074TIP3   OH215166   2.903   1.234   1.946
 5074TIP3    H115167   2.854   1.208   1.868
 5074TIP3    H215168   2.916   1.152   1.994
 5075TIP3   OH215169   6.822   5.992   4.414
 5075TIP3    H115170   6.738   5.951   4.393
 5075TIP3    H215171   6.814   6.017   4.506
 5076TIP3   OH215172   5.245   7.031   5.882
 5076TIP3    H115173   5.197   7.098   5.833
 5076TIP3    H215174   5.337   7.053   5.866
 5077TIP3   OH215175   8.016   6.161   5.655
 5077TIP3    H115176   8.094   6.108   5.673
 5077TIP3    H215177   7.946   6.098   5.643
 5078TIP3   OH215178   0.735   5.106   3.667
 5078TIP3    H115179   0.734   5.037   3.733
 5078TIP3    H215180   0.666   5.080   3.605
 5079TIP3   OH215181   5.307   4.244   6.643
 5079TIP3    H115182   5.302   4.326   6.594
 5079TIP3    H215183   5.231   4.194   6.613
 5080TIP3   OH215184   1.230   6.197   4.265
 5080TIP3    H115185   1.248   6.273   4.210
 5080TIP3    H215186   1.160   6.226   4.323
 5081TIP3   OH215187   7.124   5.354   6.414
 5081TIP3    H115188   7.160   5.431   6.369
 5081TIP3    H215189   7.159   5.359   6.503
 5082TIP3   OH215190   4.081   0.464   4.793
 5082TIP3    H115191   4.081   0.449   4.887
 5082TIP3    H215192   4.157   0.520   4.777
 5083TIP3   OH215193   4.895   4.284   4.469
 5083TIP3    H115194   4.985   4.294   4.501
 5083TIP3    H215195   4.852   4.367   4.491
 5084TIP3   OH215196   7.031   4.217   3.740
 5084TIP3    H115197   7.080   4.184   3.815
 5084TIP3    H215198   6.969   4.147   3.720
 5085TIP3   OH215199   3.793   0.264   2.342
 5085TIP3    H115200   3.722   0.321   2.370
 5085TIP3    H215201   3.850   0.321   2.289
 5086TIP3   OH215202   1.050   4.390   3.136
 5086TIP3    H115203   0.961   4.372   3.105
 5086TIP3    H215204   1.060   4.484   3.125
 5087TIP3   OH215205   6.338   7.262   6.543
 5087TIP3    H115206   6.296   7.176   6.544
 5087TIP3    H215207   6.424   7.246   6.504
 5088TIP3   OH215208   2.587   6.487   1.685
 5088TIP3    H115209   2.635   6.501   1.603
 5088TIP3    H215210   2.537   6.407   1.670
 5089TIP3   OH215211   7.654   0.131   2.317
 5089TIP3    H115212   7.690   0.218   2.300
 5089TIP3    H215213   7.685   0.109   2.405
 5090TIP3   OH215214   5.264   4.211   0.164
 5090TIP3    H115215   5.332   4.247   0.221
 5090TIP3    H215216   5.184   4.215   0.218
 5091TIP3   OH215217   6.675   0.046   2.189
 5091TIP3    H115218   6.703  -0.014   2.258
 5091TIP3    H215219   6.757   0.086   2.159
 5092TIP3   OH215220   3.194   1.928   2.830
 5092TIP3    H115221   3.288   1.917   2.817
 5092TIP3    H215222   3.180   2.023   2.831
 5093TIP3   OH215223   5.695   0.677   6.676
 5093TIP3    H115224   5.650   0.637   6.751
 5093TIP3    H215225   5.762   0.733   6.716
 5094TIP3   OH215226   0.054   4.141   0.890
 5094TIP3    H115227   0.025   4.050   0.889
 5094TIP3    H215228  -0.028   4.192   0.885
 5095TIP3   OH215229   8.023   3.110   3.334
 5095TIP3    H115230   8.076   3.071   3.265
 5095TIP3    H215231   8.008   3.201   3.305
 5096TIP3   OH215232   0.373   1.072   2.592
 5096TIP3    H115233   0.406   1.081   2.502
 5096TIP3    H215234   0.300   1.012   2.585
 5097TIP3   OH215235   0.098   2.248   0.163
 5097TIP3    H115236   0.108   2.284   0.252
 5097TIP3    H215237   0.156   2.302   0.109
 5098TIP3   OH215238   0.763   0.279   0.174
 5098TIP3    H115239   0.741   0.372   0.182
 5098TIP3    H215240   0.685   0.240   0.135
 5099TIP3   OH215241   3.956   5.644   4.275
 5099TIP3    H115242   3.938   5.551   4.281
 5099TIP3    H215243   3.941   5.677   4.364
 5100TIP3   OH215244   4.518   6.098   5.972
 5100TIP3    H115245   4.543   6.008   5.996
 5100TIP3    H215246   4.488   6.091   5.881
 5101TIP3   OH215247   4.129   4.277   3.208
 5101TIP3    H115248   4.142   4.183   3.212
 5101TIP3    H215249   4.131   4.298   3.115
 5102TIP3   OH215250   3.159   0.460   6.123
 5102TIP3    H115251   3.218   0.529   6.153
 5102TIP3    H215252   3.218   0.394   6.085
 5103TIP3   OH215253   1.637   2.194   0.113
 5103TIP3    H115254   1.691   2.253   0.060
 5103TIP3    H215255   1.690   2.176   0.190
 5104TIP3   OH215256   3.343   6.938   3.915
 5104TIP3    H115257   3.265   6.984   3.945
 5104TIP3    H215258   3.316   6.846   3.908
 5105TIP3   OH215259   3.418   3.923   0.399
 5105TIP3    H115260   3.461   3.867   0.463
 5105TIP3    H215261   3.332   3.882   0.385
 5106TIP3   OH215262   4.292   3.863   0.731
 5106TIP3    H115263   4.226   3.843   0.665
 5106TIP3    H215264   4.342   3.782   0.742
 5107TIP3   OH215265   5.305   4.111   2.534
 5107TIP3    H115266   5.247   4.046   2.575
 5107TIP3    H215267   5.378   4.120   2.595
 5108TIP3   OH215268   2.017   3.997   1.958
 5108TIP3    H115269   2.058   3.923   2.004
 5108TIP3    H215270   2.090   4.043   1.917
 5109TIP3   OH215271   6.235   6.544   4.224
 5109TIP3    H115272   6.327   6.570   4.213
 5109TIP3    H215273   6.185   6.620   4.196
 5110TIP3   OH215274   5.700   2.165   2.266
 5110TIP3    H115275   5.651   2.247   2.260
 5110TIP3    H215276   5.765   2.181   2.335
 5111TIP3   OH215277   4.343   5.524   4.110
 5111TIP3    H115278   4.314   5.442   4.069
 5111TIP3    H215279   4.438   5.515   4.118
 5112TIP3   OH215280   4.484   0.710   2.354
 5112TIP3    H115281   4.540   0.774   2.309
 5112TIP3    H215282   4.529   0.694   2.437
 5113TIP3   OH215283   1.430   2.717   1.775
 5113TIP3    H115284   1.382   2.779   1.829
 5113TIP3    H215285   1.362   2.664   1.733
 5114TIP3   OH215286   1.568   3.173   0.945
 5114TIP3    H115287   1.535   3.132   0.866
 5114TIP3    H215288   1.527   3.125   1.017
 5115TIP3   OH215289   0.354   2.991   2.149
 5115TIP3    H115290   0.393   3.032   2.226
 5115TIP3    H215291   0.283   3.051   2.124
 5116TIP3   OH215292   2.735   1.128   5.144
 5116TIP3    H115293   2.714   1.040   5.111
 5116TIP3    H215294   2.814   1.116   5.197
 5117TIP3   OH215295   0.926   0.841   0.603
 5117TIP3    H115296   0.840   0.808   0.630
 5117TIP3    H215297   0.909   0.930   0.573
 5118TIP3   OH215298   2.489   7.023   6.247
 5118TIP3    H115299   2.580   7.014   6.218
 5118TIP3    H215300   2.438   6.989   6.173
 5119TIP3   OH215301   5.592   3.979   3.082
 5119TIP3    H115302   5.497   3.980   3.077
 5119TIP3    H215303   5.612   3.933   3.163
 5120TIP3   OH215304   4.064   5.616   0.853
 5120TIP3    H115305   4.114   5.605   0.933
 5120TIP3    H215306   3.973   5.609   0.880
 5121TIP3   OH215307   0.954   7.106   6.099
 5121TIP3    H115308   1.046   7.130   6.084
 5121TIP3    H215309   0.923   7.171   6.162
 5122TIP3   OH215310   5.461   5.225   3.924
 5122TIP3    H115311   5.520   5.210   3.850
 5122TIP3    H215312   5.397   5.288   3.891
 5123TIP3   OH215313   0.790   0.521   3.886
 5123TIP3    H115314   0.807   0.427   3.874
 5123TIP3    H215315   0.761   0.529   3.977
 5124TIP3   OH215316   7.279   4.044   2.262
 5124TIP3    H115317   7.243   4.046   2.351
 5124TIP3    H215318   7.225   3.979   2.217
 5125TIP3   OH215319   3.359   2.787   0.073
 5125TIP3    H115320   3.331   2.869   0.034
 5125TIP3    H215321   3.277   2.745   0.103
 5126TIP3   OH215322   1.268   5.948   6.510
 5126TIP3    H115323   1.186   5.985   6.478
 5126TIP3    H215324   1.266   5.963   6.604
 5127TIP3   OH215325   4.420   1.016   1.027
 5127TIP3    H115326   4.418   1.110   1.047
 5127TIP3    H215327   4.466   0.977   1.102
 5128TIP3   OH215328   3.579   0.304   4.713
 5128TIP3    H115329   3.523   0.365   4.664
 5128TIP3    H215330   3.668   0.324   4.683
 5129TIP3   OH215331   3.716   0.374   2.819
 5129TIP3    H115332   3.648   0.368   2.752
 5129TIP3    H215333   3.681   0.324   2.892
 5130TIP3   OH215334   7.733   5.226   6.344
 5130TIP3    H115335   7.646   5.251   6.312
 5130TIP3    H215336   7.725   5.132   6.363
 5131TIP3   OH215337   2.462   7.798   2.575
 5131TIP3    H115338   2.484   7.830   2.488
 5131TIP3    H215339   2.543   7.808   2.625
 5132TIP3   OH215340   6.244   2.803   0.266
 5132TIP3    H115341   6.313   2.831   0.326
 5132TIP3    H215342   6.194   2.737   0.316
 5133TIP3   OH215343   6.878   7.578   5.859
 5133TIP3    H115344   6.782   7.575   5.854
 5133TIP3    H215345   6.907   7.509   5.799
 5134TIP3   OH215346   3.356   4.251   2.069
 5134TIP3    H115347   3.410   4.326   2.094
 5134TIP3    H215348   3.403   4.213   1.994
 5135TIP3   OH215349   6.310   4.143   5.678
 5135TIP3    H115350   6.371   4.091   5.730
 5135TIP3    H215351   6.241   4.169   5.739
 5136TIP3   OH215352   7.115   6.686   6.679
 5136TIP3    H115353   7.158   6.641   6.752
 5136TIP3    H215354   7.169   6.763   6.662
 5137TIP3   OH215355   4.750   5.377   2.766
 5137TIP3    H115356   4.700   5.459   2.761
 5137TIP3    H215357   4.810   5.382   2.691
 5138TIP3   OH215358   4.447   2.441   2.715
 5138TIP3    H115359   4.416   2.434   2.624
 5138TIP3    H215360   4.542   2.445   2.708
 5139TIP3   OH215361   7.206   2.643   2.641
 5139TIP3    H115362   7.134   2.586   2.667
 5139TIP3    H215363   7.196   2.652   2.546
 5140TIP3   OH215364   3.344   5.206   2.484
 5140TIP3    H115365   3.395   5.154   2.546
 5140TIP3    H215366   3.309   5.141   2.422
 5141TIP3   OH215367   6.820   2.615   5.295
 5141TIP3    H115368   6.898   2.570   5.262
 5141TIP3    H215369   6.751   2.593   5.232
 5142TIP3   OH215370   6.546   6.032   6.033
 5142TIP3    H115371   6.637   6.061   6.021
 5142TIP3    H215372   6.526   6.051   6.124
 5143TIP3   OH215373   7.550   2.229   2.957
 5143TIP3    H115374   7.471   2.185   2.987
 5143TIP3    H215375   7.524   2.320   2.944
 5144TIP3   OH215376   3.746   6.289   4.893
 5144TIP3    H115377   3.653   6.297   4.910
 5144TIP3    H215378   3.767   6.365   4.838
 5145TIP3   OH215379   4.720   2.468   4.974
 5145TIP3    H115380   4.637   2.488   5.017
 5145TIP3    H215381   4.748   2.553   4.938
 5146TIP3   OH215382   4.033   6.890   2.260
 5146TIP3    H115383   4.082   6.843   2.193
 5146TIP3    H215384   4.051   6.843   2.341
 5147TIP3   OH215385   3.059   3.754   4.467
 5147TIP3    H115386   3.067   3.684   4.531
 5147TIP3    H215387   3.010   3.823   4.512
 5148TIP3   OH215388   1.409   4.125   1.060
 5148TIP3    H115389   1.503   4.145   1.053
 5148TIP3    H215390   1.375   4.137   0.971
 5149TIP3   OH215391   2.763   5.139   4.017
 5149TIP3    H115392   2.840   5.097   4.056
 5149TIP3    H215393   2.732   5.077   3.951
 5150TIP3   OH215394   0.073   0.192   2.999
 5150TIP3    H115395   0.093   0.264   3.058
 5150TIP3    H215396   0.149   0.186   2.942
 5151TIP3   OH215397   6.910   3.758   5.029
 5151TIP3    H115398   6.947   3.798   4.951
 5151TIP3    H215399   6.983   3.712   5.070
 5152TIP3   OH215400   3.858   3.303   1.521
 5152TIP3    H115401   3.897   3.235   1.576
 5152TIP3    H215402   3.902   3.383   1.549
 5153TIP3   OH215403   2.097   7.435   3.384
 5153TIP3    H115404   2.044   7.509   3.353
 5153TIP3    H215405   2.036   7.381   3.434
 5154TIP3   OH215406   3.559   3.359   4.715
 5154TIP3    H115407   3.604   3.399   4.790
 5154TIP3    H215408   3.505   3.290   4.754
 5155TIP3   OH215409   5.514   1.727   2.921
 5155TIP3    H115410   5.514   1.739   2.826
 5155TIP3    H215411   5.442   1.666   2.938
 5156TIP3   OH215412   6.775   6.608   4.336
 5156TIP3    H115413   6.693   6.605   4.385
 5156TIP3    H215414   6.819   6.526   4.359
 5157TIP3   OH215415   5.664   6.290   6.431
 5157TIP3    H115416   5.606   6.251   6.366
 5157TIP3    H215417   5.689   6.217   6.488
 5158TIP3   OH215418   5.308   0.037   6.068
 5158TIP3    H115419   5.231   0.029   6.124
 5158TIP3    H215420   5.378   0.061   6.129
 5159TIP3   OH215421   2.279   3.684   2.250
 5159TIP3    H115422   2.370   3.712   2.245
 5159TIP3    H215423   2.275   3.604   2.198
 5160TIP3   OH215424   5.572   7.079   2.123
 5160TIP3    H115425   5.567   7.162   2.170
 5160TIP3    H215426   5.662   7.049   2.138
 5161TIP3   OH215427   1.242   5.757   1.506
 5161TIP3    H115428   1.224   5.845   1.473
 5161TIP3    H215429   1.242   5.701   1.429
 5162TIP3   OH215430   4.005   5.169   6.271
 5162TIP3    H115431   3.933   5.108   6.259
 5162TIP3    H215432   4.080   5.127   6.228
 5163TIP3   OH215433   0.423   4.840   1.618
 5163TIP3    H115434   0.425   4.755   1.575
 5163TIP3    H215435   0.515   4.868   1.621
 5164TIP3   OH215436   5.716   0.324   4.976
 5164TIP3    H115437   5.748   0.239   4.944
 5164TIP3    H215438   5.711   0.379   4.898
 5165TIP3   OH215439   0.052   1.974   5.922
 5165TIP3    H115440  -0.011   1.906   5.900
 5165TIP3    H215441   0.134   1.927   5.940
 5166TIP3   OH215442   6.397   5.088   5.622
 5166TIP3    H115443   6.454   5.157   5.656
 5166TIP3    H215444   6.458   5.026   5.581
 5167TIP3   OH215445   0.352   2.510   3.098
 5167TIP3    H115446   0.281   2.528   3.161
 5167TIP3    H215447   0.346   2.416   3.083
 5168TIP3   OH215448   0.009   6.332   4.833
 5168TIP3    H115449  -0.015   6.393   4.764
 5168TIP3    H215450  -0.074   6.300   4.867
 5169TIP3   OH215451   0.951   6.945   2.746
 5169TIP3    H115452   0.987   7.031   2.768
 5169TIP3    H215453   0.857   6.954   2.760
 5170TIP3   OH215454   2.749   4.881   5.470
 5170TIP3    H115455   2.837   4.845   5.464
 5170TIP3    H215456   2.692   4.805   5.455
 5171TIP3   OH215457   5.462   1.476   1.296
 5171TIP3    H115458   5.387   1.484   1.356
 5171TIP3    H215459   5.423   1.452   1.212
 5172TIP3   OH215460   7.443   3.152   3.447
 5172TIP3    H115461   7.401   3.238   3.451
 5172TIP3    H215462   7.535   3.171   3.431
 5173TIP3   OH215463   3.376   4.699   6.111
 5173TIP3    H115464   3.375   4.605   6.130
 5173TIP3    H215465   3.455   4.712   6.058
 5174TIP3   OH215466   5.849   5.583   5.298
 5174TIP3    H115467   5.767   5.632   5.292
 5174TIP3    H215468   5.842   5.517   5.229
 5175TIP3   OH215469   5.581   6.941   3.789
 5175TIP3    H115470   5.671   6.971   3.802
 5175TIP3    H215471   5.546   7.000   3.721
 5176TIP3   OH215472   2.921   0.703   6.209
 5176TIP3    H115473   2.938   0.700   6.115
 5176TIP3    H215474   2.894   0.614   6.231
 5177TIP3   OH215475   3.737   1.057   0.780
 5177TIP3    H115476   3.722   1.150   0.767
 5177TIP3    H215477   3.801   1.033   0.713
 5178TIP3   OH215478   4.493   6.040   0.206
 5178TIP3    H115479   4.561   5.991   0.160
 5178TIP3    H215480   4.482   6.120   0.154
 5179TIP3   OH215481   2.304   5.482   4.040
 5179TIP3    H115482   2.385   5.461   3.993
 5179TIP3    H215483   2.277   5.567   4.005
 5180TIP3   OH215484   0.978   1.229   4.374
 5180TIP3    H115485   0.980   1.321   4.349
 5180TIP3    H215486   1.021   1.226   4.459
 5181TIP3   OH215487   7.252   3.882   1.791
 5181TIP3    H115488   7.347   3.874   1.785
 5181TIP3    H215489   7.219   3.795   1.770
 5182TIP3   OH215490   1.922   6.387   0.635
 5182TIP3    H115491   1.922   6.477   0.604
 5182TIP3    H215492   1.840   6.379   0.684
 5183TIP3   OH215493   7.141   6.056   1.165
 5183TIP3    H115494   7.169   6.006   1.088
 5183TIP3    H215495   7.215   6.050   1.226
 5184TIP3   OH215496   2.231   0.374   0.398
 5184TIP3    H115497   2.292   0.424   0.344
 5184TIP3    H215498   2.270   0.287   0.404
 5185TIP3   OH215499   0.441   0.105   1.322
 5185TIP3    H115500   0.528   0.081   1.290
 5185TIP3    H215501   0.458   0.168   1.392
 5186TIP3   OH215502   3.493   6.979   0.639
 5186TIP3    H115503   3.475   6.885   0.635
 5186TIP3    H215504   3.449   7.016   0.563
 5187TIP3   OH215505   4.578   5.208   2.874
 5187TIP3    H115506   4.513   5.229   2.808
 5187TIP3    H215507   4.650   5.270   2.858
 5188TIP3   OH215508   5.501   2.884   2.762
 5188TIP3    H115509   5.454   2.922   2.836
 5188TIP3    H215510   5.450   2.806   2.739
 5189TIP3   OH215511   7.146   4.865   4.895
 5189TIP3    H115512   7.155   4.931   4.963
 5189TIP3    H215513   7.053   4.867   4.872
 5190TIP3   OH215514   5.310   7.739   2.717
 5190TIP3    H115515   5.268   7.680   2.654
 5190TIP3    H215516   5.334   7.684   2.791
 5191TIP3   OH215517   3.024   0.383   3.381
 5191TIP3    H115518   2.957   0.417   3.323
 5191TIP3    H215519   2.999   0.415   3.468
 5192TIP3   OH215520   4.628   1.919   3.669
 5192TIP3    H115521   4.685   1.966   3.608
 5192TIP3    H215522   4.547   1.905   3.620
 5193TIP3   OH215523   3.951   5.908   3.356
 5193TIP3    H115524   4.028   5.947   3.314
 5193TIP3    H215525   3.927   5.971   3.424
 5194TIP3   OH215526   1.997   4.357   4.934
 5194TIP3    H115527   1.908   4.330   4.958
 5194TIP3    H215528   2.005   4.332   4.842
 5195TIP3   OH215529   6.708   2.590   3.519
 5195TIP3    H115530   6.699   2.582   3.614
 5195TIP3    H215531   6.776   2.656   3.507
 5196TIP3   OH215532   2.610   1.099   1.386
 5196TIP3    H115533   2.704   1.114   1.399
 5196TIP3    H215534   2.597   1.007   1.412
 5197TIP3   OH215535   6.233   1.582   5.672
 5197TIP3    H115536   6.185   1.585   5.754
 5197TIP3    H215537   6.250   1.489   5.656
 5198TIP3   OH215538   1.635   1.815   2.539
 5198TIP3    H115539   1.672   1.834   2.625
 5198TIP3    H215540   1.619   1.721   2.539
 5199TIP3   OH215541   4.195   4.039   4.171
 5199TIP3    H115542   4.272   4.062   4.119
 5199TIP3    H215543   4.124   4.090   4.133
 5200TIP3   OH215544   2.307   5.327   4.837
 5200TIP3    H115545   2.384   5.287   4.798
 5200TIP3    H215546   2.236   5.305   4.776
 5201TIP3   OH215547   6.040   6.795   5.909
 5201TIP3    H115548   5.964   6.800   5.966
 5201TIP3    H215549   6.004   6.793   5.820
 5202TIP3   OH215550   5.475   1.298   2.924
 5202TIP3    H115551   5.430   1.334   2.848
 5202TIP3    H215552   5.512   1.215   2.894
 5203TIP3   OH215553   0.735   0.198   1.484
 5203TIP3    H115554   0.771   0.261   1.546
 5203TIP3    H215555   0.682   0.139   1.537
 5204TIP3   OH215556   2.654   1.435   2.754
 5204TIP3    H115557   2.698   1.387   2.685
 5204TIP3    H215558   2.714   1.506   2.776
 5205TIP3   OH215559   0.441   4.969   5.443
 5205TIP3    H115560   0.383   5.044   5.458
 5205TIP3    H215561   0.393   4.895   5.480
 5206TIP3   OH215562   7.781   7.286   3.568
 5206TIP3    H115563   7.697   7.291   3.613
 5206TIP3    H215564   7.842   7.328   3.628
 5207TIP3   OH215565   1.645   1.829   6.367
 5207TIP3    H115566   1.632   1.908   6.419
 5207TIP3    H215567   1.687   1.767   6.427
 5208TIP3   OH215568   1.881   5.351   6.410
 5208TIP3    H115569   1.952   5.360   6.474
 5208TIP3    H215570   1.804   5.383   6.457
 5209TIP3   OH215571   3.642   5.363   2.390
 5209TIP3    H115572   3.623   5.378   2.482
 5209TIP3    H215573   3.682   5.445   2.360
 5210TIP3   OH215574   4.362   3.600   0.559
 5210TIP3    H115575   4.320   3.573   0.640
 5210TIP3    H215576   4.453   3.572   0.568
 5211TIP3   OH215577   7.014   6.564   2.793
 5211TIP3    H115578   7.000   6.648   2.837
 5211TIP3    H215579   6.935   6.514   2.811
 5212TIP3   OH215580   2.953   6.194   1.561
 5212TIP3    H115581   2.887   6.127   1.579
 5212TIP3    H215582   2.965   6.240   1.644
 5213TIP3   OH215583   4.006   6.137   2.454
 5213TIP3    H115584   4.014   6.170   2.543
 5213TIP3    H215585   4.026   6.212   2.398
 5214TIP3   OH215586   4.750   7.829   3.959
 5214TIP3    H115587   4.813   7.860   3.894
 5214TIP3    H215588   4.707   7.755   3.918
 5215TIP3   OH215589   3.040   1.136   4.249
 5215TIP3    H115590   3.081   1.180   4.175
 5215TIP3    H215591   2.978   1.075   4.209
 5216TIP3   OH215592   3.284   1.915   6.188
 5216TIP3    H115593   3.215   1.856   6.218
 5216TIP3    H215594   3.259   2.001   6.222
 5217TIP3   OH215595   3.493   5.884   1.056
 5217TIP3    H115596   3.529   5.841   1.133
 5217TIP3    H215597   3.563   5.943   1.027
 5218TIP3   OH215598   1.005   2.695   3.637
 5218TIP3    H115599   1.036   2.783   3.617
 5218TIP3    H215600   0.952   2.671   3.560
 5219TIP3   OH215601   3.502   2.241   0.092
 5219TIP3    H115602   3.451   2.316   0.063
 5219TIP3    H215603   3.456   2.208   0.169
 5220TIP3   OH215604   1.109   2.981   0.666
 5220TIP3    H115605   1.020   2.958   0.695
 5220TIP3    H215606   1.095   3.048   0.599
 5221TIP3   OH215607   5.192   1.396   5.099
 5221TIP3    H115608   5.287   1.388   5.091
 5221TIP3    H215609   5.159   1.307   5.089
 5222TIP3   OH215610   6.705   0.244   0.825
 5222TIP3    H115611   6.659   0.251   0.742
 5222TIP3    H215612   6.678   0.323   0.874
 5223TIP3   OH215613   4.328   7.412   5.271
 5223TIP3    H115614   4.321   7.472   5.197
 5223TIP3    H215615   4.285   7.459   5.343
 5224TIP3   OH215616   0.554   6.670   3.469
 5224TIP3    H115617   0.587   6.756   3.496
 5224TIP3    H215618   0.502   6.640   3.544
 5225TIP3   OH215619   7.793   6.193   4.676
 5225TIP3    H115620   7.886   6.168   4.674
 5225TIP3    H215621   7.749   6.127   4.623
 5226TIP3   OH215622   1.931   3.459   1.675
 5226TIP3    H115623   1.942   3.505   1.592
 5226TIP3    H215624   2.019   3.426   1.696
 5227TIP3   OH215625   4.663   6.280   6.117
 5227TIP3    H115626   4.647   6.347   6.051
 5227TIP3    H215627   4.645   6.197   6.072
 5228TIP3   OH215628   3.090   5.559   1.643
 5228TIP3    H115629   3.018   5.604   1.600
 5228TIP3    H215630   3.057   5.540   1.731
 5229TIP3   OH215631   2.521   7.252   3.297
 5229TIP3    H115632   2.592   7.264   3.360
 5229TIP3    H215633   2.561   7.203   3.225
 5230TIP3   OH215634   4.377   0.267   1.402
 5230TIP3    H115635   4.449   0.306   1.453
 5230TIP3    H215636   4.322   0.225   1.467
 5231TIP3   OH215637   3.175   7.772   2.441
 5231TIP3    H115638   3.197   7.723   2.361
 5231TIP3    H215639   3.094   7.732   2.472
 5232TIP3   OH215640   0.091   1.140   5.542
 5232TIP3    H115641   0.086   1.182   5.456
 5232TIP3    H215642   0.066   1.050   5.526
 5233TIP3   OH215643   8.005   2.945   1.059
 5233TIP3    H115644   7.912   2.948   1.033
 5233TIP3    H215645   8.004   2.956   1.154
 5234TIP3   OH215646   1.741   3.806   4.904
 5234TIP3    H115647   1.783   3.882   4.944
 5234TIP3    H215648   1.655   3.801   4.947
 5235TIP3   OH215649   8.071   1.691   3.692
 5235TIP3    H115650   8.099   1.645   3.613
 5235TIP3    H215651   8.153   1.726   3.729
 5236TIP3   OH215652   1.661   1.451   6.310
 5236TIP3    H115653   1.691   1.382   6.370
 5236TIP3    H215654   1.565   1.447   6.315
 5237TIP3   OH215655   7.442   2.108   5.502
 5237TIP3    H115656   7.354   2.083   5.531
 5237TIP3    H215657   7.465   2.184   5.555
 5238TIP3   OH215658   3.930   1.500   6.088
 5238TIP3    H115659   3.900   1.560   6.156
 5238TIP3    H215660   4.025   1.510   6.087
 5239TIP3   OH215661   7.275   6.778   5.289
 5239TIP3    H115662   7.336   6.820   5.350
 5239TIP3    H215663   7.324   6.769   5.208
 5240TIP3   OH215664   3.504   7.386   2.523
 5240TIP3    H115665   3.442   7.403   2.452
 5240TIP3    H215666   3.460   7.419   2.601
 5241TIP3   OH215667   5.711   7.342   3.884
 5241TIP3    H115668   5.791   7.307   3.921
 5241TIP3    H215669   5.660   7.370   3.961
 5242TIP3   OH215670   6.434   2.610   4.350
 5242TIP3    H115671   6.364   2.621   4.284
 5242TIP3    H215672   6.403   2.660   4.426
 5243TIP3   OH215673   3.990   3.227   1.018
 5243TIP3    H115674   3.917   3.267   0.971
 5243TIP3    H215675   3.963   3.136   1.033
 5244TIP3   OH215676   7.254   0.596   4.778
 5244TIP3    H115677   7.340   0.555   4.770
 5244TIP3    H215678   7.259   0.648   4.858
 5245TIP3   OH215679   6.736   4.371   4.470
 5245TIP3    H115680   6.783   4.431   4.527
 5245TIP3    H215681   6.748   4.407   4.382
 5246TIP3   OH215682   1.347   5.007   2.232
 5246TIP3    H115683   1.280   5.075   2.238
 5246TIP3    H215684   1.301   4.927   2.256
 5247TIP3   OH215685   0.433   3.296   6.527
 5247TIP3    H115686   0.411   3.242   6.604
 5247TIP3    H215687   0.365   3.274   6.463
 5248TIP3   OH215688   0.105   2.104   4.032
 5248TIP3    H115689   0.136   2.131   4.118
 5248TIP3    H215690   0.096   2.186   3.983
 5249TIP3   OH215691   1.700   3.535   5.819
 5249TIP3    H115692   1.687   3.625   5.849
 5249TIP3    H215693   1.625   3.518   5.762
 5250TIP3   OH215694   7.048   2.336   1.817
 5250TIP3    H115695   6.971   2.365   1.866
 5250TIP3    H215696   7.024   2.351   1.725
 5251TIP3   OH215697   4.263   4.686   6.025
 5251TIP3    H115698   4.323   4.725   6.089
 5251TIP3    H215699   4.320   4.655   5.954
 5252TIP3   OH215700   7.691   5.514   0.703
 5252TIP3    H115701   7.769   5.505   0.757
 5252TIP3    H215702   7.654   5.600   0.728
 5253TIP3   OH215703   4.588   1.281   1.303
 5253TIP3    H115704   4.581   1.203   1.358
 5253TIP3    H215705   4.561   1.251   1.216
 5254TIP3   OH215706   0.186   7.519   1.910
 5254TIP3    H115707   0.200   7.548   2.000
 5254TIP3    H215708   0.262   7.464   1.890
 5255TIP3   OH215709   0.322   2.803   4.761
 5255TIP3    H115710   0.392   2.861   4.792
 5255TIP3    H215711   0.361   2.756   4.687
 5256TIP3   OH215712   3.516   0.448   6.426
 5256TIP3    H115713   3.442   0.491   6.385
 5256TIP3    H215714   3.483   0.420   6.511
 5257TIP3   OH215715   4.397   1.835   1.428
 5257TIP3    H115716   4.369   1.770   1.492
 5257TIP3    H215717   4.320   1.850   1.373
 5258TIP3   OH215718   3.985   2.627   2.978
 5258TIP3    H115719   3.999   2.595   3.067
 5258TIP3    H215720   3.977   2.548   2.925
 5259TIP3   OH215721   7.171   3.595   1.783
 5259TIP3    H115722   7.187   3.581   1.876
 5259TIP3    H215723   7.076   3.604   1.775
 5260TIP3   OH215724   4.680   4.057   3.548
 5260TIP3    H115725   4.722   4.061   3.634
 5260TIP3    H215726   4.628   3.977   3.551
 5261TIP3   OH215727   5.608   4.435   1.160
 5261TIP3    H115728   5.540   4.374   1.131
 5261TIP3    H215729   5.575   4.521   1.135
 5262TIP3   OH215730   6.308   3.444   5.880
 5262TIP3    H115731   6.280   3.521   5.831
 5262TIP3    H215732   6.323   3.377   5.813
 5263TIP3   OH215733   3.195   3.795   2.496
 5263TIP3    H115734   3.180   3.754   2.581
 5263TIP3    H215735   3.201   3.889   2.515
 5264TIP3   OH215736   5.435   2.524   0.326
 5264TIP3    H115737   5.411   2.590   0.391
 5264TIP3    H215738   5.389   2.550   0.246
 5265TIP3   OH215739   2.438   4.285   1.612
 5265TIP3    H115740   2.441   4.374   1.574
 5265TIP3    H215741   2.495   4.290   1.688
 5266TIP3   OH215742   0.609   5.121   0.659
 5266TIP3    H115743   0.654   5.064   0.722
 5266TIP3    H215744   0.649   5.207   0.671
 5267TIP3   OH215745   7.690   0.579   3.739
 5267TIP3    H115746   7.778   0.600   3.770
 5267TIP3    H215747   7.690   0.603   3.647
 5268TIP3   OH215748   6.210   5.721   5.385
 5268TIP3    H115749   6.301   5.693   5.400
 5268TIP3    H215750   6.207   5.742   5.292
 5269TIP3   OH215751   5.557   3.436   6.676
 5269TIP3    H115752   5.571   3.344   6.697
 5269TIP3    H215753   5.498   3.468   6.744
 5270TIP3   OH215754   6.822   0.552   0.502
 5270TIP3    H115755   6.861   0.506   0.427
 5270TIP3    H215756   6.745   0.500   0.525
 5271TIP3   OH215757   5.878   6.681   4.107
 5271TIP3    H115758   5.784   6.692   4.091
 5271TIP3    H215759   5.887   6.687   4.202
 5272TIP3   OH215760   7.302   2.065   3.367
 5272TIP3    H115761   7.292   2.117   3.287
 5272TIP3    H215762   7.327   2.129   3.434
 5273TIP3   OH215763   2.434   5.463   2.793
 5273TIP3    H115764   2.378   5.509   2.855
 5273TIP3    H215765   2.512   5.439   2.844
 5274TIP3   OH215766   8.061   4.919   1.482
 5274TIP3    H115767   8.147   4.962   1.486
 5274TIP3    H215768   8.029   4.919   1.572
 5275TIP3   OH215769   0.186   6.646   6.503
 5275TIP3    H115770   0.231   6.716   6.455
 5275TIP3    H215771   0.102   6.637   6.459
 5276TIP3   OH215772   3.371   6.278   1.763
 5276TIP3    H115773   3.323   6.206   1.804
 5276TIP3    H215774   3.318   6.303   1.687
 5277TIP3   OH215775   5.244   0.559   6.611
 5277TIP3    H115776   5.233   0.471   6.575
 5277TIP3    H215777   5.236   0.547   6.705
 5278TIP3   OH215778   0.468   7.225   2.584
 5278TIP3    H115779   0.562   7.215   2.571
 5278TIP3    H215780   0.429   7.162   2.523
 5279TIP3   OH215781   2.733   0.221   5.763
 5279TIP3    H115782   2.743   0.208   5.858
 5279TIP3    H215783   2.665   0.287   5.755
 5280TIP3   OH215784   4.423   1.649   6.324
 5280TIP3    H115785   4.463   1.618   6.242
 5280TIP3    H215786   4.447   1.742   6.328
 5281TIP3   OH215787   4.293   2.623   2.211
 5281TIP3    H115788   4.226   2.559   2.236
 5281TIP3    H215789   4.332   2.650   2.295
 5282TIP3   OH215790   1.293   3.939   5.422
 5282TIP3    H115791   1.252   3.922   5.337
 5282TIP3    H215792   1.222   3.925   5.485
 5283TIP3   OH215793   0.593   1.893   2.834
 5283TIP3    H115794   0.669   1.907   2.777
 5283TIP3    H215795   0.550   1.815   2.798
 5284TIP3   OH215796   2.140   0.167   2.378
 5284TIP3    H115797   2.092   0.158   2.296
 5284TIP3    H215798   2.075   0.147   2.446
 5285TIP3   OH215799   3.448   0.804   5.843
 5285TIP3    H115800   3.411   0.779   5.758
 5285TIP3    H215801   3.479   0.722   5.880
 5286TIP3   OH215802   7.744   1.366   6.085
 5286TIP3    H115803   7.837   1.355   6.062
 5286TIP3    H215804   7.701   1.289   6.049
 5287TIP3   OH215805   4.830   1.372   2.052
 5287TIP3    H115806   4.846   1.308   2.121
 5287TIP3    H215807   4.861   1.455   2.087
 5288TIP3   OH215808   4.621   7.702   5.919
 5288TIP3    H115809   4.670   7.725   5.998
 5288TIP3    H215810   4.685   7.712   5.848
 5289TIP3   OH215811   6.416   0.997   1.305
 5289TIP3    H115812   6.328   0.979   1.271
 5289TIP3    H215813   6.438   0.919   1.357
 5290TIP3   OH215814   2.774   4.132   1.121
 5290TIP3    H115815   2.756   4.136   1.027
 5290TIP3    H215816   2.766   4.223   1.150
 5291TIP3   OH215817   1.122   2.488   2.993
 5291TIP3    H115818   1.074   2.526   2.920
 5291TIP3    H215819   1.162   2.564   3.037
 5292TIP3   OH215820   4.516   0.240   0.858
 5292TIP3    H115821   4.468   0.160   0.883
 5292TIP3    H215822   4.462   0.311   0.894
 5293TIP3   OH215823   7.683   7.635   0.402
 5293TIP3    H115824   7.653   7.725   0.416
 5293TIP3    H215825   7.703   7.631   0.309
 5294TIP3   OH215826   6.719   4.011   1.819
 5294TIP3    H115827   6.716   4.030   1.913
 5294TIP3    H215828   6.673   4.085   1.779
 5295TIP3   OH215829   4.423   0.745   4.403
 5295TIP3    H115830   4.414   0.678   4.471
 5295TIP3    H215831   4.376   0.710   4.328
 5296TIP3   OH215832   0.435   5.834   2.827
 5296TIP3    H115833   0.401   5.766   2.884
 5296TIP3    H215834   0.529   5.815   2.818
 5297TIP3   OH215835   6.026   6.347   4.148
 5297TIP3    H115836   5.990   6.303   4.225
 5297TIP3    H215837   6.097   6.402   4.182
 5298TIP3   OH215838   2.062   1.143   0.607
 5298TIP3    H115839   1.969   1.136   0.630
 5298TIP3    H215840   2.062   1.154   0.511
 5299TIP3   OH215841   4.316   2.778   1.809
 5299TIP3    H115842   4.338   2.789   1.717
 5299TIP3    H215843   4.385   2.720   1.843
 5300TIP3   OH215844   2.328   1.842   2.587
 5300TIP3    H115845   2.366   1.755   2.584
 5300TIP3    H215846   2.390   1.898   2.541
 5301TIP3   OH215847   0.258   5.434   0.167
 5301TIP3    H115848   0.181   5.479   0.201
 5301TIP3    H215849   0.310   5.414   0.244
 5302TIP3   OH215850   6.724   3.578   0.927
 5302TIP3    H115851   6.772   3.614   0.852
 5302TIP3    H215852   6.784   3.514   0.966
 5303TIP3   OH215853   1.880   0.144   1.854
 5303TIP3    H115854   1.948   0.193   1.902
 5303TIP3    H215855   1.798   0.184   1.881
 5304TIP3   OH215856   0.287   4.226   0.054
 5304TIP3    H115857   0.312   4.133   0.051
 5304TIP3    H215858   0.209   4.229   0.108
 5305TIP3   OH215859   1.843   1.337   0.745
 5305TIP3    H115860   1.782   1.409   0.761
 5305TIP3    H215861   1.819   1.303   0.659
 5306TIP3   OH215862   3.976   7.573   2.722
 5306TIP3    H115863   4.032   7.549   2.796
 5306TIP3    H215864   3.899   7.612   2.763
 5307TIP3   OH215865   4.319   6.745   0.376
 5307TIP3    H115866   4.274   6.828   0.390
 5307TIP3    H215867   4.393   6.767   0.320
 5308TIP3   OH215868   0.278   0.445   4.468
 5308TIP3    H115869   0.333   0.440   4.547
 5308TIP3    H215870   0.243   0.533   4.469
 5309TIP3   OH215871   5.631   1.876   1.677
 5309TIP3    H115872   5.671   1.945   1.622
 5309TIP3    H215873   5.704   1.842   1.728
 5310TIP3   OH215874   2.532   6.847   4.174
 5310TIP3    H115875   2.491   6.890   4.248
 5310TIP3    H215876   2.460   6.835   4.111
 5311TIP3   OH215877   1.849   0.626   6.167
 5311TIP3    H115878   1.944   0.618   6.171
 5311TIP3    H215879   1.817   0.565   6.233
 5312TIP3   OH215880   3.992   0.687   4.007
 5312TIP3    H115881   4.055   0.681   4.079
 5312TIP3    H215882   3.934   0.612   4.020
 5313TIP3   OH215883   1.792   2.748   4.152
 5313TIP3    H115884   1.820   2.699   4.075
 5313TIP3    H215885   1.872   2.787   4.187
 5314TIP3   OH215886   0.046   4.923   4.725
 5314TIP3    H115887   0.017   5.003   4.768
 5314TIP3    H215888  -0.028   4.863   4.731
 5315TIP3   OH215889   1.680   4.251   0.279
 5315TIP3    H115890   1.762   4.209   0.302
 5315TIP3    H215891   1.701   4.345   0.277
 5316TIP3   OH215892   5.069   6.597   5.561
 5316TIP3    H115893   5.024   6.637   5.487
 5316TIP3    H215894   5.000   6.577   5.624
 5317TIP3   OH215895   8.240   3.342   4.727
 5317TIP3    H115896   8.162   3.322   4.675
 5317TIP3    H215897   8.272   3.257   4.757
 5318TIP3   OH215898   7.630   2.027   6.725
 5318TIP3    H115899   7.676   1.944   6.711
 5318TIP3    H215900   7.537   2.003   6.727
 5319TIP3   OH215901   7.509   4.369   1.364
 5319TIP3    H115902   7.497   4.293   1.307
 5319TIP3    H215903   7.529   4.331   1.449
 5320TIP3   OH215904   6.951   5.087   3.380
 5320TIP3    H115905   6.927   5.164   3.431
 5320TIP3    H215906   6.879   5.026   3.393
 5321TIP3   OH215907   2.733   3.029   1.998
 5321TIP3    H115908   2.771   3.091   2.061
 5321TIP3    H215909   2.697   3.084   1.929
 5322TIP3   OH215910   5.229   3.049   0.557
 5322TIP3    H115911   5.168   3.114   0.521
 5322TIP3    H215912   5.194   2.965   0.529
 5323TIP3   OH215913   5.255   6.827   2.822
 5323TIP3    H115914   5.292   6.758   2.876
 5323TIP3    H215915   5.308   6.827   2.742
 5324TIP3   OH215916   2.920   6.886   5.600
 5324TIP3    H115917   2.987   6.925   5.657
 5324TIP3    H215918   2.965   6.816   5.554
 5325TIP3   OH215919   2.462   0.026   5.900
 5325TIP3    H115920   2.413   0.101   5.865
 5325TIP3    H215921   2.503  -0.013   5.822
 5326TIP3   OH215922   0.794   0.543   5.445
 5326TIP3    H115923   0.740   0.516   5.519
 5326TIP3    H215924   0.791   0.638   5.446
 5327TIP3   OH215925   6.148   1.738   5.461
 5327TIP3    H115926   6.053   1.747   5.464
 5327TIP3    H215927   6.167   1.670   5.525
 5328TIP3   OH215928   0.561   4.114   1.484
 5328TIP3    H115929   0.650   4.149   1.485
 5328TIP3    H215930   0.508   4.185   1.447
 5329TIP3   OH215931   3.223   0.827   6.017
 5329TIP3    H115932   3.304   0.833   6.069
 5329TIP3    H215933   3.246   0.867   5.933
 5330TIP3   OH215934   0.670   6.070   1.186
 5330TIP3    H115935   0.684   6.163   1.204
 5330TIP3    H215936   0.597   6.068   1.125
 5331TIP3   OH215937   0.166   5.994   4.065
 5331TIP3    H115938   0.136   5.915   4.021
 5331TIP3    H215939   0.189   5.966   4.154
 5332TIP3   OH215940   7.268   2.424   0.219
 5332TIP3    H115941   7.245   2.507   0.178
 5332TIP3    H215942   7.252   2.438   0.312
 5333TIP3   OH215943   6.191   2.407   0.414
 5333TIP3    H115944   6.100   2.430   0.396
 5333TIP3    H215945   6.190   2.368   0.501
 5334TIP3   OH215946   7.292   1.378   5.046
 5334TIP3    H115947   7.381   1.395   5.013
 5334TIP3    H215948   7.281   1.440   5.118
 5335TIP3   OH215949   1.867   7.574   3.202
 5335TIP3    H115950   1.894   7.660   3.232
 5335TIP3    H215951   1.785   7.556   3.249
 5336TIP3   OH215952   2.629   7.808   3.829
 5336TIP3    H115953   2.554   7.792   3.887
 5336TIP3    H215954   2.660   7.720   3.807
 5337TIP3   OH215955   6.550   7.373   5.689
 5337TIP3    H115956   6.529   7.311   5.619
 5337TIP3    H215957   6.573   7.317   5.764
 5338TIP3   OH215958   2.346   3.130   0.452
 5338TIP3    H115959   2.397   3.078   0.390
 5338TIP3    H215960   2.269   3.159   0.403
 5339TIP3   OH215961   3.698   5.635   2.412
 5339TIP3    H115962   3.742   5.622   2.496
 5339TIP3    H215963   3.607   5.656   2.436
 5340TIP3   OH215964   6.532   4.123   6.233
 5340TIP3    H115965   6.574   4.077   6.305
 5340TIP3    H215966   6.456   4.070   6.210
 5341TIP3   OH215967   3.993   7.713   5.117
 5341TIP3    H115968   4.005   7.618   5.105
 5341TIP3    H215969   4.011   7.728   5.209
 5342TIP3   OH215970   4.840   4.808   3.975
 5342TIP3    H115971   4.901   4.864   3.927
 5342TIP3    H215972   4.762   4.861   3.986
 5343TIP3   OH215973   6.802   6.306   4.331
 5343TIP3    H115974   6.802   6.264   4.245
 5343TIP3    H215975   6.718   6.279   4.369
 5344TIP3   OH215976   3.311   6.443   5.548
 5344TIP3    H115977   3.353   6.359   5.563
 5344TIP3    H215978   3.383   6.504   5.532
 5345TIP3   OH215979   1.285   2.361   5.936
 5345TIP3    H115980   1.281   2.435   5.876
 5345TIP3    H215981   1.215   2.378   5.999
 5346TIP3   OH215982   1.614   0.095   2.114
 5346TIP3    H115983   1.634   0.139   2.032
 5346TIP3    H215984   1.520   0.075   2.108
 5347TIP3   OH215985   6.773   7.456   6.133
 5347TIP3    H115986   6.732   7.523   6.077
 5347TIP3    H215987   6.750   7.482   6.222
 5348TIP3   OH215988   1.316   3.637   2.148
 5348TIP3    H115989   1.229   3.600   2.157
 5348TIP3    H215990   1.368   3.570   2.104
 5349TIP3   OH215991   8.126   6.390   2.900
 5349TIP3    H115992   8.183   6.316   2.920
 5349TIP3    H215993   8.060   6.354   2.841
 5350TIP3   OH215994   0.603   2.717   0.331
 5350TIP3    H115995   0.552   2.717   0.412
 5350TIP3    H215996   0.648   2.802   0.331
 5351TIP3   OH215997   7.717   2.797   4.425
 5351TIP3    H115998   7.803   2.769   4.455
 5351TIP3    H215999   7.689   2.730   4.364
 5352TIP3   OH216000   5.173   6.127   4.105
 5352TIP3    H116001   5.079   6.114   4.114
 5352TIP3    H216002   5.189   6.214   4.144
 5353TIP3   OH216003   3.887   5.576  -0.004
 5353TIP3    H116004   3.818   5.514   0.016
 5353TIP3    H216005   3.895   5.629   0.076
 5354TIP3   OH216006   7.609   3.458   3.597
 5354TIP3    H116007   7.647   3.410   3.671
 5354TIP3    H216008   7.684   3.499   3.555
 5355TIP3   OH216009   6.214   6.237   2.852
 5355TIP3    H116010   6.220   6.314   2.909
 5355TIP3    H216011   6.120   6.225   2.839
 5356TIP3   OH216012   3.586   4.615   0.869
 5356TIP3    H116013   3.570   4.708   0.855
 5356TIP3    H216014   3.532   4.592   0.945
 5357TIP3   OH216015   3.574   2.317   3.472
 5357TIP3    H116016   3.536   2.338   3.558
 5357TIP3    H216017   3.661   2.282   3.492
 5358TIP3   OH216018   5.868   1.849   0.891
 5358TIP3    H116019   5.830   1.762   0.878
 5358TIP3    H216020   5.955   1.832   0.927
 5359TIP3   OH216021   8.162   1.656   5.628
 5359TIP3    H116022   8.080   1.673   5.581
 5359TIP3    H216023   8.185   1.567   5.604
 5360TIP3   OH216024   7.507   5.617   6.547
 5360TIP3    H116025   7.501   5.611   6.452
 5360TIP3    H216026   7.514   5.711   6.566
 5361TIP3   OH216027   1.286   2.376   4.937
 5361TIP3    H116028   1.341   2.449   4.966
 5361TIP3    H216029   1.272   2.391   4.844
 5362TIP3   OH216030   7.185   4.009   0.984
 5362TIP3    H116031   7.176   3.973   0.895
 5362TIP3    H216032   7.100   4.047   1.003
 5363TIP3   OH216033   5.256   6.393   5.513
 5363TIP3    H116034   5.225   6.313   5.470
 5363TIP3    H216035   5.178   6.446   5.527
 5364TIP3   OH216036   6.921   0.182   0.386
 5364TIP3    H116037   6.843   0.135   0.414
 5364TIP3    H216038   6.893   0.273   0.381
 5365TIP3   OH216039   3.924   3.170   2.463
 5365TIP3    H116040   3.964   3.157   2.377
 5365TIP3    H216041   3.971   3.111   2.521
 5366TIP3   OH216042   2.475   0.451   3.306
 5366TIP3    H116043   2.525   0.530   3.285
 5366TIP3    H216044   2.506   0.426   3.393
 5367TIP3   OH216045   1.165   3.407   0.374
 5367TIP3    H116046   1.127   3.490   0.346
 5367TIP3    H216047   1.224   3.432   0.446
 5368TIP3   OH216048   5.068   2.928   4.596
 5368TIP3    H116049   5.146   2.959   4.550
 5368TIP3    H216050   5.077   2.833   4.598
 5369TIP3   OH216051   4.410   4.787   1.313
 5369TIP3    H116052   4.482   4.724   1.312
 5369TIP3    H216053   4.444   4.864   1.269
 5370TIP3   OH216054   8.086   1.298   0.227
 5370TIP3    H116055   8.004   1.344   0.243
 5370TIP3    H216056   8.072   1.253   0.143
 5371TIP3   OH216057   7.587   7.230   2.333
 5371TIP3    H116058   7.542   7.152   2.299
 5371TIP3    H216059   7.521   7.273   2.387
 5372TIP3   OH216060   5.715   6.861   5.938
 5372TIP3    H116061   5.673   6.791   5.988
 5372TIP3    H216062   5.733   6.929   6.002
 5373TIP3   OH216063   8.121   0.835   0.141
 5373TIP3    H116064   8.086   0.861   0.226
 5373TIP3    H216065   8.185   0.767   0.162
 5374TIP3   OH216066   7.994   0.640   3.460
 5374TIP3    H116067   8.037   0.677   3.383
 5374TIP3    H216068   7.901   0.659   3.447
 5375TIP3   OH216069   1.901   4.688   0.499
 5375TIP3    H116070   1.926   4.611   0.550
 5375TIP3    H216071   1.958   4.685   0.422
 5376TIP3   OH216072   5.288   4.001   4.580
 5376TIP3    H116073   5.209   4.020   4.629
 5376TIP3    H216074   5.351   4.067   4.609
 5377TIP3   OH216075   0.594   0.103   4.574
 5377TIP3    H116076   0.605   0.119   4.480
 5377TIP3    H216077   0.532   0.170   4.602
 5378TIP3   OH216078   1.421   5.122   0.244
 5378TIP3    H116079   1.492   5.141   0.306
 5378TIP3    H216080   1.452   5.157   0.161
 5379TIP3   OH216081   1.363   0.904   3.883
 5379TIP3    H116082   1.409   0.929   3.964
 5379TIP3    H216083   1.311   0.828   3.908
 5380TIP3   OH216084   2.452   6.517   1.947
 5380TIP3    H116085   2.536   6.494   1.988
 5380TIP3    H216086   2.476   6.543   1.858
 5381TIP3   OH216087   1.090   7.731   3.850
 5381TIP3    H116088   1.055   7.651   3.890
 5381TIP3    H216089   1.122   7.782   3.924
 5382TIP3   OH216090   7.047   1.753   4.728
 5382TIP3    H116091   6.988   1.691   4.686
 5382TIP3    H216092   7.039   1.736   4.821
 5383TIP3   OH216093   6.519   4.870   5.154
 5383TIP3    H116094   6.469   4.815   5.214
 5383TIP3    H216095   6.605   4.829   5.148
 5384TIP3   OH216096   6.271   6.136   0.620
 5384TIP3    H116097   6.237   6.151   0.708
 5384TIP3    H216098   6.197   6.154   0.562
 5385TIP3   OH216099   2.615   4.193   1.422
 5385TIP3    H116100   2.568   4.212   1.503
 5385TIP3    H216101   2.646   4.278   1.391
 5386TIP3   OH216102   5.687   3.000   0.375
 5386TIP3    H116103   5.683   3.051   0.455
 5386TIP3    H216104   5.638   3.052   0.311
 5387TIP3   OH216105   4.365   3.213   2.932
 5387TIP3    H116106   4.291   3.240   2.986
 5387TIP3    H216107   4.354   3.118   2.922
 5388TIP3   OH216108   2.549   1.299   5.764
 5388TIP3    H116109   2.549   1.255   5.679
 5388TIP3    H216110   2.489   1.247   5.818
 5389TIP3   OH216111   5.745   3.092   2.431
 5389TIP3    H116112   5.778   3.092   2.342
 5389TIP3    H216113   5.674   3.156   2.430
 5390TIP3   OH216114   2.001   3.568   0.422
 5390TIP3    H116115   1.951   3.634   0.469
 5390TIP3    H216116   1.951   3.552   0.342
 5391TIP3   OH216117   4.017   0.039   5.697
 5391TIP3    H116118   4.021  -0.056   5.693
 5391TIP3    H216119   4.091   0.064   5.753
 5392TIP3   OH216120   0.112   5.708   3.122
 5392TIP3    H116121   0.132   5.779   3.061
 5392TIP3    H216122   0.179   5.643   3.107
 5393TIP3   OH216123   0.961   1.930   3.115
 5393TIP3    H116124   0.944   2.016   3.153
 5393TIP3    H216125   0.945   1.942   3.021
 5394TIP3   OH216126   7.788   2.765   5.663
 5394TIP3    H116127   7.870   2.803   5.631
 5394TIP3    H216128   7.761   2.824   5.733
 5395TIP3   OH216129   5.845   6.904   4.891
 5395TIP3    H116130   5.757   6.902   4.927
 5395TIP3    H216131   5.867   6.998   4.885
 5396TIP3   OH216132   1.301   6.393   3.128
 5396TIP3    H116133   1.266   6.425   3.045
 5396TIP3    H216134   1.229   6.403   3.191
 5397TIP3   OH216135   4.830   6.794   1.080
 5397TIP3    H116136   4.787   6.712   1.105
 5397TIP3    H216137   4.890   6.770   1.009
 5398TIP3   OH216138   4.636   4.576   2.646
 5398TIP3    H116139   4.652   4.541   2.734
 5398TIP3    H216140   4.702   4.644   2.635
 5399TIP3   OH216141   6.345   6.595   0.630
 5399TIP3    H116142   6.348   6.660   0.700
 5399TIP3    H216143   6.252   6.588   0.608
 5400TIP3   OH216144   7.503   6.688   1.331
 5400TIP3    H116145   7.545   6.681   1.417
 5400TIP3    H216146   7.568   6.733   1.276
 5401TIP3   OH216147   8.275   3.576   3.072
 5401TIP3    H116148   8.217   3.609   3.140
 5401TIP3    H216149   8.286   3.649   3.012
 5402TIP3   OH216150   6.795   1.060   6.015
 5402TIP3    H116151   6.729   1.088   6.079
 5402TIP3    H216152   6.789   0.965   6.014
 5403TIP3   OH216153   0.034   1.191   2.649
 5403TIP3    H116154   0.061   1.099   2.639
 5403TIP3    H216155  -0.058   1.185   2.676
 5404TIP3   OH216156   7.372   2.149   0.721
 5404TIP3    H116157   7.394   2.103   0.802
 5404TIP3    H216158   7.431   2.111   0.655
 5405TIP3   OH216159   2.860   6.400   5.470
 5405TIP3    H116160   2.776   6.364   5.440
 5405TIP3    H216161   2.835   6.469   5.531
 5406TIP3   OH216162   7.396   7.598   0.176
 5406TIP3    H116163   7.350   7.667   0.128
 5406TIP3    H216164   7.379   7.618   0.269
 5407TIP3   OH216165   3.344   6.275   6.434
 5407TIP3    H116166   3.436   6.258   6.453
 5407TIP3    H216167   3.307   6.305   6.517
 5408TIP3   OH216168   3.510   0.393   3.970
 5408TIP3    H116169   3.510   0.310   4.017
 5408TIP3    H216170   3.557   0.375   3.888
 5409TIP3   OH216171   1.047   3.960   1.425
 5409TIP3    H116172   0.958   3.938   1.398
 5409TIP3    H216173   1.066   4.043   1.383
 5410TIP3   OH216174   7.385   1.430   5.799
 5410TIP3    H116175   7.402   1.523   5.785
 5410TIP3    H216176   7.317   1.408   5.736
 5411TIP3   OH216177   3.815   1.713   4.055
 5411TIP3    H116178   3.722   1.707   4.080
 5411TIP3    H216179   3.863   1.696   4.137
 5412TIP3   OH216180   6.273   1.552   3.088
 5412TIP3    H116181   6.177   1.550   3.085
 5412TIP3    H216182   6.294   1.571   3.179
 5413TIP3   OH216183   0.795   1.069   5.599
 5413TIP3    H116184   0.818   1.096   5.510
 5413TIP3    H216185   0.735   1.137   5.630
 5414TIP3   OH216186   6.024   7.446   0.147
 5414TIP3    H116187   6.085   7.516   0.123
 5414TIP3    H216188   5.941   7.471   0.107
 5415TIP3   OH216189   2.521   5.246   3.759
 5415TIP3    H116190   2.531   5.329   3.713
 5415TIP3    H216191   2.608   5.226   3.794
 5416TIP3   OH216192   0.291   6.062   2.803
 5416TIP3    H116193   0.344   6.113   2.741
 5416TIP3    H216194   0.326   5.974   2.798
 5417TIP3   OH216195   2.776   3.928   3.779
 5417TIP3    H116196   2.703   3.927   3.841
 5417TIP3    H216197   2.851   3.898   3.829
 5418TIP3   OH216198   2.904   7.266   5.437
 5418TIP3    H116199   2.845   7.321   5.489
 5418TIP3    H216200   2.856   7.247   5.357
 5419TIP3   OH216201   5.359   5.956   2.876
 5419TIP3    H116202   5.342   5.902   2.953
 5419TIP3    H216203   5.453   5.970   2.877
 5420TIP3   OH216204   7.762   7.775   0.990
 5420TIP3    H116205   7.681   7.817   1.019
 5420TIP3    H216206   7.737   7.683   0.978
 5421TIP3   OH216207   4.437   4.667   0.443
 5421TIP3    H116208   4.531   4.688   0.445
 5421TIP3    H216209   4.423   4.617   0.524
 5422TIP3   OH216210   3.266   5.961   5.135
 5422TIP3    H116211   3.186   6.014   5.137
 5422TIP3    H216212   3.321   5.997   5.205
 5423TIP3   OH216213   2.261   6.782   2.384
 5423TIP3    H116214   2.215   6.708   2.424
 5423TIP3    H216215   2.194   6.848   2.368
 5424TIP3   OH216216   1.342   4.478   1.049
 5424TIP3    H116217   1.247   4.475   1.040
 5424TIP3    H216218   1.358   4.450   1.140
 5425TIP3   OH216219   4.852   2.043   4.446
 5425TIP3    H116220   4.820   2.133   4.453
 5425TIP3    H216221   4.920   2.036   4.513
 5426TIP3   OH216222   8.111   7.439   0.667
 5426TIP3    H116223   8.150   7.374   0.609
 5426TIP3    H216224   8.021   7.449   0.637
 5427TIP3   OH216225   7.227   1.035   6.233
 5427TIP3    H116226   7.228   1.023   6.138
 5427TIP3    H216227   7.135   1.038   6.256
 5428TIP3   OH216228   0.143   2.214   6.342
 5428TIP3    H116229   0.121   2.185   6.431
 5428TIP3    H216230   0.144   2.310   6.347
 5429TIP3   OH216231   8.214   2.120   6.101
 5429TIP3    H116232   8.276   2.075   6.043
 5429TIP3    H216233   8.133   2.070   6.092
 5430TIP3   OH216234   3.366   5.909   6.327
 5430TIP3    H116235   3.377   5.926   6.421
 5430TIP3    H216236   3.369   5.814   6.319
 5431TIP3   OH216237   0.936   3.285   2.991
 5431TIP3    H116238   0.979   3.203   3.017
 5431TIP3    H216239   0.875   3.304   3.061
 5432TIP3   OH216240   5.272   0.480   5.637
 5432TIP3    H116241   5.222   0.418   5.585
 5432TIP3    H216242   5.363   0.453   5.626
 5433TIP3   OH216243   2.107   1.306   3.604
 5433TIP3    H116244   2.100   1.385   3.551
 5433TIP3    H216245   2.017   1.278   3.618
 5434TIP3   OH216246   0.405   4.904   0.404
 5434TIP3    H116247   0.407   4.947   0.318
 5434TIP3    H216248   0.495   4.879   0.420
 5435TIP3   OH216249   2.443   7.422   5.981
 5435TIP3    H116250   2.399   7.507   5.971
 5435TIP3    H216251   2.532   7.437   5.950
 5436TIP3   OH216252   2.502   0.982   1.734
 5436TIP3    H116253   2.491   0.977   1.829
 5436TIP3    H216254   2.436   1.045   1.705
 5437TIP3   OH216255   0.283   1.285   5.206
 5437TIP3    H116256   0.259   1.376   5.187
 5437TIP3    H216257   0.205   1.235   5.183
 5438TIP3   OH216258   8.051   4.356   2.419
 5438TIP3    H116259   7.977   4.344   2.479
 5438TIP3    H216260   8.030   4.436   2.371
 5439TIP3   OH216261   1.443   2.493   6.246
 5439TIP3    H116262   1.389   2.572   6.239
 5439TIP3    H216263   1.407   2.447   6.322
 5440TIP3   OH216264   0.720   3.307   4.712
 5440TIP3    H116265   0.635   3.341   4.684
 5440TIP3    H216266   0.733   3.227   4.660
 5441TIP3   OH216267   1.776   4.921   0.292
 5441TIP3    H116268   1.864   4.888   0.277
 5441TIP3    H216269   1.737   4.927   0.205
 5442TIP3   OH216270   3.099   4.591   2.811
 5442TIP3    H116271   3.118   4.626   2.724
 5442TIP3    H216272   3.115   4.497   2.803
 5443TIP3   OH216273   5.073   5.384   6.271
 5443TIP3    H116274   5.081   5.317   6.339
 5443TIP3    H216275   4.985   5.420   6.282
 5444TIP3   OH216276   3.813   0.018   6.748
 5444TIP3    H116277   3.722   0.008   6.721
 5444TIP3    H216278   3.808   0.040   6.841
 5445TIP3   OH216279   6.316   1.520   4.391
 5445TIP3    H116280   6.263   1.452   4.433
 5445TIP3    H216281   6.301   1.598   4.446
 5446TIP3   OH216282   2.198   7.808   6.420
 5446TIP3    H116283   2.220   7.812   6.328
 5446TIP3    H216284   2.277   7.836   6.466
 5447TIP3   OH216285   6.817   7.377   0.653
 5447TIP3    H116286   6.831   7.343   0.564
 5447TIP3    H216287   6.807   7.472   0.641
 5448TIP3   OH216288   6.146   4.231   5.435
 5448TIP3    H116289   6.147   4.152   5.489
 5448TIP3    H216290   6.172   4.301   5.494
 5449TIP3   OH216291   0.671   1.116   2.035
 5449TIP3    H116292   0.702   1.044   2.090
 5449TIP3    H216293   0.733   1.120   1.963
 5450TIP3   OH216294   5.220   6.545   6.118
 5450TIP3    H116295   5.129   6.535   6.091
 5450TIP3    H216296   5.216   6.601   6.196
 5451TIP3   OH216297   6.143   5.439   1.751
 5451TIP3    H116298   6.225   5.449   1.800
 5451TIP3    H216299   6.121   5.527   1.723
 5452TIP3   OH216300   7.725   5.292   3.450
 5452TIP3    H116301   7.642   5.340   3.444
 5452TIP3    H216302   7.759   5.292   3.361
 5453TIP3   OH216303   0.373   7.587   2.680
 5453TIP3    H116304   0.326   7.549   2.606
 5453TIP3    H216305   0.382   7.515   2.742
 5454TIP3   OH216306   6.174   3.673   5.021
 5454TIP3    H116307   6.234   3.728   4.971
 5454TIP3    H216308   6.088   3.687   4.981
 5455TIP3   OH216309   4.807   7.666   4.212
 5455TIP3    H116310   4.810   7.710   4.126
 5455TIP3    H216311   4.782   7.735   4.273
 5456TIP3   OH216312   2.330   6.111   1.760
 5456TIP3    H116313   2.247   6.093   1.804
 5456TIP3    H216314   2.395   6.108   1.830
 5457TIP3   OH216315   2.684   2.403   0.422
 5457TIP3    H116316   2.749   2.333   0.428
 5457TIP3    H216317   2.735   2.481   0.399
 5458TIP3   OH216318   7.404   4.812   1.410
 5458TIP3    H116319   7.329   4.870   1.396
 5458TIP3    H216320   7.415   4.809   1.506
 5459TIP3   OH216321   4.250   0.329   2.212
 5459TIP3    H116322   4.238   0.313   2.118
 5459TIP3    H216323   4.342   0.351   2.220
 5460TIP3   OH216324   5.897   2.969   4.219
 5460TIP3    H116325   5.899   2.905   4.291
 5460TIP3    H216326   5.917   3.052   4.262
 5461TIP3   OH216327   3.814   0.401   5.474
 5461TIP3    H116328   3.769   0.408   5.389
 5461TIP3    H216329   3.812   0.308   5.494
 5462TIP3   OH216330   2.695   4.449   0.778
 5462TIP3    H116331   2.732   4.533   0.805
 5462TIP3    H216332   2.674   4.461   0.686
 5463TIP3   OH216333   5.757   2.113   5.078
 5463TIP3    H116334   5.825   2.050   5.058
 5463TIP3    H216335   5.679   2.081   5.031
 5464TIP3   OH216336   1.425   6.613   6.335
 5464TIP3    H116337   1.463   6.672   6.270
 5464TIP3    H216338   1.434   6.660   6.418
 5465TIP3   OH216339   6.953   1.996   5.168
 5465TIP3    H116340   7.045   2.021   5.174
 5465TIP3    H216341   6.954   1.900   5.167
 5466TIP3   OH216342   5.856   2.340   1.564
 5466TIP3    H116343   5.808   2.414   1.601
 5466TIP3    H216344   5.890   2.293   1.640
 5467TIP3   OH216345   2.918   7.410   2.157
 5467TIP3    H116346   2.930   7.504   2.170
 5467TIP3    H216347   2.914   7.399   2.062
 5468TIP3   OH216348   6.706   1.427   3.861
 5468TIP3    H116349   6.693   1.521   3.846
 5468TIP3    H216350   6.780   1.404   3.805
 5469TIP3   OH216351   7.693   6.095   2.702
 5469TIP3    H116352   7.732   6.155   2.765
 5469TIP3    H216353   7.655   6.025   2.756
 5470TIP3   OH216354   4.520   7.644   3.512
 5470TIP3    H116355   4.523   7.566   3.567
 5470TIP3    H216356   4.510   7.717   3.573
 5471TIP3   OH216357   5.319   6.717   5.195
 5471TIP3    H116358   5.285   6.690   5.280
 5471TIP3    H216359   5.241   6.736   5.143
 5472TIP3   OH216360   6.711   4.930   1.808
 5472TIP3    H116361   6.744   4.846   1.839
 5472TIP3    H216362   6.629   4.909   1.763
 5473TIP3   OH216363   6.835   3.813   6.468
 5473TIP3    H116364   6.925   3.839   6.487
 5473TIP3    H216365   6.797   3.794   6.553
 5474TIP3   OH216366   0.568   5.611   1.204
 5474TIP3    H116367   0.544   5.678   1.268
 5474TIP3    H216368   0.617   5.659   1.137
 5475TIP3   OH216369   3.031   5.240   1.375
 5475TIP3    H116370   3.107   5.295   1.393
 5475TIP3    H216371   2.970   5.298   1.329
 5476TIP3   OH216372   2.616   0.020   2.662
 5476TIP3    H116373   2.565   0.100   2.677
 5476TIP3    H216374   2.552  -0.051   2.672
 5477TIP3   OH216375   7.316   3.610   0.941
 5477TIP3    H116376   7.303   3.626   0.847
 5477TIP3    H216377   7.389   3.548   0.945
 5478TIP3   OH216378   0.696   6.565   5.863
 5478TIP3    H116379   0.726   6.491   5.811
 5478TIP3    H216380   0.648   6.526   5.936
 5479TIP3   OH216381   3.476   3.673   3.571
 5479TIP3    H116382   3.515   3.714   3.648
 5479TIP3    H216383   3.385   3.655   3.597
 5480TIP3   OH216384   3.863   4.358   6.454
 5480TIP3    H116385   3.956   4.340   6.457
 5480TIP3    H216386   3.832   4.342   6.543
 5481TIP3   OH216387   4.703   3.710   3.438
 5481TIP3    H116388   4.636   3.721   3.505
 5481TIP3    H216389   4.743   3.797   3.429
 5482TIP3   OH216390   0.907   3.779   3.779
 5482TIP3    H116391   0.964   3.821   3.715
 5482TIP3    H216392   0.845   3.848   3.805
 5483TIP3   OH216393   7.352   4.064   5.459
 5483TIP3    H116394   7.434   4.088   5.501
 5483TIP3    H216395   7.362   4.091   5.368
 5484TIP3   OH216396   4.400   3.578   3.335
 5484TIP3    H116397   4.342   3.525   3.389
 5484TIP3    H216398   4.348   3.655   3.311
 5485TIP3   OH216399   5.167   3.352   3.597
 5485TIP3    H116400   5.176   3.342   3.692
 5485TIP3    H216401   5.112   3.429   3.587
 5486TIP3   OH216402   8.197   2.883   6.479
 5486TIP3    H116403   8.146   2.961   6.500
 5486TIP3    H216404   8.238   2.903   6.395
 5487TIP3   OH216405   2.253   4.786   0.766
 5487TIP3    H116406   2.301   4.868   0.777
 5487TIP3    H216407   2.321   4.719   0.757
 5488TIP3   OH216408   7.205   0.208   3.326
 5488TIP3    H116409   7.184   0.125   3.283
 5488TIP3    H216410   7.151   0.273   3.281
 5489TIP3   OH216411   0.197   4.442   6.442
 5489TIP3    H116412   0.167   4.373   6.382
 5489TIP3    H216413   0.131   4.510   6.435
 5490TIP3   OH216414   4.165   6.031   1.031
 5490TIP3    H116415   4.212   5.966   0.979
 5490TIP3    H216416   4.186   6.115   0.990
 5491TIP3   OH216417   7.980   5.693   1.839
 5491TIP3    H116418   8.044   5.683   1.909
 5491TIP3    H216419   7.936   5.775   1.858
 5492TIP3   OH216420   1.739   7.639   3.724
 5492TIP3    H116421   1.782   7.649   3.810
 5492TIP3    H216422   1.671   7.573   3.739
 5493TIP3   OH216423   4.615   0.536   3.941
 5493TIP3    H116424   4.683   0.470   3.942
 5493TIP3    H216425   4.643   0.600   4.007
 5494TIP3   OH216426   3.088   7.490   5.982
 5494TIP3    H116427   3.174   7.488   5.940
 5494TIP3    H216428   3.026   7.502   5.910
 5495TIP3   OH216429   7.624   7.557   5.170
 5495TIP3    H116430   7.609   7.564   5.264
 5495TIP3    H216431   7.598   7.468   5.148
 5496TIP3   OH216432   5.417   5.969   5.796
 5496TIP3    H116433   5.354   6.029   5.757
 5496TIP3    H216434   5.502   6.005   5.771
 5497TIP3   OH216435   1.418   1.425   1.797
 5497TIP3    H116436   1.453   1.441   1.885
 5497TIP3    H216437   1.370   1.505   1.776
 5498TIP3   OH216438   4.981   3.011   4.227
 5498TIP3    H116439   4.957   2.925   4.262
 5498TIP3    H216440   4.997   3.064   4.305
 5499TIP3   OH216441   2.696   4.302   3.430
 5499TIP3    H116442   2.642   4.344   3.364
 5499TIP3    H216443   2.769   4.362   3.443
 5500TIP3   OH216444   0.421   7.325   2.330
 5500TIP3    H116445   0.493   7.388   2.332
 5500TIP3    H216446   0.460   7.244   2.364
 5501TIP3   OH216447   8.103   3.696   2.736
 5501TIP3    H116448   8.079   3.766   2.674
 5501TIP3    H216449   8.185   3.726   2.775
 5502TIP3   OH216450   7.324   2.702   4.071
 5502TIP3    H116451   7.372   2.785   4.062
 5502TIP3    H216452   7.250   2.723   4.127
 5503TIP3   OH216453   2.859   3.632   0.001
 5503TIP3    H116454   2.813   3.561   0.045
 5503TIP3    H216455   2.930   3.655   0.061
 5504TIP3   OH216456   5.274   5.139   4.779
 5504TIP3    H116457   5.191   5.102   4.808
 5504TIP3    H216458   5.291   5.211   4.839
 5505TIP3   OH216459   1.818   6.324   0.225
 5505TIP3    H116460   1.869   6.387   0.173
 5505TIP3    H216461   1.880   6.292   0.290
 5506TIP3   OH216462   3.885   0.826   0.950
 5506TIP3    H116463   3.828   0.897   0.920
 5506TIP3    H216464   3.929   0.796   0.870
 5507TIP3   OH216465   8.222   5.443   0.048
 5507TIP3    H116466   8.218   5.350   0.070
 5507TIP3    H216467   8.260   5.484   0.126
 5508TIP3   OH216468   7.649   5.077   4.966
 5508TIP3    H116469   7.675   4.991   5.000
 5508TIP3    H216470   7.568   5.059   4.918
 5509TIP3   OH216471   1.702   2.332   4.141
 5509TIP3    H116472   1.629   2.393   4.152
 5509TIP3    H216473   1.765   2.358   4.209
 5510TIP3   OH216474   7.268   5.001   2.351
 5510TIP3    H116475   7.200   4.969   2.292
 5510TIP3    H216476   7.280   5.093   2.326
 5511TIP3   OH216477   7.374   6.744   0.315
 5511TIP3    H116478   7.346   6.669   0.261
 5511TIP3    H216479   7.450   6.711   0.363
 5512TIP3   OH216480   3.127   0.696   5.375
 5512TIP3    H116481   3.052   0.656   5.330
 5512TIP3    H216482   3.090   0.740   5.451
 5513TIP3   OH216483   2.648   2.154   1.679
 5513TIP3    H116484   2.716   2.117   1.623
 5513TIP3    H216485   2.693   2.220   1.732
 5514TIP3   OH216486   7.375   6.439   5.248
 5514TIP3    H116487   7.464   6.415   5.271
 5514TIP3    H216488   7.383   6.526   5.208
 5515TIP3   OH216489   5.476   0.945   2.038
 5515TIP3    H116490   5.475   1.020   2.097
 5515TIP3    H216491   5.388   0.944   1.999
 5516TIP3   OH216492   3.651   2.550   6.687
 5516TIP3    H116493   3.633   2.623   6.628
 5516TIP3    H216494   3.671   2.591   6.771
 5517TIP3   OH216495   5.811   4.478   1.636
 5517TIP3    H116496   5.901   4.498   1.610
 5517TIP3    H216497   5.814   4.387   1.663
 5518TIP3   OH216498   7.145   3.600   5.812
 5518TIP3    H116499   7.104   3.513   5.809
 5518TIP3    H216500   7.132   3.629   5.903
 5519TIP3   OH216501   0.942   3.467   0.583
 5519TIP3    H116502   0.864   3.513   0.615
 5519TIP3    H216503   0.981   3.526   0.520
 5520TIP3   OH216504   7.371   5.723   6.088
 5520TIP3    H116505   7.408   5.811   6.089
 5520TIP3    H216506   7.320   5.719   6.007
 5521TIP3   OH216507   5.681   3.853   4.437
 5521TIP3    H116508   5.762   3.832   4.485
 5521TIP3    H216509   5.611   3.831   4.497
 5522TIP3   OH216510   7.661   0.647   0.881
 5522TIP3    H116511   7.673   0.646   0.976
 5522TIP3    H216512   7.706   0.568   0.851
 5523TIP3   OH216513   0.934   6.749   0.466
 5523TIP3    H116514   0.944   6.775   0.374
 5523TIP3    H216515   0.961   6.658   0.468
 5524TIP3   OH216516   0.905   3.216   0.947
 5524TIP3    H116517   0.971   3.254   1.005
 5524TIP3    H216518   0.887   3.129   0.983
 5525TIP3   OH216519   8.161   5.155   2.129
 5525TIP3    H116520   8.147   5.086   2.065
 5525TIP3    H216521   8.146   5.113   2.214
 5526TIP3   OH216522   5.651   5.764   6.307
 5526TIP3    H116523   5.740   5.733   6.294
 5526TIP3    H216524   5.613   5.768   6.219
 5527TIP3   OH216525   0.002   2.881   2.290
 5527TIP3    H116526   0.024   2.805   2.237
 5527TIP3    H216527   0.028   2.956   2.237
 5528TIP3   OH216528   1.949   6.649   6.321
 5528TIP3    H116529   2.033   6.609   6.343
 5528TIP3    H216530   1.905   6.660   6.406
 5529TIP3   OH216531   8.128   1.693   1.910
 5529TIP3    H116532   8.043   1.674   1.871
 5529TIP3    H216533   8.162   1.607   1.937
 5530TIP3   OH216534   2.165   4.319   2.431
 5530TIP3    H116535   2.228   4.391   2.437
 5530TIP3    H216536   2.084   4.355   2.466
 5531TIP3   OH216537   0.815   1.119   5.326
 5531TIP3    H116538   0.854   1.202   5.299
 5531TIP3    H216539   0.720   1.135   5.321
 5532TIP3   OH216540   2.746   3.757   1.753
 5532TIP3    H116541   2.794   3.762   1.670
 5532TIP3    H216542   2.803   3.800   1.816
 5533TIP3   OH216543   2.482   5.517   3.234
 5533TIP3    H116544   2.516   5.439   3.278
 5533TIP3    H216545   2.480   5.584   3.302
 5534TIP3   OH216546   5.795   7.122   5.089
 5534TIP3    H116547   5.794   7.172   5.008
 5534TIP3    H216548   5.703   7.100   5.105
 5535TIP3   OH216549   6.593   5.654   2.006
 5535TIP3    H116550   6.613   5.745   1.988
 5535TIP3    H216551   6.673   5.619   2.046
 5536TIP3   OH216552   1.440   7.807   5.214
 5536TIP3    H116553   1.415   7.740   5.150
 5536TIP3    H216554   1.524   7.841   5.182
 5537TIP3   OH216555   6.677   6.294   0.856
 5537TIP3    H116556   6.765   6.259   0.838
 5537TIP3    H216557   6.634   6.294   0.771
 5538TIP3   OH216558   6.845   7.221   4.002
 5538TIP3    H116559   6.887   7.268   4.074
 5538TIP3    H216560   6.753   7.247   4.007
 5539TIP3   OH216561   2.726   5.706   3.579
 5539TIP3    H116562   2.754   5.797   3.587
 5539TIP3    H216563   2.805   5.654   3.595
 5540TIP3   OH216564   8.301   1.917   2.740
 5540TIP3    H116565   8.289   1.854   2.812
 5540TIP3    H216566   8.331   1.863   2.667
 5541TIP3   OH216567   7.176   1.262   2.390
 5541TIP3    H116568   7.118   1.225   2.456
 5541TIP3    H216569   7.247   1.302   2.440
 5542TIP3   OH216570   1.190   0.567   4.803
 5542TIP3    H116571   1.285   0.584   4.800
 5542TIP3    H216572   1.151   0.654   4.814
 5543TIP3   OH216573   1.569   2.743   5.392
 5543TIP3    H116574   1.661   2.756   5.417
 5543TIP3    H216575   1.537   2.677   5.454
 5544TIP3   OH216576   1.003   2.644   5.685
 5544TIP3    H116577   0.969   2.639   5.596
 5544TIP3    H216578   1.014   2.738   5.701
 5545TIP3   OH216579   0.444   5.854   1.657
 5545TIP3    H116580   0.438   5.873   1.563
 5545TIP3    H216581   0.538   5.851   1.675
 5546TIP3   OH216582   2.010   7.027   5.114
 5546TIP3    H116583   1.982   6.975   5.189
 5546TIP3    H216584   2.057   6.966   5.058
 5547TIP3   OH216585   4.950   6.212   5.616
 5547TIP3    H116586   4.913   6.124   5.618
 5547TIP3    H216587   4.927   6.251   5.701
 5548TIP3   OH216588   0.792   2.949   2.285
 5548TIP3    H116589   0.698   2.943   2.302
 5548TIP3    H216590   0.811   2.877   2.225
 5549TIP3   OH216591   3.313   2.468   6.244
 5549TIP3    H116592   3.406   2.474   6.222
 5549TIP3    H216593   3.280   2.394   6.192
 5550TIP3   OH216594   7.167   5.684   3.902
 5550TIP3    H116595   7.140   5.641   3.983
 5550TIP3    H216596   7.209   5.616   3.851
 5551TIP3   OH216597   3.262   5.139   6.354
 5551TIP3    H116598   3.268   5.186   6.437
 5551TIP3    H216599   3.169   5.137   6.334
 5552TIP3   OH216600   7.986   1.789   4.962
 5552TIP3    H116601   7.976   1.881   4.987
 5552TIP3    H216602   7.901   1.749   4.979
 5553TIP3   OH216603   7.171   1.229   0.454
 5553TIP3    H116604   7.084   1.248   0.420
 5553TIP3    H216605   7.223   1.211   0.375
 5554TIP3   OH216606   5.024   0.074   2.029
 5554TIP3    H116607   5.116   0.052   2.014
 5554TIP3    H216608   4.984  -0.006   2.062
 5555TIP3   OH216609   5.058   0.663   2.382
 5555TIP3    H116610   5.088   0.607   2.453
 5555TIP3    H216611   4.965   0.642   2.372
 5556TIP3   OH216612   4.374   7.164   0.477
 5556TIP3    H116613   4.454   7.198   0.518
 5556TIP3    H216614   4.382   7.190   0.385
 5557TIP3   OH216615   7.805   5.128   0.072
 5557TIP3    H116616   7.824   5.055   0.014
 5557TIP3    H216617   7.732   5.174   0.031
 5558TIP3   OH216618   5.525   5.511   6.240
 5558TIP3    H116619   5.448   5.469   6.202
 5558TIP3    H216620   5.494   5.550   6.321
 5559TIP3   OH216621   0.747   0.757   2.455
 5559TIP3    H116622   0.743   0.838   2.403
 5559TIP3    H216623   0.768   0.689   2.391
 5560TIP3   OH216624   5.249   3.458   4.247
 5560TIP3    H116625   5.158   3.439   4.223
 5560TIP3    H216626   5.243   3.489   4.338
 5561TIP3   OH216627   4.791   3.365   1.332
 5561TIP3    H116628   4.733   3.400   1.400
 5561TIP3    H216629   4.842   3.441   1.303
 5562TIP3   OH216630   1.852   5.389   1.422
 5562TIP3    H116631   1.935   5.366   1.380
 5562TIP3    H216632   1.822   5.307   1.462
 5563TIP3   OH216633   0.075   3.511   3.816
 5563TIP3    H116634   0.169   3.511   3.836
 5563TIP3    H216635   0.059   3.598   3.780
 5564TIP3   OH216636   2.534   2.723   0.074
 5564TIP3    H116637   2.556   2.652   0.015
 5564TIP3    H216638   2.539   2.684   0.162
 5565TIP3   OH216639   2.921   0.397   1.695
 5565TIP3    H116640   2.909   0.351   1.778
 5565TIP3    H216641   3.000   0.359   1.658
 5566TIP3   OH216642   0.213   0.201   0.920
 5566TIP3    H116643   0.257   0.283   0.942
 5566TIP3    H216644   0.223   0.146   0.997
 5567TIP3   OH216645   4.612   5.545   4.166
 5567TIP3    H116646   4.588   5.604   4.094
 5567TIP3    H216647   4.684   5.590   4.210
 5568TIP3   OH216648   4.063   3.256   0.739
 5568TIP3    H116649   4.077   3.244   0.833
 5568TIP3    H216650   4.048   3.168   0.705
 5569TIP3   OH216651   0.313   6.533   2.334
 5569TIP3    H116652   0.387   6.482   2.302
 5569TIP3    H216653   0.251   6.468   2.367
 5570TIP3   OH216654   1.739   6.443   5.750
 5570TIP3    H116655   1.669   6.485   5.800
 5570TIP3    H216656   1.800   6.514   5.730
 5571TIP3   OH216657   6.036   2.872   4.548
 5571TIP3    H116658   6.006   2.785   4.523
 5571TIP3    H216659   6.014   2.880   4.640
 5572TIP3   OH216660   2.005   1.197   2.821
 5572TIP3    H116661   1.950   1.181   2.744
 5572TIP3    H216662   2.094   1.202   2.786
 5573TIP3   OH216663   1.297   7.204   5.587
 5573TIP3    H116664   1.356   7.140   5.548
 5573TIP3    H216665   1.332   7.289   5.560
 5574TIP3   OH216666   4.899   1.080   2.173
 5574TIP3    H116667   4.923   1.017   2.106
 5574TIP3    H216668   4.905   1.031   2.255
 5575TIP3   OH216669   4.769   3.381   5.121
 5575TIP3    H116670   4.774   3.463   5.170
 5575TIP3    H216671   4.714   3.324   5.175
 5576TIP3   OH216672   4.160   7.484   1.359
 5576TIP3    H116673   4.125   7.409   1.311
 5576TIP3    H216674   4.171   7.552   1.293
 5577TIP3   OH216675   1.533   2.259   3.843
 5577TIP3    H116676   1.498   2.317   3.911
 5577TIP3    H216677   1.462   2.249   3.780
 5578TIP3   OH216678   2.732   3.239   1.230
 5578TIP3    H116679   2.646   3.267   1.199
 5578TIP3    H216680   2.739   3.148   1.201
 5579TIP3   OH216681   4.786   0.854   5.883
 5579TIP3    H116682   4.780   0.776   5.828
 5579TIP3    H216683   4.706   0.902   5.865
 5580TIP3   OH216684   5.670   4.368   3.719
 5580TIP3    H116685   5.592   4.380   3.774
 5580TIP3    H216686   5.726   4.442   3.741
 5581TIP3   OH216687   6.800   6.046   5.203
 5581TIP3    H116688   6.717   6.064   5.160
 5581TIP3    H216689   6.854   6.005   5.135
 5582TIP3   OH216690   3.965   2.321   0.396
 5582TIP3    H116691   3.881   2.345   0.437
 5582TIP3    H216692   3.981   2.391   0.333
 5583TIP3   OH216693   4.415   3.357   0.881
 5583TIP3    H116694   4.497   3.406   0.888
 5583TIP3    H216695   4.358   3.413   0.828
 5584TIP3   OH216696   5.942   3.568   1.071
 5584TIP3    H116697   5.997   3.531   1.002
 5584TIP3    H216698   5.858   3.585   1.029
 5585TIP3   OH216699   4.487   2.702   5.697
 5585TIP3    H116700   4.406   2.658   5.670
 5585TIP3    H216701   4.547   2.631   5.718
 5586TIP3   OH216702   6.256   1.310   3.696
 5586TIP3    H116703   6.314   1.380   3.727
 5586TIP3    H216704   6.179   1.316   3.753
 5587TIP3   OH216705   6.095   1.471   4.805
 5587TIP3    H116706   6.150   1.496   4.879
 5587TIP3    H216707   6.034   1.407   4.840
 5588TIP3   OH216708   0.456   2.751   2.247
 5588TIP3    H116709   0.391   2.817   2.222
 5588TIP3    H216710   0.535   2.776   2.199
 5589TIP3   OH216711   6.339   1.816   1.950
 5589TIP3    H116712   6.425   1.801   1.909
 5589TIP3    H216713   6.357   1.878   2.021
 5590TIP3   OH216714   5.624   0.605   4.949
 5590TIP3    H116715   5.590   0.567   4.867
 5590TIP3    H216716   5.614   0.535   5.013
 5591TIP3   OH216717   6.154   4.084   3.160
 5591TIP3    H116718   6.126   4.092   3.252
 5591TIP3    H216719   6.246   4.058   3.165
 5592TIP3   OH216720   5.996   3.968   6.742
 5592TIP3    H116721   5.948   3.912   6.802
 5592TIP3    H216722   6.013   3.913   6.665
 5593TIP3   OH216723   2.716   2.353   2.617
 5593TIP3    H116724   2.808   2.365   2.641
 5593TIP3    H216725   2.716   2.350   2.521
 5594TIP3   OH216726   7.889   3.721   2.138
 5594TIP3    H116727   7.806   3.754   2.103
 5594TIP3    H216728   7.947   3.718   2.061
 5595TIP3   OH216729   3.979   0.752   1.700
 5595TIP3    H116730   3.931   0.686   1.650
 5595TIP3    H216731   3.946   0.836   1.668
 5596TIP3   OH216732   1.428   6.892   3.208
 5596TIP3    H116733   1.446   6.949   3.283
 5596TIP3    H216734   1.358   6.834   3.238
 5597TIP3   OH216735   0.517   1.221   4.174
 5597TIP3    H116736   0.519   1.311   4.205
 5597TIP3    H216737   0.494   1.169   4.251
 5598TIP3   OH216738   2.443   6.518   2.385
 5598TIP3    H116739   2.500   6.442   2.387
 5598TIP3    H216740   2.355   6.481   2.375
 5599TIP3   OH216741   0.627   6.310   5.238
 5599TIP3    H116742   0.693   6.353   5.293
 5599TIP3    H216743   0.547   6.310   5.290
 5600TIP3   OH216744   2.441   6.521   3.874
 5600TIP3    H116745   2.372   6.541   3.811
 5600TIP3    H216746   2.508   6.476   3.823
 5601TIP3   OH216747   2.639   5.741   0.375
 5601TIP3    H116748   2.652   5.782   0.289
 5601TIP3    H216749   2.581   5.801   0.422
 5602TIP3   OH216750   1.098   3.583   4.204
 5602TIP3    H116751   1.153   3.599   4.280
 5602TIP3    H216752   1.096   3.666   4.157
 5603TIP3   OH216753   3.793   0.064   1.239
 5603TIP3    H116754   3.710   0.112   1.242
 5603TIP3    H216755   3.824   0.076   1.149
 5604TIP3   OH216756   2.965   5.325   4.116
 5604TIP3    H116757   2.943   5.260   4.049
 5604TIP3    H216758   2.970   5.408   4.068
 5605TIP3   OH216759   0.229   0.721   1.522
 5605TIP3    H116760   0.259   0.752   1.436
 5605TIP3    H216761   0.188   0.637   1.504
 5606TIP3   OH216762   4.917   5.357   6.542
 5606TIP3    H116763   4.966   5.277   6.524
 5606TIP3    H216764   4.972   5.406   6.603
 5607TIP3   OH216765   3.047   7.191   1.331
 5607TIP3    H116766   2.993   7.167   1.256
 5607TIP3    H216767   3.055   7.111   1.382
 5608TIP3   OH216768   2.331   0.311   4.890
 5608TIP3    H116769   2.236   0.323   4.901
 5608TIP3    H216770   2.339   0.252   4.815
 5609TIP3   OH216771   5.355   4.977   0.464
 5609TIP3    H116772   5.432   5.020   0.428
 5609TIP3    H216773   5.330   4.913   0.397
 5610TIP3   OH216774   5.771   1.974   5.411
 5610TIP3    H116775   5.688   2.020   5.402
 5610TIP3    H216776   5.836   2.044   5.420
 5611TIP3   OH216777   1.545   2.799   4.043
 5611TIP3    H116778   1.543   2.726   3.981
 5611TIP3    H216779   1.612   2.774   4.107
 5612TIP3   OH216780   6.477   1.951   5.479
 5612TIP3    H116781   6.497   2.041   5.506
 5612TIP3    H216782   6.561   1.915   5.450
 5613TIP3   OH216783   0.618   4.763   5.343
 5613TIP3    H116784   0.554   4.699   5.374
 5613TIP3    H216785   0.591   4.846   5.382
 5614TIP3   OH216786   1.388   1.612   0.538
 5614TIP3    H116787   1.405   1.661   0.457
 5614TIP3    H216788   1.298   1.581   0.528
 5615TIP3   OH216789   4.670   6.164   6.644
 5615TIP3    H116790   4.745   6.221   6.663
 5615TIP3    H216791   4.597   6.225   6.630
 5616TIP3   OH216792   7.196   7.215   3.359
 5616TIP3    H116793   7.167   7.126   3.375
 5616TIP3    H216794   7.211   7.251   3.447
 5617TIP3   OH216795   4.517   5.756   0.759
 5617TIP3    H116796   4.425   5.775   0.778
 5617TIP3    H216797   4.534   5.673   0.803
 5618TIP3   OH216798   0.239   5.483   5.666
 5618TIP3    H116799   0.305   5.550   5.684
 5618TIP3    H216800   0.251   5.461   5.574
 5619TIP3   OH216801   8.152   5.819   5.660
 5619TIP3    H116802   8.228   5.829   5.717
 5619TIP3    H216803   8.154   5.726   5.634
 5620TIP3   OH216804   0.792   1.179   4.142
 5620TIP3    H116805   0.702   1.182   4.172
 5620TIP3    H216806   0.842   1.226   4.209
 5621TIP3   OH216807   5.076   6.265   4.474
 5621TIP3    H116808   5.036   6.346   4.444
 5621TIP3    H216809   5.010   6.224   4.529
 5622TIP3   OH216810   3.868   2.663   2.011
 5622TIP3    H116811   3.950   2.712   2.022
 5622TIP3    H216812   3.886   2.602   1.940
 5623TIP3   OH216813   5.696   1.110   6.289
 5623TIP3    H116814   5.776   1.130   6.339
 5623TIP3    H216815   5.655   1.195   6.274
 5624TIP3   OH216816   3.438   0.501   4.630
 5624TIP3    H116817   3.388   0.529   4.706
 5624TIP3    H216818   3.420   0.567   4.562
 5625TIP3   OH216819   4.591   2.083   0.403
 5625TIP3    H116820   4.649   2.007   0.394
 5625TIP3    H216821   4.504   2.046   0.413
 5626TIP3   OH216822   4.319   5.230   4.046
 5626TIP3    H116823   4.282   5.150   4.084
 5626TIP3    H216824   4.409   5.207   4.023
 5627TIP3   OH216825   3.414   4.334   4.517
 5627TIP3    H116826   3.327   4.296   4.529
 5627TIP3    H216827   3.444   4.355   4.606
 5628TIP3   OH216828   4.742   4.101   0.560
 5628TIP3    H116829   4.821   4.064   0.520
 5628TIP3    H216830   4.700   4.027   0.603
 5629TIP3   OH216831   0.229   2.086   1.061
 5629TIP3    H116832   0.287   2.078   0.985
 5629TIP3    H216833   0.155   2.029   1.040
 5630TIP3   OH216834   4.112   1.204   0.845
 5630TIP3    H116835   4.052   1.159   0.786
 5630TIP3    H216836   4.062   1.217   0.925
 5631TIP3   OH216837   0.759   5.829   3.625
 5631TIP3    H116838   0.777   5.917   3.592
 5631TIP3    H216839   0.731   5.780   3.547
 5632TIP3   OH216840   6.032   5.416   5.443
 5632TIP3    H116841   5.978   5.474   5.390
 5632TIP3    H216842   5.983   5.405   5.524
 5633TIP3   OH216843   6.630  -0.002   3.425
 5633TIP3    H116844   6.679   0.010   3.506
 5633TIP3    H216845   6.690   0.026   3.356
 5634TIP3   OH216846   4.558   5.898   4.742
 5634TIP3    H116847   4.523   5.981   4.775
 5634TIP3    H216848   4.505   5.831   4.784
 5635TIP3   OH216849   0.604   2.044   5.738
 5635TIP3    H116850   0.625   2.084   5.822
 5635TIP3    H216851   0.585   2.118   5.680
 5636TIP3   OH216852   7.797   3.048   3.696
 5636TIP3    H116853   7.771   3.047   3.604
 5636TIP3    H216854   7.750   2.974   3.735
 5637TIP3   OH216855   7.661   3.370   2.938
 5637TIP3    H116856   7.623   3.457   2.938
 5637TIP3    H216857   7.605   3.319   2.880
 5638TIP3   OH216858   4.939   4.234   5.203
 5638TIP3    H116859   4.953   4.172   5.275
 5638TIP3    H216860   4.936   4.320   5.246
 5639TIP3   OH216861   7.894   0.376   3.214
 5639TIP3    H116862   7.877   0.288   3.180
 5639TIP3    H216863   7.813   0.400   3.260
 5640TIP3   OH216864   1.733   2.749   6.017
 5640TIP3    H116865   1.781   2.741   5.934
 5640TIP3    H216866   1.743   2.842   6.041
 5641TIP3   OH216867   0.507   5.516   4.918
 5641TIP3    H116868   0.454   5.595   4.905
 5641TIP3    H216869   0.442   5.447   4.935
 5642TIP3   OH216870   6.948   7.001   6.622
 5642TIP3    H116871   6.859   7.012   6.657
 5642TIP3    H216872   6.936   6.991   6.528
 5643TIP3   OH216873   3.525   4.035   0.998
 5643TIP3    H116874   3.502   3.999   1.084
 5643TIP3    H216875   3.467   3.990   0.937
 5644TIP3   OH216876   3.072   6.161   0.645
 5644TIP3    H116877   3.039   6.244   0.611
 5644TIP3    H216878   3.124   6.125   0.574
 5645TIP3   OH216879   3.447   7.699   2.620
 5645TIP3    H116880   3.481   7.784   2.592
 5645TIP3    H216881   3.365   7.689   2.573
 5646TIP3   OH216882   6.777   1.556   5.324
 5646TIP3    H116883   6.742   1.643   5.344
 5646TIP3    H216884   6.712   1.518   5.265
 5647TIP3   OH216885   6.920   1.720   3.002
 5647TIP3    H116886   6.900   1.734   2.909
 5647TIP3    H216887   6.925   1.808   3.038
 5648TIP3   OH216888   2.878   2.116   4.496
 5648TIP3    H116889   2.856   2.122   4.589
 5648TIP3    H216890   2.846   2.198   4.458
 5649TIP3   OH216891   3.794   2.173   6.184
 5649TIP3    H116892   3.741   2.209   6.113
 5649TIP3    H216893   3.841   2.249   6.220
 5650TIP3   OH216894   2.142   6.980   4.144
 5650TIP3    H116895   2.120   7.036   4.070
 5650TIP3    H216896   2.106   7.025   4.220
 5651TIP3   OH216897   3.085   0.109   3.035
 5651TIP3    H116898   3.077   0.136   3.126
 5651TIP3    H216899   3.151   0.039   3.036
 5652TIP3   OH216900   6.318   1.867   2.279
 5652TIP3    H116901   6.247   1.807   2.256
 5652TIP3    H216902   6.391   1.810   2.303
 5653TIP3   OH216903   7.409   0.551   2.216
 5653TIP3    H116904   7.406   0.467   2.262
 5653TIP3    H216905   7.322   0.560   2.178
 5654TIP3   OH216906   1.562   5.936   4.491
 5654TIP3    H116907   1.625   5.969   4.427
 5654TIP3    H216908   1.610   5.869   4.540
 5655TIP3   OH216909   1.241   1.996   3.573
 5655TIP3    H116910   1.211   2.047   3.648
 5655TIP3    H216911   1.210   2.045   3.497
 5656TIP3   OH216912   0.319   5.837   2.508
 5656TIP3    H116913   0.298   5.759   2.558
 5656TIP3    H216914   0.235   5.865   2.471
 5657TIP3   OH216915   4.399   2.221   1.169
 5657TIP3    H116916   4.447   2.139   1.159
 5657TIP3    H216917   4.459   2.289   1.138
 5658TIP3   OH216918   0.547   1.902   4.517
 5658TIP3    H116919   0.486   1.952   4.571
 5658TIP3    H216920   0.495   1.876   4.441
 5659TIP3   OH216921   8.098   3.447   2.890
 5659TIP3    H116922   8.069   3.531   2.855
 5659TIP3    H216923   8.173   3.470   2.946
 5660TIP3   OH216924   7.916   5.118   5.149
 5660TIP3    H116925   7.952   5.202   5.120
 5660TIP3    H216926   7.880   5.079   5.070
 5661TIP3   OH216927   1.183   3.793   3.792
 5661TIP3    H116928   1.200   3.729   3.861
 5661TIP3    H216929   1.227   3.758   3.715
 5662TIP3   OH216930   4.845   5.898   1.970
 5662TIP3    H116931   4.906   5.848   1.917
 5662TIP3    H216932   4.813   5.968   1.912
 5663TIP3   OH216933   3.945   6.675   1.340
 5663TIP3    H116934   3.870   6.731   1.362
 5663TIP3    H216935   3.943   6.667   1.245
 5664TIP3   OH216936   0.663   6.654   4.402
 5664TIP3    H116937   0.598   6.603   4.451
 5664TIP3    H216938   0.623   6.665   4.316
 5665TIP3   OH216939   8.193   3.312   6.393
 5665TIP3    H116940   8.115   3.337   6.344
 5665TIP3    H216941   8.174   3.224   6.426
 5666TIP3   OH216942   0.029   1.103   4.270
 5666TIP3    H116943  -0.019   1.129   4.192
 5666TIP3    H216944   0.111   1.065   4.236
 5667TIP3   OH216945   7.230   6.857   0.085
 5667TIP3    H116946   7.187   6.786   0.037
 5667TIP3    H216947   7.320   6.828   0.095
 5668TIP3   OH216948   7.508   7.598   3.270
 5668TIP3    H116949   7.575   7.550   3.318
 5668TIP3    H216950   7.518   7.689   3.298
 5669TIP3   OH216951   0.023   6.192   1.942
 5669TIP3    H116952   0.089   6.231   1.999
 5669TIP3    H216953   0.017   6.101   1.971
 5670TIP3   OH216954   7.878   2.209   6.759
 5670TIP3    H116955   7.870   2.113   6.760
 5670TIP3    H216956   7.793   2.240   6.729
 5671TIP3   OH216957   7.594   6.421   5.679
 5671TIP3    H116958   7.509   6.398   5.716
 5671TIP3    H216959   7.612   6.509   5.714
 5672TIP3   OH216960   3.953   3.536   3.741
 5672TIP3    H116961   3.871   3.565   3.782
 5672TIP3    H216962   3.928   3.458   3.691
 5673TIP3   OH216963   7.406   5.498   3.849
 5673TIP3    H116964   7.481   5.478   3.905
 5673TIP3    H216965   7.362   5.414   3.835
 5674TIP3   OH216966   6.098   1.617   1.528
 5674TIP3    H116967   6.059   1.702   1.548
 5674TIP3    H216968   6.167   1.605   1.594
 5675TIP3   OH216969   4.638   4.669   1.001
 5675TIP3    H116970   4.681   4.624   0.929
 5675TIP3    H216971   4.560   4.616   1.020
 5676TIP3   OH216972   5.545   2.456   5.992
 5676TIP3    H116973   5.497   2.427   6.070
 5676TIP3    H216974   5.561   2.549   6.007
 5677TIP3   OH216975   5.258   3.051   1.247
 5677TIP3    H116976   5.272   2.965   1.285
 5677TIP3    H216977   5.300   3.112   1.308
 5678TIP3   OH216978   7.332   1.545   3.278
 5678TIP3    H116979   7.255   1.595   3.252
 5678TIP3    H216980   7.324   1.462   3.231
 5679TIP3   OH216981   6.504   0.514   2.697
 5679TIP3    H116982   6.572   0.520   2.629
 5679TIP3    H216983   6.518   0.590   2.752
 5680TIP3   OH216984   5.332   3.259   3.175
 5680TIP3    H116985   5.417   3.253   3.132
 5680TIP3    H216986   5.276   3.200   3.124
 5681TIP3   OH216987   0.701   0.090   1.243
 5681TIP3    H116988   0.737   0.136   1.319
 5681TIP3    H216989   0.709  -0.003   1.265
 5682TIP3   OH216990   2.952   3.505   5.637
 5682TIP3    H116991   3.000   3.437   5.683
 5682TIP3    H216992   2.983   3.499   5.546
 5683TIP3   OH216993   3.781   4.174   2.299
 5683TIP3    H116994   3.784   4.270   2.306
 5683TIP3    H216995   3.812   4.156   2.211
 5684TIP3   OH216996   1.361   6.303   5.279
 5684TIP3    H116997   1.413   6.374   5.315
 5684TIP3    H216998   1.345   6.245   5.354
 5685TIP3   OH216999   7.725   1.983   1.078
 5685TIP3    H117000   7.666   1.925   1.031
 5685TIP3    H217001   7.765   1.928   1.145
 5686TIP3   OH217002   4.837   0.455   6.041
 5686TIP3    H117003   4.795   0.397   5.978
 5686TIP3    H217004   4.791   0.440   6.123
 5687TIP3   OH217005   5.506   5.247   6.435
 5687TIP3    H117006   5.467   5.238   6.348
 5687TIP3    H217007   5.589   5.291   6.420
 5688TIP3   OH217008   3.822   7.409   0.014
 5688TIP3    H117009   3.837   7.431  -0.078
 5688TIP3    H217010   3.907   7.422   0.056
 5689TIP3   OH217011   5.747   5.709   2.716
 5689TIP3    H117012   5.685   5.672   2.653
 5689TIP3    H217013   5.819   5.742   2.662
 5690TIP3   OH217014   4.962   2.540   1.891
 5690TIP3    H117015   4.981   2.631   1.869
 5690TIP3    H217016   4.878   2.523   1.848
 5691TIP3   OH217017   7.811   7.387   3.012
 5691TIP3    H117018   7.764   7.378   3.095
 5691TIP3    H217019   7.827   7.297   2.984
 5692TIP3   OH217020   8.267   5.369   1.717
 5692TIP3    H117021   8.355   5.331   1.720
 5692TIP3    H217022   8.273   5.448   1.771
 5693TIP3   OH217023   3.837   4.103   0.164
 5693TIP3    H117024   3.746   4.108   0.136
 5693TIP3    H217025   3.886   4.144   0.093
 5694TIP3   OH217026   2.369   7.211   5.508
 5694TIP3    H117027   2.277   7.213   5.479
 5694TIP3    H217028   2.364   7.219   5.603
 5695TIP3   OH217029   7.485   6.106   4.840
 5695TIP3    H117030   7.579   6.116   4.822
 5695TIP3    H217031   7.472   6.012   4.848
 5696TIP3   OH217032   6.500   6.559   4.091
 5696TIP3    H117033   6.547   6.490   4.043
 5696TIP3    H217034   6.556   6.579   4.166
 5697TIP3   OH217035   8.077   2.043   5.456
 5697TIP3    H117036   8.096   2.072   5.545
 5697TIP3    H217037   8.002   1.984   5.465
 5698TIP3   OH217038   1.123   6.662   2.768
 5698TIP3    H117039   1.181   6.691   2.698
 5698TIP3    H217040   1.081   6.743   2.799
 5699TIP3   OH217041   0.436   4.290   3.575
 5699TIP3    H117042   0.469   4.250   3.655
 5699TIP3    H217043   0.514   4.310   3.524
 5700TIP3   OH217044   3.176   1.377   6.438
 5700TIP3    H117045   3.200   1.375   6.345
 5700TIP3    H217046   3.128   1.296   6.452
 5701TIP3   OH217047   0.619   2.103   3.245
 5701TIP3    H117048   0.600   2.171   3.310
 5701TIP3    H217049   0.533   2.072   3.217
 5702TIP3   OH217050   0.248   1.708   1.688
 5702TIP3    H117051   0.209   1.794   1.703
 5702TIP3    H217052   0.342   1.724   1.686
 5703TIP3   OH217053   2.853   2.579   6.522
 5703TIP3    H117054   2.828   2.662   6.481
 5703TIP3    H217055   2.933   2.599   6.571
 5704TIP3   OH217056   6.461   3.694   2.455
 5704TIP3    H117057   6.470   3.616   2.511
 5704TIP3    H217058   6.470   3.660   2.366
 5705TIP3   OH217059   3.649   0.752   5.181
 5705TIP3    H117060   3.649   0.752   5.086
 5705TIP3    H217061   3.726   0.802   5.206
 5706TIP3   OH217062   2.945   1.139   3.438
 5706TIP3    H117063   2.985   1.202   3.377
 5706TIP3    H217064   2.851   1.144   3.420
 5707TIP3   OH217065   4.021   3.525   1.603
 5707TIP3    H117066   4.092   3.491   1.548
 5707TIP3    H217067   4.049   3.505   1.693
 5708TIP3   OH217068   0.993   5.073   5.108
 5708TIP3    H117069   1.044   5.092   5.188
 5708TIP3    H217070   0.964   5.159   5.077
 5709TIP3   OH217071   3.534   4.406   1.863
 5709TIP3    H117072   3.541   4.483   1.807
 5709TIP3    H217073   3.554   4.333   1.806
 5710TIP3   OH217074   5.235   6.644   6.381
 5710TIP3    H117075   5.235   6.563   6.434
 5710TIP3    H217076   5.281   6.707   6.436
 5711TIP3   OH217077   2.810   1.702   3.948
 5711TIP3    H117078   2.853   1.656   4.020
 5711TIP3    H217079   2.874   1.700   3.877
 5712TIP3   OH217080   5.103   2.656   4.577
 5712TIP3    H117081   5.065   2.575   4.612
 5712TIP3    H217082   5.134   2.632   4.490
 5713TIP3   OH217083   3.595   7.370   6.217
 5713TIP3    H117084   3.641   7.449   6.188
 5713TIP3    H217085   3.663   7.303   6.221
 5714TIP3   OH217086   6.794   6.859   3.998
 5714TIP3    H117087   6.814   6.882   4.088
 5714TIP3    H217088   6.812   6.765   3.993
 5715TIP3   OH217089   2.283   6.142   5.376
 5715TIP3    H117090   2.366   6.132   5.330
 5715TIP3    H217091   2.253   6.052   5.392
 5716TIP3   OH217092   6.067   5.005   4.044
 5716TIP3    H117093   6.157   5.027   4.018
 5716TIP3    H217094   6.012   5.052   3.982
 5717TIP3   OH217095   0.628   6.128   3.932
 5717TIP3    H117096   0.596   6.131   3.842
 5717TIP3    H217097   0.723   6.128   3.924
 5718TIP3   OH217098   2.600   6.076   5.391
 5718TIP3    H117099   2.609   6.157   5.442
 5718TIP3    H217100   2.566   6.105   5.307
 5719TIP3   OH217101   0.828   0.887   2.119
 5719TIP3    H117102   0.868   0.870   2.034
 5719TIP3    H217103   0.787   0.804   2.143
 5720TIP3   OH217104   5.050   5.934   1.381
 5720TIP3    H117105   5.050   6.006   1.318
 5720TIP3    H217106   4.959   5.926   1.409
 5721TIP3   OH217107   2.348   0.838   1.235
 5721TIP3    H117108   2.440   0.848   1.208
 5721TIP3    H217109   2.302   0.908   1.189
 5722TIP3   OH217110   6.147   6.886   3.455
 5722TIP3    H117111   6.084   6.862   3.387
 5722TIP3    H217112   6.157   6.980   3.446
 5723TIP3   OH217113   7.782   4.092   5.933
 5723TIP3    H117114   7.688   4.074   5.927
 5723TIP3    H217115   7.808   4.115   5.844
 5724TIP3   OH217116   5.855   1.996   3.680
 5724TIP3    H117117   5.836   2.034   3.766
 5724TIP3    H217118   5.941   2.031   3.657
 5725TIP3   OH217119   1.314   1.689   1.702
 5725TIP3    H117120   1.324   1.720   1.612
 5725TIP3    H217121   1.274   1.763   1.748
 5726TIP3   OH217122   7.348   5.695   4.587
 5726TIP3    H117123   7.355   5.776   4.637
 5726TIP3    H217124   7.434   5.684   4.546
 5727TIP3   OH217125   6.478   6.373   5.695
 5727TIP3    H117126   6.425   6.401   5.770
 5727TIP3    H217127   6.420   6.387   5.620
 5728TIP3   OH217128   4.189   2.278   0.828
 5728TIP3    H117129   4.199   2.192   0.870
 5728TIP3    H217130   4.278   2.313   0.824
 5729TIP3   OH217131   4.529   0.436   2.254
 5729TIP3    H117132   4.498   0.515   2.297
 5729TIP3    H217133   4.503   0.365   2.312
 5730TIP3   OH217134   0.592   4.647   4.569
 5730TIP3    H117135   0.517   4.648   4.510
 5730TIP3    H217136   0.554   4.657   4.656
 5731TIP3   OH217137   6.357   4.350   2.581
 5731TIP3    H117138   6.331   4.317   2.496
 5731TIP3    H217139   6.360   4.445   2.571
 5732TIP3   OH217140   6.446   5.458   0.131
 5732TIP3    H117141   6.532   5.470   0.171
 5732TIP3    H217142   6.411   5.547   0.123
 5733TIP3   OH217143   4.434   1.141   3.379
 5733TIP3    H117144   4.427   1.224   3.331
 5733TIP3    H217145   4.344   1.110   3.386
 5734TIP3   OH217146   2.846   1.589   2.244
 5734TIP3    H117147   2.796   1.513   2.214
 5734TIP3    H217148   2.928   1.553   2.276
 5735TIP3   OH217149   5.226   7.743   2.382
 5735TIP3    H117150   5.144   7.696   2.395
 5735TIP3    H217151   5.292   7.674   2.373
 5736TIP3   OH217152   1.650   1.535   0.733
 5736TIP3    H117153   1.576   1.572   0.781
 5736TIP3    H217154   1.630   1.555   0.641
 5737TIP3   OH217155   7.042   6.730   1.687
 5737TIP3    H117156   7.100   6.788   1.638
 5737TIP3    H217157   7.010   6.668   1.622
 5738TIP3   OH217158   0.564   0.260   5.258
 5738TIP3    H117159   0.470   0.253   5.274
 5738TIP3    H217160   0.604   0.225   5.338
 5739TIP3   OH217161   3.983   7.430   1.558
 5739TIP3    H117162   4.021   7.454   1.473
 5739TIP3    H217163   3.917   7.498   1.574
 5740TIP3   OH217164   8.297   5.254   0.719
 5740TIP3    H117165   8.287   5.194   0.645
 5740TIP3    H217166   8.208   5.285   0.737
 5741TIP3   OH217167   0.650   0.040   4.029
 5741TIP3    H117168   0.649   0.101   4.103
 5741TIP3    H217169   0.573   0.065   3.977
 5742TIP3   OH217170   4.029   4.290   4.402
 5742TIP3    H117171   4.107   4.332   4.364
 5742TIP3    H217172   3.973   4.363   4.428
 5743TIP3   OH217173   6.295   4.228   6.775
 5743TIP3    H117174   6.255   4.152   6.817
 5743TIP3    H217175   6.240   4.244   6.698
 5744TIP3   OH217176   4.783   1.310   5.866
 5744TIP3    H117177   4.712   1.255   5.899
 5744TIP3    H217178   4.752   1.400   5.879
 5745TIP3   OH217179   4.281   4.269   4.657
 5745TIP3    H117180   4.218   4.339   4.643
 5745TIP3    H217181   4.316   4.249   4.570
 5746TIP3   OH217182   5.799   5.521   3.893
 5746TIP3    H117183   5.778   5.602   3.938
 5746TIP3    H217184   5.805   5.455   3.962
 5747TIP3   OH217185   3.309   0.435   0.776
 5747TIP3    H117186   3.229   0.467   0.817
 5747TIP3    H217187   3.327   0.497   0.705
 5748TIP3   OH217188   6.237   1.991   5.387
 5748TIP3    H117189   6.191   1.907   5.390
 5748TIP3    H217190   6.325   1.970   5.417
 5749TIP3   OH217191   0.760   4.271   6.070
 5749TIP3    H117192   0.735   4.181   6.094
 5749TIP3    H217193   0.856   4.272   6.078
 5750TIP3   OH217194   6.043   0.106   1.761
 5750TIP3    H117195   6.100   0.182   1.775
 5750TIP3    H217196   6.097   0.030   1.783
 5751TIP3   OH217197   5.030   3.589   3.619
 5751TIP3    H117198   5.024   3.608   3.526
 5751TIP3    H217199   4.966   3.648   3.660
 5752TIP3   OH217200   2.661   5.851   0.078
 5752TIP3    H117201   2.726   5.793   0.038
 5752TIP3    H217202   2.694   5.939   0.061
 5753TIP3   OH217203   2.093   0.260   3.350
 5753TIP3    H117204   2.148   0.337   3.339
 5753TIP3    H217205   2.003   0.295   3.350
 5754TIP3   OH217206   6.262   5.086   6.649
 5754TIP3    H117207   6.199   5.050   6.587
 5754TIP3    H217208   6.246   5.037   6.730
 5755TIP3   OH217209   1.835   0.712   3.014
 5755TIP3    H117210   1.925   0.724   3.043
 5755TIP3    H217211   1.829   0.618   2.995
 5756TIP3   OH217212   7.163   6.556   2.559
 5756TIP3    H117213   7.243   6.599   2.589
 5756TIP3    H217214   7.097   6.581   2.623
 5757TIP3   OH217215   1.922   7.294   6.342
 5757TIP3    H117216   1.897   7.387   6.339
 5757TIP3    H217217   1.994   7.291   6.406
 5758TIP3   OH217218   4.798   4.534   0.824
 5758TIP3    H117219   4.824   4.550   0.733
 5758TIP3    H217220   4.780   4.440   0.827
 5759TIP3   OH217221   7.154   0.046   2.961
 5759TIP3    H117222   7.202  -0.037   2.969
 5759TIP3    H217223   7.215   0.113   2.992
 5760TIP3   OH217224   5.815   7.736   5.214
 5760TIP3    H117225   5.840   7.644   5.221
 5760TIP3    H217226   5.858   7.767   5.135
 5761TIP3   OH217227   1.411   7.594   1.838
 5761TIP3    H117228   1.459   7.555   1.765
 5761TIP3    H217229   1.344   7.648   1.797
 5762TIP3   OH217230   1.617   3.116   1.939
 5762TIP3    H117231   1.697   3.169   1.937
 5762TIP3    H217232   1.574   3.134   1.855
 5763TIP3   OH217233   5.863   5.952   6.015
 5763TIP3    H117234   5.921   5.993   6.079
 5763TIP3    H217235   5.898   5.863   6.006
 5764TIP3   OH217236   1.068   1.258   6.680
 5764TIP3    H117237   0.998   1.195   6.661
 5764TIP3    H217238   1.139   1.232   6.621
 5765TIP3   OH217239   8.195   3.279   1.885
 5765TIP3    H117240   8.237   3.255   1.802
 5765TIP3    H217241   8.230   3.366   1.905
 5766TIP3   OH217242   4.851   3.725   4.783
 5766TIP3    H117243   4.761   3.757   4.776
 5766TIP3    H217244   4.846   3.633   4.759
 5767TIP3   OH217245   8.064   0.240   0.504
 5767TIP3    H117246   8.095   0.283   0.584
 5767TIP3    H217247   7.973   0.217   0.523
 5768TIP3   OH217248   2.760   4.400   1.244
 5768TIP3    H117249   2.723   4.476   1.201
 5768TIP3    H217250   2.853   4.421   1.253
 5769TIP3   OH217251   7.133   1.728   1.610
 5769TIP3    H117252   7.068   1.685   1.554
 5769TIP3    H217253   7.217   1.699   1.576
 5770TIP3   OH217254   1.984   6.018   2.375
 5770TIP3    H117255   1.889   6.006   2.381
 5770TIP3    H217256   2.018   5.973   2.452
 5771TIP3   OH217257   5.021   5.915   0.082
 5771TIP3    H117258   5.011   5.970   0.159
 5771TIP3    H217259   5.020   5.825   0.116
 5772TIP3   OH217260   5.825   3.384   2.242
 5772TIP3    H117261   5.736   3.380   2.278
 5772TIP3    H217262   5.873   3.439   2.303
 5773TIP3   OH217263   3.316   1.110   1.558
 5773TIP3    H117264   3.391   1.164   1.579
 5773TIP3    H217265   3.260   1.114   1.636
 5774TIP3   OH217266   8.157   6.702   0.498
 5774TIP3    H117267   8.195   6.689   0.411
 5774TIP3    H217268   8.171   6.795   0.516
 5775TIP3   OH217269   6.078   5.523   3.872
 5775TIP3    H117270   6.090   5.612   3.837
 5775TIP3    H217271   5.987   5.502   3.854
 5776TIP3   OH217272   4.711   5.986   3.114
 5776TIP3    H117273   4.629   6.005   3.160
 5776TIP3    H217274   4.745   5.908   3.157
 5777TIP3   OH217275   1.332   5.676   6.424
 5777TIP3    H117276   1.427   5.684   6.434
 5777TIP3    H217277   1.299   5.765   6.434
 5778TIP3   OH217278   0.043   5.397   2.851
 5778TIP3    H117279   0.071   5.318   2.896
 5778TIP3    H217280   0.076   5.388   2.761
 5779TIP3   OH217281   2.169   3.497   2.911
 5779TIP3    H117282   2.237   3.546   2.865
 5779TIP3    H217283   2.088   3.544   2.891
 5780TIP3   OH217284   0.631   0.556   1.489
 5780TIP3    H117285   0.677   0.593   1.563
 5780TIP3    H217286   0.694   0.558   1.417
 5781TIP3   OH217287   2.964   1.284   0.786
 5781TIP3    H117288   2.886   1.318   0.742
 5781TIP3    H217289   2.965   1.329   0.871
 5782TIP3   OH217290   7.259   1.959   2.719
 5782TIP3    H117291   7.223   1.892   2.662
 5782TIP3    H217292   7.328   2.001   2.667
 5783TIP3   OH217293   6.923   2.058   2.763
 5783TIP3    H117294   6.873   2.135   2.737
 5783TIP3    H217295   6.994   2.093   2.817
 5784TIP3   OH217296   3.301   6.399   6.180
 5784TIP3    H117297   3.322   6.362   6.266
 5784TIP3    H217298   3.341   6.486   6.181
 5785TIP3   OH217299   4.671   1.111   4.626
 5785TIP3    H117300   4.667   1.030   4.677
 5785TIP3    H217301   4.727   1.169   4.677
 5786TIP3   OH217302   2.848   0.411   4.791
 5786TIP3    H117303   2.873   0.323   4.818
 5786TIP3    H217304   2.883   0.468   4.859
 5787TIP3   OH217305   2.813   2.687   5.309
 5787TIP3    H117306   2.895   2.675   5.259
 5787TIP3    H217307   2.793   2.600   5.343
 5788TIP3   OH217308   8.213   4.553   6.572
 5788TIP3    H117309   8.159   4.603   6.632
 5788TIP3    H217310   8.251   4.618   6.513
 5789TIP3   OH217311   6.062   7.780   5.609
 5789TIP3    H117312   6.095   7.713   5.668
 5789TIP3    H217313   6.051   7.736   5.525
 5790TIP3   OH217314   1.555   0.830   5.359
 5790TIP3    H117315   1.469   0.842   5.399
 5790TIP3    H217316   1.590   0.751   5.399
 5791TIP3   OH217317   7.522   3.489   6.214
 5791TIP3    H117318   7.456   3.450   6.271
 5791TIP3    H217319   7.502   3.455   6.127
 5792TIP3   OH217320   2.224   0.088   1.581
 5792TIP3    H117321   2.165   0.016   1.605
 5792TIP3    H217322   2.253   0.066   1.493
 5793TIP3   OH217323   3.631   1.113   2.067
 5793TIP3    H117324   3.624   1.200   2.108
 5793TIP3    H217325   3.548   1.104   2.019
 5794TIP3   OH217326   6.035   5.811   2.284
 5794TIP3    H117327   6.032   5.881   2.218
 5794TIP3    H217328   6.128   5.793   2.295
 5795TIP3   OH217329   7.444   4.409   6.101
 5795TIP3    H117330   7.501   4.462   6.046
 5795TIP3    H217331   7.455   4.444   6.190
 5796TIP3   OH217332   3.419   3.505   0.561
 5796TIP3    H117333   3.431   3.485   0.654
 5796TIP3    H217334   3.339   3.458   0.538
 5797TIP3   OH217335   5.090   7.179   6.507
 5797TIP3    H117336   5.010   7.126   6.517
 5797TIP3    H217337   5.062   7.268   6.528
 5798TIP3   OH217338   6.128   2.147   4.913
 5798TIP3    H117339   6.064   2.077   4.920
 5798TIP3    H217340   6.175   2.129   4.832
 5799TIP3   OH217341   5.072   4.961   1.798
 5799TIP3    H117342   5.144   4.909   1.836
 5799TIP3    H217343   5.094   4.967   1.705
 5800TIP3   OH217344   6.629   5.772   4.333
 5800TIP3    H117345   6.575   5.696   4.312
 5800TIP3    H217346   6.685   5.783   4.256
 5801TIP3   OH217347   1.384   7.704   2.827
 5801TIP3    H117348   1.307   7.753   2.800
 5801TIP3    H217349   1.353   7.614   2.837
 5802TIP3   OH217350   4.866   6.114   0.835
 5802TIP3    H117351   4.878   6.076   0.922
 5802TIP3    H217352   4.782   6.080   0.805
 5803TIP3   OH217353   7.456   4.084   5.190
 5803TIP3    H117354   7.381   4.092   5.131
 5803TIP3    H217355   7.511   4.160   5.169
 5804TIP3   OH217356   6.505   7.706   2.599
 5804TIP3    H117357   6.573   7.769   2.622
 5804TIP3    H217358   6.541   7.621   2.624
 5805TIP3   OH217359   6.968   0.842   6.075
 5805TIP3    H117360   7.045   0.786   6.087
 5805TIP3    H217361   6.899   0.782   6.046
 5806TIP3   OH217362   1.438   0.553   2.060
 5806TIP3    H117363   1.454   0.563   1.966
 5806TIP3    H217364   1.445   0.458   2.075
 5807TIP3   OH217365   4.631   7.539   3.171
 5807TIP3    H117366   4.717   7.574   3.197
 5807TIP3    H217367   4.616   7.466   3.231
 5808TIP3   OH217368   3.824   0.124   5.527
 5808TIP3    H117369   3.755   0.099   5.588
 5808TIP3    H217370   3.905   0.111   5.576
 5809TIP3   OH217371   5.039   0.775   0.333
 5809TIP3    H117372   5.065   0.864   0.310
 5809TIP3    H217373   5.094   0.719   0.279
 5810TIP3   OH217374   0.284   7.685   4.747
 5810TIP3    H117375   0.368   7.721   4.778
 5810TIP3    H217376   0.218   7.732   4.798
 5811TIP3   OH217377   3.752   3.403   5.701
 5811TIP3    H117378   3.770   3.436   5.613
 5811TIP3    H217379   3.786   3.470   5.760
 5812TIP3   OH217380   7.064   1.708   5.271
 5812TIP3    H117381   7.158   1.701   5.257
 5812TIP3    H217382   7.056   1.748   5.358
 5813TIP3   OH217383   3.662   4.252   5.078
 5813TIP3    H117384   3.735   4.311   5.058
 5813TIP3    H217385   3.585   4.309   5.077
 5814TIP3   OH217386   2.470   6.305   0.783
 5814TIP3    H117387   2.487   6.338   0.695
 5814TIP3    H217388   2.496   6.377   0.841
 5815TIP3   OH217389   0.275   1.369   0.175
 5815TIP3    H117390   0.186   1.355   0.207
 5815TIP3    H217391   0.281   1.463   0.157
 5816TIP3   OH217392   7.408   5.361   5.763
 5816TIP3    H117393   7.347   5.288   5.764
 5816TIP3    H217394   7.390   5.406   5.680
 5817TIP3   OH217395   6.775   1.401   3.434
 5817TIP3    H117396   6.845   1.341   3.408
 5817TIP3    H217397   6.794   1.482   3.386
 5818TIP3   OH217398   4.211   0.550   3.753
 5818TIP3    H117399   4.293   0.508   3.779
 5818TIP3    H217400   4.225   0.576   3.662
 5819TIP3   OH217401   7.377   2.920   0.086
 5819TIP3    H117402   7.337   3.002   0.057
 5819TIP3    H217403   7.467   2.925   0.056
 5820TIP3   OH217404   1.776   7.450   5.527
 5820TIP3    H117405   1.765   7.496   5.444
 5820TIP3    H217406   1.755   7.359   5.507
 5821TIP3   OH217407   3.048   2.572   0.543
 5821TIP3    H117408   3.005   2.500   0.590
 5821TIP3    H217409   3.058   2.640   0.609
 5822TIP3   OH217410   5.109   1.013   0.239
 5822TIP3    H117411   5.200   1.023   0.212
 5822TIP3    H217412   5.070   1.099   0.223
 5823TIP3   OH217413   3.661   2.273   1.245
 5823TIP3    H117414   3.571   2.304   1.244
 5823TIP3    H217415   3.701   2.309   1.166
 5824TIP3   OH217416   1.377   0.629   5.096
 5824TIP3    H117417   1.451   0.571   5.117
 5824TIP3    H217418   1.303   0.590   5.142
 5825TIP3   OH217419   0.525   3.630   3.069
 5825TIP3    H117420   0.537   3.601   2.978
 5825TIP3    H217421   0.482   3.556   3.111
 5826TIP3   OH217422   5.309   5.355   4.957
 5826TIP3    H117423   5.362   5.427   4.922
 5826TIP3    H217424   5.252   5.396   5.022
 5827TIP3   OH217425   6.213   7.154   1.804
 5827TIP3    H117426   6.295   7.121   1.841
 5827TIP3    H217427   6.215   7.126   1.713
 5828TIP3   OH217428   5.536   3.014   3.148
 5828TIP3    H117429   5.597   2.945   3.121
 5828TIP3    H217430   5.553   3.085   3.087
 5829TIP3   OH217431   8.142   1.902   1.686
 5829TIP3    H117432   8.231   1.928   1.660
 5829TIP3    H217433   8.153   1.867   1.774
 5830TIP3   OH217434   1.119   1.602   0.833
 5830TIP3    H117435   1.137   1.696   0.839
 5830TIP3    H217436   1.049   1.587   0.898
 5831TIP3   OH217437   4.522   3.796   6.531
 5831TIP3    H117438   4.554   3.846   6.456
 5831TIP3    H217439   4.596   3.741   6.556
 5832TIP3   OH217440   6.053   6.565   0.799
 5832TIP3    H117441   6.051   6.616   0.718
 5832TIP3    H217442   6.047   6.631   0.869
 5833TIP3   OH217443   7.730   2.851   3.211
 5833TIP3    H117444   7.796   2.876   3.146
 5833TIP3    H217445   7.655   2.906   3.191
 5834TIP3   OH217446   2.329   3.272   1.765
 5834TIP3    H117447   2.315   3.204   1.700
 5834TIP3    H217448   2.423   3.290   1.762
 5835TIP3   OH217449   5.210   5.801   0.700
 5835TIP3    H117450   5.161   5.726   0.731
 5835TIP3    H217451   5.189   5.808   0.607
 5836TIP3   OH217452   5.277   5.835   5.067
 5836TIP3    H117453   5.228   5.803   4.991
 5836TIP3    H217454   5.337   5.900   5.030
 5837TIP3   OH217455   0.088   7.495   3.293
 5837TIP3    H117456   0.091   7.467   3.384
 5837TIP3    H217457   0.117   7.419   3.243
 5838TIP3   OH217458   0.244   4.560   4.916
 5838TIP3    H117459   0.231   4.653   4.930
 5838TIP3    H217460   0.196   4.518   4.988
 5839TIP3   OH217461   6.582   7.621   2.029
 5839TIP3    H117462   6.538   7.573   1.960
 5839TIP3    H217463   6.673   7.629   2.000
 5840TIP3   OH217464   6.897   3.697   5.312
 5840TIP3    H117465   6.886   3.755   5.237
 5840TIP3    H217466   6.887   3.609   5.276
 5841TIP3   OH217467   1.485   3.600   1.538
 5841TIP3    H117468   1.579   3.589   1.528
 5841TIP3    H217469   1.473   3.692   1.560
 5842TIP3   OH217470   7.360   6.792   3.573
 5842TIP3    H117471   7.326   6.744   3.648
 5842TIP3    H217472   7.445   6.825   3.602
 5843TIP3   OH217473   3.061   7.543   1.775
 5843TIP3    H117474   2.972   7.575   1.758
 5843TIP3    H217475   3.091   7.510   1.690
 5844TIP3   OH217476   5.256   4.103   5.828
 5844TIP3    H117477   5.271   4.123   5.921
 5844TIP3    H217478   5.224   4.013   5.827
 5845TIP3   OH217479   7.108   3.365   3.761
 5845TIP3    H117480   7.202   3.368   3.778
 5845TIP3    H217481   7.072   3.317   3.836
 5846TIP3   OH217482   4.329   2.960   3.024
 5846TIP3    H117483   4.256   2.913   3.064
 5846TIP3    H217484   4.367   3.010   3.096
 5847TIP3   OH217485   3.025   0.770   4.568
 5847TIP3    H117486   3.057   0.775   4.657
 5847TIP3    H217487   2.954   0.835   4.564
 5848TIP3   OH217488   5.132   6.422   6.540
 5848TIP3    H117489   5.226   6.408   6.554
 5848TIP3    H217490   5.112   6.371   6.462
 5849TIP3   OH217491   2.691   7.812   4.402
 5849TIP3    H117492   2.778   7.773   4.408
 5849TIP3    H217493   2.695   7.869   4.326
 5850TIP3   OH217494   2.775   3.879   4.899
 5850TIP3    H117495   2.740   3.929   4.973
 5850TIP3    H217496   2.748   3.928   4.821
 5851TIP3   OH217497   4.220   5.076   1.215
 5851TIP3    H117498   4.313   5.071   1.193
 5851TIP3    H217499   4.175   5.046   1.136
 5852TIP3   OH217500   1.994   4.454   4.243
 5852TIP3    H117501   2.035   4.372   4.269
 5852TIP3    H217502   2.060   4.521   4.263
 5853TIP3   OH217503   4.206   7.197   0.206
 5853TIP3    H117504   4.166   7.234   0.284
 5853TIP3    H217505   4.295   7.232   0.205
 5854TIP3   OH217506   5.410   6.894   4.555
 5854TIP3    H117507   5.329   6.931   4.590
 5854TIP3    H217508   5.480   6.948   4.593
 5855TIP3   OH217509   2.073   5.726   3.550
 5855TIP3    H117510   2.161   5.760   3.568
 5855TIP3    H217511   2.077   5.634   3.578
 5856TIP3   OH217512   2.079   5.952   5.027
 5856TIP3    H117513   2.174   5.955   5.030
 5856TIP3    H217514   2.054   6.032   4.980
 5857TIP3   OH217515   5.488   0.699   4.329
 5857TIP3    H117516   5.449   0.742   4.253
 5857TIP3    H217517   5.548   0.765   4.365
 5858TIP3   OH217518   3.058   4.828   1.522
 5858TIP3    H117519   3.144   4.800   1.492
 5858TIP3    H217520   3.071   4.917   1.554
 5859TIP3   OH217521   6.663   7.770   6.482
 5859TIP3    H117522   6.698   7.687   6.449
 5859TIP3    H217523   6.676   7.766   6.577
 5860TIP3   OH217524   8.204   4.740   2.147
 5860TIP3    H117525   8.137   4.673   2.160
 5860TIP3    H217526   8.280   4.693   2.115
 5861TIP3   OH217527   3.188   6.418   1.582
 5861TIP3    H117528   3.109   6.369   1.602
 5861TIP3    H217529   3.163   6.510   1.593
 5862TIP3   OH217530   5.986   6.743   3.651
 5862TIP3    H117531   6.031   6.780   3.575
 5862TIP3    H217532   5.976   6.817   3.711
 5863TIP3   OH217533   0.558   4.661   3.254
 5863TIP3    H117534   0.583   4.703   3.171
 5863TIP3    H217535   0.501   4.589   3.228
 5864TIP3   OH217536   4.962   6.643   6.602
 5864TIP3    H117537   5.027   6.711   6.618
 5864TIP3    H217538   5.013   6.567   6.574
 5865TIP3   OH217539   2.141   4.949   6.156
 5865TIP3    H117540   2.098   4.906   6.230
 5865TIP3    H217541   2.102   5.037   6.153
 5866TIP3   OH217542   5.934   7.220   0.323
 5866TIP3    H117543   5.953   7.127   0.310
 5866TIP3    H217544   5.985   7.264   0.255
 5867TIP3   OH217545   2.513   7.656   2.280
 5867TIP3    H117546   2.425   7.658   2.316
 5867TIP3    H217547   2.506   7.603   2.201
 5868TIP3   OH217548   0.576   2.326   3.416
 5868TIP3    H117549   0.587   2.342   3.510
 5868TIP3    H217550   0.618   2.401   3.374
 5869TIP3   OH217551   7.097   6.009   2.892
 5869TIP3    H117552   7.188   5.979   2.896
 5869TIP3    H217553   7.056   5.972   2.970
 5870TIP3   OH217554   4.978   1.823   2.684
 5870TIP3    H117555   4.979   1.918   2.676
 5870TIP3    H217556   5.070   1.797   2.677
 5871TIP3   OH217557   6.575   3.052   5.752
 5871TIP3    H117558   6.519   2.990   5.799
 5871TIP3    H217559   6.598   3.007   5.671
 5872TIP3   OH217560   0.779   7.793   0.729
 5872TIP3    H117561   0.715   7.750   0.672
 5872TIP3    H217562   0.726   7.851   0.784
 5873TIP3   OH217563   5.535   2.838   5.600
 5873TIP3    H117564   5.507   2.928   5.610
 5873TIP3    H217565   5.463   2.795   5.553
 5874TIP3   OH217566   7.125   1.182   0.972
 5874TIP3    H117567   7.042   1.213   1.007
 5874TIP3    H217568   7.108   1.091   0.947
 5875TIP3   OH217569   1.989   7.650   6.359
 5875TIP3    H117570   2.071   7.688   6.389
 5875TIP3    H217571   1.991   7.660   6.264
 5876TIP3   OH217572   3.631   6.043   3.073
 5876TIP3    H117573   3.654   6.108   3.139
 5876TIP3    H217574   3.631   6.091   2.990
 5877TIP3   OH217575   0.055   1.180   5.250
 5877TIP3    H117576   0.041   1.092   5.214
 5877TIP3    H217577  -0.008   1.235   5.204
 5878TIP3   OH217578   0.879   5.538   0.469
 5878TIP3    H117579   0.802   5.584   0.502
 5878TIP3    H217580   0.897   5.471   0.534
 5879TIP3   OH217581   5.690   4.155   2.035
 5879TIP3    H117582   5.732   4.085   2.085
 5879TIP3    H217583   5.618   4.185   2.090
 5880TIP3   OH217584   2.748   6.295   0.591
 5880TIP3    H117585   2.675   6.356   0.584
 5880TIP3    H217586   2.802   6.314   0.514
 5881TIP3   OH217587   2.286   2.586   3.107
 5881TIP3    H117588   2.335   2.606   3.027
 5881TIP3    H217589   2.204   2.634   3.097
 5882TIP3   OH217590   7.749   2.614   0.508
 5882TIP3    H117591   7.761   2.699   0.551
 5882TIP3    H217592   7.829   2.565   0.528
 5883TIP3   OH217593   7.622   4.294   2.785
 5883TIP3    H117594   7.676   4.215   2.796
 5883TIP3    H217595   7.542   4.274   2.833
 5884TIP3   OH217596   0.761   4.727   4.111
 5884TIP3    H117597   0.825   4.683   4.167
 5884TIP3    H217598   0.732   4.660   4.050
 5885TIP3   OH217599   0.981   2.274   6.347
 5885TIP3    H117600   1.025   2.206   6.295
 5885TIP3    H217601   0.966   2.233   6.432
 5886TIP3   OH217602   8.180   7.426   0.947
 5886TIP3    H117603   8.134   7.360   0.998
 5886TIP3    H217604   8.157   7.408   0.856
 5887TIP3   OH217605   2.856   2.610   2.775
 5887TIP3    H117606   2.928   2.672   2.760
 5887TIP3    H217607   2.886   2.557   2.849
 5888TIP3   OH217608   1.183   5.185   0.878
 5888TIP3    H117609   1.245   5.116   0.902
 5888TIP3    H217610   1.207   5.208   0.788
 5889TIP3   OH217611   0.645   3.373   3.918
 5889TIP3    H117612   0.599   3.350   3.999
 5889TIP3    H217613   0.657   3.467   3.924
 5890TIP3   OH217614   5.529   0.762   6.032
 5890TIP3    H117615   5.441   0.800   6.043
 5890TIP3    H217616   5.588   0.826   6.071
 5891TIP3   OH217617   7.164   2.646   2.343
 5891TIP3    H117618   7.230   2.709   2.373
 5891TIP3    H217619   7.085   2.698   2.329
 5892TIP3   OH217620   3.040   1.400   0.025
 5892TIP3    H117621   2.990   1.435  -0.049
 5892TIP3    H217622   3.104   1.341  -0.014
 5893TIP3   OH217623   4.953   1.118   0.549
 5893TIP3    H117624   5.025   1.123   0.612
 5893TIP3    H217625   4.982   1.172   0.475
 5894TIP3   OH217626   4.049   5.228   1.682
 5894TIP3    H117627   4.023   5.214   1.591
 5894TIP3    H217628   4.104   5.306   1.679
 5895TIP3   OH217629   7.189   4.087   0.190
 5895TIP3    H117630   7.160   4.017   0.250
 5895TIP3    H217631   7.157   4.168   0.230
 5896TIP3   OH217632   4.746   5.937   4.498
 5896TIP3    H117633   4.686   5.884   4.551
 5896TIP3    H217634   4.696   6.015   4.477
 5897TIP3   OH217635   1.414   1.008   4.145
 5897TIP3    H117636   1.321   1.026   4.162
 5897TIP3    H217637   1.431   0.927   4.192
 5898TIP3   OH217638   6.656   1.812   2.159
 5898TIP3    H117639   6.640   1.818   2.065
 5898TIP3    H217640   6.743   1.850   2.171
 5899TIP3   OH217641   6.852   4.451   1.017
 5899TIP3    H117642   6.828   4.487   0.931
 5899TIP3    H217643   6.769   4.428   1.057
 5900TIP3   OH217644   6.184   6.809   4.296
 5900TIP3    H117645   6.197   6.892   4.250
 5900TIP3    H217646   6.270   6.786   4.331
 5901TIP3   OH217647   6.188   3.555   6.777
 5901TIP3    H117648   6.103   3.594   6.800
 5901TIP3    H217649   6.166   3.485   6.715
 5902TIP3   OH217650   5.433   7.596   2.373
 5902TIP3    H117651   5.430   7.523   2.434
 5902TIP3    H217652   5.476   7.561   2.295
 5903TIP3   OH217653   6.307   3.145   4.760
 5903TIP3    H117654   6.315   3.069   4.703
 5903TIP3    H217655   6.343   3.217   4.708
 5904TIP3   OH217656   4.102   0.820   3.800
 5904TIP3    H117657   4.181   0.767   3.798
 5904TIP3    H217658   4.053   0.789   3.876
 5905TIP3   OH217659   1.900   1.220   3.922
 5905TIP3    H117660   1.941   1.284   3.980
 5905TIP3    H217661   1.961   1.147   3.919
 5906TIP3   OH217662   5.205   1.378   2.082
 5906TIP3    H117663   5.158   1.377   2.165
 5906TIP3    H217664   5.242   1.467   2.077
 5907TIP3   OH217665   1.319   0.049   5.759
 5907TIP3    H117666   1.406   0.034   5.795
 5907TIP3    H217667   1.260   0.031   5.832
 5908TIP3   OH217668   3.499   0.141   4.389
 5908TIP3    H117669   3.433   0.099   4.444
 5908TIP3    H217670   3.562   0.176   4.452
 5909TIP3   OH217671   7.252   6.546   3.483
 5909TIP3    H117672   7.269   6.639   3.498
 5909TIP3    H217673   7.219   6.542   3.393
 5910TIP3   OH217674   5.776   5.333   4.114
 5910TIP3    H117675   5.713   5.277   4.161
 5910TIP3    H217676   5.831   5.369   4.183
 5911TIP3   OH217677   4.675   0.862   0.564
 5911TIP3    H117678   4.580   0.852   0.553
 5911TIP3    H217679   4.696   0.812   0.643
 5912TIP3   OH217680   2.055   4.145   5.524
 5912TIP3    H117681   2.005   4.063   5.514
 5912TIP3    H217682   2.025   4.181   5.607
 5913TIP3   OH217683   3.770   4.963   5.178
 5913TIP3    H117684   3.831   4.966   5.252
 5913TIP3    H217685   3.683   4.969   5.218
 5914TIP3   OH217686   5.237   1.672   2.136
 5914TIP3    H117687   5.254   1.739   2.070
 5914TIP3    H217688   5.192   1.717   2.207
 5915TIP3   OH217689   6.987   1.383   5.231
 5915TIP3    H117690   6.932   1.460   5.246
 5915TIP3    H217691   7.014   1.356   5.319
 5916TIP3   OH217692   1.565   6.365   0.186
 5916TIP3    H117693   1.660   6.358   0.195
 5916TIP3    H217694   1.533   6.279   0.213
 5917TIP3   OH217695   4.054   0.080   3.170
 5917TIP3    H117696   4.101   0.084   3.087
 5917TIP3    H217697   4.122   0.087   3.237
 5918TIP3   OH217698   2.388   0.502   6.033
 5918TIP3    H117699   2.472   0.481   6.075
 5918TIP3    H217700   2.405   0.494   5.939
 5919TIP3   OH217701   0.032   0.161   4.442
 5919TIP3    H117702  -0.045   0.217   4.435
 5919TIP3    H217703   0.010   0.099   4.512
 5920TIP3   OH217704   0.444   2.628   0.137
 5920TIP3    H117705   0.395   2.710   0.124
 5920TIP3    H217706   0.511   2.650   0.202
 5921TIP3   OH217707   5.644   6.565   0.065
 5921TIP3    H117708   5.565   6.602   0.025
 5921TIP3    H217709   5.707   6.560  -0.007
 5922TIP3   OH217710   8.203   7.308   6.769
 5922TIP3    H117711   8.268   7.253   6.724
 5922TIP3    H217712   8.254   7.383   6.800
 5923TIP3   OH217713   5.414   5.660   3.851
 5923TIP3    H117714   5.385   5.707   3.773
 5923TIP3    H217715   5.340   5.667   3.912
 5924TIP3   OH217716   6.449   3.344   1.814
 5924TIP3    H117717   6.534   3.343   1.769
 5924TIP3    H217718   6.427   3.437   1.820
 5925TIP3   OH217719   5.745   1.526   4.644
 5925TIP3    H117720   5.815   1.557   4.702
 5925TIP3    H217721   5.710   1.606   4.605
 5926TIP3   OH217722   2.397   5.315   1.585
 5926TIP3    H117723   2.463   5.276   1.642
 5926TIP3    H217724   2.333   5.245   1.570
 5927TIP3   OH217725   7.485   1.024   0.270
 5927TIP3    H117726   7.551   1.089   0.292
 5927TIP3    H217727   7.521   0.978   0.194
 5928TIP3   OH217728   2.025   6.434   4.020
 5928TIP3    H117729   2.068   6.354   3.990
 5928TIP3    H217730   1.935   6.406   4.040
 5929TIP3   OH217731   1.273   3.486   3.182
 5929TIP3    H117732   1.242   3.401   3.150
 5929TIP3    H217733   1.193   3.533   3.205
 5930TIP3   OH217734   3.518   7.420   2.819
 5930TIP3    H117735   3.557   7.334   2.831
 5930TIP3    H217736   3.593   7.479   2.811
 5931TIP3   OH217737   7.904   4.040   4.139
 5931TIP3    H117738   7.948   4.085   4.210
 5931TIP3    H217739   7.938   4.080   4.059
 5932TIP3   OH217740   3.654   3.833   2.693
 5932TIP3    H117741   3.615   3.747   2.711
 5932TIP3    H217742   3.731   3.836   2.749
 5933TIP3   OH217743   4.906   3.442   6.608
 5933TIP3    H117744   4.902   3.385   6.685
 5933TIP3    H217745   4.993   3.481   6.611
 5934TIP3   OH217746   3.667   6.127   6.009
 5934TIP3    H117747   3.668   6.031   6.004
 5934TIP3    H217748   3.629   6.146   6.094
 5935TIP3   OH217749   6.667   6.828   4.707
 5935TIP3    H117750   6.659   6.893   4.777
 5935TIP3    H217751   6.698   6.878   4.632
 5936TIP3   OH217752   1.608   7.454   2.377
 5936TIP3    H117753   1.689   7.502   2.358
 5936TIP3    H217754   1.636   7.363   2.381
 5937TIP3   OH217755   4.229   1.620   4.487
 5937TIP3    H117756   4.197   1.559   4.421
 5937TIP3    H217757   4.324   1.615   4.481
 5938TIP3   OH217758   0.207   6.584   0.220
 5938TIP3    H117759   0.166   6.535   0.149
 5938TIP3    H217760   0.301   6.581   0.200
 5939TIP3   OH217761   7.452   4.547   3.924
 5939TIP3    H117762   7.474   4.561   4.016
 5939TIP3    H217763   7.379   4.486   3.925
 5940TIP3   OH217764   2.584   3.881   6.003
 5940TIP3    H117765   2.629   3.826   5.939
 5940TIP3    H217766   2.649   3.896   6.072
 5941TIP3   OH217767   7.221   6.687   6.188
 5941TIP3    H117768   7.259   6.705   6.102
 5941TIP3    H217769   7.296   6.678   6.247
 5942TIP3   OH217770   0.425   0.850   3.269
 5942TIP3    H117771   0.415   0.755   3.273
 5942TIP3    H217772   0.337   0.882   3.247
 5943TIP3   OH217773   3.412   1.820   6.440
 5943TIP3    H117774   3.363   1.840   6.361
 5943TIP3    H217775   3.450   1.734   6.424
 5944TIP3   OH217776   5.477   6.500   5.643
 5944TIP3    H117777   5.448   6.577   5.691
 5944TIP3    H217778   5.401   6.472   5.593
 5945TIP3   OH217779   1.178   5.852   0.944
 5945TIP3    H117780   1.132   5.919   0.895
 5945TIP3    H217781   1.188   5.779   0.882
 5946TIP3   OH217782   1.290   3.752   6.473
 5946TIP3    H117783   1.354   3.704   6.525
 5946TIP3    H217784   1.341   3.813   6.420
 5947TIP3   OH217785   7.505   0.966   4.305
 5947TIP3    H117786   7.532   1.025   4.376
 5947TIP3    H217787   7.561   0.990   4.231
 5948TIP3   OH217788   7.175   2.698   0.064
 5948TIP3    H117789   7.113   2.755   0.109
 5948TIP3    H217790   7.242   2.757   0.031
 5949TIP3   OH217791   6.050   0.314   1.117
 5949TIP3    H117792   6.062   0.383   1.182
 5949TIP3    H217793   6.131   0.264   1.120
 5950TIP3   OH217794   6.541   1.416   0.605
 5950TIP3    H117795   6.604   1.345   0.616
 5950TIP3    H217796   6.575   1.467   0.532
 5951TIP3   OH217797   7.080   1.307   6.133
 5951TIP3    H117798   7.161   1.341   6.097
 5951TIP3    H217799   7.070   1.221   6.091
 5952TIP3   OH217800   4.500   6.275   3.667
 5952TIP3    H117801   4.476   6.199   3.721
 5952TIP3    H217802   4.589   6.257   3.639
 5953TIP3   OH217803   3.430   2.643   3.647
 5953TIP3    H117804   3.361   2.681   3.592
 5953TIP3    H217805   3.411   2.549   3.648
 5954TIP3   OH217806   4.462   3.664   2.073
 5954TIP3    H117807   4.503   3.750   2.083
 5954TIP3    H217808   4.534   3.606   2.048
 5955TIP3   OH217809   0.223   4.597   1.551
 5955TIP3    H117810   0.212   4.526   1.487
 5955TIP3    H217811   0.166   4.667   1.520
 5956TIP3   OH217812   2.973   0.209   6.368
 5956TIP3    H117813   2.996   0.165   6.286
 5956TIP3    H217814   3.022   0.161   6.435
 5957TIP3   OH217815   5.858   1.456   1.494
 5957TIP3    H117816   5.952   1.467   1.506
 5957TIP3    H217817   5.826   1.543   1.470
 5958TIP3   OH217818   6.802   5.120   4.584
 5958TIP3    H117819   6.855   5.076   4.651
 5958TIP3    H217820   6.746   5.050   4.549
 5959TIP3   OH217821   1.445   1.271   1.377
 5959TIP3    H117822   1.431   1.211   1.450
 5959TIP3    H217823   1.395   1.233   1.304
 5960TIP3   OH217824   3.675   2.509   2.468
 5960TIP3    H117825   3.672   2.470   2.381
 5960TIP3    H217826   3.695   2.437   2.527
 5961TIP3   OH217827   5.753   3.730   4.988
 5961TIP3    H117828   5.690   3.796   5.017
 5961TIP3    H217829   5.718   3.648   5.023
 5962TIP3   OH217830   8.145   3.871   5.933
 5962TIP3    H117831   8.168   3.878   5.840
 5962TIP3    H217832   8.195   3.941   5.975
 5963TIP3   OH217833   6.746   3.558   3.420
 5963TIP3    H117834   6.776   3.530   3.506
 5963TIP3    H217835   6.746   3.478   3.368
 5964TIP3   OH217836   2.235   4.215   5.336
 5964TIP3    H117837   2.179   4.185   5.407
 5964TIP3    H217838   2.308   4.260   5.380
 5965TIP3   OH217839   0.026   6.629   2.094
 5965TIP3    H117840   0.034   6.534   2.101
 5965TIP3    H217841  -0.066   6.647   2.115
 5966TIP3   OH217842   7.962   4.104   6.445
 5966TIP3    H117843   7.981   4.077   6.534
 5966TIP3    H217844   8.034   4.164   6.422
 5967TIP3   OH217845   1.952   0.141   0.031
 5967TIP3    H117846   2.033   0.116   0.076
 5967TIP3    H217847   1.887   0.077   0.061
 5968TIP3   OH217848   1.754   2.623   2.825
 5968TIP3    H117849   1.779   2.540   2.785
 5968TIP3    H217850   1.737   2.681   2.751
 5969TIP3   OH217851   4.814   6.652   1.567
 5969TIP3    H117852   4.832   6.642   1.473
 5969TIP3    H217853   4.739   6.595   1.583
 5970TIP3   OH217854   4.085   7.429   2.525
 5970TIP3    H117855   4.020   7.393   2.465
 5970TIP3    H217856   4.036   7.494   2.576
 5971TIP3   OH217857   5.546   6.771   4.183
 5971TIP3    H117858   5.578   6.706   4.120
 5971TIP3    H217859   5.518   6.719   4.258
 5972TIP3   OH217860   5.719   2.404   1.325
 5972TIP3    H117861   5.752   2.417   1.414
 5972TIP3    H217862   5.726   2.310   1.311
 5973TIP3   OH217863   5.200   1.223   5.651
 5973TIP3    H117864   5.252   1.149   5.620
 5973TIP3    H217865   5.138   1.184   5.713
 5974TIP3   OH217866   1.515   3.608   1.958
 5974TIP3    H117867   1.514   3.686   1.903
 5974TIP3    H217868   1.583   3.553   1.919
 5975TIP3   OH217869   0.893   7.600   5.748
 5975TIP3    H117870   0.833   7.558   5.810
 5975TIP3    H217871   0.901   7.537   5.677
 5976TIP3   OH217872   6.041   6.130   6.144
 5976TIP3    H117873   5.971   6.176   6.191
 5976TIP3    H217874   6.054   6.182   6.065
 5977TIP3   OH217875   7.261   0.714   5.828
 5977TIP3    H117876   7.186   0.695   5.885
 5977TIP3    H217877   7.316   0.636   5.833
 5978TIP3   OH217878   6.126   5.727   3.209
 5978TIP3    H117879   6.190   5.781   3.256
 5978TIP3    H217880   6.041   5.764   3.234
 5979TIP3   OH217881   3.899   6.467   3.927
 5979TIP3    H117882   3.953   6.389   3.910
 5979TIP3    H217883   3.819   6.433   3.967
 5980TIP3   OH217884   6.663   5.149   1.156
 5980TIP3    H117885   6.600   5.129   1.225
 5980TIP3    H217886   6.666   5.244   1.153
 5981TIP3   OH217887   3.844   6.907   4.612
 5981TIP3    H117888   3.868   6.977   4.672
 5981TIP3    H217889   3.865   6.940   4.525
 5982TIP3   OH217890   5.128   3.180   5.078
 5982TIP3    H117891   5.055   3.195   5.017
 5982TIP3    H217892   5.108   3.095   5.118
 5983TIP3   OH217893   0.908   1.675   1.223
 5983TIP3    H117894   0.883   1.642   1.137
 5983TIP3    H217895   0.964   1.607   1.260
 5984TIP3   OH217896   2.723   3.065   4.756
 5984TIP3    H117897   2.702   2.987   4.705
 5984TIP3    H217898   2.769   3.033   4.833
 5985TIP3   OH217899   0.063   2.997   5.314
 5985TIP3    H117900   0.057   2.960   5.226
 5985TIP3    H217901   0.032   2.927   5.372
 5986TIP3   OH217902   0.794   2.489   0.290
 5986TIP3    H117903   0.733   2.562   0.278
 5986TIP3    H217904   0.741   2.420   0.330
 5987TIP3   OH217905   5.929   6.306   3.232
 5987TIP3    H117906   5.995   6.371   3.256
 5987TIP3    H217907   5.910   6.325   3.140
 5988TIP3   OH217908   0.797   7.559   5.449
 5988TIP3    H117909   0.842   7.488   5.494
 5988TIP3    H217910   0.718   7.518   5.413
 5989TIP3   OH217911   3.576   2.131   5.138
 5989TIP3    H117912   3.597   2.179   5.218
 5989TIP3    H217913   3.556   2.199   5.074
 5990TIP3   OH217914   4.696   2.695   0.795
 5990TIP3    H117915   4.753   2.646   0.855
 5990TIP3    H217916   4.648   2.627   0.747
 5991TIP3   OH217917   4.732   7.061   4.096
 5991TIP3    H117918   4.679   7.060   4.016
 5991TIP3    H217919   4.792   7.135   4.085
 5992TIP3   OH217920   2.388   0.512   4.011
 5992TIP3    H117921   2.301   0.542   4.040
 5992TIP3    H217922   2.424   0.467   4.087
 5993TIP3   OH217923   3.398   4.953   3.164
 5993TIP3    H117924   3.395   4.910   3.079
 5993TIP3    H217925   3.458   5.027   3.153
 5994TIP3   OH217926   1.415   6.065   1.500
 5994TIP3    H117927   1.341   6.123   1.515
 5994TIP3    H217928   1.447   6.043   1.587
 5995TIP3   OH217929   3.499   0.031   2.914
 5995TIP3    H117930   3.538   0.113   2.944
 5995TIP3    H217931   3.407   0.053   2.898
 5996TIP3   OH217932   7.768   3.329   0.943
 5996TIP3    H117933   7.674   3.342   0.954
 5996TIP3    H217934   7.776   3.239   0.910
 5997TIP3   OH217935   5.094   6.191   6.011
 5997TIP3    H117936   5.006   6.189   6.050
 5997TIP3    H217937   5.128   6.103   6.022
 5998TIP3   OH217938   3.286   7.514   3.109
 5998TIP3    H117939   3.263   7.433   3.065
 5998TIP3    H217940   3.259   7.583   3.049
 5999TIP3   OH217941   2.702   1.423   3.440
 5999TIP3    H117942   2.796   1.435   3.437
 5999TIP3    H217943   2.671   1.452   3.354
 6000TIP3   OH217944   5.295   0.826   0.711
 6000TIP3    H117945   5.311   0.883   0.786
 6000TIP3    H217946   5.204   0.841   0.688
 6001TIP3   OH217947   4.264   5.749   4.585
 6001TIP3    H117948   4.194   5.690   4.559
 6001TIP3    H217949   4.290   5.720   4.672
 6002TIP3   OH217950   7.095   3.420   1.090
 6002TIP3    H117951   7.158   3.467   1.145
 6002TIP3    H217952   7.143   3.343   1.059
 6003TIP3   OH217953   3.318   5.478   2.385
 6003TIP3    H117954   3.279   5.460   2.300
 6003TIP3    H217955   3.349   5.393   2.416
 6004TIP3   OH217956   4.806   4.279   4.206
 6004TIP3    H117957   4.712   4.265   4.221
 6004TIP3    H217958   4.848   4.248   4.287
 6005TIP3   OH217959   7.465   1.695   2.392
 6005TIP3    H117960   7.429   1.632   2.455
 6005TIP3    H217961   7.425   1.670   2.308
 6006TIP3   OH217962   5.694   7.293   3.195
 6006TIP3    H117963   5.729   7.283   3.107
 6006TIP3    H217964   5.767   7.271   3.253
 6007TIP3   OH217965   6.640   7.708   0.968
 6007TIP3    H117966   6.585   7.760   1.027
 6007TIP3    H217967   6.722   7.756   0.963
 6008TIP3   OH217968   3.085   0.686   4.166
 6008TIP3    H117969   3.165   0.644   4.133
 6008TIP3    H217970   3.039   0.715   4.087
 6009TIP3   OH217971   2.031   4.948   5.247
 6009TIP3    H117972   2.117   4.921   5.215
 6009TIP3    H217973   1.993   4.998   5.175
 6010TIP3   OH217974   2.230   4.956   0.074
 6010TIP3    H117975   2.261   5.044   0.097
 6010TIP3    H217976   2.152   4.972   0.020
 6011TIP3   OH217977   3.311   0.985   0.016
 6011TIP3    H117978   3.395   0.944   0.034
 6011TIP3    H217979   3.252   0.911   0.000
 6012TIP3   OH217980   6.691   7.159   1.194
 6012TIP3    H117981   6.683   7.134   1.102
 6012TIP3    H217982   6.776   7.203   1.199
 6013TIP3   OH217983   5.123   5.004   0.607
 6013TIP3    H117984   5.214   5.013   0.579
 6013TIP3    H217985   5.126   4.940   0.678
 6014TIP3   OH217986   4.858   2.949   1.991
 6014TIP3    H117987   4.859   2.883   1.921
 6014TIP3    H217988   4.947   2.982   1.995
 6015TIP3   OH217989   2.644   1.953   0.558
 6015TIP3    H117990   2.616   1.910   0.640
 6015TIP3    H217991   2.644   1.883   0.493
 6016TIP3   OH217992   7.685   2.345   2.623
 6016TIP3    H117993   7.733   2.361   2.704
 6016TIP3    H217994   7.600   2.388   2.636
 6017TIP3   OH217995   1.896   7.462   2.459
 6017TIP3    H117996   1.907   7.549   2.419
 6017TIP3    H217997   1.855   7.480   2.543
 6018TIP3   OH217998   1.831   1.658   6.529
 6018TIP3    H117999   1.897   1.595   6.558
 6018TIP3    H218000   1.791   1.690   6.609
 6019TIP3   OH218001   0.721   5.980   2.063
 6019TIP3    H118002   0.647   5.993   2.122
 6019TIP3    H218003   0.742   5.887   2.070
 6020TIP3   OH218004   0.754   1.678   2.220
 6020TIP3    H118005   0.691   1.607   2.207
 6020TIP3    H218006   0.768   1.714   2.132
 6021TIP3   OH218007   7.825   0.121   3.536
 6021TIP3    H118008   7.920   0.121   3.548
 6021TIP3    H218009   7.810   0.057   3.465
 6022TIP3   OH218010   1.328   1.627   4.522
 6022TIP3    H118011   1.259   1.632   4.588
 6022TIP3    H218012   1.302   1.553   4.466
 6023TIP3   OH218013   5.432   6.501   1.578
 6023TIP3    H118014   5.348   6.512   1.534
 6023TIP3    H218015   5.435   6.572   1.643
 6024TIP3   OH218016   5.140   7.563   5.701
 6024TIP3    H118017   5.069   7.598   5.648
 6024TIP3    H218018   5.195   7.639   5.721
 6025TIP3   OH218019   2.355   2.264   5.355
 6025TIP3    H118020   2.399   2.337   5.399
 6025TIP3    H218021   2.285   2.238   5.415
 6026TIP3   OH218022   6.336   2.561   6.660
 6026TIP3    H118023   6.359   2.630   6.722
 6026TIP3    H218024   6.414   2.505   6.656
 6027TIP3   OH218025   8.039   2.820   5.523
 6027TIP3    H118026   8.090   2.751   5.565
 6027TIP3    H218027   8.059   2.811   5.429
 6028TIP3   OH218028   7.695   4.738   0.350
 6028TIP3    H118029   7.731   4.795   0.281
 6028TIP3    H218030   7.601   4.736   0.332
 6029TIP3   OH218031   0.612   4.050   2.670
 6029TIP3    H118032   0.528   4.072   2.710
 6029TIP3    H218033   0.656   3.995   2.736
 6030TIP3   OH218034   4.182   6.583   0.132
 6030TIP3    H118035   4.200   6.542   0.216
 6030TIP3    H218036   4.268   6.596   0.092
 6031TIP3   OH218037   6.766   2.529   5.566
 6031TIP3    H118038   6.757   2.565   5.478
 6031TIP3    H218039   6.734   2.439   5.559
 6032TIP3   OH218040   7.809   4.296   2.508
 6032TIP3    H118041   7.767   4.293   2.422
 6032TIP3    H218042   7.738   4.316   2.569
 6033TIP3   OH218043   5.262   5.422   3.325
 6033TIP3    H118044   5.330   5.391   3.266
 6033TIP3    H218045   5.309   5.470   3.393
 6034TIP3   OH218046   4.869   2.961   2.287
 6034TIP3    H118047   4.806   3.017   2.331
 6034TIP3    H218048   4.822   2.924   2.213
 6035TIP3   OH218049   5.145   2.722   5.682
 6035TIP3    H118050   5.140   2.671   5.762
 6035TIP3    H218051   5.125   2.660   5.612
 6036TIP3   OH218052   4.106   0.350   1.232
 6036TIP3    H118053   4.070   0.265   1.205
 6036TIP3    H218054   4.194   0.330   1.264
 6037TIP3   OH218055   7.308   0.594   4.002
 6037TIP3    H118056   7.385   0.647   3.980
 6037TIP3    H218057   7.312   0.521   3.940
 6038TIP3   OH218058   7.658   7.484   4.806
 6038TIP3    H118059   7.637   7.449   4.892
 6038TIP3    H218060   7.629   7.416   4.745
 6039TIP3   OH218061   6.857   3.367   6.694
 6039TIP3    H118062   6.870   3.450   6.741
 6039TIP3    H218063   6.805   3.313   6.754
 6040TIP3   OH218064   4.966   7.206   2.647
 6040TIP3    H118065   5.052   7.223   2.684
 6040TIP3    H218066   4.921   7.153   2.714
 6041TIP3   OH218067   5.024   4.028   2.938
 6041TIP3    H118068   4.969   3.950   2.936
 6041TIP3    H218069   4.980   4.090   2.879
 6042TIP3   OH218070   8.163   2.048   1.296
 6042TIP3    H118071   8.223   2.046   1.222
 6042TIP3    H218072   8.089   1.995   1.269
 6043TIP3   OH218073   5.367   5.671   2.791
 6043TIP3    H118074   5.412   5.596   2.830
 6043TIP3    H218075   5.379   5.742   2.855
 6044TIP3   OH218076   1.167   5.870   4.250
 6044TIP3    H118077   1.174   5.910   4.337
 6044TIP3    H218078   1.099   5.803   4.260
 6045TIP3   OH218079   3.402   5.815   5.792
 6045TIP3    H118080   3.480   5.823   5.847
 6045TIP3    H218081   3.436   5.795   5.705
 6046TIP3   OH218082   4.287   5.251   0.957
 6046TIP3    H118083   4.236   5.170   0.947
 6046TIP3    H218084   4.244   5.296   1.029
 6047TIP3   OH218085   6.192   2.351   2.925
 6047TIP3    H118086   6.168   2.443   2.930
 6047TIP3    H218087   6.256   2.339   2.996
 6048TIP3   OH218088   2.870   1.758   5.711
 6048TIP3    H118089   2.949   1.730   5.665
 6048TIP3    H218090   2.799   1.744   5.648
 6049TIP3   OH218091   4.269   1.350   6.737
 6049TIP3    H118092   4.317   1.375   6.815
 6049TIP3    H218093   4.309   1.401   6.666
 6050TIP3   OH218094   4.137   6.903   6.172
 6050TIP3    H118095   4.213   6.958   6.155
 6050TIP3    H218096   4.066   6.946   6.123
 6051TIP3   OH218097   6.797   3.164   1.886
 6051TIP3    H118098   6.836   3.166   1.974
 6051TIP3    H218099   6.760   3.252   1.875
 6052TIP3   OH218100   3.125   7.349   5.213
 6052TIP3    H118101   3.089   7.301   5.138
 6052TIP3    H218102   3.055   7.348   5.278
 6053TIP3   OH218103   7.753   3.114   3.407
 6053TIP3    H118104   7.722   3.168   3.335
 6053TIP3    H218105   7.830   3.069   3.372
 6054TIP3   OH218106   3.339   2.153   6.324
 6054TIP3    H118107   3.403   2.085   6.342
 6054TIP3    H218108   3.352   2.218   6.393
 6055TIP3   OH218109   4.962   1.487   1.713
 6055TIP3    H118110   4.942   1.568   1.665
 6055TIP3    H218111   4.968   1.514   1.804
 6056TIP3   OH218112   4.732   5.550   4.774
 6056TIP3    H118113   4.819   5.516   4.756
 6056TIP3    H218114   4.745   5.644   4.789
 6057TIP3   OH218115   0.748   2.889   3.823
 6057TIP3    H118116   0.789   2.806   3.847
 6057TIP3    H218117   0.665   2.889   3.870
 6058TIP3   OH218118   2.597   2.871   5.269
 6058TIP3    H118119   2.558   2.877   5.182
 6058TIP3    H218120   2.657   2.796   5.264
 6059TIP3   OH218121   6.937   5.577   2.651
 6059TIP3    H118122   6.968   5.505   2.706
 6059TIP3    H218123   6.985   5.567   2.569
 6060TIP3   OH218124   4.338   5.811   1.508
 6060TIP3    H118125   4.335   5.841   1.417
 6060TIP3    H218126   4.266   5.747   1.514
 6061TIP3   OH218127   2.230   2.897   1.843
 6061TIP3    H118128   2.307   2.920   1.895
 6061TIP3    H218129   2.175   2.846   1.903
 6062TIP3   OH218130   0.451   1.845   0.167
 6062TIP3    H118131   0.540   1.864   0.135
 6062TIP3    H218132   0.449   1.880   0.256
 6063TIP3   OH218133   7.503   7.420   5.637
 6063TIP3    H118134   7.482   7.356   5.704
 6063TIP3    H218135   7.474   7.380   5.555
 6064TIP3   OH218136   3.896   4.250   1.593
 6064TIP3    H118137   3.946   4.306   1.652
 6064TIP3    H218138   3.864   4.179   1.648
 6065TIP3   OH218139   6.406   0.462   4.963
 6065TIP3    H118140   6.409   0.435   5.054
 6065TIP3    H218141   6.395   0.557   4.966
 6066TIP3   OH218142   5.004   1.825   0.424
 6066TIP3    H118143   5.074   1.762   0.439
 6066TIP3    H218144   4.945   1.814   0.499
 6067TIP3   OH218145   6.963   3.381   5.356
 6067TIP3    H118146   7.017   3.448   5.398
 6067TIP3    H218147   7.026   3.320   5.318
 6068TIP3   OH218148   7.373   2.887   4.892
 6068TIP3    H118149   7.425   2.811   4.919
 6068TIP3    H218150   7.421   2.962   4.929
 6069TIP3   OH218151   7.666   1.276   5.301
 6069TIP3    H118152   7.642   1.220   5.227
 6069TIP3    H218153   7.758   1.256   5.318
 6070TIP3   OH218154   6.426   2.533   0.289
 6070TIP3    H118155   6.363   2.499   0.352
 6070TIP3    H218156   6.384   2.520   0.204
 6071TIP3   OH218157   5.784   6.146   4.023
 6071TIP3    H118158   5.730   6.113   3.952
 6071TIP3    H218159   5.725   6.199   4.076
 6072TIP3   OH218160   7.354   3.341   3.800
 6072TIP3    H118161   7.403   3.405   3.853
 6072TIP3    H218162   7.404   3.260   3.809
 6073TIP3   OH218163   7.523   3.324   5.984
 6073TIP3    H118164   7.433   3.296   5.972
 6073TIP3    H218165   7.568   3.297   5.903
 6074TIP3   OH218166   5.522   2.750   3.626
 6074TIP3    H118167   5.466   2.687   3.579
 6074TIP3    H218168   5.515   2.830   3.574
 6075TIP3   OH218169   5.703   3.052   1.051
 6075TIP3    H118170   5.768   3.114   1.018
 6075TIP3    H218171   5.619   3.087   1.022
 6076TIP3   OH218172   7.256   7.754   0.653
 6076TIP3    H118173   7.292   7.698   0.722
 6076TIP3    H218174   7.292   7.840   0.671
 6077TIP3   OH218175   1.065   6.679   4.016
 6077TIP3    H118176   1.123   6.735   4.068
 6077TIP3    H218177   1.084   6.590   4.046
 6078TIP3   OH218178   0.566   6.279   0.142
 6078TIP3    H118179   0.533   6.189   0.138
 6078TIP3    H218180   0.660   6.271   0.123
 6079TIP3   OH218181   3.940   5.549   5.655
 6079TIP3    H118182   4.034   5.563   5.662
 6079TIP3    H218183   3.901   5.624   5.700
 6080TIP3   OH218184   3.729   6.799   6.456
 6080TIP3    H118185   3.717   6.704   6.461
 6080TIP3    H218186   3.767   6.824   6.540
 6081TIP3   OH218187   7.093   2.497   6.680
 6081TIP3    H118188   7.047   2.581   6.687
 6081TIP3    H218189   7.069   2.450   6.760
 6082TIP3   OH218190   2.447   4.323   4.380
 6082TIP3    H118191   2.434   4.229   4.397
 6082TIP3    H218192   2.455   4.328   4.285
 6083TIP3   OH218193   3.710   0.100   3.744
 6083TIP3    H118194   3.742   0.012   3.766
 6083TIP3    H218195   3.615   0.093   3.751
 6084TIP3   OH218196   3.088   5.962   1.444
 6084TIP3    H118197   3.182   5.976   1.451
 6084TIP3    H218198   3.049   6.039   1.487
 6085TIP3   OH218199   7.686   6.002   3.999
 6085TIP3    H118200   7.771   5.960   3.986
 6085TIP3    H218201   7.675   6.059   3.923
 6086TIP3   OH218202   8.270   5.609   1.848
 6086TIP3    H118203   8.246   5.639   1.936
 6086TIP3    H218204   8.276   5.689   1.796
 6087TIP3   OH218205   0.172   5.116   0.890
 6087TIP3    H118206   0.121   5.154   0.819
 6087TIP3    H218207   0.163   5.022   0.879
 6088TIP3   OH218208   0.885   5.682   1.860
 6088TIP3    H118209   0.877   5.723   1.946
 6088TIP3    H218210   0.978   5.662   1.852
 6089TIP3   OH218211   1.101   5.806   5.998
 6089TIP3    H118212   1.037   5.795   5.928
 6089TIP3    H218213   1.067   5.754   6.071
 6090TIP3   OH218214   1.952   2.973   5.708
 6090TIP3    H118215   1.892   3.047   5.704
 6090TIP3    H218216   1.993   2.971   5.621
 6091TIP3   OH218217   6.211   3.264   4.029
 6091TIP3    H118218   6.262   3.185   4.046
 6091TIP3    H218219   6.232   3.285   3.938
 6092TIP3   OH218220   2.253   2.000   1.525
 6092TIP3    H118221   2.213   2.085   1.511
 6092TIP3    H218222   2.228   1.949   1.448
 6093TIP3   OH218223   0.790   5.367   0.705
 6093TIP3    H118224   0.833   5.302   0.649
 6093TIP3    H218225   0.856   5.390   0.770
 6094TIP3   OH218226   0.663   6.590   6.609
 6094TIP3    H118227   0.577   6.549   6.602
 6094TIP3    H218228   0.656   6.667   6.552
 6095TIP3   OH218229   6.765   0.594   5.759
 6095TIP3    H118230   6.720   0.677   5.742
 6095TIP3    H218231   6.803   0.605   5.847
 6096TIP3   OH218232   6.029   2.447   4.317
 6096TIP3    H118233   6.113   2.402   4.331
 6096TIP3    H218234   5.993   2.407   4.238
 6097TIP3   OH218235   7.703   5.443   6.638
 6097TIP3    H118236   7.736   5.500   6.708
 6097TIP3    H218237   7.626   5.490   6.604
 6098TIP3   OH218238   1.705   5.437   2.188
 6098TIP3    H118239   1.663   5.372   2.131
 6098TIP3    H218240   1.798   5.430   2.167
 6099TIP3   OH218241   6.626   1.310   4.102
 6099TIP3    H118242   6.641   1.379   4.038
 6099TIP3    H218243   6.536   1.324   4.131
 6100TIP3   OH218244   8.058   5.199   1.655
 6100TIP3    H118245   8.109   5.272   1.691
 6100TIP3    H218246   7.984   5.190   1.714
 6101TIP3   OH218247   0.372   6.982   4.621
 6101TIP3    H118248   0.323   7.021   4.694
 6101TIP3    H218249   0.433   6.922   4.663
 6102TIP3   OH218250   6.954   5.704   3.696
 6102TIP3    H118251   7.013   5.764   3.743
 6102TIP3    H218252   6.977   5.715   3.604
 6103TIP3   OH218253   7.610   1.751   5.673
 6103TIP3    H118254   7.642   1.707   5.751
 6103TIP3    H218255   7.518   1.771   5.691
 6104TIP3   OH218256   3.676   7.320   4.068
 6104TIP3    H118257   3.664   7.307   4.162
 6104TIP3    H218258   3.597   7.284   4.028
 6105TIP3   OH218259   7.812   5.561   1.382
 6105TIP3    H118260   7.820   5.474   1.421
 6105TIP3    H218261   7.846   5.620   1.448
 6106TIP3   OH218262   1.252   5.548   2.706
 6106TIP3    H118263   1.164   5.560   2.743
 6106TIP3    H218264   1.272   5.632   2.663
 6107TIP3   OH218265   5.837   5.901   2.959
 6107TIP3    H118266   5.926   5.937   2.968
 6107TIP3    H218267   5.849   5.806   2.959
 6108TIP3   OH218268   6.216   7.595   0.437
 6108TIP3    H118269   6.235   7.519   0.492
 6108TIP3    H218270   6.300   7.642   0.431
 6109TIP3   OH218271   3.821   1.713   5.915
 6109TIP3    H118272   3.779   1.755   5.991
 6109TIP3    H218273   3.849   1.628   5.947
 6110TIP3   OH218274   5.485   4.684   4.548
 6110TIP3    H118275   5.522   4.745   4.611
 6110TIP3    H218276   5.505   4.723   4.463
 6111TIP3   OH218277   0.421   3.522   0.635
 6111TIP3    H118278   0.459   3.524   0.547
 6111TIP3    H218279   0.494   3.542   0.694
 6112TIP3   OH218280   6.877   1.513   6.082
 6112TIP3    H118281   6.893   1.594   6.131
 6112TIP3    H218282   6.949   1.455   6.106
 6113TIP3   OH218283   6.109   6.356   6.768
 6113TIP3    H118284   6.036   6.384   6.823
 6113TIP3    H218285   6.069   6.336   6.684
 6114TIP3   OH218286   3.338   5.325   3.991
 6114TIP3    H118287   3.359   5.346   4.082
 6114TIP3    H218288   3.423   5.302   3.952
 6115TIP3   OH218289   6.299   2.709   4.575
 6115TIP3    H118290   6.209   2.677   4.588
 6115TIP3    H218291   6.344   2.687   4.656
 6116TIP3   OH218292   7.154   3.904   4.332
 6116TIP3    H118293   7.185   3.814   4.344
 6116TIP3    H218294   7.233   3.955   4.319
 6117TIP3   OH218295   6.885   2.319   6.277
 6117TIP3    H118296   6.835   2.390   6.316
 6117TIP3    H218297   6.939   2.361   6.210
 6118TIP3   OH218298   5.617   3.532   1.868
 6118TIP3    H118299   5.639   3.609   1.921
 6118TIP3    H218300   5.668   3.461   1.907
 6119TIP3   OH218301   3.935   1.598   0.070
 6119TIP3    H118302   3.844   1.598   0.100
 6119TIP3    H218303   3.966   1.686   0.091
 6120TIP3   OH218304   7.564   3.849   0.428
 6120TIP3    H118305   7.494   3.785   0.419
 6120TIP3    H218306   7.554   3.883   0.517
 6121TIP3   OH218307   1.080   2.038   6.200
 6121TIP3    H118308   1.044   1.985   6.128
 6121TIP3    H218309   1.104   1.974   6.267
 6122TIP3   OH218310   1.801   1.654   2.197
 6122TIP3    H118311   1.821   1.666   2.104
 6122TIP3    H218312   1.886   1.662   2.241
 6123TIP3   OH218313   0.170   1.427   3.941
 6123TIP3    H118314   0.115   1.493   3.983
 6123TIP3    H218315   0.250   1.474   3.918
 6124TIP3   OH218316   6.829   7.622   4.036
 6124TIP3    H118317   6.919   7.591   4.027
 6124TIP3    H218318   6.816   7.633   4.131
 6125TIP3   OH218319   3.192   6.442   5.083
 6125TIP3    H118320   3.242   6.376   5.131
 6125TIP3    H218321   3.169   6.399   5.001
 6126TIP3   OH218322   1.680   0.273   1.428
 6126TIP3    H118323   1.689   0.366   1.405
 6126TIP3    H218324   1.769   0.238   1.420
 6127TIP3   OH218325   2.775   3.604   2.512
 6127TIP3    H118326   2.844   3.638   2.455
 6127TIP3    H218327   2.817   3.597   2.598
 6128TIP3   OH218328   4.947   3.774   2.524
 6128TIP3    H118329   5.007   3.716   2.478
 6128TIP3    H218330   4.885   3.714   2.567
 6129TIP3   OH218331   8.013   5.003   0.615
 6129TIP3    H118332   8.004   4.908   0.606
 6129TIP3    H218333   7.933   5.038   0.577
 6130TIP3   OH218334   3.395   2.901   1.483
 6130TIP3    H118335   3.313   2.882   1.438
 6130TIP3    H218336   3.429   2.814   1.506
 6131TIP3   OH218337   1.078   0.128   1.872
 6131TIP3    H118338   1.088   0.061   1.804
 6131TIP3    H218339   1.168   0.148   1.899
 6132TIP3   OH218340   0.428   0.893   3.933
 6132TIP3    H118341   0.480   0.851   3.865
 6132TIP3    H218342   0.455   0.985   3.932
 6133TIP3   OH218343   5.243   1.089   4.991
 6133TIP3    H118344   5.297   1.159   5.029
 6133TIP3    H218345   5.234   1.025   5.061
 6134TIP3   OH218346   2.795   3.286   2.494
 6134TIP3    H118347   2.878   3.324   2.524
 6134TIP3    H218348   2.737   3.361   2.483
 6135TIP3   OH218349   0.307   5.941   6.163
 6135TIP3    H118350   0.365   5.903   6.230
 6135TIP3    H218351   0.262   6.011   6.209
 6136TIP3   OH218352   7.723   3.723   4.433
 6136TIP3    H118353   7.812   3.755   4.447
 6136TIP3    H218354   7.679   3.796   4.389
 6137TIP3   OH218355   5.750   2.175   1.195
 6137TIP3    H118356   5.845   2.162   1.198
 6137TIP3    H218357   5.721   2.123   1.120
 6138TIP3   OH218358   2.286   4.007   5.594
 6138TIP3    H118359   2.216   4.066   5.624
 6138TIP3    H218360   2.241   3.944   5.538
 6139TIP3   OH218361   5.247   2.432   6.126
 6139TIP3    H118362   5.154   2.436   6.147
 6139TIP3    H218363   5.291   2.471   6.202
 6140TIP3   OH218364   0.425   3.743   2.267
 6140TIP3    H118365   0.378   3.795   2.201
 6140TIP3    H218366   0.477   3.681   2.216
 6141TIP3   OH218367   3.545   5.135   2.669
 6141TIP3    H118368   3.629   5.090   2.681
 6141TIP3    H218369   3.504   5.134   2.755
 6142TIP3   OH218370   6.145   1.206   3.232
 6142TIP3    H118371   6.094   1.188   3.311
 6142TIP3    H218372   6.216   1.263   3.261
 6143TIP3   OH218373   3.991   4.789   0.888
 6143TIP3    H118374   4.044   4.715   0.919
 6143TIP3    H218375   3.940   4.753   0.816
 6144TIP3   OH218376   5.709   6.556   0.475
 6144TIP3    H118377   5.658   6.484   0.512
 6144TIP3    H218378   5.779   6.513   0.425
 6145TIP3   OH218379   4.244   0.635   2.196
 6145TIP3    H118380   4.336   0.659   2.196
 6145TIP3    H218381   4.240   0.553   2.148
 6146TIP3   OH218382   6.395   3.025   2.461
 6146TIP3    H118383   6.366   2.945   2.505
 6146TIP3    H218384   6.336   3.033   2.385
 6147TIP3   OH218385   2.559   3.247   6.025
 6147TIP3    H118386   2.495   3.310   6.059
 6147TIP3    H218387   2.528   3.227   5.936
 6148TIP3   OH218388   6.306   0.852   0.294
 6148TIP3    H118389   6.376   0.799   0.330
 6148TIP3    H218390   6.232   0.839   0.353
 6149TIP3   OH218391   4.524   3.777   1.327
 6149TIP3    H118392   4.441   3.733   1.343
 6149TIP3    H218393   4.504   3.843   1.260
 6150TIP3   OH218394   0.841   3.408   5.091
 6150TIP3    H118395   0.756   3.371   5.067
 6150TIP3    H218396   0.860   3.471   5.021
 6151TIP3   OH218397   4.107   2.679   6.587
 6151TIP3    H118398   4.064   2.595   6.576
 6151TIP3    H218399   4.057   2.739   6.532
 6152TIP3   OH218400   0.361   4.544   3.131
 6152TIP3    H118401   0.314   4.465   3.106
 6152TIP3    H218402   0.307   4.616   3.096
 6153TIP3   OH218403   3.161   5.862   2.602
 6153TIP3    H118404   3.226   5.931   2.591
 6153TIP3    H218405   3.120   5.854   2.515
 6154TIP3   OH218406   3.847   3.056   1.190
 6154TIP3    H118407   3.912   3.030   1.255
 6154TIP3    H218408   3.765   3.061   1.240
 6155TIP3   OH218409   1.574   5.660   4.814
 6155TIP3    H118410   1.571   5.576   4.767
 6155TIP3    H218411   1.483   5.691   4.813
 6156TIP3   OH218412   8.183   5.283   3.881
 6156TIP3    H118413   8.101   5.333   3.876
 6156TIP3    H218414   8.162   5.199   3.838
 6157TIP3   OH218415   5.921   0.576   6.241
 6157TIP3    H118416   5.869   0.501   6.268
 6157TIP3    H218417   5.947   0.557   6.151
 6158TIP3   OH218418   1.054   7.507   2.738
 6158TIP3    H118419   1.023   7.589   2.778
 6158TIP3    H218420   1.148   7.507   2.754
 6159TIP3   OH218421   0.771   7.316   4.346
 6159TIP3    H118422   0.717   7.251   4.391
 6159TIP3    H218423   0.823   7.265   4.283
 6160TIP3   OH218424   4.451   5.607   1.231
 6160TIP3    H118425   4.534   5.653   1.245
 6160TIP3    H218426   4.391   5.675   1.201
 6161TIP3   OH218427   1.360   2.359   3.648
 6161TIP3    H118428   1.314   2.354   3.564
 6161TIP3    H218429   1.412   2.440   3.641
 6162TIP3   OH218430   5.384   7.423   5.136
 6162TIP3    H118431   5.371   7.338   5.176
 6162TIP3    H218432   5.296   7.450   5.109
 6163TIP3   OH218433   3.646   0.583   1.562
 6163TIP3    H118434   3.627   0.672   1.530
 6163TIP3    H218435   3.741   0.576   1.557
 6164TIP3   OH218436   5.353   6.756   1.693
 6164TIP3    H118437   5.346   6.782   1.601
 6164TIP3    H218438   5.282   6.804   1.737
 6165TIP3   OH218439   5.444   3.086   0.723
 6165TIP3    H118440   5.373   3.079   0.659
 6165TIP3    H218441   5.407   3.053   0.804
 6166TIP3   OH218442   1.124   2.650   5.268
 6166TIP3    H118443   1.135   2.740   5.238
 6166TIP3    H218444   1.076   2.657   5.350
 6167TIP3   OH218445   1.268   7.380   0.756
 6167TIP3    H118446   1.344   7.368   0.813
 6167TIP3    H218447   1.250   7.293   0.721
 6168TIP3   OH218448   0.656   1.301   5.887
 6168TIP3    H118449   0.565   1.325   5.867
 6168TIP3    H218450   0.652   1.208   5.910
 6169TIP3   OH218451   4.918   0.549   2.033
 6169TIP3    H118452   4.953   0.592   1.956
 6169TIP3    H218453   4.979   0.478   2.051
 6170TIP3   OH218454   0.113   2.201   5.814
 6170TIP3    H118455   0.107   2.121   5.866
 6170TIP3    H218456   0.145   2.171   5.728
 6171TIP3   OH218457   4.598   3.227   6.355
 6171TIP3    H118458   4.559   3.296   6.302
 6171TIP3    H218459   4.525   3.188   6.402
 6172TIP3   OH218460   5.272   2.913   2.114
 6172TIP3    H118461   5.259   2.849   2.184
 6172TIP3    H218462   5.198   2.973   2.122
 6173TIP3   OH218463   5.928   7.190   2.617
 6173TIP3    H118464   5.913   7.270   2.667
 6173TIP3    H218465   6.020   7.169   2.632
 6174TIP3   OH218466   4.313   4.116   0.812
 6174TIP3    H118467   4.357   4.125   0.728
 6174TIP3    H218468   4.298   4.022   0.822
 6175TIP3   OH218469   7.966   4.553   4.323
 6175TIP3    H118470   8.010   4.503   4.254
 6175TIP3    H218471   8.006   4.522   4.404
 6176TIP3   OH218472   1.609   0.989   1.683
 6176TIP3    H118473   1.696   1.001   1.644
 6176TIP3    H218474   1.556   1.059   1.647
 6177TIP3   OH218475   7.747   6.971   0.479
 6177TIP3    H118476   7.790   7.029   0.416
 6177TIP3    H218477   7.703   6.905   0.426
 6178TIP3   OH218478   6.946   7.258   1.844
 6178TIP3    H118479   6.891   7.191   1.803
 6178TIP3    H218480   7.015   7.208   1.889
 6179TIP3   OH218481   2.315   2.573   4.769
 6179TIP3    H118482   2.244   2.548   4.829
 6179TIP3    H218483   2.283   2.652   4.726
 6180TIP3   OH218484   0.258   0.454   1.883
 6180TIP3    H118485   0.275   0.381   1.824
 6180TIP3    H218486   0.322   0.443   1.954
 6181TIP3   OH218487   6.621   5.739   3.671
 6181TIP3    H118488   6.571   5.818   3.654
 6181TIP3    H218489   6.693   5.767   3.727
 6182TIP3   OH218490   1.805   4.087   5.798
 6182TIP3    H118491   1.778   4.091   5.890
 6182TIP3    H218492   1.831   3.996   5.785
 6183TIP3   OH218493   6.723   0.712   4.044
 6183TIP3    H118494   6.690   0.775   4.107
 6183TIP3    H218495   6.694   0.744   3.959
 6184TIP3   OH218496   5.833   6.112   2.281
 6184TIP3    H118497   5.753   6.107   2.334
 6184TIP3    H218498   5.802   6.107   2.190
 6185TIP3   OH218499   4.111   5.803   6.605
 6185TIP3    H118500   4.108   5.801   6.509
 6185TIP3    H218501   4.184   5.863   6.626
 6186TIP3   OH218502   7.076   0.533   0.737
 6186TIP3    H118503   7.050   0.590   0.809
 6186TIP3    H218504   7.079   0.590   0.660
 6187TIP3   OH218505   6.608   3.843   0.640
 6187TIP3    H118506   6.535   3.882   0.592
 6187TIP3    H218507   6.570   3.767   0.685
 6188TIP3   OH218508   5.318   4.744   2.658
 6188TIP3    H118509   5.365   4.667   2.691
 6188TIP3    H218510   5.300   4.796   2.737
 6189TIP3   OH218511   0.846   4.450   1.316
 6189TIP3    H118512   0.895   4.386   1.264
 6189TIP3    H218513   0.912   4.513   1.345
 6190TIP3   OH218514   3.180   0.080   1.121
 6190TIP3    H118515   3.131   0.130   1.057
 6190TIP3    H218516   3.118   0.014   1.153
 6191TIP3   OH218517   1.303   0.365   3.157
 6191TIP3    H118518   1.317   0.375   3.251
 6191TIP3    H218519   1.240   0.433   3.135
 6192TIP3   OH218520   6.015   0.753   5.342
 6192TIP3    H118521   5.923   0.744   5.318
 6192TIP3    H218522   6.023   0.705   5.425
 6193TIP3   OH218523   4.587   1.859   4.098
 6193TIP3    H118524   4.562   1.916   4.172
 6193TIP3    H218525   4.596   1.919   4.024
 6194TIP3   OH218526   7.065   5.765   2.106
 6194TIP3    H118527   7.082   5.824   2.180
 6194TIP3    H218528   7.112   5.804   2.033
 6195TIP3   OH218529   6.801   6.149   0.602
 6195TIP3    H118530   6.711   6.182   0.601
 6195TIP3    H218531   6.839   6.179   0.520
 6196TIP3   OH218532   2.638   3.933   4.462
 6196TIP3    H118533   2.665   3.992   4.391
 6196TIP3    H218534   2.552   3.966   4.489
 6197TIP3   OH218535   2.158   0.344   2.753
 6197TIP3    H118536   2.241   0.360   2.708
 6197TIP3    H218537   2.092   0.345   2.683
 6198TIP3   OH218538   4.018   6.226   3.424
 6198TIP3    H118539   3.930   6.262   3.435
 6198TIP3    H218540   4.060   6.237   3.509
 6199TIP3   OH218541   6.826   2.200   6.499
 6199TIP3    H118542   6.758   2.258   6.534
 6199TIP3    H218543   6.838   2.229   6.409
 6200TIP3   OH218544   7.912   4.176   3.586
 6200TIP3    H118545   7.856   4.230   3.641
 6200TIP3    H218546   7.997   4.177   3.631
 6201TIP3   OH218547   7.316   3.452   6.667
 6201TIP3    H118548   7.294   3.467   6.575
 6201TIP3    H218549   7.324   3.357   6.675
 6202TIP3   OH218550   3.163   3.224   1.358
 6202TIP3    H118551   3.152   3.181   1.443
 6202TIP3    H218552   3.078   3.265   1.340
 6203TIP3   OH218553   2.889   3.487   4.291
 6203TIP3    H118554   2.860   3.458   4.205
 6203TIP3    H218555   2.828   3.556   4.316
 6204TIP3   OH218556   5.909   2.762   1.603
 6204TIP3    H118557   5.849   2.834   1.585
 6204TIP3    H218558   5.887   2.733   1.691
 6205TIP3   OH218559   1.467   6.821   5.645
 6205TIP3    H118560   1.481   6.903   5.692
 6205TIP3    H218561   1.476   6.753   5.712
 6206TIP3   OH218562   3.132   6.709   5.502
 6206TIP3    H118563   3.103   6.683   5.414
 6206TIP3    H218564   3.198   6.644   5.526
 6207TIP3   OH218565   7.930   3.920   6.096
 6207TIP3    H118566   8.002   3.903   6.035
 6207TIP3    H218567   7.864   3.965   6.043
 6208TIP3   OH218568   4.640   0.450   1.992
 6208TIP3    H118569   4.720   0.493   2.024
 6208TIP3    H218570   4.604   0.407   2.070
 6209TIP3   OH218571   5.391   6.848   0.194
 6209TIP3    H118572   5.457   6.879   0.255
 6209TIP3    H218573   5.440   6.801   0.127
 6210TIP3   OH218574   1.067   6.404   3.277
 6210TIP3    H118575   0.990   6.363   3.239
 6210TIP3    H218576   1.035   6.450   3.355
 6211TIP3   OH218577   5.739   6.648   3.584
 6211TIP3    H118578   5.815   6.698   3.614
 6211TIP3    H218579   5.693   6.707   3.525
 6212TIP3   OH218580   2.152   0.975   5.055
 6212TIP3    H118581   2.231   0.963   5.108
 6212TIP3    H218582   2.085   1.002   5.118
 6213TIP3   OH218583   7.943   6.831   2.901
 6213TIP3    H118584   7.919   6.748   2.861
 6213TIP3    H218585   8.039   6.829   2.904
 6214TIP3   OH218586   0.650   1.550   2.917
 6214TIP3    H118587   0.640   1.460   2.886
 6214TIP3    H218588   0.667   1.601   2.838
 6215TIP3   OH218589   0.114   5.164   3.034
 6215TIP3    H118590   0.084   5.115   3.111
 6215TIP3    H218591   0.184   5.110   2.997
 6216TIP3   OH218592   2.722   3.760   5.267
 6216TIP3    H118593   2.654   3.757   5.200
 6216TIP3    H218594   2.778   3.834   5.241
 6217TIP3   OH218595   4.234   1.444   2.706
 6217TIP3    H118596   4.276   1.382   2.647
 6217TIP3    H218597   4.156   1.398   2.737
 6218TIP3   OH218598   5.438   6.498   0.261
 6218TIP3    H118599   5.438   6.574   0.318
 6218TIP3    H218600   5.515   6.509   0.205
 6219TIP3   OH218601   7.690   3.128   4.211
 6219TIP3    H118602   7.632   3.201   4.190
 6219TIP3    H218603   7.689   3.123   4.306
 6220TIP3   OH218604   7.981   0.109   3.069
 6220TIP3    H118605   7.946   0.051   3.136
 6220TIP3    H218606   8.061   0.146   3.107
 6221TIP3   OH218607   8.264   2.286   5.359
 6221TIP3    H118608   8.193   2.259   5.302
 6221TIP3    H218609   8.220   2.321   5.437
 6222TIP3   OH218610   5.083   2.917   2.466
 6222TIP3    H118611   5.094   2.987   2.531
 6222TIP3    H218612   5.016   2.950   2.406
 6223TIP3   OH218613   0.023   4.724   6.402
 6223TIP3    H118614   0.110   4.732   6.364
 6223TIP3    H218615  -0.020   4.807   6.382
 6224TIP3   OH218616   6.678   4.420   1.995
 6224TIP3    H118617   6.680   4.478   2.071
 6224TIP3    H218618   6.596   4.443   1.950
 6225TIP3   OH218619   7.735   6.239   0.286
 6225TIP3    H118620   7.744   6.242   0.190
 6225TIP3    H218621   7.650   6.280   0.303
 6226TIP3   OH218622   1.201   2.996   2.361
 6226TIP3    H118623   1.275   3.050   2.387
 6226TIP3    H218624   1.237   2.934   2.298
 6227TIP3   OH218625   0.174   4.196   3.366
 6227TIP3    H118626   0.222   4.114   3.352
 6227TIP3    H218627   0.106   4.174   3.429
 6228TIP3   OH218628   1.267   5.288   0.629
 6228TIP3    H118629   1.246   5.295   0.536
 6228TIP3    H218630   1.361   5.268   0.630
 6229TIP3   OH218631   0.858   7.693   4.139
 6229TIP3    H118632   0.786   7.645   4.181
 6229TIP3    H218633   0.910   7.626   4.095
 6230TIP3   OH218634   0.144   0.348   3.648
 6230TIP3    H118635   0.055   0.377   3.631
 6230TIP3    H218636   0.179   0.412   3.709
 6231TIP3   OH218637   4.259   6.317   0.788
 6231TIP3    H118638   4.342   6.319   0.836
 6231TIP3    H218639   4.282   6.344   0.699
 6232TIP3   OH218640   0.046   3.161   2.970
 6232TIP3    H118641   0.139   3.136   2.965
 6232TIP3    H218642   0.032   3.215   2.893
 6233TIP3   OH218643   5.945   6.165   1.056
 6233TIP3    H118644   5.917   6.157   1.147
 6233TIP3    H218645   5.914   6.252   1.029
 6234TIP3   OH218646   2.823   5.280   0.737
 6234TIP3    H118647   2.905   5.258   0.692
 6234TIP3    H218648   2.818   5.375   0.731
 6235TIP3   OH218649   3.119   4.166   0.578
 6235TIP3    H118650   3.044   4.120   0.616
 6235TIP3    H218651   3.123   4.133   0.488
 6236TIP3   OH218652   6.821   2.300   2.685
 6236TIP3    H118653   6.796   2.293   2.592
 6236TIP3    H218654   6.879   2.376   2.689
 6237TIP3   OH218655   2.068   1.631   1.662
 6237TIP3    H118656   2.137   1.659   1.722
 6237TIP3    H218657   2.009   1.578   1.715
 6238TIP3   OH218658   4.645   3.664   4.412
 6238TIP3    H118659   4.577   3.731   4.409
 6238TIP3    H218660   4.606   3.591   4.460
 6239TIP3   OH218661   4.950   4.843   2.572
 6239TIP3    H118662   4.969   4.778   2.640
 6239TIP3    H218663   4.854   4.851   2.574
 6240TIP3   OH218664   6.333   3.616   5.663
 6240TIP3    H118665   6.383   3.691   5.697
 6240TIP3    H218666   6.372   3.600   5.577
 6241TIP3   OH218667   6.141   3.582   2.239
 6241TIP3    H118668   6.205   3.511   2.237
 6241TIP3    H218669   6.194   3.662   2.248
 6242TIP3   OH218670   8.055   1.097   4.606
 6242TIP3    H118671   8.056   1.011   4.563
 6242TIP3    H218672   8.123   1.147   4.560
 6243TIP3   OH218673   3.950   1.863   4.913
 6243TIP3    H118674   4.028   1.813   4.888
 6243TIP3    H218675   3.896   1.800   4.960
 6244TIP3   OH218676   1.023   3.588   3.259
 6244TIP3    H118677   0.984   3.509   3.296
 6244TIP3    H218678   0.949   3.646   3.242
 6245TIP3   OH218679   1.988   7.122   6.670
 6245TIP3    H118680   1.933   7.064   6.618
 6245TIP3    H218681   2.077   7.104   6.640
 6246TIP3   OH218682   4.929   7.263   1.481
 6246TIP3    H118683   4.901   7.209   1.407
 6246TIP3    H218684   4.860   7.329   1.489
 6247TIP3   OH218685   3.089   2.906   0.660
 6247TIP3    H118686   3.119   2.930   0.572
 6247TIP3    H218687   3.152   2.841   0.690
 6248TIP3   OH218688   2.091   2.229   1.535
 6248TIP3    H118689   2.028   2.294   1.502
 6248TIP3    H218690   2.045   2.186   1.607
 6249TIP3   OH218691   7.993   2.301   3.392
 6249TIP3    H118692   7.960   2.355   3.321
 6249TIP3    H218693   8.085   2.326   3.400
 6250TIP3   OH218694   4.215   1.049   1.798
 6250TIP3    H118695   4.252   1.017   1.880
 6250TIP3    H218696   4.158   1.122   1.824
 6251TIP3   OH218697   3.041   2.037   0.668
 6251TIP3    H118698   3.004   2.124   0.686
 6251TIP3    H218699   3.015   1.984   0.744
 6252TIP3   OH218700   2.263   0.617   1.698
 6252TIP3    H118701   2.226   0.531   1.677
 6252TIP3    H218702   2.341   0.598   1.750
 6253TIP3   OH218703   1.698   3.444   3.270
 6253TIP3    H118704   1.778   3.393   3.257
 6253TIP3    H218705   1.663   3.457   3.182
 6254TIP3   OH218706   1.148   5.391   2.381
 6254TIP3    H118707   1.207   5.464   2.401
 6254TIP3    H218708   1.166   5.371   2.289
 6255TIP3   OH218709   1.943   4.657   1.748
 6255TIP3    H118710   1.900   4.715   1.685
 6255TIP3    H218711   1.896   4.673   1.830
 6256TIP3   OH218712   4.780   7.752   3.455
 6256TIP3    H118713   4.815   7.727   3.541
 6256TIP3    H218714   4.702   7.699   3.445
 6257TIP3   OH218715   2.565   1.776   5.164
 6257TIP3    H118716   2.493   1.832   5.194
 6257TIP3    H218717   2.604   1.742   5.245
 6258TIP3   OH218718   5.676   2.726   4.082
 6258TIP3    H118719   5.621   2.674   4.141
 6258TIP3    H218720   5.679   2.813   4.122
 6259TIP3   OH218721   6.890   1.774   0.944
 6259TIP3    H118722   6.832   1.702   0.920
 6259TIP3    H218723   6.915   1.813   0.860
 6260TIP3   OH218724   0.409   2.657   3.744
 6260TIP3    H118725   0.315   2.668   3.736
 6260TIP3    H218726   0.420   2.577   3.796
 6261TIP3   OH218727   5.458   3.123   3.740
 6261TIP3    H118728   5.443   3.141   3.647
 6261TIP3    H218729   5.375   3.146   3.782
 6262TIP3   OH218730   8.008   3.441   1.755
 6262TIP3    H118731   8.038   3.366   1.806
 6262TIP3    H218732   7.950   3.404   1.689
 6263TIP3   OH218733   3.429   0.073   3.822
 6263TIP3    H118734   3.391   0.160   3.814
 6263TIP3    H218735   3.459   0.068   3.913
 6264TIP3   OH218736   1.813   5.648   1.173
 6264TIP3    H118737   1.748   5.583   1.147
 6264TIP3    H218738   1.796   5.663   1.267
 6265TIP3   OH218739   2.143   4.465   5.145
 6265TIP3    H118740   2.214   4.417   5.188
 6265TIP3    H218741   2.086   4.492   5.217
 6266TIP3   OH218742   3.970   4.911   3.693
 6266TIP3    H118743   4.030   4.863   3.750
 6266TIP3    H218744   3.948   4.990   3.743
 6267TIP3   OH218745   3.899   2.643   0.542
 6267TIP3    H118746   3.876   2.554   0.514
 6267TIP3    H218747   3.911   2.636   0.636
 6268TIP3   OH218748   3.473   1.650   2.777
 6268TIP3    H118749   3.558   1.609   2.761
 6268TIP3    H218750   3.482   1.693   2.863
 6269TIP3   OH218751   0.882   7.248   6.322
 6269TIP3    H118752   0.962   7.297   6.304
 6269TIP3    H218753   0.866   7.261   6.415
 6270TIP3   OH218754   5.002  -0.005   3.577
 6270TIP3    H118755   4.995   0.079   3.622
 6270TIP3    H218756   5.020   0.017   3.486
 6271TIP3   OH218757   8.254   3.372   4.010
 6271TIP3    H118758   8.253   3.417   4.095
 6271TIP3    H218759   8.300   3.433   3.952
 6272TIP3   OH218760   5.576   1.766   2.301
 6272TIP3    H118761   5.664   1.785   2.332
 6272TIP3    H218762   5.544   1.848   2.264
 6273TIP3   OH218763   0.937   5.616   0.127
 6273TIP3    H118764   0.845   5.625   0.101
 6273TIP3    H218765   0.985   5.617   0.044
 6274TIP3   OH218766   2.844   4.671   2.646
 6274TIP3    H118767   2.818   4.729   2.575
 6274TIP3    H218768   2.862   4.587   2.603
 6275TIP3   OH218769   0.784   2.071   0.432
 6275TIP3    H118770   0.776   2.005   0.363
 6275TIP3    H218771   0.859   2.042   0.484
 6276TIP3   OH218772   2.290   6.944   2.775
 6276TIP3    H118773   2.360   6.995   2.736
 6276TIP3    H218774   2.262   6.995   2.851
 6277TIP3   OH218775   0.200   2.108   1.857
 6277TIP3    H118776   0.108   2.096   1.882
 6277TIP3    H218777   0.247   2.106   1.940
 6278TIP3   OH218778   4.177   2.950   3.745
 6278TIP3    H118779   4.195   2.868   3.789
 6278TIP3    H218780   4.263   2.984   3.719
 6279TIP3   OH218781   6.645   7.620   5.611
 6279TIP3    H118782   6.632   7.533   5.650
 6279TIP3    H218783   6.608   7.613   5.523
 6280TIP3   OH218784   4.208   0.550   5.792
 6280TIP3    H118785   4.160   0.538   5.711
 6280TIP3    H218786   4.142   0.542   5.861
 6281TIP3   OH218787   2.410   3.635   4.604
 6281TIP3    H118788   2.502   3.609   4.606
 6281TIP3    H218789   2.410   3.722   4.645
 6282TIP3   OH218790   3.548   1.207   5.719
 6282TIP3    H118791   3.616   1.275   5.726
 6282TIP3    H218792   3.552   1.162   5.804
 6283TIP3   OH218793   1.555   2.595   4.241
 6283TIP3    H118794   1.606   2.662   4.287
 6283TIP3    H218795   1.473   2.639   4.219
 6284TIP3   OH218796   6.544   1.679   2.833
 6284TIP3    H118797   6.501   1.762   2.853
 6284TIP3    H218798   6.637   1.698   2.838
 6285TIP3   OH218799   0.535   6.228   3.029
 6285TIP3    H118800   0.502   6.294   3.090
 6285TIP3    H218801   0.591   6.278   2.969
 6286TIP3   OH218802   4.072   6.510   6.049
 6286TIP3    H118803   4.002   6.543   6.105
 6286TIP3    H218804   4.150   6.513   6.104
 6287TIP3   OH218805   6.919   6.851   3.426
 6287TIP3    H118806   6.879   6.794   3.491
 6287TIP3    H218807   6.953   6.792   3.359
 6288TIP3   OH218808   0.136   0.938   2.595
 6288TIP3    H118809   0.080   0.890   2.533
 6288TIP3    H218810   0.176   0.870   2.649
 6289TIP3   OH218811   3.676   2.585   3.738
 6289TIP3    H118812   3.592   2.631   3.742
 6289TIP3    H218813   3.652   2.492   3.744
 6290TIP3   OH218814   3.133   5.399   3.777
 6290TIP3    H118815   3.176   5.369   3.858
 6290TIP3    H218816   3.061   5.337   3.764
 6291TIP3   OH218817   4.113   5.035   0.935
 6291TIP3    H118818   4.080   4.946   0.929
 6291TIP3    H218819   4.067   5.083   0.865
 6292TIP3   OH218820   1.048   2.145   0.672
 6292TIP3    H118821   1.042   2.070   0.614
 6292TIP3    H218822   1.004   2.216   0.624
 6293TIP3   OH218823   3.220   3.065   3.792
 6293TIP3    H118824   3.168   3.077   3.713
 6293TIP3    H218825   3.295   3.014   3.764
 6294TIP3   OH218826   1.959   6.901   5.356
 6294TIP3    H118827   2.008   6.820   5.370
 6294TIP3    H218828   1.919   6.920   5.441
 6295TIP3   OH218829   6.473   1.664   5.422
 6295TIP3    H118830   6.445   1.733   5.482
 6295TIP3    H218831   6.510   1.712   5.347
 6296TIP3   OH218832   6.488   3.961   1.504
 6296TIP3    H118833   6.420   3.913   1.551
 6296TIP3    H218834   6.471   3.942   1.411
 6297TIP3   OH218835   2.899   6.469   6.721
 6297TIP3    H118836   2.876   6.495   6.810
 6297TIP3    H218837   2.960   6.537   6.691
 6298TIP3   OH218838   4.614   6.877   2.027
 6298TIP3    H118839   4.667   6.806   1.990
 6298TIP3    H218840   4.639   6.955   1.977
 6299TIP3   OH218841   0.222   4.595   5.203
 6299TIP3    H118842   0.236   4.507   5.237
 6299TIP3    H218843   0.186   4.644   5.277
 6300TIP3   OH218844   3.087   5.225   3.089
 6300TIP3    H118845   3.176   5.262   3.086
 6300TIP3    H218846   3.073   5.206   3.182
 6301TIP3   OH218847   1.366   3.776   2.931
 6301TIP3    H118848   1.432   3.787   2.999
 6301TIP3    H218849   1.298   3.840   2.953
 6302TIP3   OH218850   4.580   2.381   4.062
 6302TIP3    H118851   4.567   2.451   3.998
 6302TIP3    H218852   4.496   2.335   4.065
 6303TIP3   OH218853   4.767   3.396   3.664
 6303TIP3    H118854   4.855   3.406   3.629
 6303TIP3    H218855   4.710   3.422   3.592
 6304TIP3   OH218856   1.163   4.520   0.189
 6304TIP3    H118857   1.253   4.552   0.188
 6304TIP3    H218858   1.172   4.425   0.178
 6305TIP3   OH218859   4.324   2.123   3.748
 6305TIP3    H118860   4.343   2.031   3.730
 6305TIP3    H218861   4.309   2.127   3.842
 6306TIP3   OH218862   0.759   0.101   0.722
 6306TIP3    H118863   0.698   0.029   0.709
 6306TIP3    H218864   0.817   0.072   0.792
 6307TIP3   OH218865   5.577   4.519   5.142
 6307TIP3    H118866   5.650   4.564   5.100
 6307TIP3    H218867   5.502   4.578   5.130
 6308TIP3   OH218868   0.382   5.108   1.056
 6308TIP3    H118869   0.337   5.041   1.108
 6308TIP3    H218870   0.316   5.136   0.992
 6309TIP3   OH218871   6.246   3.083   3.126
 6309TIP3    H118872   6.260   2.988   3.131
 6309TIP3    H218873   6.208   3.106   3.211
 6310TIP3   OH218874   0.059   0.805   2.890
 6310TIP3    H118875  -0.017   0.842   2.845
 6310TIP3    H218876   0.097   0.878   2.939
 6311TIP3   OH218877   7.383   7.150   1.520
 6311TIP3    H118878   7.377   7.103   1.436
 6311TIP3    H218879   7.307   7.120   1.569
 6312TIP3   OH218880   6.354   4.403   5.243
 6312TIP3    H118881   6.284   4.462   5.273
 6312TIP3    H218882   6.383   4.358   5.322
 6313TIP3   OH218883   0.270   3.284   4.850
 6313TIP3    H118884   0.184   3.243   4.852
 6313TIP3    H218885   0.332   3.213   4.866
 6314TIP3   OH218886   0.059   6.587   1.804
 6314TIP3    H118887   0.027   6.580   1.894
 6314TIP3    H218888  -0.020   6.589   1.750
 6315TIP3   OH218889   7.468   7.561   3.672
 6315TIP3    H118890   7.482   7.484   3.617
 6315TIP3    H218891   7.375   7.581   3.662
 6316TIP3   OH218892   1.478   6.566   4.417
 6316TIP3    H118893   1.402   6.623   4.426
 6316TIP3    H218894   1.460   6.492   4.476
 6317TIP3   OH218895   2.011   1.964   5.692
 6317TIP3    H118896   1.934   2.003   5.650
 6317TIP3    H218897   2.063   2.040   5.720
 6318TIP3   OH218898   2.257   2.840   0.346
 6318TIP3    H118899   2.340   2.876   0.313
 6318TIP3    H218900   2.252   2.753   0.307
 6319TIP3   OH218901   7.201   3.020   4.010
 6319TIP3    H118902   7.139   2.975   3.952
 6319TIP3    H218903   7.193   2.974   4.094
 6320TIP3   OH218904   6.066   5.532   4.513
 6320TIP3    H118905   6.093   5.442   4.498
 6320TIP3    H218906   5.992   5.526   4.573
 6321TIP3   OH218907   0.730   3.943   1.329
 6321TIP3    H118908   0.661   3.970   1.390
 6321TIP3    H218909   0.737   3.848   1.342
 6322TIP3   OH218910   4.854   3.718   0.540
 6322TIP3    H118911   4.804   3.659   0.484
 6322TIP3    H218912   4.792   3.745   0.608
 6323TIP3   OH218913   6.960   6.870   2.570
 6323TIP3    H118914   6.975   6.955   2.529
 6323TIP3    H218915   6.982   6.883   2.662
 6324TIP3   OH218916   1.866   0.122   5.062
 6324TIP3    H118917   1.930   0.051   5.064
 6324TIP3    H218918   1.801   0.098   5.128
 6325TIP3   OH218919   2.105   4.699   2.200
 6325TIP3    H118920   2.082   4.740   2.283
 6325TIP3    H218921   2.067   4.756   2.133
 6326TIP3   OH218922   4.249   0.779   1.662
 6326TIP3    H118923   4.156   0.780   1.685
 6326TIP3    H218924   4.253   0.725   1.583
 6327TIP3   OH218925   1.354   1.147   3.628
 6327TIP3    H118926   1.406   1.226   3.615
 6327TIP3    H218927   1.402   1.079   3.581
 6328TIP3   OH218928   3.805   5.052   2.828
 6328TIP3    H118929   3.765   5.014   2.906
 6328TIP3    H218930   3.890   5.008   2.821
 6329TIP3   OH218931   0.272   0.754   0.592
 6329TIP3    H118932   0.311   0.727   0.509
 6329TIP3    H218933   0.322   0.708   0.659
 6330TIP3   OH218934   0.736   0.413   4.636
 6330TIP3    H118935   0.785   0.487   4.673
 6330TIP3    H218936   0.803   0.357   4.597
 6331TIP3   OH218937   8.224   7.225   3.530
 6331TIP3    H118938   8.172   7.259   3.603
 6331TIP3    H218939   8.164   7.222   3.456
 6332TIP3   OH218940   7.011   0.416   1.252
 6332TIP3    H118941   7.010   0.335   1.303
 6332TIP3    H218942   7.041   0.389   1.165
 6333TIP3   OH218943   1.537   4.984   2.030
 6333TIP3    H118944   1.528   4.901   1.984
 6333TIP3    H218945   1.486   4.972   2.111
 6334TIP3   OH218946   3.056   3.752   0.148
 6334TIP3    H118947   2.993   3.776   0.216
 6334TIP3    H218948   3.137   3.795   0.175
 6335TIP3   OH218949   7.957   0.351   6.387
 6335TIP3    H118950   7.878   0.403   6.368
 6335TIP3    H218951   7.988   0.322   6.301
 6336TIP3   OH218952   1.531   0.694   3.753
 6336TIP3    H118953   1.526   0.738   3.668
 6336TIP3    H218954   1.442   0.697   3.788
 6337TIP3   OH218955   2.208   1.451   1.981
 6337TIP3    H118956   2.268   1.495   1.921
 6337TIP3    H218957   2.122   1.484   1.958
 6338TIP3   OH218958   2.692   7.013   6.637
 6338TIP3    H118959   2.759   7.079   6.653
 6338TIP3    H218960   2.614   7.063   6.613
 6339TIP3   OH218961   0.373   1.341   6.436
 6339TIP3    H118962   0.440   1.408   6.420
 6339TIP3    H218963   0.394   1.272   6.373
 6340TIP3   OH218964   3.701   2.650   1.452
 6340TIP3    H118965   3.728   2.635   1.362
 6340TIP3    H218966   3.723   2.741   1.470
 6341TIP3   OH218967   6.262   7.652   5.828
 6341TIP3    H118968   6.228   7.646   5.917
 6341TIP3    H218969   6.223   7.577   5.783
 6342TIP3   OH218970   7.466   6.534   0.933
 6342TIP3    H118971   7.526   6.488   0.992
 6342TIP3    H218972   7.503   6.622   0.926
 6343TIP3   OH218973   3.771   3.858   6.445
 6343TIP3    H118974   3.844   3.801   6.470
 6343TIP3    H218975   3.788   3.880   6.353
 6344TIP3   OH218976   0.883   1.298   3.923
 6344TIP3    H118977   0.955   1.338   3.971
 6344TIP3    H218978   0.837   1.245   3.988
 6345TIP3   OH218979   6.328   2.500   3.152
 6345TIP3    H118980   6.396   2.439   3.124
 6345TIP3    H218981   6.359   2.534   3.236
 6346TIP3   OH218982   0.916   2.185   6.592
 6346TIP3    H118983   0.867   2.263   6.617
 6346TIP3    H218984   0.933   2.140   6.675
 6347TIP3   OH218985   0.879   6.754   2.347
 6347TIP3    H118986   0.955   6.786   2.396
 6347TIP3    H218987   0.914   6.684   2.291
 6348TIP3   OH218988   1.744   1.293   1.222
 6348TIP3    H118989   1.656   1.315   1.254
 6348TIP3    H218990   1.776   1.374   1.183
 6349TIP3   OH218991   6.905   2.758   3.622
 6349TIP3    H118992   6.944   2.808   3.550
 6349TIP3    H218993   6.858   2.824   3.673
 6350TIP3   OH218994   4.690   6.488   2.628
 6350TIP3    H118995   4.620   6.425   2.643
 6350TIP3    H218996   4.646   6.573   2.627
 6351TIP3   OH218997   5.925   3.511   1.321
 6351TIP3    H118998   5.926   3.536   1.229
 6351TIP3    H218999   5.937   3.416   1.320
 6352TIP3   OH219000   5.741   5.215   0.529
 6352TIP3    H119001   5.830   5.196   0.497
 6352TIP3    H219002   5.684   5.159   0.475
 6353TIP3   OH219003   6.097   3.187   3.698
 6353TIP3    H119004   6.041   3.167   3.773
 6353TIP3    H219005   6.173   3.230   3.737
 6354TIP3   OH219006   1.540   3.842   5.101
 6354TIP3    H119007   1.515   3.811   5.188
 6354TIP3    H219008   1.459   3.840   5.050
 6355TIP3   OH219009   4.024   0.804   2.112
 6355TIP3    H119010   3.996   0.770   2.027
 6355TIP3    H219011   4.085   0.738   2.145
 6356TIP3   OH219012   6.849   5.336   4.417
 6356TIP3    H119013   6.820   5.257   4.462
 6356TIP3    H219014   6.939   5.349   4.446
 6357TIP3   OH219015   1.854   2.624   4.828
 6357TIP3    H119016   1.840   2.570   4.906
 6357TIP3    H219017   1.882   2.561   4.761
 6358TIP3   OH219018   8.051   5.755   5.315
 6358TIP3    H119019   8.053   5.815   5.389
 6358TIP3    H219020   8.087   5.673   5.349
 6359TIP3   OH219021   4.777   7.240   3.141
 6359TIP3    H119022   4.702   7.183   3.159
 6359TIP3    H219023   4.774   7.307   3.210
 6360TIP3   OH219024   2.678   4.146   3.986
 6360TIP3    H119025   2.737   4.075   3.959
 6360TIP3    H219026   2.634   4.173   3.905
 6361TIP3   OH219027   5.396   1.308   3.722
 6361TIP3    H119028   5.488   1.333   3.709
 6361TIP3    H219029   5.347   1.370   3.668
 6362TIP3   OH219030   2.089   5.606   6.372
 6362TIP3    H119031   2.183   5.594   6.385
 6362TIP3    H219032   2.078   5.615   6.278
 6363TIP3   OH219033   6.074   7.063   3.664
 6363TIP3    H119034   6.154   7.016   3.688
 6363TIP3    H219035   6.100   7.116   3.588
 6364TIP3   OH219036   6.503   4.551   3.805
 6364TIP3    H119037   6.422   4.509   3.775
 6364TIP3    H219038   6.561   4.549   3.730
 6365TIP3   OH219039   1.023   3.943   2.016
 6365TIP3    H119040   1.037   3.964   2.108
 6365TIP3    H219041   1.099   3.891   1.991
 6366TIP3   OH219042   1.480   7.706   6.403
 6366TIP3    H119043   1.458   7.796   6.380
 6366TIP3    H219044   1.509   7.667   6.321
 6367TIP3   OH219045   2.334   0.654   5.181
 6367TIP3    H119046   2.263   0.665   5.244
 6367TIP3    H219047   2.343   0.739   5.139
 6368TIP3   OH219048   1.806   5.580   0.190
 6368TIP3    H119049   1.795   5.531   0.108
 6368TIP3    H219050   1.805   5.672   0.162
 6369TIP3   OH219051   4.191   5.957   5.440
 6369TIP3    H119052   4.171   5.894   5.371
 6369TIP3    H219053   4.202   6.040   5.394
 6370TIP3   OH219054   3.046   7.249   4.719
 6370TIP3    H119055   2.966   7.250   4.666
 6370TIP3    H219056   3.016   7.232   4.808
 6371TIP3   OH219057   5.878   0.782   0.972
 6371TIP3    H119058   5.870   0.692   1.007
 6371TIP3    H219059   5.877   0.771   0.877
 6372TIP3   OH219060   4.836   1.697   3.974
 6372TIP3    H119061   4.873   1.786   3.974
 6372TIP3    H219062   4.911   1.640   3.954
 6373TIP3   OH219063   8.162   2.614   1.339
 6373TIP3    H119064   8.179   2.611   1.245
 6373TIP3    H219065   8.132   2.703   1.356
 6374TIP3   OH219066   3.679   2.276   4.271
 6374TIP3    H119067   3.597   2.322   4.292
 6374TIP3    H219068   3.660   2.184   4.287
 6375TIP3   OH219069   0.117   1.153   2.908
 6375TIP3    H119070   0.071   1.217   2.962
 6375TIP3    H219071   0.095   1.178   2.818
 6376TIP3   OH219072   5.762   3.230   4.419
 6376TIP3    H119073   5.799   3.291   4.484
 6376TIP3    H219074   5.820   3.238   4.343
 6377TIP3   OH219075   7.040   2.016   6.479
 6377TIP3    H119076   7.106   2.067   6.527
 6377TIP3    H219077   6.964   2.074   6.475
 6378TIP3   OH219078   0.132   2.458   6.500
 6378TIP3    H119079   0.078   2.387   6.535
 6378TIP3    H219080   0.080   2.494   6.428
 6379TIP3   OH219081   5.509   3.835   3.360
 6379TIP3    H119082   5.480   3.812   3.272
 6379TIP3    H219083   5.453   3.784   3.419
 6380TIP3   OH219084   0.198   5.518   1.516
 6380TIP3    H119085   0.227   5.453   1.452
 6380TIP3    H219086   0.227   5.482   1.600
 6381TIP3   OH219087   2.788   5.941   4.783
 6381TIP3    H119088   2.710   5.962   4.732
 6381TIP3    H219089   2.756   5.923   4.871
 6382TIP3   OH219090   5.172   1.577   5.664
 6382TIP3    H119091   5.132   1.518   5.600
 6382TIP3    H219092   5.173   1.662   5.621
 6383TIP3   OH219093   0.357   3.801   0.581
 6383TIP3    H119094   0.379   3.715   0.545
 6383TIP3    H219095   0.441   3.843   0.596
 6384TIP3   OH219096   2.864   4.543   3.381
 6384TIP3    H119097   2.881   4.637   3.394
 6384TIP3    H219098   2.945   4.510   3.341
 6385TIP3   OH219099   8.045   3.942   0.651
 6385TIP3    H119100   7.965   3.936   0.599
 6385TIP3    H219101   8.015   3.937   0.742
 6386TIP3   OH219102   6.796   4.078   3.809
 6386TIP3    H119103   6.846   4.091   3.889
 6386TIP3    H219104   6.705   4.088   3.835
 6387TIP3   OH219105   2.083   6.821   4.915
 6387TIP3    H119106   2.134   6.747   4.948
 6387TIP3    H219107   2.089   6.815   4.820
 6388TIP3   OH219108   2.840   7.499   2.919
 6388TIP3    H119109   2.920   7.465   2.879
 6388TIP3    H219110   2.867   7.529   3.005
 6389TIP3   OH219111   5.236   1.340   6.020
 6389TIP3    H119112   5.178   1.388   6.078
 6389TIP3    H219113   5.186   1.329   5.939
 6390TIP3   OH219114   2.443   6.200   3.929
 6390TIP3    H119115   2.497   6.228   4.002
 6390TIP3    H219116   2.489   6.232   3.851
 6391TIP3   OH219117   0.542   6.798   2.869
 6391TIP3    H119118   0.538   6.845   2.786
 6391TIP3    H219119   0.574   6.863   2.932
 6392TIP3   OH219120   6.473   4.397   0.121
 6392TIP3    H119121   6.550   4.393   0.178
 6392TIP3    H219122   6.436   4.309   0.126
 6393TIP3   OH219123   6.193   0.142   6.421
 6393TIP3    H119124   6.188   0.055   6.381
 6393TIP3    H219125   6.277   0.143   6.466
 6394TIP3   OH219126   0.605   6.614   1.408
 6394TIP3    H119127   0.628   6.588   1.497
 6394TIP3    H219128   0.509   6.608   1.405
 6395TIP3   OH219129   7.905   7.089   5.836
 6395TIP3    H119130   7.903   7.094   5.931
 6395TIP3    H219131   7.850   7.014   5.814
 6396TIP3   OH219132   2.055   5.733   1.030
 6396TIP3    H119133   1.974   5.713   1.076
 6396TIP3    H219134   2.027   5.756   0.941
 6397TIP3   OH219135   3.298   2.739   6.279
 6397TIP3    H119136   3.314   2.646   6.266
 6397TIP3    H219137   3.385   2.778   6.284
 6398TIP3   OH219138   3.597   4.095   6.287
 6398TIP3    H119139   3.569   4.164   6.347
 6398TIP3    H219140   3.538   4.022   6.305
 6399TIP3   OH219141   0.821   4.941   2.123
 6399TIP3    H119142   0.876   4.892   2.062
 6399TIP3    H219143   0.813   4.883   2.199
 6400TIP3   OH219144   3.809   4.089   2.612
 6400TIP3    H119145   3.858   4.089   2.530
 6400TIP3    H219146   3.749   4.015   2.605
 6401TIP3   OH219147   7.730   6.267   4.302
 6401TIP3    H119148   7.817   6.307   4.307
 6401TIP3    H219149   7.740   6.182   4.346
 6402TIP3   OH219150   2.277   1.192   2.782
 6402TIP3    H119151   2.310   1.272   2.823
 6402TIP3    H219152   2.350   1.131   2.786
 6403TIP3   OH219153   1.265   5.562   4.129
 6403TIP3    H119154   1.229   5.642   4.090
 6403TIP3    H219155   1.199   5.534   4.192
 6404TIP3   OH219156   5.666   6.996   0.205
 6404TIP3    H119157   5.638   7.074   0.254
 6404TIP3    H219158   5.619   7.002   0.122
 6405TIP3   OH219159   0.574   2.110   6.252
 6405TIP3    H119160   0.602   2.034   6.201
 6405TIP3    H219161   0.538   2.074   6.332
 6406TIP3   OH219162   8.053   5.806   3.910
 6406TIP3    H119163   8.109   5.762   3.845
 6406TIP3    H219164   8.114   5.839   3.975
 6407TIP3   OH219165   6.068   4.957   2.583
 6407TIP3    H119166   6.124   4.956   2.661
 6407TIP3    H219167   6.036   4.868   2.574
 6408TIP3   OH219168   1.629   7.830   5.997
 6408TIP3    H119169   1.664   7.796   6.079
 6408TIP3    H219170   1.555   7.772   5.977
 6409TIP3   OH219171   5.303   6.360   5.919
 6409TIP3    H119172   5.288   6.454   5.927
 6409TIP3    H219173   5.244   6.320   5.983
 6410TIP3   OH219174   4.327   6.583   3.014
 6410TIP3    H119175   4.312   6.592   2.920
 6410TIP3    H219176   4.240   6.566   3.050
 6411TIP3   OH219177   8.067   1.522   4.037
 6411TIP3    H119178   8.103   1.434   4.032
 6411TIP3    H219179   7.988   1.519   3.983
 6412TIP3   OH219180   0.830   4.703   0.775
 6412TIP3    H119181   0.864   4.750   0.699
 6412TIP3    H219182   0.841   4.611   0.753
 6413TIP3   OH219183   5.182   6.505   0.626
 6413TIP3    H119184   5.204   6.460   0.544
 6413TIP3    H219185   5.186   6.598   0.604
 6414TIP3   OH219186   6.244   3.612   5.306
 6414TIP3    H119187   6.317   3.553   5.284
 6414TIP3    H219188   6.231   3.663   5.226
 6415TIP3   OH219189   7.717   5.999   0.812
 6415TIP3    H119190   7.718   6.092   0.789
 6415TIP3    H219191   7.678   5.996   0.899
 6416TIP3   OH219192   4.254   0.447   0.250
 6416TIP3    H119193   4.298   0.458   0.166
 6416TIP3    H219194   4.240   0.536   0.282
 6417TIP3   OH219195   5.747   2.752   3.447
 6417TIP3    H119196   5.682   2.722   3.510
 6417TIP3    H219197   5.712   2.834   3.413
 6418TIP3   OH219198   2.423   5.192   4.265
 6418TIP3    H119199   2.500   5.250   4.265
 6418TIP3    H219200   2.437   5.134   4.190
 6419TIP3   OH219201   0.553   7.798   6.488
 6419TIP3    H119202   0.573   7.879   6.441
 6419TIP3    H219203   0.539   7.733   6.419
 6420TIP3   OH219204   2.479   1.314   1.817
 6420TIP3    H119205   2.400   1.268   1.844
 6420TIP3    H219206   2.480   1.308   1.722
 6421TIP3   OH219207   3.046   1.364   3.777
 6421TIP3    H119208   3.096   1.360   3.696
 6421TIP3    H219209   3.063   1.451   3.812
 6422TIP3   OH219210   4.942   0.834   3.499
 6422TIP3    H119211   4.960   0.759   3.442
 6422TIP3    H219212   5.029   0.865   3.526
 6423TIP3   OH219213   7.607   7.673   0.725
 6423TIP3    H119214   7.528   7.679   0.779
 6423TIP3    H219215   7.641   7.762   0.722
 6424TIP3   OH219216   3.493   4.616   6.644
 6424TIP3    H119217   3.452   4.634   6.559
 6424TIP3    H219218   3.422   4.626   6.707
 6425TIP3   OH219219   4.755   5.113   0.315
 6425TIP3    H119220   4.843   5.076   0.316
 6425TIP3    H219221   4.741   5.144   0.404
 6426TIP3   OH219222   7.545   2.056   0.489
 6426TIP3    H119223   7.575   1.973   0.453
 6426TIP3    H219224   7.490   2.093   0.420
 6427TIP3   OH219225   1.530   0.437   4.140
 6427TIP3    H119226   1.493   0.362   4.092
 6427TIP3    H219227   1.576   0.397   4.213
 6428TIP3   OH219228   3.368   5.447   1.677
 6428TIP3    H119229   3.343   5.372   1.730
 6428TIP3    H219230   3.290   5.503   1.675
 6429TIP3   OH219231   3.575   1.458   6.042
 6429TIP3    H119232   3.570   1.428   6.133
 6429TIP3    H219233   3.633   1.395   5.999
 6430TIP3   OH219234   1.655   1.208   0.930
 6430TIP3    H119235   1.714   1.239   0.861
 6430TIP3    H219236   1.699   1.230   1.011
 6431TIP3   OH219237   1.096   7.234   3.936
 6431TIP3    H119238   1.157   7.293   3.892
 6431TIP3    H219239   1.090   7.158   3.877
 6432TIP3   OH219240   1.029   3.968   2.309
 6432TIP3    H119241   1.115   3.942   2.276
 6432TIP3    H219242   1.042   4.057   2.343
 6433TIP3   OH219243   1.732   7.311   0.965
 6433TIP3    H119244   1.691   7.240   1.015
 6433TIP3    H219245   1.804   7.269   0.918
 6434TIP3   OH219246   0.712   0.339   1.930
 6434TIP3    H119247   0.629   0.295   1.913
 6434TIP3    H219248   0.700   0.382   2.015
 6435TIP3   OH219249   0.746   2.918   5.470
 6435TIP3    H119250   0.770   2.911   5.377
 6435TIP3    H219251   0.750   3.012   5.488
 6436TIP3   OH219252   5.363   0.513   4.018
 6436TIP3    H119253   5.419   0.576   3.972
 6436TIP3    H219254   5.320   0.565   4.087
 6437TIP3   OH219255   1.404   4.532   5.718
 6437TIP3    H119256   1.469   4.522   5.649
 6437TIP3    H219257   1.394   4.627   5.729
 6438TIP3   OH219258   5.973   1.293   6.059
 6438TIP3    H119259   5.916   1.315   6.133
 6438TIP3    H219260   5.936   1.342   5.985
 6439TIP3   OH219261   0.796   1.278   0.320
 6439TIP3    H119262   0.820   1.324   0.240
 6439TIP3    H219263   0.718   1.229   0.297
 6440TIP3   OH219264   5.448   1.898   6.208
 6440TIP3    H119265   5.421   1.895   6.300
 6440TIP3    H219266   5.541   1.920   6.212
 6441TIP3   OH219267   7.902   6.376   2.049
 6441TIP3    H119268   7.889   6.284   2.072
 6441TIP3    H219269   7.813   6.409   2.034
 6442TIP3   OH219270   6.101   2.915   3.666
 6442TIP3    H119271   6.062   3.002   3.658
 6442TIP3    H219272   6.189   2.924   3.631
 6443TIP3   OH219273   4.788   4.207   4.964
 6443TIP3    H119274   4.735   4.278   5.000
 6443TIP3    H219275   4.856   4.192   5.030
 6444TIP3   OH219276   0.773   6.534   0.618
 6444TIP3    H119277   0.721   6.561   0.542
 6444TIP3    H219278   0.766   6.438   0.620
 6445TIP3   OH219279   4.038   6.754   6.764
 6445TIP3    H119280   4.015   6.719   6.850
 6445TIP3    H219281   4.108   6.816   6.782
 6446TIP3   OH219282   8.004   1.166   3.150
 6446TIP3    H119283   7.964   1.167   3.063
 6446TIP3    H219284   8.035   1.076   3.160
 6447TIP3   OH219285   1.517   7.698   5.582
 6447TIP3    H119286   1.450   7.760   5.554
 6447TIP3    H219287   1.481   7.612   5.560
 6448TIP3   OH219288   0.597   5.210   4.455
 6448TIP3    H119289   0.507   5.242   4.451
 6448TIP3    H219290   0.589   5.115   4.466
 6449TIP3   OH219291   7.043   6.141   2.044
 6449TIP3    H119292   7.013   6.072   1.985
 6449TIP3    H219293   7.128   6.167   2.010
 6450TIP3   OH219294   2.752   0.144   6.045
 6450TIP3    H119295   2.785   0.230   6.072
 6450TIP3    H219296   2.662   0.143   6.077
 6451TIP3   OH219297   6.964   2.033   2.314
 6451TIP3    H119298   6.949   1.980   2.236
 6451TIP3    H219299   7.057   2.056   2.311
 6452TIP3   OH219300   3.206   6.821   2.726
 6452TIP3    H119301   3.174   6.857   2.809
 6452TIP3    H219302   3.269   6.753   2.752
 6453TIP3   OH219303   5.142   5.450   6.738
 6453TIP3    H119304   5.158   5.422   6.828
 6453TIP3    H219305   5.212   5.409   6.687
 6454TIP3   OH219306   6.838   6.489   1.956
 6454TIP3    H119307   6.774   6.530   2.015
 6454TIP3    H219308   6.787   6.422   1.910
 6455TIP3   OH219309   3.138   6.946   5.769
 6455TIP3    H119310   3.148   6.863   5.815
 6455TIP3    H219311   3.213   6.949   5.709
 6456TIP3   OH219312   5.875   0.298   6.374
 6456TIP3    H119313   5.860   0.310   6.468
 6456TIP3    H219314   5.962   0.334   6.359
 6457TIP3   OH219315   6.926   6.594   4.884
 6457TIP3    H119316   6.980   6.640   4.948
 6457TIP3    H219317   6.919   6.505   4.917
 6458TIP3   OH219318   4.257   3.589   3.710
 6458TIP3    H119319   4.338   3.586   3.762
 6458TIP3    H219320   4.192   3.627   3.769
 6459TIP3   OH219321   2.438   3.280   2.046
 6459TIP3    H119322   2.382   3.297   1.970
 6459TIP3    H219323   2.527   3.292   2.014
 6460TIP3   OH219324   8.244   4.704   5.809
 6460TIP3    H119325   8.258   4.713   5.903
 6460TIP3    H219326   8.155   4.671   5.801
 6461TIP3   OH219327   4.097   0.545   6.043
 6461TIP3    H119328   4.134   0.504   6.122
 6461TIP3    H219329   4.011   0.576   6.070
 6462TIP3   OH219330   1.725   0.619   0.817
 6462TIP3    H119331   1.747   0.625   0.724
 6462TIP3    H219332   1.713   0.710   0.844
 6463TIP3   OH219333   6.392   5.678   6.585
 6463TIP3    H119334   6.395   5.619   6.660
 6463TIP3    H219335   6.298   5.684   6.564
 6464TIP3   OH219336   6.198   6.492   2.987
 6464TIP3    H119337   6.142   6.551   2.935
 6464TIP3    H219338   6.237   6.548   3.054
 6465TIP3   OH219339   0.296   6.048   4.826
 6465TIP3    H119340   0.346   6.106   4.883
 6465TIP3    H219341   0.357   6.026   4.755
 6466TIP3   OH219342   6.085   6.215   0.147
 6466TIP3    H119343   6.115   6.295   0.105
 6466TIP3    H219344   6.012   6.186   0.092
 6467TIP3   OH219345   4.852   2.607   3.194
 6467TIP3    H119346   4.890   2.560   3.269
 6467TIP3    H219347   4.839   2.696   3.226
 6468TIP3   OH219348   6.622   5.608   1.314
 6468TIP3    H119349   6.531   5.624   1.337
 6468TIP3    H219350   6.658   5.695   1.295
 6469TIP3   OH219351   6.435   6.879   1.580
 6469TIP3    H119352   6.478   6.933   1.513
 6469TIP3    H219353   6.379   6.819   1.530
 6470TIP3   OH219354   3.117   2.131   4.997
 6470TIP3    H119355   3.028   2.105   4.974
 6470TIP3    H219356   3.115   2.227   4.998
 6471TIP3   OH219357   2.770   3.254   4.413
 6471TIP3    H119358   2.784   3.340   4.374
 6471TIP3    H219359   2.765   3.271   4.508
 6472TIP3   OH219360   6.040   7.234   5.537
 6472TIP3    H119361   5.956   7.277   5.552
 6472TIP3    H219362   6.039   7.213   5.443
 6473TIP3   OH219363   7.960   4.552   1.773
 6473TIP3    H119364   7.886   4.594   1.817
 6473TIP3    H219365   7.921   4.509   1.697
 6474TIP3   OH219366   5.013   5.099   4.870
 6474TIP3    H119367   4.961   5.053   4.805
 6474TIP3    H219368   4.986   5.062   4.954
 6475TIP3   OH219369   6.799   5.571   2.380
 6475TIP3    H119370   6.757   5.654   2.401
 6475TIP3    H219371   6.819   5.532   2.465
 6476TIP3   OH219372   4.053   3.050   0.547
 6476TIP3    H119373   3.961   3.031   0.526
 6476TIP3    H219374   4.101   2.972   0.520
 6477TIP3   OH219375   0.186   5.412   4.012
 6477TIP3    H119376   0.096   5.381   4.018
 6477TIP3    H219377   0.234   5.338   3.974
 6478TIP3   OH219378   5.960   6.884   4.467
 6478TIP3    H119379   5.896   6.812   4.466
 6478TIP3    H219380   6.034   6.850   4.416
 6479TIP3   OH219381   4.111   6.046   6.149
 6479TIP3    H119382   4.145   6.130   6.183
 6479TIP3    H219383   4.057   6.070   6.074
 6480TIP3   OH219384   4.015   1.156   0.207
 6480TIP3    H119385   3.948   1.193   0.150
 6480TIP3    H219386   4.038   1.228   0.267
 6481TIP3   OH219387   2.707   3.389   0.748
 6481TIP3    H119388   2.710   3.294   0.763
 6481TIP3    H219389   2.616   3.413   0.765
 6482TIP3   OH219390   1.937   5.586   2.499
 6482TIP3    H119391   1.998   5.518   2.471
 6482TIP3    H219392   1.993   5.662   2.517
 6483TIP3   OH219393   8.045   3.370   0.791
 6483TIP3    H119394   8.039   3.459   0.826
 6483TIP3    H219395   8.062   3.315   0.868
 6484TIP3   OH219396   1.316   4.662   4.315
 6484TIP3    H119397   1.267   4.623   4.244
 6484TIP3    H219398   1.250   4.704   4.370
 6485TIP3   OH219399   6.750   3.382   3.927
 6485TIP3    H119400   6.718   3.461   3.969
 6485TIP3    H219401   6.759   3.319   3.999
 6486TIP3   OH219402   3.777   3.277   0.859
 6486TIP3    H119403   3.702   3.335   0.870
 6486TIP3    H219404   3.819   3.308   0.779
 6487TIP3   OH219405   5.453   2.074   0.794
 6487TIP3    H119406   5.448   2.028   0.710
 6487TIP3    H219407   5.405   2.155   0.780
 6488TIP3   OH219408   3.941   2.781   5.429
 6488TIP3    H119409   4.000   2.817   5.362
 6488TIP3    H219410   3.954   2.836   5.505
 6489TIP3   OH219411   6.920   5.074   1.227
 6489TIP3    H119412   6.830   5.069   1.195
 6489TIP3    H219413   6.958   5.149   1.181
 6490TIP3   OH219414   5.635   3.964   5.010
 6490TIP3    H119415   5.729   3.951   5.000
 6490TIP3    H219416   5.625   4.059   5.018
 6491TIP3   OH219417   2.943   4.023   6.599
 6491TIP3    H119418   2.864   3.976   6.573
 6491TIP3    H219419   2.995   4.030   6.518
 6492TIP3   OH219420   4.594   4.322   0.270
 6492TIP3    H119421   4.562   4.232   0.284
 6492TIP3    H219422   4.607   4.356   0.359
 6493TIP3   OH219423   1.778   2.820   0.717
 6493TIP3    H119424   1.688   2.790   0.701
 6493TIP3    H219425   1.817   2.825   0.630
 6494TIP3   OH219426   4.427   1.886   3.469
 6494TIP3    H119427   4.387   1.946   3.407
 6494TIP3    H219428   4.354   1.833   3.502
 6495TIP3   OH219429   8.117   2.387   4.275
 6495TIP3    H119430   8.109   2.319   4.341
 6495TIP3    H219431   8.098   2.343   4.192
 6496TIP3   OH219432   5.870   6.391   2.220
 6496TIP3    H119433   5.904   6.415   2.306
 6496TIP3    H219434   5.859   6.296   2.224
 6497TIP3   OH219435   3.528   4.768   0.008
 6497TIP3    H119436   3.574   4.839  -0.037
 6497TIP3    H219437   3.554   4.689  -0.039
 6498TIP3   OH219438   5.236   1.136   4.714
 6498TIP3    H119439   5.201   1.084   4.785
 6498TIP3    H219440   5.253   1.222   4.752
 6499TIP3   OH219441   1.533   2.559   3.905
 6499TIP3    H119442   1.456   2.517   3.943
 6499TIP3    H219443   1.512   2.566   3.811
 6500TIP3   OH219444   4.132   5.024   2.054
 6500TIP3    H119445   4.111   4.939   2.094
 6500TIP3    H219446   4.139   5.005   1.961
 6501TIP3   OH219447   3.967   7.266   4.512
 6501TIP3    H119448   3.873   7.285   4.510
 6501TIP3    H219449   3.974   7.174   4.487
 6502TIP3   OH219450   0.508   1.662   6.189
 6502TIP3    H119451   0.552   1.584   6.222
 6502TIP3    H219452   0.415   1.641   6.193
 6503TIP3   OH219453   1.343   0.535   6.573
 6503TIP3    H119454   1.438   0.525   6.578
 6503TIP3    H219455   1.329   0.591   6.497
 6504TIP3   OH219456   4.358   4.644   3.959
 6504TIP3    H119457   4.308   4.604   4.029
 6504TIP3    H219458   4.433   4.684   4.002
 6505TIP3   OH219459   1.056   1.023   6.356
 6505TIP3    H119460   0.986   1.045   6.295
 6505TIP3    H219461   1.090   0.939   6.325
 6506TIP3   OH219462   0.052   7.197   5.566
 6506TIP3    H119463   0.129   7.194   5.509
 6506TIP3    H219464   0.072   7.136   5.637
 6507TIP3   OH219465   2.451   4.637   6.649
 6507TIP3    H119466   2.535   4.598   6.673
 6507TIP3    H219467   2.469   4.731   6.642
 6508TIP3   OH219468   1.087   3.319   4.328
 6508TIP3    H119469   1.119   3.393   4.276
 6508TIP3    H219470   1.027   3.273   4.269
 6509TIP3   OH219471   6.994   4.564   0.528
 6509TIP3    H119472   6.940   4.505   0.474
 6509TIP3    H219473   7.070   4.511   0.552
 6510TIP3   OH219474   5.019   3.727   5.179
 6510TIP3    H119475   5.064   3.747   5.097
 6510TIP3    H219476   5.060   3.646   5.209
 6511TIP3   OH219477   4.146   0.705   3.293
 6511TIP3    H119478   4.157   0.611   3.278
 6511TIP3    H219479   4.157   0.715   3.388
 6512TIP3   OH219480   7.076   4.052   5.641
 6512TIP3    H119481   7.026   4.132   5.624
 6512TIP3    H219482   7.087   4.050   5.736
 6513TIP3   OH219483   6.207   4.167   1.036
 6513TIP3    H119484   6.228   4.195   0.947
 6513TIP3    H219485   6.251   4.083   1.046
 6514TIP3   OH219486   1.974   2.841   2.833
 6514TIP3    H119487   1.932   2.927   2.825
 6514TIP3    H219488   1.901   2.779   2.831
 6515TIP3   OH219489   8.118   1.537   0.652
 6515TIP3    H119490   8.084   1.466   0.597
 6515TIP3    H219491   8.186   1.579   0.599
 6516TIP3   OH219492   3.062   7.397   2.775
 6516TIP3    H119493   3.133   7.383   2.838
 6516TIP3    H219494   3.055   7.315   2.728
 6517TIP3   OH219495   7.053   6.641   4.628
 6517TIP3    H119496   7.143   6.641   4.658
 6517TIP3    H219497   7.002   6.609   4.702
 6518TIP3   OH219498   1.978   0.947   1.568
 6518TIP3    H119499   1.940   1.023   1.525
 6518TIP3    H219500   2.065   0.938   1.528
 6519TIP3   OH219501   3.474   3.123   0.102
 6519TIP3    H119502   3.425   3.140   0.022
 6519TIP3    H219503   3.504   3.209   0.131
 6520TIP3   OH219504   1.838   2.097   4.995
 6520TIP3    H119505   1.898   2.118   5.067
 6520TIP3    H219506   1.758   2.066   5.038
 6521TIP3   OH219507   7.768   2.609   1.874
 6521TIP3    H119508   7.673   2.603   1.888
 6521TIP3    H219509   7.777   2.646   1.787
 6522TIP3   OH219510   4.067   6.124   1.265
 6522TIP3    H119511   4.109   6.085   1.188
 6522TIP3    H219512   4.010   6.192   1.230
 6523TIP3   OH219513   2.484   4.762   2.042
 6523TIP3    H119514   2.474   4.841   1.989
 6523TIP3    H219515   2.412   4.705   2.013
 6524TIP3   OH219516   7.184   2.348   2.646
 6524TIP3    H119517   7.174   2.320   2.737
 6524TIP3    H219518   7.182   2.266   2.596
 6525TIP3   OH219519   5.769   3.183   5.008
 6525TIP3    H119520   5.861   3.192   4.983
 6525TIP3    H219521   5.771   3.176   5.104
 6526TIP3   OH219522   2.454   4.920   0.380
 6526TIP3    H119523   2.485   4.872   0.456
 6526TIP3    H219524   2.382   4.973   0.414
 6527TIP3   OH219525   0.148   2.878   3.826
 6527TIP3    H119526   0.066   2.925   3.812
 6527TIP3    H219527   0.216   2.936   3.790
 6528TIP3   OH219528   7.919   0.974   6.092
 6528TIP3    H119529   7.844   1.027   6.065
 6528TIP3    H219530   7.910   0.968   6.187
 6529TIP3   OH219531   4.020   1.257   1.900
 6529TIP3    H119532   3.995   1.190   1.963
 6529TIP3    H219533   3.941   1.272   1.848
 6530TIP3   OH219534   7.297   3.892   4.690
 6530TIP3    H119535   7.391   3.909   4.691
 6530TIP3    H219536   7.258   3.972   4.653
 6531TIP3   OH219537   6.463   1.267   0.018
 6531TIP3    H119538   6.525   1.333   0.047
 6531TIP3    H219539   6.391   1.272   0.080
 6532TIP3   OH219540   1.093   2.610   1.733
 6532TIP3    H119541   1.087   2.529   1.784
 6532TIP3    H219542   1.003   2.641   1.725
 6533TIP3   OH219543   6.353   4.595   4.143
 6533TIP3    H119544   6.417   4.550   4.088
 6533TIP3    H219545   6.269   4.553   4.121
 6534TIP3   OH219546   4.568   0.488   3.481
 6534TIP3    H119547   4.520   0.568   3.500
 6534TIP3    H219548   4.650   0.496   3.531
 6535TIP3   OH219549   7.725   2.892   0.608
 6535TIP3    H119550   7.676   2.899   0.526
 6535TIP3    H219551   7.773   2.975   0.613
 6536TIP3   OH219552   5.713   2.059   6.578
 6536TIP3    H119553   5.637   2.117   6.582
 6536TIP3    H219554   5.778   2.103   6.634
 6537TIP3   OH219555   5.128   3.189   0.839
 6537TIP3    H119556   5.217   3.193   0.805
 6537TIP3    H219557   5.111   3.095   0.851
 6538TIP3   OH219558   0.314   0.501   5.785
 6538TIP3    H119559   0.274   0.429   5.736
 6538TIP3    H219560   0.408   0.480   5.786
 6539TIP3   OH219561   2.360   4.528   2.883
 6539TIP3    H119562   2.412   4.489   2.953
 6539TIP3    H219563   2.404   4.610   2.862
 6540TIP3   OH219564   1.058   7.300   5.857
 6540TIP3    H119565   1.087   7.215   5.824
 6540TIP3    H219566   0.962   7.295   5.855
 6541TIP3   OH219567   2.092   1.531   6.182
 6541TIP3    H119568   2.008   1.573   6.201
 6541TIP3    H219569   2.157   1.596   6.209
 6542TIP3   OH219570   7.499   5.225   4.598
 6542TIP3    H119571   7.529   5.258   4.513
 6542TIP3    H219572   7.432   5.160   4.575
 6543TIP3   OH219573   6.746   1.439   6.579
 6543TIP3    H119574   6.739   1.346   6.559
 6543TIP3    H219575   6.663   1.476   6.550
 6544TIP3   OH219576   5.293   4.941   2.849
 6544TIP3    H119577   5.202   4.937   2.877
 6544TIP3    H219578   5.333   5.008   2.904
 6545TIP3   OH219579   5.118   6.579   0.256
 6545TIP3    H119580   5.123   6.662   0.209
 6545TIP3    H219581   5.028   6.549   0.242
 6546TIP3   OH219582   7.738   0.535   1.748
 6546TIP3    H119583   7.696   0.454   1.778
 6546TIP3    H219584   7.732   0.594   1.822
 6547TIP3   OH219585   2.380   2.038   4.018
 6547TIP3    H119586   2.330   2.116   3.993
 6547TIP3    H219587   2.458   2.072   4.062
 6548TIP3   OH219588   6.889   3.400   0.081
 6548TIP3    H119589   6.890   3.496   0.070
 6548TIP3    H219590   6.851   3.368  -0.001
 6549TIP3   OH219591   5.386   5.438   6.009
 6549TIP3    H119592   5.421   5.507   5.952
 6549TIP3    H219593   5.312   5.479   6.054
 6550TIP3   OH219594   6.351   1.420   5.361
 6550TIP3    H119595   6.415   1.429   5.290
 6550TIP3    H219596   6.356   1.503   5.408
 6551TIP3   OH219597   3.017   6.988   4.327
 6551TIP3    H119598   3.031   6.973   4.233
 6551TIP3    H219599   3.092   6.947   4.369
 6552TIP3   OH219600   6.351   1.865   2.947
 6552TIP3    H119601   6.317   1.889   3.034
 6552TIP3    H219602   6.275   1.833   2.900
 6553TIP3   OH219603   6.596   5.836   6.666
 6553TIP3    H119604   6.535   5.783   6.614
 6553TIP3    H219605   6.554   5.922   6.672
 6554TIP3   OH219606   1.582   7.634   3.036
 6554TIP3    H119607   1.667   7.662   3.001
 6554TIP3    H219608   1.523   7.636   2.961
 6555TIP3   OH219609   4.304   1.014   6.408
 6555TIP3    H119610   4.351   1.085   6.452
 6555TIP3    H219611   4.224   1.003   6.459
 6556TIP3   OH219612   7.960   1.175   5.583
 6556TIP3    H119613   7.904   1.193   5.658
 6556TIP3    H219614   7.964   1.079   5.578
 6557TIP3   OH219615   2.895   7.319   1.069
 6557TIP3    H119616   2.849   7.402   1.055
 6557TIP3    H219617   2.988   7.343   1.066
 6558TIP3   OH219618   7.254   3.248   5.349
 6558TIP3    H119619   7.241   3.207   5.435
 6558TIP3    H219620   7.340   3.217   5.321
 6559TIP3   OH219621   6.084   6.146   5.580
 6559TIP3    H119622   6.034   6.099   5.647
 6559TIP3    H219623   6.018   6.170   5.514
 6560TIP3   OH219624   4.788   0.529   1.681
 6560TIP3    H119625   4.771   0.615   1.643
 6560TIP3    H219626   4.880   0.511   1.659
 6561TIP3   OH219627   5.187   1.821   3.867
 6561TIP3    H119628   5.177   1.806   3.962
 6561TIP3    H219629   5.251   1.892   3.861
 6562TIP3   OH219630   4.823   6.557   3.520
 6562TIP3    H119631   4.900   6.500   3.506
 6562TIP3    H219632   4.750   6.496   3.528
 6563TIP3   OH219633   7.806   2.235   3.075
 6563TIP3    H119634   7.816   2.141   3.085
 6563TIP3    H219635   7.717   2.246   3.041
 6564TIP3   OH219636   3.542   6.544   3.051
 6564TIP3    H119637   3.492   6.553   3.132
 6564TIP3    H219638   3.633   6.558   3.077
 6565TIP3   OH219639   0.130   2.555   3.337
 6565TIP3    H119640   0.043   2.588   3.362
 6565TIP3    H219641   0.132   2.465   3.369
 6566TIP3   OH219642   6.731   2.476   1.105
 6566TIP3    H119643   6.742   2.558   1.057
 6566TIP3    H219644   6.779   2.411   1.054
 6567TIP3   OH219645   0.968   3.345   3.410
 6567TIP3    H119646   0.975   3.260   3.367
 6567TIP3    H219647   0.886   3.340   3.460
 6568TIP3   OH219648   2.272   7.324   3.956
 6568TIP3    H119649   2.193   7.273   3.944
 6568TIP3    H219650   2.241   7.414   3.964
 6569TIP3   OH219651   1.599   6.161   3.787
 6569TIP3    H119652   1.514   6.198   3.765
 6569TIP3    H219653   1.580   6.070   3.811
 6570TIP3   OH219654   0.511   5.432   6.714
 6570TIP3    H119655   0.475   5.382   6.640
 6570TIP3    H219656   0.470   5.393   6.791
 6571TIP3   OH219657   0.429   3.128   6.767
 6571TIP3    H119658   0.410   3.035   6.777
 6571TIP3    H219659   0.484   3.149   6.843
 6572TIP3   OH219660   3.906   2.376   0.747
 6572TIP3    H119661   3.975   2.312   0.765
 6572TIP3    H219662   3.890   2.420   0.831
 6573TIP3   OH219663   2.302   0.070   3.436
 6573TIP3    H119664   2.263   0.035   3.516
 6573TIP3    H219665   2.237   0.131   3.402
 6574TIP3   OH219666   2.713   7.318   0.720
 6574TIP3    H119667   2.713   7.262   0.642
 6574TIP3    H219668   2.765   7.269   0.784
 6575TIP3   OH219669   7.949   4.253   6.143
 6575TIP3    H119670   8.034   4.211   6.134
 6575TIP3    H219671   7.886   4.182   6.139
 6576TIP3   OH219672   2.383   4.828   5.406
 6576TIP3    H119673   2.348   4.845   5.318
 6576TIP3    H219674   2.311   4.789   5.454
 6577TIP3   OH219675   3.018   2.707   5.945
 6577TIP3    H119676   3.074   2.768   5.898
 6577TIP3    H219677   3.006   2.634   5.884
 6578TIP3   OH219678   4.412   3.849   3.042
 6578TIP3    H119679   4.408   3.862   3.137
 6578TIP3    H219680   4.402   3.937   3.006
 6579TIP3   OH219681   6.445   0.838   5.466
 6579TIP3    H119682   6.413   0.783   5.394
 6579TIP3    H219683   6.374   0.840   5.529
 6580TIP3   OH219684   6.473   0.466   1.334
 6580TIP3    H119685   6.563   0.432   1.332
 6580TIP3    H219686   6.435   0.429   1.414
 6581TIP3   OH219687   4.906   2.101   6.694
 6581TIP3    H119688   4.845   2.120   6.622
 6581TIP3    H219689   4.850   2.094   6.771
 6582TIP3   OH219690   4.104   2.012   5.143
 6582TIP3    H119691   4.061   1.952   5.081
 6582TIP3    H219692   4.132   2.086   5.089
 6583TIP3   OH219693   6.663   5.079   0.542
 6583TIP3    H119694   6.751   5.094   0.509
 6583TIP3    H219695   6.642   4.989   0.517
 6584TIP3   OH219696   1.486   1.310   4.178
 6584TIP3    H119697   1.405   1.337   4.136
 6584TIP3    H219698   1.482   1.215   4.180
 6585TIP3   OH219699   5.968   7.611   2.291
 6585TIP3    H119700   5.911   7.572   2.225
 6585TIP3    H219701   5.920   7.604   2.373
 6586TIP3   OH219702   0.735   3.383   3.142
 6586TIP3    H119703   0.762   3.469   3.174
 6586TIP3    H219704   0.665   3.356   3.200
 6587TIP3   OH219705   7.543   3.500   0.814
 6587TIP3    H119706   7.546   3.433   0.745
 6587TIP3    H219707   7.565   3.582   0.770
 6588TIP3   OH219708   2.066   4.584   0.984
 6588TIP3    H119709   2.007   4.556   0.914
 6588TIP3    H219710   2.044   4.676   0.999
 6589TIP3   OH219711   2.498   3.819   5.047
 6589TIP3    H119712   2.457   3.737   5.074
 6589TIP3    H219713   2.496   3.817   4.951
 6590TIP3   OH219714   3.583   6.393   6.104
 6590TIP3    H119715   3.499   6.357   6.134
 6590TIP3    H219716   3.620   6.324   6.048
 6591TIP3   OH219717   1.171   6.484   5.680
 6591TIP3    H119718   1.150   6.397   5.645
 6591TIP3    H219719   1.263   6.497   5.660
 6592TIP3   OH219720   2.639   6.325   2.386
 6592TIP3    H119721   2.718   6.300   2.339
 6592TIP3    H219722   2.567   6.295   2.331
 6593TIP3   OH219723   3.247   3.610   6.162
 6593TIP3    H119724   3.333   3.620   6.202
 6593TIP3    H219725   3.250   3.665   6.084
 6594TIP3   OH219726   0.189   6.346   3.744
 6594TIP3    H119727   0.187   6.251   3.755
 6594TIP3    H219728   0.161   6.360   3.654
 6595TIP3   OH219729   4.215   0.070   3.972
 6595TIP3    H119730   4.282   0.011   4.007
 6595TIP3    H219731   4.220   0.147   4.028
 6596TIP3   OH219732   4.280   1.564   1.505
 6596TIP3    H119733   4.255   1.520   1.586
 6596TIP3    H219734   4.257   1.502   1.436
 6597TIP3   OH219735   4.793   2.133   5.817
 6597TIP3    H119736   4.797   2.103   5.726
 6597TIP3    H219737   4.795   2.053   5.869
 6598TIP3   OH219738   7.098   0.482   3.292
 6598TIP3    H119739   7.165   0.551   3.290
 6598TIP3    H219740   7.068   0.481   3.383
 6599TIP3   OH219741   4.692   7.599   0.929
 6599TIP3    H119742   4.732   7.686   0.936
 6599TIP3    H219743   4.676   7.572   1.020
 6600TIP3   OH219744   6.087   5.248   6.327
 6600TIP3    H119745   6.105   5.154   6.333
 6600TIP3    H219746   6.173   5.288   6.319
 6601TIP3   OH219747   5.307   4.800   1.939
 6601TIP3    H119748   5.305   4.716   1.985
 6601TIP3    H219749   5.317   4.865   2.008
 6602TIP3   OH219750   2.014   6.210   4.919
 6602TIP3    H119751   2.100   6.218   4.878
 6602TIP3    H219752   1.952   6.221   4.846
 6603TIP3   OH219753   0.354   7.817   1.926
 6603TIP3    H119754   0.300   7.878   1.978
 6603TIP3    H219755   0.355   7.736   1.978
 6604TIP3   OH219756   1.612   5.053   0.457
 6604TIP3    H119757   1.647   5.011   0.536
 6604TIP3    H219758   1.669   5.021   0.386
 6605TIP3   OH219759   7.018   2.465   0.677
 6605TIP3    H119760   7.013   2.406   0.601
 6605TIP3    H219761   6.928   2.470   0.709
 6606TIP3   OH219762   1.645   0.297   4.713
 6606TIP3    H119763   1.707   0.348   4.765
 6606TIP3    H219764   1.671   0.314   4.622
 6607TIP3   OH219765   1.322   2.199   1.966
 6607TIP3    H119766   1.287   2.127   2.018
 6607TIP3    H219767   1.396   2.161   1.919
 6608TIP3   OH219768   3.756   1.233   0.537
 6608TIP3    H119769   3.680   1.280   0.503
 6608TIP3    H219770   3.798   1.295   0.597
 6609TIP3   OH219771   0.476   7.522   0.384
 6609TIP3    H119772   0.414   7.589   0.353
 6609TIP3    H219773   0.427   7.440   0.377
 6610TIP3   OH219774   1.063   4.804   4.221
 6610TIP3    H119775   1.026   4.817   4.309
 6610TIP3    H219776   1.054   4.710   4.205
 6611TIP3   OH219777   2.015   5.982   5.865
 6611TIP3    H119778   1.953   5.919   5.828
 6611TIP3    H219779   2.019   5.960   5.958
 6612TIP3   OH219780   0.957   2.132   4.006
 6612TIP3    H119781   1.027   2.137   4.072
 6612TIP3    H219782   0.878   2.117   4.057
 6613TIP3   OH219783   2.691   0.948   5.713
 6613TIP3    H119784   2.736   1.032   5.704
 6613TIP3    H219785   2.663   0.926   5.624
 6614TIP3   OH219786   2.997   5.842   3.834
 6614TIP3    H119787   2.921   5.839   3.893
 6614TIP3    H219788   3.000   5.932   3.803
 6615TIP3   OH219789   0.819   7.001   6.588
 6615TIP3    H119790   0.773   7.001   6.672
 6615TIP3    H219791   0.832   7.094   6.568
 6616TIP3   OH219792   5.326   7.586   3.291
 6616TIP3    H119793   5.320   7.592   3.386
 6616TIP3    H219794   5.309   7.494   3.272
 6617TIP3   OH219795   4.916   3.905   1.373
 6617TIP3    H119796   4.960   3.966   1.432
 6617TIP3    H219797   4.976   3.894   1.300
 6618TIP3   OH219798   5.758   4.856   3.507
 6618TIP3    H119799   5.816   4.781   3.497
 6618TIP3    H219800   5.766   4.904   3.424
 6619TIP3   OH219801   0.682   5.611   3.794
 6619TIP3    H119802   0.777   5.613   3.806
 6619TIP3    H219803   0.662   5.693   3.748
 6620TIP3   OH219804   4.158   4.964   1.788
 6620TIP3    H119805   4.218   4.955   1.714
 6620TIP3    H219806   4.097   5.032   1.761
 6621TIP3   OH219807   3.464   7.313   1.910
 6621TIP3    H119808   3.455   7.267   1.827
 6621TIP3    H219809   3.539   7.371   1.898
 6622TIP3   OH219810   7.052   3.937   6.201
 6622TIP3    H119811   7.073   3.899   6.115
 6622TIP3    H219812   6.957   3.950   6.198
 6623TIP3   OH219813   6.871   7.254   4.534
 6623TIP3    H119814   6.880   7.215   4.621
 6623TIP3    H219815   6.895   7.184   4.473
 6624TIP3   OH219816   7.505   2.878   1.076
 6624TIP3    H119817   7.517   2.879   0.981
 6624TIP3    H219818   7.562   2.947   1.108
 6625TIP3   OH219819   6.326   5.751   2.569
 6625TIP3    H119820   6.368   5.823   2.523
 6625TIP3    H219821   6.286   5.699   2.500
 6626TIP3   OH219822   3.574   1.135   2.731
 6626TIP3    H119823   3.631   1.171   2.798
 6626TIP3    H219824   3.568   1.041   2.752
 6627TIP3   OH219825   4.745   4.253   0.778
 6627TIP3    H119826   4.746   4.204   0.696
 6627TIP3    H219827   4.660   4.233   0.817
 6628TIP3   OH219828   4.326   5.662   4.856
 6628TIP3    H119829   4.343   5.583   4.804
 6628TIP3    H219830   4.386   5.655   4.930
 6629TIP3   OH219831   1.610   0.984   0.452
 6629TIP3    H119832   1.557   1.030   0.386
 6629TIP3    H219833   1.699   0.985   0.416
 6630TIP3   OH219834   3.122   6.770   0.014
 6630TIP3    H119835   3.061   6.739  -0.053
 6630TIP3    H219836   3.150   6.692   0.061
 6631TIP3   OH219837   0.232   5.603   2.637
 6631TIP3    H119838   0.185   5.530   2.596
 6631TIP3    H219839   0.162   5.660   2.670
 6632TIP3   OH219840   1.453   2.635   3.619
 6632TIP3    H119841   1.407   2.706   3.664
 6632TIP3    H219842   1.421   2.640   3.528
 6633TIP3   OH219843   5.076   4.097   6.315
 6633TIP3    H119844   5.046   4.024   6.370
 6633TIP3    H219845   5.172   4.092   6.320
 6634TIP3   OH219846   0.641   0.572   3.385
 6634TIP3    H119847   0.610   0.595   3.297
 6634TIP3    H219848   0.648   0.476   3.384
 6635TIP3   OH219849   6.123   7.306   3.185
 6635TIP3    H119850   6.090   7.362   3.255
 6635TIP3    H219851   6.161   7.367   3.122
 6636TIP3   OH219852   3.273   7.384   6.656
 6636TIP3    H119853   3.290   7.470   6.618
 6636TIP3    H219854   3.340   7.327   6.619
 6637TIP3   OH219855   1.844   6.150   3.379
 6637TIP3    H119856   1.881   6.238   3.384
 6637TIP3    H219857   1.877   6.106   3.457
 6638TIP3   OH219858   3.102   6.129   5.244
 6638TIP3    H119859   3.116   6.192   5.314
 6638TIP3    H219860   3.026   6.077   5.272
 6639TIP3   OH219861   3.887   2.081   1.534
 6639TIP3    H119862   3.796   2.111   1.529
 6639TIP3    H219863   3.889   2.024   1.611
 6640TIP3   OH219864   1.679   7.125   0.768
 6640TIP3    H119865   1.622   7.104   0.842
 6640TIP3    H219866   1.652   7.213   0.741
 6641TIP3   OH219867   2.001   6.372   0.969
 6641TIP3    H119868   2.078   6.369   1.026
 6641TIP3    H219869   2.025   6.434   0.900
 6642TIP3   OH219870   5.675   1.034   1.394
 6642TIP3    H119871   5.682   0.950   1.348
 6642TIP3    H219872   5.605   1.081   1.348
 6643TIP3   OH219873   2.704   0.799   0.919
 6643TIP3    H119874   2.763   0.724   0.912
 6643TIP3    H219875   2.756   0.873   0.886
 6644TIP3   OH219876   3.414   0.844   3.685
 6644TIP3    H119877   3.358   0.818   3.759
 6644TIP3    H219878   3.498   0.865   3.725
 6645TIP3   OH219879   1.993   4.908   2.368
 6645TIP3    H119880   2.016   4.996   2.399
 6645TIP3    H219881   1.940   4.924   2.290
 6646TIP3   OH219882   2.072   2.048   0.048
 6646TIP3    H119883   2.166   2.031   0.044
 6646TIP3    H219884   2.049   2.074  -0.041
 6647TIP3   OH219885   5.111   2.660   1.583
 6647TIP3    H119886   5.175   2.589   1.590
 6647TIP3    H219887   5.159   2.731   1.539
 6648TIP3   OH219888   7.158   7.780   2.379
 6648TIP3    H119889   7.235   7.728   2.404
 6648TIP3    H219890   7.179   7.811   2.290
 6649TIP3   OH219891   2.069   1.299   6.034
 6649TIP3    H119892   2.053   1.385   6.075
 6649TIP3    H219893   2.157   1.307   5.996
 6650TIP3   OH219894   8.172   1.729   0.414
 6650TIP3    H119895   8.179   1.770   0.327
 6650TIP3    H219896   8.226   1.651   0.407
 6651TIP3   OH219897   1.107   5.935   2.098
 6651TIP3    H119898   1.151   5.858   2.136
 6651TIP3    H219899   1.045   5.962   2.164
 6652TIP3   OH219900   1.584   5.879   5.882
 6652TIP3    H119901   1.495   5.910   5.865
 6652TIP3    H219902   1.599   5.897   5.975
 6653TIP3   OH219903   7.536   3.722   2.167
 6653TIP3    H119904   7.560   3.790   2.230
 6653TIP3    H219905   7.544   3.764   2.081
 6654TIP3   OH219906   0.167   4.697   3.338
 6654TIP3    H119907   0.175   4.613   3.385
 6654TIP3    H219908   0.247   4.744   3.361
 6655TIP3   OH219909   1.091   4.232   1.360
 6655TIP3    H119910   1.172   4.257   1.316
 6655TIP3    H219911   1.093   4.279   1.443
 6656TIP3   OH219912   3.008   5.573   4.016
 6656TIP3    H119913   3.097   5.566   3.983
 6656TIP3    H219914   3.007   5.653   4.068
 6657TIP3   OH219915   1.032   1.575   3.452
 6657TIP3    H119916   1.122   1.554   3.426
 6657TIP3    H219917   1.024   1.669   3.438
 6658TIP3   OH219918   5.769   3.032   1.842
 6658TIP3    H119919   5.686   3.080   1.854
 6658TIP3    H219920   5.773   3.015   1.748
 6659TIP3   OH219921   2.821   0.448   4.367
 6659TIP3    H119922   2.868   0.405   4.439
 6659TIP3    H219923   2.881   0.514   4.334
 6660TIP3   OH219924   2.279   6.757   0.325
 6660TIP3    H119925   2.372   6.759   0.349
 6660TIP3    H219926   2.274   6.807   0.244
 6661TIP3   OH219927   5.566   4.165   2.682
 6661TIP3    H119928   5.570   4.074   2.712
 6661TIP3    H219929   5.629   4.211   2.737
 6662TIP3   OH219930   4.269   4.863   4.333
 6662TIP3    H119931   4.235   4.777   4.357
 6662TIP3    H219932   4.242   4.920   4.405
 6663TIP3   OH219933   2.730   2.153   0.781
 6663TIP3    H119934   2.789   2.157   0.857
 6663TIP3    H219935   2.648   2.118   0.816
 6664TIP3   OH219936   6.636   1.105   1.143
 6664TIP3    H119937   6.569   1.068   1.200
 6664TIP3    H219938   6.669   1.030   1.093
 6665TIP3   OH219939   1.415   0.016   2.679
 6665TIP3    H119940   1.414   0.112   2.680
 6665TIP3    H219941   1.507  -0.007   2.688
 6666TIP3   OH219942   2.191   3.818   5.440
 6666TIP3    H119943   2.133   3.758   5.486
 6666TIP3    H219944   2.145   3.838   5.358
 6667TIP3   OH219945   0.602   7.052   4.287
 6667TIP3    H119946   0.508   7.067   4.279
 6667TIP3    H219947   0.634   7.051   4.197
 6668TIP3   OH219948   3.791   4.413   5.616
 6668TIP3    H119949   3.882   4.393   5.639
 6668TIP3    H219950   3.794   4.502   5.582
 6669TIP3   OH219951   1.153   2.410   6.162
 6669TIP3    H119952   1.102   2.385   6.240
 6669TIP3    H219953   1.244   2.391   6.186
 6670TIP3   OH219954   2.076   5.955   3.952
 6670TIP3    H119955   2.006   5.913   3.901
 6670TIP3    H219956   2.031   5.996   4.025
 6671TIP3   OH219957   5.207   4.376   2.523
 6671TIP3    H119958   5.242   4.291   2.497
 6671TIP3    H219959   5.260   4.402   2.599
 6672TIP3   OH219960   6.367   4.117   4.583
 6672TIP3    H119961   6.312   4.146   4.655
 6672TIP3    H219962   6.441   4.072   4.625
 6673TIP3   OH219963   1.981   6.517   0.090
 6673TIP3    H119964   2.076   6.526   0.088
 6673TIP3    H219965   1.948   6.606   0.101
 6674TIP3   OH219966   0.770   7.049   2.278
 6674TIP3    H119967   0.748   7.045   2.184
 6674TIP3    H219968   0.832   6.977   2.291
 6675TIP3   OH219969   6.693   0.732   5.369
 6675TIP3    H119970   6.772   0.785   5.382
 6675TIP3    H219971   6.622   0.788   5.401
 6676TIP3   OH219972   8.064   6.268   1.584
 6676TIP3    H119973   8.141   6.296   1.634
 6676TIP3    H219974   8.089   6.184   1.546
 6677TIP3   OH219975   5.285   6.172   5.704
 6677TIP3    H119976   5.278   6.232   5.630
 6677TIP3    H219977   5.306   6.228   5.779
 6678TIP3   OH219978   8.144   2.713   4.043
 6678TIP3    H119979   8.201   2.645   4.079
 6678TIP3    H219980   8.107   2.757   4.119
 6679TIP3   OH219981   6.857   3.743   5.903
 6679TIP3    H119982   6.835   3.708   5.817
 6679TIP3    H219983   6.832   3.674   5.964
 6680TIP3   OH219984   6.036   4.190   4.468
 6680TIP3    H119985   6.002   4.275   4.498
 6680TIP3    H219986   6.126   4.208   4.443
 6681TIP3   OH219987   3.629   4.087   3.388
 6681TIP3    H119988   3.714   4.131   3.382
 6681TIP3    H219989   3.651   3.994   3.401
 6682TIP3   OH219990   4.481   1.631   3.256
 6682TIP3    H119991   4.574   1.639   3.236
 6682TIP3    H219992   4.478   1.599   3.346
 6683TIP3   OH219993   6.638   7.720   3.564
 6683TIP3    H119994   6.695   7.645   3.544
 6683TIP3    H219995   6.572   7.718   3.495
 6684TIP3   OH219996   4.205   6.217   4.813
 6684TIP3    H119997   4.133   6.171   4.769
 6684TIP3    H219998   4.271   6.150   4.829
 6685TIP3   OH219999   0.755   0.525   0.968
 6685TIP3    H120000   0.702   0.492   1.040
 6685TIP3    H220001   0.751   0.457   0.901
 6686TIP3   OH220002   3.029   7.491   3.667
 6686TIP3    H120003   3.003   7.566   3.613
 6686TIP3    H220004   3.069   7.429   3.605
 6687TIP3   OH220005   4.471   6.266   1.119
 6687TIP3    H120006   4.481   6.334   1.185
 6687TIP3    H220007   4.458   6.314   1.037
 6688TIP3   OH220008   5.095   1.419   0.643
 6688TIP3    H120009   5.135   1.337   0.670
 6688TIP3    H220010   5.043   1.446   0.719
 6689TIP3   OH220011   5.989   1.611   6.222
 6689TIP3    H120012   5.993   1.593   6.128
 6689TIP3    H220013   5.932   1.543   6.257
 6690TIP3   OH220014   2.310   7.141   2.268
 6690TIP3    H120015   2.306   7.189   2.350
 6690TIP3    H220016   2.248   7.068   2.279
 6691TIP3   OH220017   7.498   2.338   3.831
 6691TIP3    H120018   7.414   2.302   3.803
 6691TIP3    H220019   7.485   2.433   3.830
 6692TIP3   OH220020   3.933   0.598   1.953
 6692TIP3    H120021   3.896   0.511   1.937
 6692TIP3    H220022   3.954   0.631   1.865
 6693TIP3   OH220023   6.032   7.528   4.503
 6693TIP3    H120024   6.111   7.474   4.507
 6693TIP3    H220025   6.053   7.599   4.443
 6694TIP3   OH220026   2.880   4.364   0.146
 6694TIP3    H120027   2.932   4.294   0.106
 6694TIP3    H220028   2.798   4.322   0.172
 6695TIP3   OH220029   5.735   7.773   2.667
 6695TIP3    H120030   5.686   7.737   2.741
 6695TIP3    H220031   5.788   7.843   2.705
 6696TIP3   OH220032   0.780   3.407   0.281
 6696TIP3    H120033   0.730   3.485   0.304
 6696TIP3    H220034   0.860   3.440   0.240
 6697TIP3   OH220035   6.275   7.538   2.570
 6697TIP3    H120036   6.354   7.589   2.586
 6697TIP3    H220037   6.306   7.447   2.563
 6698TIP3   OH220038   0.290   0.224   1.706
 6698TIP3    H120039   0.343   0.269   1.640
 6698TIP3    H220040   0.240   0.159   1.656
 6699TIP3   OH220041   2.089   5.550   5.270
 6699TIP3    H120042   2.120   5.586   5.354
 6699TIP3    H220043   1.994   5.544   5.280
 6700TIP3   OH220044   3.791   3.062   3.906
 6700TIP3    H120045   3.828   3.036   3.823
 6700TIP3    H220046   3.711   3.009   3.915
 6701TIP3   OH220047   2.665   0.556   6.140
 6701TIP3    H120048   2.733   0.494   6.114
 6701TIP3    H220049   2.684   0.635   6.088
 6702TIP3   OH220050   4.178   3.262   6.693
 6702TIP3    H120051   4.141   3.174   6.685
 6702TIP3    H220052   4.242   3.255   6.764
 6703TIP3   OH220053   6.882   0.610   2.784
 6703TIP3    H120054   6.891   0.538   2.721
 6703TIP3    H220055   6.834   0.571   2.858
 6704TIP3   OH220056   2.073   2.490   2.144
 6704TIP3    H120057   2.128   2.532   2.210
 6704TIP3    H220058   2.134   2.442   2.089
 6705TIP3   OH220059   8.271   7.783   6.568
 6705TIP3    H120060   8.250   7.821   6.654
 6705TIP3    H220061   8.249   7.852   6.506
 6706TIP3   OH220062   6.138   4.720   3.097
 6706TIP3    H120063   6.217   4.679   3.061
 6706TIP3    H220064   6.085   4.646   3.129
 6707TIP3   OH220065   2.920   2.836   3.018
 6707TIP3    H120066   2.920   2.777   3.094
 6707TIP3    H220067   2.979   2.794   2.955
 6708TIP3   OH220068   5.352   3.765   0.116
 6708TIP3    H120069   5.384   3.831   0.054
 6708TIP3    H220070   5.396   3.684   0.089
 6709TIP3   OH220071   4.490   3.826   5.289
 6709TIP3    H120072   4.526   3.914   5.279
 6709TIP3    H220073   4.513   3.781   5.207
 6710TIP3   OH220074   2.317   6.010   6.498
 6710TIP3    H120075   2.361   6.089   6.528
 6710TIP3    H220076   2.326   6.011   6.403
 6711TIP3   OH220077   4.603   0.191   3.447
 6711TIP3    H120078   4.642   0.234   3.524
 6711TIP3    H220079   4.598   0.261   3.381
 6712TIP3   OH220080   8.295   6.877   5.541
 6712TIP3    H120081   8.243   6.798   5.530
 6712TIP3    H220082   8.234   6.949   5.524
 6713TIP3   OH220083   6.148   3.340   6.625
 6713TIP3    H120084   6.212   3.356   6.556
 6713TIP3    H220085   6.181   3.262   6.671
 6714TIP3   OH220086   8.160   3.586   5.144
 6714TIP3    H120087   8.153   3.599   5.239
 6714TIP3    H220088   8.248   3.553   5.130
 6715TIP3   OH220089   2.952   4.091   5.376
 6715TIP3    H120090   2.861   4.062   5.372
 6715TIP3    H220091   3.001   4.014   5.404
 6716TIP3   OH220092   3.804   1.113   1.270
 6716TIP3    H120093   3.842   1.026   1.278
 6716TIP3    H220094   3.731   1.102   1.209
 6717TIP3   OH220095   7.597   0.166   5.055
 6717TIP3    H120096   7.610   0.167   5.150
 6717TIP3    H220097   7.542   0.089   5.039
 6718TIP3   OH220098   7.204   1.886   4.527
 6718TIP3    H120099   7.241   1.815   4.475
 6718TIP3    H220100   7.158   1.842   4.599
 6719TIP3   OH220101   5.072   4.590   0.093
 6719TIP3    H120102   5.143   4.537   0.057
 6719TIP3    H220103   4.993   4.541   0.070
 6720TIP3   OH220104   1.530   3.689   6.111
 6720TIP3    H120105   1.592   3.684   6.039
 6720TIP3    H220106   1.459   3.744   6.078
 6721TIP3   OH220107   7.559   6.774   4.288
 6721TIP3    H120108   7.486   6.719   4.260
 6721TIP3    H220109   7.518   6.849   4.330
 6722TIP3   OH220110   3.483   4.041   5.052
 6722TIP3    H120111   3.404   4.060   5.104
 6722TIP3    H220112   3.546   4.107   5.079
 6723TIP3   OH220113   3.231   7.742   1.569
 6723TIP3    H120114   3.235   7.820   1.625
 6723TIP3    H220115   3.144   7.747   1.529
 6724TIP3   OH220116   0.052   2.833   5.538
 6724TIP3    H120117   0.003   2.752   5.528
 6724TIP3    H220118   0.110   2.816   5.612
 6725TIP3   OH220119   2.302   2.488   2.325
 6725TIP3    H120120   2.258   2.446   2.399
 6725TIP3    H220121   2.387   2.515   2.360
 6726TIP3   OH220122   5.242   4.289   1.606
 6726TIP3    H120123   5.216   4.370   1.649
 6726TIP3    H220124   5.312   4.315   1.545
 6727TIP3   OH220125   6.025   3.320   5.279
 6727TIP3    H120126   6.080   3.320   5.357
 6727TIP3    H220127   5.978   3.404   5.282
 6728TIP3   OH220128   1.950   3.881   0.136
 6728TIP3    H120129   1.982   3.962   0.176
 6728TIP3    H220130   1.891   3.843   0.200
 6729TIP3   OH220131   2.230   0.003   4.299
 6729TIP3    H120132   2.274  -0.009   4.383
 6729TIP3    H220133   2.171   0.077   4.313
 6730TIP3   OH220134   4.799   3.607   1.637
 6730TIP3    H120135   4.758   3.539   1.583
 6730TIP3    H220136   4.725   3.662   1.665
 6731TIP3   OH220137   5.287   7.391   1.798
 6731TIP3    H120138   5.334   7.450   1.857
 6731TIP3    H220139   5.338   7.310   1.799
 6732TIP3   OH220140   6.821   4.342   4.171
 6732TIP3    H120141   6.874   4.418   4.148
 6732TIP3    H220142   6.731   4.370   4.157
 6733TIP3   OH220143   2.776   2.899   0.387
 6733TIP3    H120144   2.871   2.895   0.392
 6733TIP3    H220145   2.746   2.829   0.444
 6734TIP3   OH220146   2.084   6.504   5.809
 6734TIP3    H120147   2.099   6.423   5.857
 6734TIP3    H220148   2.033   6.476   5.732
 6735TIP3   OH220149   6.997   1.672   5.001
 6735TIP3    H120150   7.019   1.591   4.955
 6735TIP3    H220151   7.040   1.664   5.086
 6736TIP3   OH220152   1.204   1.566   6.519
 6736TIP3    H120153   1.245   1.650   6.500
 6736TIP3    H220154   1.153   1.582   6.599
 6737TIP3   OH220155   2.959   4.104   2.364
 6737TIP3    H120156   2.942   4.190   2.401
 6737TIP3    H220157   2.970   4.047   2.440
 6738TIP3   OH220158   5.716   7.603   6.539
 6738TIP3    H120159   5.805   7.621   6.567
 6738TIP3    H220160   5.670   7.573   6.618
 6739TIP3   OH220161   7.040   0.216   1.634
 6739TIP3    H120162   6.960   0.266   1.651
 6739TIP3    H220163   7.036   0.142   1.693
 6740TIP3   OH220164   4.143   2.038   5.640
 6740TIP3    H120165   4.219   2.078   5.597
 6740TIP3    H220166   4.073   2.044   5.574
 6741TIP3   OH220167   1.087   2.822   4.081
 6741TIP3    H120168   1.044   2.812   3.996
 6741TIP3    H220169   1.096   2.733   4.113
 6742TIP3   OH220170   4.149   1.459   1.721
 6742TIP3    H120171   4.077   1.522   1.733
 6742TIP3    H220172   4.121   1.381   1.770
 6743TIP3   OH220173   4.621   6.912   6.584
 6743TIP3    H120174   4.589   6.826   6.560
 6743TIP3    H220175   4.597   6.923   6.676
 6744TIP3   OH220176   5.883   4.262   0.259
 6744TIP3    H120177   5.797   4.293   0.231
 6744TIP3    H220178   5.866   4.210   0.337
 6745TIP3   OH220179   0.808   2.576   3.448
 6745TIP3    H120180   0.736   2.582   3.511
 6745TIP3    H220181   0.766   2.577   3.363
 6746TIP3   OH220182   5.164   3.927   2.682
 6746TIP3    H120183   5.109   3.958   2.754
 6746TIP3    H220184   5.105   3.874   2.629
 6747TIP3   OH220185   3.146   1.886   2.060
 6747TIP3    H120186   3.071   1.858   2.113
 6747TIP3    H220187   3.214   1.908   2.124
 6748TIP3   OH220188   6.907   3.507   6.088
 6748TIP3    H120189   6.940   3.438   6.030
 6748TIP3    H220190   6.837   3.466   6.137
 6749TIP3   OH220191   5.118   2.322   3.229
 6749TIP3    H120192   5.201   2.274   3.235
 6749TIP3    H220193   5.079   2.314   3.316
 6750TIP3   OH220194   6.379   2.100   4.726
 6750TIP3    H120195   6.471   2.124   4.735
 6750TIP3    H220196   6.359   2.115   4.633
 6751TIP3   OH220197   2.022   6.430   1.814
 6751TIP3    H120198   1.964   6.356   1.793
 6751TIP3    H220199   2.023   6.483   1.735
 6752TIP3   OH220200   4.592   0.375   0.539
 6752TIP3    H120201   4.506   0.333   0.541
 6752TIP3    H220202   4.576   0.459   0.495
 6753TIP3   OH220203   5.867   4.098   4.802
 6753TIP3    H120204   5.816   4.163   4.850
 6753TIP3    H220205   5.904   4.042   4.869
 6754TIP3   OH220206   3.047   0.247   0.958
 6754TIP3    H120207   2.957   0.266   0.930
 6754TIP3    H220208   3.102   0.296   0.897
 6755TIP3   OH220209   4.054   3.397   2.585
 6755TIP3    H120210   3.998   3.374   2.511
 6755TIP3    H220211   3.994   3.398   2.660
 6756TIP3   OH220212   7.304   7.518   6.487
 6756TIP3    H120213   7.272   7.489   6.402
 6756TIP3    H220214   7.389   7.474   6.497
 6757TIP3   OH220215   3.692   2.263   2.143
 6757TIP3    H120216   3.613   2.254   2.089
 6757TIP3    H220217   3.687   2.189   2.204
 6758TIP3   OH220218   1.172   7.445   5.048
 6758TIP3    H120219   1.265   7.467   5.037
 6758TIP3    H220220   1.130   7.480   4.970
 6759TIP3   OH220221   7.454   0.175   2.672
 6759TIP3    H120222   7.527   0.182   2.734
 6759TIP3    H220223   7.441   0.081   2.662
 6760TIP3   OH220224   8.211   3.937   4.334
 6760TIP3    H120225   8.302   3.962   4.346
 6760TIP3    H220226   8.211   3.879   4.257
 6761TIP3   OH220227   1.525   5.586   4.493
 6761TIP3    H120228   1.600   5.593   4.552
 6761TIP3    H220229   1.531   5.497   4.457
 6762TIP3   OH220230   6.927   6.044   1.305
 6762TIP3    H120231   6.867   6.093   1.249
 6762TIP3    H220232   7.009   6.042   1.255
 6763TIP3   OH220233   7.803   6.740   2.172
 6763TIP3    H120234   7.836   6.798   2.103
 6763TIP3    H220235   7.775   6.799   2.241
 6764TIP3   OH220236   7.849   4.087   5.649
 6764TIP3    H120237   7.775   4.071   5.590
 6764TIP3    H220238   7.915   4.023   5.622
 6765TIP3   OH220239   1.099   6.132   6.116
 6765TIP3    H120240   1.092   6.223   6.087
 6765TIP3    H220241   1.191   6.123   6.144
 6766TIP3   OH220242   0.096   4.988   3.259
 6766TIP3    H120243   0.142   5.068   3.285
 6766TIP3    H220244   0.041   4.967   3.335
 6767TIP3   OH220245   0.300   5.584   3.832
 6767TIP3    H120246   0.375   5.606   3.887
 6767TIP3    H220247   0.246   5.527   3.886
 6768TIP3   OH220248   3.514   3.102   1.989
 6768TIP3    H120249   3.592   3.051   1.966
 6768TIP3    H220250   3.446   3.069   1.930
 6769TIP3   OH220251   5.082   3.802   4.885
 6769TIP3    H120252   5.090   3.897   4.880
 6769TIP3    H220253   4.991   3.784   4.859
 6770TIP3   OH220254   3.101   1.359   1.643
 6770TIP3    H120255   3.193   1.387   1.643
 6770TIP3    H220256   3.102   1.275   1.690
 6771TIP3   OH220257   2.620   5.316   2.160
 6771TIP3    H120258   2.561   5.377   2.204
 6771TIP3    H220259   2.579   5.299   2.075
 6772TIP3   OH220260   3.804   2.782   0.159
 6772TIP3    H120261   3.791   2.877   0.169
 6772TIP3    H220262   3.833   2.771   0.069
 6773TIP3   OH220263   7.550   1.803   0.972
 6773TIP3    H120264   7.626   1.765   0.928
 6773TIP3    H220265   7.494   1.729   0.993
 6774TIP3   OH220266   3.043   3.204   4.726
 6774TIP3    H120267   3.081   3.137   4.670
 6774TIP3    H220268   2.969   3.239   4.675
 6775TIP3   OH220269   6.727   6.672   2.539
 6775TIP3    H120270   6.808   6.722   2.536
 6775TIP3    H220271   6.750   6.587   2.501
 6776TIP3   OH220272   0.290   4.738   6.309
 6776TIP3    H120273   0.296   4.832   6.295
 6776TIP3    H220274   0.381   4.708   6.313
 6777TIP3   OH220275   1.568   6.872   4.348
 6777TIP3    H120276   1.612   6.801   4.394
 6777TIP3    H220277   1.544   6.836   4.263
 6778TIP3   OH220278   5.699   7.117   2.463
 6778TIP3    H120279   5.769   7.170   2.500
 6778TIP3    H220280   5.733   7.087   2.379
 6779TIP3   OH220281   3.717   7.316   4.351
 6779TIP3    H120282   3.654   7.333   4.421
 6779TIP3    H220283   3.758   7.401   4.334
 6780TIP3   OH220284   0.496   1.454   2.575
 6780TIP3    H120285   0.508   1.384   2.511
 6780TIP3    H220286   0.430   1.511   2.536
 6781TIP3   OH220287   4.547   7.785   2.470
 6781TIP3    H120288   4.617   7.757   2.412
 6781TIP3    H220289   4.572   7.751   2.556
 6782TIP3   OH220290   3.649   3.674   4.498
 6782TIP3    H120291   3.573   3.644   4.448
 6782TIP3    H220292   3.706   3.598   4.505
 6783TIP3   OH220293   2.688   3.792   5.525
 6783TIP3    H120294   2.601   3.761   5.551
 6783TIP3    H220295   2.701   3.756   5.438
 6784TIP3   OH220296   2.432   5.964   3.138
 6784TIP3    H120297   2.426   6.043   3.085
 6784TIP3    H220298   2.342   5.945   3.163
 6785TIP3   OH220299   3.099   0.295   0.017
 6785TIP3    H120300   3.082   0.347  -0.061
 6785TIP3    H220301   3.128   0.210  -0.017
 6786TIP3   OH220302   8.078   2.169   5.200
 6786TIP3    H120303   8.076   2.112   5.276
 6786TIP3    H220304   8.014   2.132   5.140
 6787TIP3   OH220305   7.732   2.771   4.731
 6787TIP3    H120306   7.683   2.776   4.648
 6787TIP3    H220307   7.817   2.734   4.707
 6788TIP3   OH220308   7.342   3.867   0.000
 6788TIP3    H120309   7.249   3.872  -0.022
 6788TIP3    H220310   7.363   3.952   0.038
 6789TIP3   OH220311   4.741   0.771   2.110
 6789TIP3    H120312   4.742   0.764   2.205
 6789TIP3    H220313   4.834   0.769   2.085
 6790TIP3   OH220314   5.609   5.182   2.030
 6790TIP3    H120315   5.622   5.275   2.013
 6790TIP3    H220316   5.648   5.168   2.117
 6791TIP3   OH220317   3.508   2.927   0.297
 6791TIP3    H120318   3.526   2.986   0.224
 6791TIP3    H220319   3.453   2.858   0.260
 6792TIP3   OH220320   0.110   6.608   3.190
 6792TIP3    H120321   0.077   6.646   3.272
 6792TIP3    H220322   0.032   6.589   3.139
 6793TIP3   OH220323   5.154   2.623   3.742
 6793TIP3    H120324   5.082   2.561   3.753
 6793TIP3    H220325   5.164   2.664   3.828
 6794TIP3   OH220326   5.788   1.663   2.999
 6794TIP3    H120327   5.693   1.649   3.000
 6794TIP3    H220328   5.822   1.591   2.945
 6795TIP3   OH220329   4.845   5.637   0.022
 6795TIP3    H120330   4.779   5.680  -0.034
 6795TIP3    H220331   4.828   5.671   0.110
 6796TIP3   OH220332   8.058   3.919   1.729
 6796TIP3    H120333   8.058   3.859   1.803
 6796TIP3    H220334   7.992   3.883   1.669
 6797TIP3   OH220335   1.811   2.646   5.752
 6797TIP3    H120336   1.828   2.696   5.672
 6797TIP3    H220337   1.719   2.622   5.745
 6798TIP3   OH220338   2.293   7.821   6.172
 6798TIP3    H120339   2.223   7.886   6.159
 6798TIP3    H220340   2.278   7.756   6.103
 6799TIP3   OH220341   6.579   1.431   4.478
 6799TIP3    H120342   6.630   1.371   4.423
 6799TIP3    H220343   6.492   1.432   4.439
 6800TIP3   OH220344   0.260   4.532   3.906
 6800TIP3    H120345   0.269   4.513   4.000
 6800TIP3    H220346   0.344   4.571   3.882
 6801TIP3   OH220347   3.793   6.112   3.904
 6801TIP3    H120348   3.854   6.065   3.847
 6801TIP3    H220349   3.714   6.124   3.851
 6802TIP3   OH220350   4.787   7.323   2.451
 6802TIP3    H120351   4.710   7.268   2.437
 6802TIP3    H220352   4.824   7.292   2.534
 6803TIP3   OH220353   7.387   7.319   0.899
 6803TIP3    H120354   7.365   7.230   0.871
 6803TIP3    H220355   7.303   7.358   0.923
 6804TIP3   OH220356   4.658   4.812   6.421
 6804TIP3    H120357   4.643   4.884   6.483
 6804TIP3    H220358   4.682   4.738   6.476
 6805TIP3   OH220359   3.626   2.117   3.880
 6805TIP3    H120360   3.589   2.056   3.817
 6805TIP3    H220361   3.593   2.203   3.852
 6806TIP3   OH220362   3.581   0.041   5.619
 6806TIP3    H120363   3.511   0.047   5.555
 6806TIP3    H220364   3.580  -0.050   5.649
 6807TIP3   OH220365   2.155   1.169   1.449
 6807TIP3    H120366   2.154   1.114   1.371
 6807TIP3    H220367   2.063   1.181   1.472
 6808TIP3   OH220368   6.876   2.482   6.024
 6808TIP3    H120369   6.799   2.431   6.001
 6808TIP3    H220370   6.841   2.567   6.051
 6809TIP3   OH220371   5.967   1.422   2.399
 6809TIP3    H120372   6.060   1.414   2.419
 6809TIP3    H220373   5.923   1.377   2.471
 6810TIP3   OH220374   7.476   7.495   0.527
 6810TIP3    H120375   7.511   7.546   0.600
 6810TIP3    H220376   7.522   7.528   0.450
 6811TIP3   OH220377   5.529   2.137   5.448
 6811TIP3    H120378   5.528   2.168   5.539
 6811TIP3    H220379   5.457   2.074   5.444
 6812TIP3   OH220380   6.129   0.929   3.241
 6812TIP3    H120381   6.196   0.927   3.310
 6812TIP3    H220382   6.129   1.020   3.211
 6813TIP3   OH220383   6.441   7.743   0.464
 6813TIP3    H120384   6.503   7.793   0.411
 6813TIP3    H220385   6.486   7.730   0.548
 6814TIP3   OH220386   0.363   6.115   1.889
 6814TIP3    H120387   0.309   6.128   1.967
 6814TIP3    H220388   0.302   6.080   1.824
 6815TIP3   OH220389   0.411   1.240   2.829
 6815TIP3    H120390   0.365   1.185   2.765
 6815TIP3    H220391   0.477   1.287   2.778
 6816TIP3   OH220392   0.897   2.593   5.981
 6816TIP3    H120393   0.941   2.522   6.026
 6816TIP3    H220394   0.959   2.666   5.983
 6817TIP3   OH220395   4.017   6.461   3.200
 6817TIP3    H120396   4.040   6.376   3.236
 6817TIP3    H220397   4.000   6.444   3.107
 6818TIP3   OH220398   6.256   4.263   2.364
 6818TIP3    H120399   6.263   4.305   2.278
 6818TIP3    H220400   6.162   4.258   2.380
 6819TIP3   OH220401   5.923   1.422   0.167
 6819TIP3    H120402   5.910   1.353   0.233
 6819TIP3    H220403   5.965   1.493   0.215
 6820TIP3   OH220404   0.569   4.846   4.290
 6820TIP3    H120405   0.608   4.920   4.244
 6820TIP3    H220406   0.625   4.772   4.268
 6821TIP3   OH220407   7.221   3.433   6.391
 6821TIP3    H120408   7.226   3.379   6.312
 6821TIP3    H220409   7.130   3.461   6.396
 6822TIP3   OH220410   6.018   2.779   1.105
 6822TIP3    H120411   6.047   2.870   1.099
 6822TIP3    H220412   6.069   2.743   1.178
 6823TIP3   OH220413   1.098   2.668   6.380
 6823TIP3    H120414   1.124   2.753   6.416
 6823TIP3    H220415   1.066   2.688   6.292
 6824TIP3   OH220416   1.184   6.738   1.207
 6824TIP3    H120417   1.246   6.752   1.279
 6824TIP3    H220418   1.224   6.668   1.155
 6825TIP3   OH220419   1.885   4.810   1.210
 6825TIP3    H120420   1.825   4.881   1.189
 6825TIP3    H220421   1.871   4.746   1.140
 6826TIP3   OH220422   0.532   2.701   1.534
 6826TIP3    H120423   0.516   2.794   1.549
 6826TIP3    H220424   0.580   2.698   1.451
 6827TIP3   OH220425   3.128   6.454   2.861
 6827TIP3    H120426   3.106   6.435   2.770
 6827TIP3    H220427   3.198   6.519   2.855
 6828TIP3   OH220428   8.263   6.896   0.823
 6828TIP3    H120429   8.266   6.990   0.839
 6828TIP3    H220430   8.172   6.879   0.798
 6829TIP3   OH220431   0.725   6.191   6.310
 6829TIP3    H120432   0.736   6.223   6.400
 6829TIP3    H220433   0.789   6.242   6.259
 6830TIP3   OH220434   2.739   1.226   0.402
 6830TIP3    H120435   2.665   1.170   0.381
 6830TIP3    H220436   2.723   1.307   0.352
 6831TIP3   OH220437   2.878   5.917   1.270
 6831TIP3    H120438   2.908   5.943   1.183
 6831TIP3    H220439   2.942   5.955   1.330
 6832TIP3   OH220440   2.290   1.241   4.448
 6832TIP3    H120441   2.341   1.164   4.474
 6832TIP3    H220442   2.339   1.316   4.483
 6833TIP3   OH220443   2.097   2.916   0.554
 6833TIP3    H120444   2.022   2.881   0.505
 6833TIP3    H220445   2.166   2.923   0.488
 6834TIP3   OH220446   5.278   2.320   4.392
 6834TIP3    H120447   5.330   2.293   4.317
 6834TIP3    H220448   5.251   2.410   4.372
 6835TIP3   OH220449   1.559   6.645   2.082
 6835TIP3    H120450   1.564   6.588   2.159
 6835TIP3    H220451   1.477   6.693   2.093
 6836TIP3   OH220452   1.208   7.721   1.727
 6836TIP3    H120453   1.203   7.708   1.632
 6836TIP3    H220454   1.195   7.815   1.739
 6837TIP3   OH220455   6.166   6.443   0.018
 6837TIP3    H120456   6.151   6.535   0.040
 6837TIP3    H220457   6.260   6.437   0.000
 6838TIP3   OH220458   0.011   4.784   5.114
 6838TIP3    H120459   0.084   4.727   5.140
 6838TIP3    H220460   0.046   4.873   5.120
 6839TIP3   OH220461   0.907   2.097   3.634
 6839TIP3    H120462   0.976   2.066   3.691
 6839TIP3    H220463   0.936   2.184   3.605
 6840TIP3   OH220464   3.323   7.073   1.073
 6840TIP3    H120465   3.361   7.008   1.015
 6840TIP3    H220466   3.262   7.025   1.127
 6841TIP3   OH220467   3.547   7.746   0.027
 6841TIP3    H120468   3.491   7.690   0.081
 6841TIP3    H220469   3.634   7.734   0.063
 6842TIP3   OH220470   1.550   1.553   3.004
 6842TIP3    H120471   1.477   1.561   3.066
 6842TIP3    H220472   1.523   1.604   2.928
 6843TIP3   OH220473   2.611   2.538   2.378
 6843TIP3    H120474   2.683   2.476   2.369
 6843TIP3    H220475   2.606   2.581   2.292
 6844TIP3   OH220476   7.436   1.755   1.494
 6844TIP3    H120477   7.446   1.850   1.498
 6844TIP3    H220478   7.489   1.722   1.567
 6845TIP3   OH220479   5.466   0.821   1.584
 6845TIP3    H120480   5.490   0.910   1.608
 6845TIP3    H220481   5.382   0.828   1.540
 6846TIP3   OH220482   1.522   6.082   0.238
 6846TIP3    H120483   1.579   6.008   0.259
 6846TIP3    H220484   1.446   6.042   0.196
 6847TIP3   OH220485   3.379   7.185   5.429
 6847TIP3    H120486   3.429   7.238   5.367
 6847TIP3    H220487   3.345   7.112   5.377
 6848TIP3   OH220488   4.023   0.518   0.988
 6848TIP3    H120489   3.996   0.520   0.896
 6848TIP3    H220490   3.982   0.595   1.027
 6849TIP3   OH220491   4.980   0.385   0.396
 6849TIP3    H120492   5.072   0.369   0.418
 6849TIP3    H220493   4.954   0.308   0.346
 6850TIP3   OH220494   3.142   5.429   0.233
 6850TIP3    H120495   3.157   5.515   0.196
 6850TIP3    H220496   3.110   5.376   0.160
 6851TIP3   OH220497   5.236   6.210   2.037
 6851TIP3    H120498   5.239   6.146   1.967
 6851TIP3    H220499   5.149   6.201   2.075
 6852TIP3   OH220500   5.585   3.376   5.580
 6852TIP3    H120501   5.677   3.368   5.557
 6852TIP3    H220502   5.583   3.369   5.676
 6853TIP3   OH220503   3.258   5.307   2.713
 6853TIP3    H120504   3.265   5.270   2.625
 6853TIP3    H220505   3.281   5.399   2.702
 6854TIP3   OH220506   8.168   6.725   6.493
 6854TIP3    H120507   8.075   6.731   6.472
 6854TIP3    H220508   8.179   6.639   6.533
 6855TIP3   OH220509   2.220   1.391   2.448
 6855TIP3    H120510   2.198   1.418   2.538
 6855TIP3    H220511   2.260   1.305   2.458
 6856TIP3   OH220512   2.447   6.851   6.492
 6856TIP3    H120513   2.526   6.846   6.545
 6856TIP3    H220514   2.463   6.923   6.431
 6857TIP3   OH220515   6.241   0.347   3.496
 6857TIP3    H120516   6.256   0.442   3.494
 6857TIP3    H220517   6.169   0.336   3.558
 6858TIP3   OH220518   7.139   1.629   5.716
 6858TIP3    H120519   7.102   1.543   5.737
 6858TIP3    H220520   7.212   1.610   5.658
 6859TIP3   OH220521   2.178   1.948   2.089
 6859TIP3    H120522   2.264   1.985   2.109
 6859TIP3    H220523   2.140   1.929   2.174
 6860TIP3   OH220524   0.168   0.850   5.403
 6860TIP3    H120525   0.168   0.819   5.494
 6860TIP3    H220526   0.256   0.886   5.391
 6861TIP3   OH220527   1.068   3.666   0.414
 6861TIP3    H120528   1.110   3.664   0.328
 6861TIP3    H220529   1.072   3.757   0.441
 6862TIP3   OH220530   0.954   4.934   4.003
 6862TIP3    H120531   1.015   4.933   3.929
 6862TIP3    H220532   1.008   4.912   4.079
 6863TIP3   OH220533   6.965   2.035   4.069
 6863TIP3    H120534   7.012   2.018   4.151
 6863TIP3    H220535   6.878   1.997   4.082
 6864TIP3   OH220536   6.668   0.707   2.535
 6864TIP3    H120537   6.593   0.766   2.542
 6864TIP3    H220538   6.721   0.726   2.612
 6865TIP3   OH220539   7.258   3.358   5.022
 6865TIP3    H120540   7.329   3.368   5.086
 6865TIP3    H220541   7.301   3.371   4.937
 6866TIP3   OH220542   5.622   6.408   6.120
 6866TIP3    H120543   5.606   6.368   6.034
 6866TIP3    H220544   5.536   6.409   6.162
 6867TIP3   OH220545   4.641   4.574   3.957
 6867TIP3    H120546   4.670   4.650   3.906
 6867TIP3    H220547   4.703   4.570   4.030
 6868TIP3   OH220548   8.175   2.825   5.900
 6868TIP3    H120549   8.164   2.730   5.892
 6868TIP3    H220550   8.247   2.835   5.963
 6869TIP3   OH220551   6.149   2.846   2.306
 6869TIP3    H120552   6.214   2.912   2.282
 6869TIP3    H220553   6.067   2.880   2.273
 6870TIP3   OH220554   1.549   2.098   1.818
 6870TIP3    H120555   1.638   2.124   1.843
 6870TIP3    H220556   1.557   2.071   1.727
 6871TIP3   OH220557   4.777   2.097   2.014
 6871TIP3    H120558   4.755   2.120   1.924
 6871TIP3    H220559   4.837   2.165   2.043
 6872TIP3   OH220560   4.821   3.124   3.587
 6872TIP3    H120561   4.798   3.187   3.656
 6872TIP3    H220562   4.779   3.042   3.614
 6873TIP3   OH220563   0.980   6.162   2.820
 6873TIP3    H120564   0.934   6.083   2.849
 6873TIP3    H220565   1.048   6.176   2.886
 6874TIP3   OH220566   0.121   7.574   4.104
 6874TIP3    H120567   0.027   7.592   4.107
 6874TIP3    H220568   0.155   7.633   4.038
 6875TIP3   OH220569   7.707   0.179   2.820
 6875TIP3    H120570   7.751   0.257   2.787
 6875TIP3    H220571   7.725   0.179   2.914
 6876TIP3   OH220572   1.552   4.256   6.245
 6876TIP3    H120573   1.546   4.186   6.310
 6876TIP3    H220574   1.606   4.323   6.286
 6877TIP3   OH220575   4.566   2.796   3.936
 6877TIP3    H120576   4.474   2.790   3.963
 6877TIP3    H220577   4.571   2.739   3.859
 6878TIP3   OH220578   4.219   7.072   4.647
 6878TIP3    H120579   4.272   7.065   4.726
 6878TIP3    H220580   4.135   7.031   4.670
 6879TIP3   OH220581   5.456   6.596   2.142
 6879TIP3    H120582   5.531   6.560   2.188
 6879TIP3    H220583   5.434   6.531   2.075
 6880TIP3   OH220584   6.853   6.020   0.179
 6880TIP3    H120585   6.834   5.929   0.202
 6880TIP3    H220586   6.871   6.063   0.262
 6881TIP3   OH220587   4.949   4.481   1.943
 6881TIP3    H120588   4.996   4.513   1.866
 6881TIP3    H220589   4.968   4.547   2.010
 6882TIP3   OH220590   2.403   1.658   6.184
 6882TIP3    H120591   2.336   1.709   6.137
 6882TIP3    H220592   2.409   1.576   6.135
 6883TIP3   OH220593   7.888   5.953   4.249
 6883TIP3    H120594   7.887   5.879   4.188
 6883TIP3    H220595   7.874   5.913   4.335
 6884TIP3   OH220596   3.548   0.650   2.567
 6884TIP3    H120597   3.460   0.661   2.532
 6884TIP3    H220598   3.560   0.555   2.574
 6885TIP3   OH220599   2.563   2.152   2.728
 6885TIP3    H120600   2.639   2.201   2.698
 6885TIP3    H220601   2.594   2.100   2.801
 6886TIP3   OH220602   7.164   3.401   2.729
 6886TIP3    H120603   7.098   3.364   2.789
 6886TIP3    H220604   7.196   3.325   2.680
 6887TIP3   OH220605   1.366   1.687   1.209
 6887TIP3    H120606   1.341   1.736   1.287
 6887TIP3    H220607   1.374   1.754   1.141
 6888TIP3   OH220608   4.535   5.611   6.412
 6888TIP3    H120609   4.485   5.545   6.365
 6888TIP3    H220610   4.626   5.592   6.390
 6889TIP3   OH220611   7.410   6.400   6.496
 6889TIP3    H120612   7.333   6.352   6.463
 6889TIP3    H220613   7.424   6.364   6.584
 6890TIP3   OH220614   6.851   0.814   0.390
 6890TIP3    H120615   6.902   0.831   0.311
 6890TIP3    H220616   6.861   0.720   0.406
 6891TIP3   OH220617   2.711   4.327   4.606
 6891TIP3    H120618   2.723   4.403   4.664
 6891TIP3    H220619   2.634   4.349   4.554
 6892TIP3   OH220620   4.805   2.690   4.635
 6892TIP3    H120621   4.852   2.749   4.576
 6892TIP3    H220622   4.717   2.684   4.597
 6893TIP3   OH220623   2.993   7.091   1.949
 6893TIP3    H120624   3.079   7.096   1.991
 6893TIP3    H220625   2.931   7.104   2.020
 6894TIP3   OH220626   7.751   1.371   4.257
 6894TIP3    H120627   7.692   1.341   4.188
 6894TIP3    H220628   7.811   1.298   4.271
 6895TIP3   OH220629   2.448   4.219   5.847
 6895TIP3    H120630   2.379   4.207   5.782
 6895TIP3    H220631   2.507   4.283   5.808
 6896TIP3   OH220632   5.531   6.051   4.927
 6896TIP3    H120633   5.563   6.133   4.891
 6896TIP3    H220634   5.603   6.019   4.981
 6897TIP3   OH220635   1.496   2.657   1.338
 6897TIP3    H120636   1.521   2.680   1.248
 6897TIP3    H220637   1.535   2.726   1.391
 6898TIP3   OH220638   2.402   0.884   0.053
 6898TIP3    H120639   2.474   0.892   0.116
 6898TIP3    H220640   2.384   0.974   0.026
 6899TIP3   OH220641   0.269   7.111   1.851
 6899TIP3    H120642   0.238   7.026   1.882
 6899TIP3    H220643   0.320   7.146   1.924
 6900TIP3   OH220644   5.263   0.139   1.615
 6900TIP3    H120645   5.238   0.048   1.600
 6900TIP3    H220646   5.358   0.138   1.618
 6901TIP3   OH220647   3.483   4.396   3.402
 6901TIP3    H120648   3.451   4.320   3.354
 6901TIP3    H220649   3.563   4.422   3.355
 6902TIP3   OH220650   2.206   1.561   2.661
 6902TIP3    H120651   2.288   1.582   2.617
 6902TIP3    H220652   2.222   1.580   2.753
 6903TIP3   OH220653   7.377   3.530   5.662
 6903TIP3    H120654   7.306   3.555   5.721
 6903TIP3    H220655   7.454   3.573   5.699
 6904TIP3   OH220656   0.443   2.448   6.587
 6904TIP3    H120657   0.481   2.524   6.632
 6904TIP3    H220658   0.423   2.480   6.499
 6905TIP3   OH220659   1.789   7.047   1.910
 6905TIP3    H120660   1.775   6.961   1.948
 6905TIP3    H220661   1.884   7.061   1.917
 6906TIP3   OH220662   0.479   2.351   1.156
 6906TIP3    H120663   0.449   2.262   1.136
 6906TIP3    H220664   0.504   2.388   1.071
 6907TIP3   OH220665   1.788   5.794   4.849
 6907TIP3    H120666   1.714   5.732   4.855
 6907TIP3    H220667   1.857   5.752   4.901
 6908TIP3   OH220668   0.482   5.975   2.234
 6908TIP3    H120669   0.518   5.891   2.262
 6908TIP3    H220670   0.482   6.029   2.314
 6909TIP3   OH220671   5.433   0.357   5.969
 6909TIP3    H120672   5.363   0.409   6.009
 6909TIP3    H220673   5.420   0.366   5.875
 6910TIP3   OH220674   4.565   1.692   4.962
 6910TIP3    H120675   4.486   1.657   5.003
 6910TIP3    H220676   4.572   1.782   4.994
 6911TIP3   OH220677   6.807   3.976   0.803
 6911TIP3    H120678   6.882   4.016   0.759
 6911TIP3    H220679   6.773   3.912   0.741
 6912TIP3   OH220680   7.608   0.483   4.518
 6912TIP3    H120681   7.604   0.526   4.433
 6912TIP3    H220682   7.531   0.426   4.520
 6913TIP3   OH220683   0.153   3.506   4.746
 6913TIP3    H120684   0.187   3.460   4.822
 6913TIP3    H220685   0.068   3.465   4.729
 6914TIP3   OH220686   2.540   2.462   5.356
 6914TIP3    H120687   2.630   2.428   5.351
 6914TIP3    H220688   2.546   2.532   5.422
 6915TIP3   OH220689   2.089   4.106   4.537
 6915TIP3    H120690   2.137   4.116   4.619
 6915TIP3    H220691   2.009   4.157   4.549
 6916TIP3   OH220692   3.815   3.258   6.002
 6916TIP3    H120693   3.759   3.299   5.935
 6916TIP3    H220694   3.766   3.269   6.084
 6917TIP3   OH220695   6.041   7.451   4.856
 6917TIP3    H120696   6.072   7.536   4.887
 6917TIP3    H220697   6.091   7.387   4.907
 6918TIP3   OH220698   5.307   1.846   3.188
 6918TIP3    H120699   5.394   1.885   3.189
 6918TIP3    H220700   5.283   1.842   3.095
 6919TIP3   OH220701   4.700   5.142   0.018
 6919TIP3    H120702   4.714   5.059  -0.029
 6919TIP3    H220703   4.665   5.115   0.103
 6920TIP3   OH220704   1.834   5.818   5.754
 6920TIP3    H120705   1.855   5.819   5.661
 6920TIP3    H220706   1.745   5.855   5.759
 6921TIP3   OH220707   3.770   5.324   4.951
 6921TIP3    H120708   3.754   5.416   4.973
 6921TIP3    H220709   3.862   5.310   4.974
 6922TIP3   OH220710   4.280   4.481   3.305
 6922TIP3    H120711   4.246   4.402   3.264
 6922TIP3    H220712   4.262   4.469   3.399
 6923TIP3   OH220713   1.301   5.623   3.805
 6923TIP3    H120714   1.234   5.637   3.738
 6923TIP3    H220715   1.298   5.703   3.858
 6924TIP3   OH220716   0.210   3.427   6.675
 6924TIP3    H120717   0.284   3.415   6.615
 6924TIP3    H220718   0.133   3.429   6.618
 6925TIP3   OH220719   7.735   2.346   0.759
 6925TIP3    H120720   7.794   2.421   0.770
 6925TIP3    H220721   7.648   2.385   0.753
 6926TIP3   OH220722   5.672   3.063   4.771
 6926TIP3    H120723   5.705   3.104   4.851
 6926TIP3    H220724   5.588   3.107   4.754
 6927TIP3   OH220725   3.171   1.477   0.453
 6927TIP3    H120726   3.195   1.498   0.363
 6927TIP3    H220727   3.076   1.487   0.455
 6928TIP3   OH220728   3.273   2.760   5.043
 6928TIP3    H120729   3.214   2.809   4.985
 6928TIP3    H220730   3.306   2.825   5.104
 6929TIP3   OH220731   4.101   4.334   2.598
 6929TIP3    H120732   4.168   4.268   2.579
 6929TIP3    H220733   4.021   4.284   2.613
 6930TIP3   OH220734   6.585   5.905   2.164
 6930TIP3    H120735   6.496   5.910   2.199
 6930TIP3    H220736   6.635   5.860   2.233
 6931TIP3   OH220737   0.981   0.357   5.927
 6931TIP3    H120738   0.919   0.419   5.963
 6931TIP3    H220739   0.942   0.329   5.844
 6932TIP3   OH220740   5.168   7.347   0.297
 6932TIP3    H120741   5.251   7.395   0.303
 6932TIP3    H220742   5.194   7.255   0.294
 6933TIP3   OH220743   1.647   1.024   2.588
 6933TIP3    H120744   1.594   0.995   2.514
 6933TIP3    H220745   1.709   0.953   2.603
 6934TIP3   OH220746   8.038   3.362   3.214
 6934TIP3    H120747   8.048   3.350   3.119
 6934TIP3    H220748   7.989   3.443   3.223
 6935TIP3   OH220749   1.444   6.428   1.691
 6935TIP3    H120750   1.433   6.437   1.786
 6935TIP3    H220751   1.458   6.517   1.660
 6936TIP3   OH220752   0.470   5.022   3.914
 6936TIP3    H120753   0.563   5.020   3.893
 6936TIP3    H220754   0.443   4.930   3.911
 6937TIP3   OH220755   4.003   3.941   5.000
 6937TIP3    H120756   4.032   3.988   4.922
 6937TIP3    H220757   4.033   3.851   4.986
 6938TIP3   OH220758   3.628   5.536   5.320
 6938TIP3    H120759   3.649   5.614   5.269
 6938TIP3    H220760   3.710   5.511   5.362
 6939TIP3   OH220761   7.105   4.498   0.140
 6939TIP3    H120762   7.148   4.560   0.082
 6939TIP3    H220763   7.106   4.415   0.092
 6940TIP3   OH220764   7.175   7.224   4.636
 6940TIP3    H120765   7.248   7.251   4.692
 6940TIP3    H220766   7.098   7.233   4.692
 6941TIP3   OH220767   5.264   6.765   5.460
 6941TIP3    H120768   5.315   6.812   5.526
 6941TIP3    H220769   5.209   6.705   5.511
 6942TIP3   OH220770   1.468   2.036   5.965
 6942TIP3    H120771   1.537   1.986   6.009
 6942TIP3    H220772   1.412   2.067   6.036
 6943TIP3   OH220773   3.417   6.169   4.377
 6943TIP3    H120774   3.391   6.092   4.429
 6943TIP3    H220775   3.461   6.226   4.440
 6944TIP3   OH220776   7.984   2.791   2.718
 6944TIP3    H120777   8.062   2.791   2.774
 6944TIP3    H220778   7.925   2.728   2.759
 6945TIP3   OH220779   8.111   4.164   5.069
 6945TIP3    H120780   8.156   4.166   4.985
 6945TIP3    H220781   8.123   4.252   5.105
 6946TIP3   OH220782   6.389   6.219   5.249
 6946TIP3    H120783   6.475   6.261   5.240
 6946TIP3    H220784   6.406   6.126   5.234
 6947TIP3   OH220785   1.076   6.428   4.179
 6947TIP3    H120786   1.103   6.451   4.268
 6947TIP3    H220787   0.981   6.417   4.185
 6948TIP3   OH220788   0.517   4.171   6.413
 6948TIP3    H120789   0.553   4.085   6.394
 6948TIP3    H220790   0.440   4.154   6.467
 6949TIP3   OH220791   2.936   1.621   0.514
 6949TIP3    H120792   2.863   1.683   0.503
 6949TIP3    H220793   2.952   1.589   0.425
 6950TIP3   OH220794   5.242   6.530   0.030
 6950TIP3    H120795   5.253   6.435   0.032
 6950TIP3    H220796   5.236   6.556   0.122
 6951TIP3   OH220797   3.573   0.363   1.748
 6951TIP3    H120798   3.511   0.316   1.693
 6951TIP3    H220799   3.608   0.431   1.690
 6952TIP3   OH220800   0.292   5.126   2.663
 6952TIP3    H120801   0.340   5.081   2.593
 6952TIP3    H220802   0.360   5.175   2.710
 6953TIP3   OH220803   7.333   7.266   5.443
 6953TIP3    H120804   7.273   7.340   5.435
 6953TIP3    H220805   7.288   7.204   5.501
 6954TIP3   OH220806   3.882   5.729   2.598
 6954TIP3    H120807   3.977   5.729   2.587
 6954TIP3    H220808   3.868   5.687   2.684
 6955TIP3   OH220809   7.570   1.739   5.210
 6955TIP3    H120810   7.577   1.825   5.250
 6955TIP3    H220811   7.585   1.677   5.281
 6956TIP3   OH220812   4.853   2.603   1.007
 6956TIP3    H120813   4.902   2.555   1.074
 6956TIP3    H220814   4.905   2.593   0.928
 6957TIP3   OH220815   7.584   4.854   0.789
 6957TIP3    H120816   7.571   4.761   0.769
 6957TIP3    H220817   7.554   4.864   0.879
 6958TIP3   OH220818   2.904   0.191   1.418
 6958TIP3    H120819   2.951   0.124   1.468
 6958TIP3    H220820   2.973   0.238   1.370
 6959TIP3   OH220821   1.035   0.761   0.172
 6959TIP3    H120822   1.085   0.681   0.187
 6959TIP3    H220823   1.008   0.755   0.080
 6960TIP3   OH220824   1.215   2.429   3.425
 6960TIP3    H120825   1.246   2.503   3.373
 6960TIP3    H220826   1.140   2.395   3.376
 6961TIP3   OH220827   5.540   7.144   0.014
 6961TIP3    H120828   5.587   7.101  -0.058
 6961TIP3    H220829   5.547   7.238  -0.006
 6962TIP3   OH220830   7.230   1.426   4.476
 6962TIP3    H120831   7.151   1.375   4.457
 6962TIP3    H220832   7.293   1.361   4.508
 6963TIP3   OH220833   3.484   3.165   1.577
 6963TIP3    H120834   3.540   3.139   1.650
 6963TIP3    H220835   3.430   3.088   1.559
 6964TIP3   OH220836   7.591   5.299   2.655
 6964TIP3    H120837   7.556   5.387   2.639
 6964TIP3    H220838   7.546   5.244   2.590
 6965TIP3   OH220839   2.256   6.618   3.712
 6965TIP3    H120840   2.192   6.686   3.690
 6965TIP3    H220841   2.318   6.620   3.639
 6966TIP3   OH220842   5.911   2.210   6.694
 6966TIP3    H120843   5.901   2.236   6.786
 6966TIP3    H220844   5.961   2.128   6.698
 6967TIP3   OH220845   1.254   5.183   3.740
 6967TIP3    H120846   1.230   5.242   3.812
 6967TIP3    H220847   1.231   5.231   3.661
 6968TIP3   OH220848   0.725   1.404   5.551
 6968TIP3    H120849   0.654   1.340   5.553
 6968TIP3    H220850   0.690   1.480   5.598
 6969TIP3   OH220851   1.748   1.660   0.460
 6969TIP3    H120852   1.817   1.603   0.493
 6969TIP3    H220853   1.794   1.740   0.432
 6970TIP3   OH220854   5.152   3.690   2.960
 6970TIP3    H120855   5.131   3.635   2.884
 6970TIP3    H220856   5.082   3.672   3.023
 6971TIP3   OH220857   7.281   4.032   4.962
 6971TIP3    H120858   7.316   3.948   4.936
 6971TIP3    H220859   7.282   4.085   4.882
 6972TIP3   OH220860   5.593   1.359   6.282
 6972TIP3    H120861   5.554   1.404   6.207
 6972TIP3    H220862   5.617   1.430   6.342
 6973TIP3   OH220863   1.389   0.837   1.784
 6973TIP3    H120864   1.451   0.765   1.801
 6973TIP3    H220865   1.444   0.911   1.761
 6974TIP3   OH220866   4.963   5.318   1.978
 6974TIP3    H120867   4.913   5.320   2.060
 6974TIP3    H220868   4.991   5.408   1.964
 6975TIP3   OH220869   8.082   0.792   0.947
 6975TIP3    H120870   8.104   0.873   0.993
 6975TIP3    H220871   8.050   0.734   1.016
 6976TIP3   OH220872   0.480   0.008   4.979
 6976TIP3    H120873   0.572   0.032   4.981
 6976TIP3    H220874   0.470  -0.043   4.899
 6977TIP3   OH220875   1.393   6.019   0.541
 6977TIP3    H120876   1.365   6.051   0.627
 6977TIP3    H220877   1.325   6.048   0.481
 6978TIP3   OH220878   6.170   6.709   0.094
 6978TIP3    H120879   6.216   6.777   0.144
 6978TIP3    H220880   6.106   6.757   0.042
 6979TIP3   OH220881   6.810   0.050   1.154
 6979TIP3    H120882   6.854   0.067   1.237
 6979TIP3    H220883   6.823   0.130   1.103
 6980TIP3   OH220884   1.837   2.702   3.227
 6980TIP3    H120885   1.913   2.755   3.252
 6980TIP3    H220886   1.814   2.655   3.307
 6981TIP3   OH220887   5.206   0.406   5.122
 6981TIP3    H120888   5.219   0.476   5.057
 6981TIP3    H220889   5.282   0.349   5.111
 6982TIP3   OH220890   4.100   1.503   2.315
 6982TIP3    H120891   4.118   1.410   2.302
 6982TIP3    H220892   4.124   1.545   2.233
 6983TIP3   OH220893   3.317   6.368   6.706
 6983TIP3    H120894   3.283   6.428   6.773
 6983TIP3    H220895   3.261   6.290   6.715
 6984TIP3   OH220896   0.638   2.334   3.669
 6984TIP3    H120897   0.632   2.382   3.752
 6984TIP3    H220898   0.637   2.242   3.695
 6985TIP3   OH220899   6.504   0.019   5.069
 6985TIP3    H120900   6.591  -0.010   5.096
 6985TIP3    H220901   6.449   0.006   5.146
 6986TIP3   OH220902   1.145   6.033   0.367
 6986TIP3    H120903   1.082   6.103   0.354
 6986TIP3    H220904   1.093   5.952   0.359
 6987TIP3   OH220905   4.380   3.751   4.309
 6987TIP3    H120906   4.351   3.701   4.232
 6987TIP3    H220907   4.299   3.771   4.356
 6988TIP3   OH220908   3.268   0.680   2.503
 6988TIP3    H120909   3.185   0.715   2.536
 6988TIP3    H220910   3.250   0.663   2.410
 6989TIP3   OH220911   3.417   6.162   0.855
 6989TIP3    H120912   3.432   6.106   0.779
 6989TIP3    H220913   3.424   6.251   0.821
 6990TIP3   OH220914   6.257   4.250   3.579
 6990TIP3    H120915   6.262   4.332   3.629
 6990TIP3    H220916   6.211   4.273   3.499
 6991TIP3   OH220917   3.363   6.446   4.715
 6991TIP3    H120918   3.396   6.422   4.629
 6991TIP3    H220919   3.310   6.524   4.700
 6992TIP3   OH220920   7.350   3.185   6.254
 6992TIP3    H120921   7.274   3.139   6.217
 6992TIP3    H220922   7.426   3.137   6.221
 6993TIP3   OH220923   1.866   3.376   3.930
 6993TIP3    H120924   1.795   3.395   3.869
 6993TIP3    H220925   1.829   3.396   4.016
 6994TIP3   OH220926   4.520   7.242   2.432
 6994TIP3    H120927   4.521   7.259   2.338
 6994TIP3    H220928   4.431   7.261   2.460
 6995TIP3   OH220929   2.060   7.153   4.386
 6995TIP3    H120930   1.976   7.174   4.344
 6995TIP3    H220931   2.041   7.161   4.480
 6996TIP3   OH220932   3.002   4.468   0.551
 6996TIP3    H120933   3.047   4.385   0.532
 6996TIP3    H220934   3.018   4.521   0.473
 6997TIP3   OH220935   0.481   5.644   3.070
 6997TIP3    H120936   0.442   5.617   3.153
 6997TIP3    H220937   0.503   5.737   3.083
 6998TIP3   OH220938   5.998   2.618   4.514
 6998TIP3    H120939   6.004   2.564   4.435
 6998TIP3    H220940   5.945   2.565   4.574
 6999TIP3   OH220941   5.922   6.996   1.649
 6999TIP3    H120942   5.856   7.002   1.580
 6999TIP3    H220943   5.928   6.903   1.669
 7000TIP3   OH220944   0.895   3.921   0.747
 7000TIP3    H120945   0.983   3.919   0.710
 7000TIP3    H220946   0.892   4.003   0.797
 7001TIP3   OH220947   4.378   2.700   2.491
 7001TIP3    H120948   4.415   2.714   2.578
 7001TIP3    H220949   4.296   2.653   2.506
 7002TIP3   OH220950   0.564   2.789   5.649
 7002TIP3    H120951   0.511   2.717   5.614
 7002TIP3    H220952   0.626   2.810   5.578
 7003TIP3   OH220953   3.483   0.344   6.680
 7003TIP3    H120954   3.509   0.383   6.763
 7003TIP3    H220955   3.410   0.286   6.703
 7004TIP3   OH220956   4.162   6.858   0.760
 7004TIP3    H120957   4.211   6.939   0.777
 7004TIP3    H220958   4.150   6.858   0.665
 7005TIP3   OH220959   0.330   5.777   4.207
 7005TIP3    H120960   0.367   5.728   4.134
 7005TIP3    H220961   0.353   5.868   4.189
 7006TIP3   OH220962   6.904   4.662   0.230
 7006TIP3    H120963   6.869   4.595   0.288
 7006TIP3    H220964   6.954   4.614   0.164
 7007TIP3   OH220965   4.444   0.410   2.621
 7007TIP3    H120966   4.349   0.407   2.610
 7007TIP3    H220967   4.477   0.345   2.559
 7008TIP3   OH220968   5.110   3.514   1.985
 7008TIP3    H120969   5.155   3.572   1.924
 7008TIP3    H220970   5.035   3.481   1.936
 7009TIP3   OH220971   7.386   7.317   5.164
 7009TIP3    H120972   7.356   7.303   5.254
 7009TIP3    H220973   7.307   7.341   5.116
 7010TIP3   OH220974   7.747   7.045   6.363
 7010TIP3    H120975   7.801   7.088   6.430
 7010TIP3    H220976   7.783   6.957   6.355
 7011TIP3   OH220977   5.280   7.655   3.542
 7011TIP3    H120978   5.309   7.746   3.534
 7011TIP3    H220979   5.269   7.641   3.636
 7012TIP3   OH220980   2.586   3.461   2.388
 7012TIP3    H120981   2.553   3.502   2.308
 7012TIP3    H220982   2.652   3.522   2.421
 7013TIP3   OH220983   6.249   4.772   6.469
 7013TIP3    H120984   6.231   4.730   6.385
 7013TIP3    H220985   6.332   4.733   6.497
 7014TIP3   OH220986   5.333   5.650   0.151
 7014TIP3    H120987   5.249   5.633   0.107
 7014TIP3    H220988   5.314   5.640   0.244
 7015TIP3   OH220989   8.208   7.459   2.550
 7015TIP3    H120990   8.278   7.514   2.584
 7015TIP3    H220991   8.244   7.420   2.470
 7016TIP3   OH220992   5.748   6.598   1.703
 7016TIP3    H120993   5.733   6.682   1.748
 7016TIP3    H220994   5.842   6.597   1.684
 7017TIP3   OH220995   0.285   0.542   0.061
 7017TIP3    H120996   0.222   0.474   0.038
 7017TIP3    H220997   0.234   0.609   0.107
 7018TIP3   OH220998   7.109   3.494   3.489
 7018TIP3    H120999   7.147   3.564   3.542
 7018TIP3    H221000   7.018   3.488   3.518
 7019TIP3   OH221001   5.860   4.946   4.621
 7019TIP3    H121002   5.889   4.980   4.706
 7019TIP3    H221003   5.940   4.915   4.579
 7020TIP3   OH221004   0.485   4.741   2.831
 7020TIP3    H121005   0.403   4.732   2.880
 7020TIP3    H221006   0.474   4.681   2.757
 7021TIP3   OH221007   6.668   2.689   4.735
 7021TIP3    H121008   6.694   2.635   4.660
 7021TIP3    H221009   6.575   2.669   4.747
 7022TIP3   OH221010   2.127   4.224   4.280
 7022TIP3    H121011   2.169   4.181   4.205
 7022TIP3    H221012   2.113   4.153   4.342
 7023TIP3   OH221013   4.031   0.138   6.662
 7023TIP3    H121014   4.021   0.217   6.609
 7023TIP3    H221015   3.942   0.102   6.669
 7024TIP3   OH221016   0.690   1.276   3.550
 7024TIP3    H121017   0.604   1.311   3.572
 7024TIP3    H221018   0.700   1.294   3.456
 7025TIP3   OH221019   0.966   5.424   2.897
 7025TIP3    H121020   0.978   5.515   2.868
 7025TIP3    H221021   0.920   5.432   2.981
 7026TIP3   OH221022   7.913   7.782   3.195
 7026TIP3    H121023   7.853   7.816   3.129
 7026TIP3    H221024   7.923   7.854   3.258
 7027TIP3   OH221025   7.850   5.181   0.374
 7027TIP3    H121026   7.846   5.151   0.283
 7027TIP3    H221027   7.778   5.135   0.417
 7028TIP3   OH221028   3.505   0.778   2.246
 7028TIP3    H121029   3.594   0.756   2.274
 7028TIP3    H221030   3.485   0.861   2.288
 7029TIP3   OH221031   3.313   4.957   5.981
 7029TIP3    H121032   3.218   4.968   5.985
 7029TIP3    H221033   3.328   4.870   6.017
 7030TIP3   OH221034   2.934   1.886   0.872
 7030TIP3    H121035   2.846   1.922   0.883
 7030TIP3    H221036   2.922   1.791   0.878
 7031TIP3   OH221037   5.187   4.401   3.123
 7031TIP3    H121038   5.147   4.324   3.163
 7031TIP3    H221039   5.262   4.366   3.074
 7032TIP3   OH221040   4.496   1.275   1.033
 7032TIP3    H121041   4.483   1.272   0.938
 7032TIP3    H221042   4.488   1.368   1.055
 7033TIP3   OH221043   1.829   3.083   4.252
 7033TIP3    H121044   1.768   3.121   4.189
 7033TIP3    H221045   1.895   3.039   4.198
 7034TIP3   OH221046   2.903   6.996   3.585
 7034TIP3    H121047   2.849   7.001   3.664
 7034TIP3    H221048   2.992   7.007   3.617
 7035TIP3   OH221049   8.264   7.406   2.870
 7035TIP3    H121050   8.250   7.454   2.788
 7035TIP3    H221051   8.248   7.314   2.847
 7036TIP3   OH221052   0.419   6.885   2.599
 7036TIP3    H121053   0.345   6.840   2.560
 7036TIP3    H221054   0.486   6.884   2.531
 7037TIP3   OH221055   7.929   4.426   4.607
 7037TIP3    H121056   7.910   4.502   4.662
 7037TIP3    H221057   7.845   4.382   4.597
 7038TIP3   OH221058   5.482   1.486   3.112
 7038TIP3    H121059   5.492   1.423   3.040
 7038TIP3    H221060   5.393   1.519   3.103
 7039TIP3   OH221061   6.297   7.031   5.368
 7039TIP3    H121062   6.330   7.056   5.281
 7039TIP3    H221063   6.207   7.066   5.370
 7040TIP3   OH221064   3.638   2.584   2.139
 7040TIP3    H121065   3.588   2.649   2.090
 7040TIP3    H221066   3.729   2.597   2.110
 7041TIP3   OH221067   5.703   0.448   3.664
 7041TIP3    H121068   5.761   0.392   3.613
 7041TIP3    H221069   5.642   0.485   3.600
 7042TIP3   OH221070   5.172   1.142   1.329
 7042TIP3    H121071   5.137   1.221   1.288
 7042TIP3    H221072   5.153   1.153   1.422
 7043TIP3   OH221073   0.925   5.214   3.438
 7043TIP3    H121074   1.001   5.158   3.423
 7043TIP3    H221075   0.873   5.167   3.503
 7044TIP3   OH221076   3.560   7.060   1.411
 7044TIP3    H121077   3.594   7.021   1.491
 7044TIP3    H221078   3.467   7.074   1.429
 7045TIP3   OH221079   8.133   7.632   5.989
 7045TIP3    H121080   8.121   7.614   6.082
 7045TIP3    H221081   8.075   7.706   5.971
 7046TIP3   OH221082   7.788   7.285   1.861
 7046TIP3    H121083   7.855   7.242   1.808
 7046TIP3    H221084   7.769   7.223   1.932
 7047TIP3   OH221085   2.502   7.018   0.081
 7047TIP3    H121086   2.553   6.939   0.101
 7047TIP3    H221087   2.563   7.090   0.096
 7048TIP3   OH221088   2.376   0.497   4.497
 7048TIP3    H121089   2.448   0.553   4.526
 7048TIP3    H221090   2.303   0.521   4.554
 7049TIP3   OH221091   7.513   1.336   0.930
 7049TIP3    H121092   7.453   1.408   0.948
 7049TIP3    H221093   7.513   1.329   0.834
 7050TIP3   OH221094   5.608   6.260   3.767
 7050TIP3    H121095   5.664   6.336   3.781
 7050TIP3    H221096   5.521   6.289   3.796
 7051TIP3   OH221097   6.671   0.196   1.460
 7051TIP3    H121098   6.582   0.162   1.454
 7051TIP3    H221099   6.670   0.254   1.536
 7052TIP3   OH221100   8.247   5.792   0.389
 7052TIP3    H121101   8.170   5.759   0.437
 7052TIP3    H221102   8.235   5.887   0.387
 7053TIP3   OH221103   4.650   0.159   3.098
 7053TIP3    H121104   4.693   0.091   3.151
 7053TIP3    H221105   4.656   0.126   3.008
 7054TIP3   OH221106   4.879   3.305   6.381
 7054TIP3    H121107   4.894   3.341   6.468
 7054TIP3    H221108   4.788   3.275   6.382
 7055TIP3   OH221109   5.723   0.251   2.244
 7055TIP3    H121110   5.760   0.196   2.313
 7055TIP3    H221111   5.764   0.337   2.257
 7056TIP3   OH221112   7.008   7.527   5.180
 7056TIP3    H121113   6.966   7.613   5.179
 7056TIP3    H221114   7.077   7.534   5.113
 7057TIP3   OH221115   0.274   1.668   0.123
 7057TIP3    H121116   0.212   1.732   0.157
 7057TIP3    H221117   0.360   1.706   0.140
 7058TIP3   OH221118   5.622   0.027   4.825
 7058TIP3    H121119   5.533   0.060   4.838
 7058TIP3    H221120   5.610  -0.061   4.790
 7059TIP3   OH221121   7.020   4.751   2.425
 7059TIP3    H121122   6.934   4.745   2.466
 7059TIP3    H221123   7.052   4.661   2.422
 7060TIP3   OH221124   2.660   5.376   2.905
 7060TIP3    H121125   2.690   5.336   2.823
 7060TIP3    H221126   2.682   5.312   2.972
 7061TIP3   OH221127   4.362   7.737   1.364
 7061TIP3    H121128   4.309   7.795   1.310
 7061TIP3    H221129   4.419   7.795   1.413
 7062TIP3   OH221130   5.007   3.383   6.141
 7062TIP3    H121131   4.945   3.355   6.208
 7062TIP3    H221132   4.953   3.428   6.076
 7063TIP3   OH221133   0.735   5.943   4.922
 7063TIP3    H121134   0.682   5.995   4.982
 7063TIP3    H221135   0.700   5.964   4.835
 7064TIP3   OH221136   6.634   0.861   3.818
 7064TIP3    H121137   6.595   0.910   3.745
 7064TIP3    H221138   6.657   0.928   3.882
 7065TIP3   OH221139   1.946   5.354   3.950
 7065TIP3    H121140   1.898   5.327   4.028
 7065TIP3    H221141   1.946   5.449   3.953
 7066TIP3   OH221142   3.994   1.371   6.748
 7066TIP3    H121143   3.984   1.397   6.839
 7066TIP3    H221144   4.088   1.361   6.735
 7067TIP3   OH221145   6.876   7.248   0.359
 7067TIP3    H121146   6.808   7.184   0.338
 7067TIP3    H221147   6.837   7.332   0.335
 7068TIP3   OH221148   8.068   1.770   1.445
 7068TIP3    H121149   8.101   1.804   1.529
 7068TIP3    H221150   8.147   1.738   1.401
 7069TIP3   OH221151   2.288   0.833   3.647
 7069TIP3    H121152   2.300   0.873   3.733
 7069TIP3    H221153   2.234   0.895   3.599
 7070TIP3   OH221154   3.242   4.306   1.541
 7070TIP3    H121155   3.319   4.297   1.485
 7070TIP3    H221156   3.256   4.388   1.588
 7071TIP3   OH221157   5.619   4.315   2.306
 7071TIP3    H121158   5.559   4.362   2.364
 7071TIP3    H221159   5.574   4.234   2.284
 7072TIP3   OH221160   1.180   6.910   1.954
 7072TIP3    H121161   1.110   6.881   1.897
 7072TIP3    H221162   1.147   6.990   1.995
 7073TIP3   OH221163   7.832   4.984   0.933
 7073TIP3    H121164   7.759   4.989   0.994
 7073TIP3    H221165   7.818   4.902   0.885
 7074TIP3   OH221166   2.444   3.119   5.805
 7074TIP3    H121167   2.475   3.030   5.819
 7074TIP3    H221168   2.459   3.135   5.711
 7075TIP3   OH221169   1.246   5.538   4.529
 7075TIP3    H121170   1.340   5.548   4.514
 7075TIP3    H221171   1.205   5.569   4.449
 7076TIP3   OH221172   2.480   5.974   2.483
 7076TIP3    H121173   2.443   5.997   2.569
 7076TIP3    H221174   2.574   5.987   2.493
 7077TIP3   OH221175   4.182   4.634   1.278
 7077TIP3    H121176   4.115   4.683   1.325
 7077TIP3    H221177   4.263   4.680   1.296
 7078TIP3   OH221178   8.294   3.791   2.900
 7078TIP3    H121179   8.238   3.868   2.894
 7078TIP3    H221180   8.369   3.819   2.953
 7079TIP3   OH221181   5.988   0.087   2.766
 7079TIP3    H121182   6.023  -0.002   2.770
 7079TIP3    H221183   5.998   0.112   2.674
 7080TIP3   OH221184   1.463   5.153   0.899
 7080TIP3    H121185   1.549   5.179   0.932
 7080TIP3    H221186   1.474   5.150   0.804
 7081TIP3   OH221187   3.890   2.852   1.007
 7081TIP3    H121188   3.978   2.889   1.019
 7081TIP3    H221189   3.833   2.911   1.056
 7082TIP3   OH221190   3.119   4.700   1.118
 7082TIP3    H121191   3.185   4.651   1.070
 7082TIP3    H221192   3.099   4.775   1.062
 7083TIP3   OH221193   4.149   3.970   3.178
 7083TIP3    H121194   4.143   3.875   3.173
 7083TIP3    H221195   4.178   3.987   3.268
 7084TIP3   OH221196   7.200   0.687   6.161
 7084TIP3    H121197   7.207   0.611   6.220
 7084TIP3    H221198   7.286   0.730   6.167
 7085TIP3   OH221199   4.806   1.582   4.893
 7085TIP3    H121200   4.719   1.617   4.913
 7085TIP3    H221201   4.849   1.650   4.842
 7086TIP3   OH221202   4.486   6.465   6.557
 7086TIP3    H121203   4.549   6.470   6.628
 7086TIP3    H221204   4.521   6.522   6.489
 7087TIP3   OH221205   7.243   0.389   5.028
 7087TIP3    H121206   7.262   0.300   4.997
 7087TIP3    H221207   7.151   0.404   5.006
 7088TIP3   OH221208   6.249   6.152   2.350
 7088TIP3    H121209   6.279   6.223   2.293
 7088TIP3    H221210   6.225   6.081   2.290
 7089TIP3   OH221211   6.820   4.133   0.217
 7089TIP3    H121212   6.741   4.155   0.267
 7089TIP3    H221213   6.789   4.123   0.127
 7090TIP3   OH221214   0.990   3.909   3.505
 7090TIP3    H121215   1.073   3.906   3.459
 7090TIP3    H221216   0.924   3.899   3.437
 7091TIP3   OH221217   1.367   3.371   1.543
 7091TIP3    H121218   1.403   3.457   1.520
 7091TIP3    H221219   1.398   3.313   1.473
 7092TIP3   OH221220   4.951   0.579   6.746
 7092TIP3    H121221   4.940   0.541   6.658
 7092TIP3    H221222   5.043   0.566   6.766
 7093TIP3   OH221223   2.734   4.300   6.047
 7093TIP3    H121224   2.822   4.322   6.018
 7093TIP3    H221225   2.682   4.378   6.027
 7094TIP3   OH221226   2.908   7.372   0.355
 7094TIP3    H121227   2.892   7.457   0.315
 7094TIP3    H221228   2.922   7.313   0.281
 7095TIP3   OH221229   5.480   5.513   4.609
 7095TIP3    H121230   5.441   5.583   4.557
 7095TIP3    H221231   5.504   5.446   4.546
 7096TIP3   OH221232   6.875   0.585   1.462
 7096TIP3    H121233   6.899   0.519   1.398
 7096TIP3    H221234   6.957   0.610   1.504
 7097TIP3   OH221235   2.018   1.760   0.315
 7097TIP3    H121236   2.091   1.818   0.337
 7097TIP3    H221237   1.977   1.800   0.238
 7098TIP3   OH221238   0.560   4.319   5.080
 7098TIP3    H121239   0.473   4.285   5.101
 7098TIP3    H221240   0.617   4.280   5.146
 7099TIP3   OH221241   2.304   5.201   3.141
 7099TIP3    H121242   2.233   5.216   3.079
 7099TIP3    H221243   2.269   5.233   3.224
 7100TIP3   OH221244   6.997   3.361   2.969
 7100TIP3    H121245   6.903   3.352   2.958
 7100TIP3    H221246   7.011   3.367   3.063
 7101TIP3   OH221247   2.925   3.822   1.954
 7101TIP3    H121248   2.913   3.916   1.961
 7101TIP3    H221249   2.995   3.802   2.015
 7102TIP3   OH221250   3.793   2.935   4.722
 7102TIP3    H121251   3.739   2.992   4.776
 7102TIP3    H221252   3.798   2.853   4.770
 7103TIP3   OH221253   7.075   1.429   4.893
 7103TIP3    H121254   7.156   1.416   4.942
 7103TIP3    H221255   7.062   1.346   4.847
 7104TIP3   OH221256   8.294   0.887   0.614
 7104TIP3    H121257   8.207   0.872   0.576
 7104TIP3    H221258   8.354   0.843   0.554
 7105TIP3   OH221259   0.320   7.454   5.398
 7105TIP3    H121260   0.288   7.364   5.399
 7105TIP3    H221261   0.253   7.504   5.444
 7106TIP3   OH221262   3.780   1.330   2.334
 7106TIP3    H121263   3.808   1.244   2.366
 7106TIP3    H221264   3.706   1.353   2.390
 7107TIP3   OH221265   5.122   0.964   5.233
 7107TIP3    H121266   5.084   0.940   5.148
 7107TIP3    H221267   5.053   1.013   5.277
 7108TIP3   OH221268   6.743   0.139   2.593
 7108TIP3    H121269   6.658   0.168   2.625
 7108TIP3    H221270   6.725   0.055   2.550
 7109TIP3   OH221271   0.998   3.509   1.824
 7109TIP3    H121272   1.087   3.541   1.811
 7109TIP3    H221273   0.960   3.566   1.890
 7110TIP3   OH221274   5.870   1.831   6.490
 7110TIP3    H121275   5.839   1.765   6.428
 7110TIP3    H221276   5.806   1.901   6.484
 7111TIP3   OH221277   1.808   3.182   3.503
 7111TIP3    H121278   1.902   3.200   3.507
 7111TIP3    H221279   1.800   3.088   3.521
 7112TIP3   OH221280   8.096   6.118   4.339
 7112TIP3    H121281   8.036   6.052   4.305
 7112TIP3    H221282   8.108   6.179   4.267
 7113TIP3   OH221283   1.508   2.153   3.504
 7113TIP3    H121284   1.436   2.190   3.555
 7113TIP3    H221285   1.465   2.109   3.430
 7114TIP3   OH221286   7.660   6.958   1.408
 7114TIP3    H121287   7.703   6.878   1.378
 7114TIP3    H221288   7.577   6.960   1.361
 7115TIP3   OH221289   1.373   2.799   4.564
 7115TIP3    H121290   1.294   2.762   4.527
 7115TIP3    H221291   1.433   2.807   4.490
 7116TIP3   OH221292   6.914   1.717   4.014
 7116TIP3    H121293   6.930   1.798   3.965
 7116TIP3    H221294   6.990   1.663   3.996
 7117TIP3   OH221295   2.137   5.550   1.790
 7117TIP3    H121296   2.075   5.570   1.720
 7117TIP3    H221297   2.200   5.491   1.749
 7118TIP3   OH221298   8.092   7.203   0.528
 7118TIP3    H121299   8.021   7.213   0.464
 7118TIP3    H221300   8.079   7.116   0.566
 7119TIP3   OH221301   6.988   7.751   1.077
 7119TIP3    H121302   6.952   7.807   1.008
 7119TIP3    H221303   7.083   7.758   1.066
 7120TIP3   OH221304   6.007   2.467   0.049
 7120TIP3    H121305   6.102   2.478   0.051
 7120TIP3    H221306   5.978   2.523  -0.023
 7121TIP3   OH221307   6.042   4.115   5.775
 7121TIP3    H121308   5.986   4.091   5.701
 7121TIP3    H221309   6.050   4.035   5.827
 7122TIP3   OH221310   3.536   2.747   1.674
 7122TIP3    H121311   3.514   2.655   1.691
 7122TIP3    H221312   3.594   2.744   1.598
 7123TIP3   OH221313   1.809   0.136   0.804
 7123TIP3    H121314   1.882   0.191   0.776
 7123TIP3    H221315   1.742   0.198   0.834
 7124TIP3   OH221316   7.721   6.076   0.499
 7124TIP3    H121317   7.744   6.140   0.431
 7124TIP3    H221318   7.723   6.127   0.580
 7125TIP3   OH221319   1.334   6.648   1.818
 7125TIP3    H121320   1.350   6.742   1.827
 7125TIP3    H221321   1.253   6.643   1.767
 7126TIP3   OH221322   4.025   6.255   2.709
 7126TIP3    H121323   4.115   6.261   2.740
 7126TIP3    H221324   3.972   6.248   2.789
 7127TIP3   OH221325   2.990   2.742   4.338
 7127TIP3    H121326   2.895   2.742   4.327
 7127TIP3    H221327   3.015   2.834   4.330
 7128TIP3   OH221328   2.282   5.901   3.602
 7128TIP3    H121329   2.266   5.995   3.601
 7128TIP3    H221330   2.333   5.885   3.681
 7129TIP3   OH221331   2.583   3.968   1.934
 7129TIP3    H121332   2.624   4.007   2.011
 7129TIP3    H221333   2.656   3.944   1.878
 7130TIP3   OH221334   3.749   4.707   3.568
 7130TIP3    H121335   3.772   4.678   3.656
 7130TIP3    H221336   3.717   4.796   3.580
 7131TIP3   OH221337   2.263   2.613   0.134
 7131TIP3    H121338   2.316   2.548   0.179
 7131TIP3    H221339   2.324   2.660   0.077
 7132TIP3   OH221340   4.701   2.295   0.931
 7132TIP3    H121341   4.615   2.306   0.889
 7132TIP3    H221342   4.685   2.317   1.023
 7133TIP3   OH221343   2.518   3.849   3.324
 7133TIP3    H121344   2.459   3.788   3.368
 7133TIP3    H221345   2.536   3.917   3.389
 7134TIP3   OH221346   7.012   2.166   3.824
 7134TIP3    H121347   6.989   2.115   3.902
 7134TIP3    H221348   6.973   2.117   3.751
 7135TIP3   OH221349   3.184   7.663   3.828
 7135TIP3    H121350   3.117   7.640   3.763
 7135TIP3    H221351   3.263   7.620   3.797
 7136TIP3   OH221352   6.110   2.787   0.798
 7136TIP3    H121353   6.015   2.776   0.790
 7136TIP3    H221354   6.125   2.800   0.891
 7137TIP3   OH221355   1.921   3.516   0.754
 7137TIP3    H121356   1.900   3.472   0.836
 7137TIP3    H221357   1.932   3.445   0.691
 7138TIP3   OH221358   6.108   5.260   4.607
 7138TIP3    H121359   6.139   5.171   4.626
 7138TIP3    H221360   6.181   5.316   4.634
 7139TIP3   OH221361   7.898   0.866   5.047
 7139TIP3    H121362   7.885   0.943   4.992
 7139TIP3    H221363   7.823   0.810   5.030
 7140TIP3   OH221364   7.081   0.406   0.048
 7140TIP3    H121365   7.090   0.443  -0.040
 7140TIP3    H221366   7.167   0.419   0.088
 7141TIP3   OH221367   7.072   4.371   3.490
 7141TIP3    H121368   7.152   4.422   3.506
 7141TIP3    H221369   7.044   4.343   3.577
 7142TIP3   OH221370   1.645   3.410   4.770
 7142TIP3    H121371   1.649   3.450   4.857
 7142TIP3    H221372   1.654   3.316   4.787
 7143TIP3   OH221373   7.031   2.540   5.040
 7143TIP3    H121374   7.098   2.583   5.092
 7143TIP3    H221375   7.008   2.462   5.091
 7144TIP3   OH221376   3.702   5.089   1.160
 7144TIP3    H121377   3.678   5.178   1.184
 7144TIP3    H221378   3.703   5.090   1.064
 7145TIP3   OH221379   3.633   4.228   0.484
 7145TIP3    H121380   3.585   4.296   0.533
 7145TIP3    H221381   3.564   4.179   0.440
 7146TIP3   OH221382   1.905   4.359   2.971
 7146TIP3    H121383   1.988   4.321   2.944
 7146TIP3    H221384   1.929   4.432   3.027
 7147TIP3   OH221385   0.923   4.419   3.761
 7147TIP3    H121386   0.884   4.342   3.721
 7147TIP3    H221387   1.017   4.400   3.763
 7148TIP3   OH221388   2.525   5.892   0.722
 7148TIP3    H121389   2.603   5.930   0.683
 7148TIP3    H221390   2.455   5.953   0.699
 7149TIP3   OH221391   3.546   1.133   6.100
 7149TIP3    H121392   3.550   1.159   6.192
 7149TIP3    H221393   3.622   1.175   6.059
 7150TIP3   OH221394   3.016   1.538   4.211
 7150TIP3    H121395   3.005   1.627   4.245
 7150TIP3    H221396   3.001   1.481   4.286
 7151TIP3   OH221397   8.153   3.960   6.264
 7151TIP3    H121398   8.063   3.950   6.231
 7151TIP3    H221399   8.191   4.029   6.210
 7152TIP3   OH221400   6.725   2.140   5.240
 7152TIP3    H121401   6.636   2.109   5.224
 7152TIP3    H221402   6.779   2.093   5.176
 7153TIP3   OH221403   6.484   7.143   5.168
 7153TIP3    H121404   6.463   7.122   5.077
 7153TIP3    H221405   6.562   7.091   5.187
 7154TIP3   OH221406   6.946   0.852   2.329
 7154TIP3    H121407   7.025   0.867   2.382
 7154TIP3    H221408   6.964   0.896   2.246
 7155TIP3   OH221409   6.650   0.171   5.440
 7155TIP3    H121410   6.568   0.210   5.473
 7155TIP3    H221411   6.627   0.080   5.421
 7156TIP3   OH221412   4.539   0.382   1.589
 7156TIP3    H121413   4.626   0.410   1.561
 7156TIP3    H221414   4.523   0.431   1.670
 7157TIP3   OH221415   0.392   5.257   6.203
 7157TIP3    H121416   0.483   5.250   6.175
 7157TIP3    H221417   0.375   5.351   6.201
 7158TIP3   OH221418   0.875   1.532   5.012
 7158TIP3    H121419   0.910   1.620   5.023
 7158TIP3    H221420   0.843   1.507   5.099
 7159TIP3   OH221421   4.004   4.194   1.018
 7159TIP3    H121422   4.045   4.223   1.099
 7159TIP3    H221423   4.059   4.230   0.948
 7160TIP3   OH221424   6.179   6.015   2.106
 7160TIP3    H121425   6.129   5.973   2.036
 7160TIP3    H221426   6.194   6.104   2.074
 7161TIP3   OH221427   6.755   1.826   3.354
 7161TIP3    H121428   6.692   1.867   3.413
 7161TIP3    H221429   6.704   1.762   3.304
 7162TIP3   OH221430   4.987   6.372   3.369
 7162TIP3    H121431   5.039   6.302   3.408
 7162TIP3    H221432   4.939   6.330   3.298
 7163TIP3   OH221433   7.126   3.088   6.158
 7163TIP3    H121434   7.059   3.068   6.223
 7163TIP3    H221435   7.098   3.041   6.080
 7164TIP3   OH221436   1.598   7.306   2.913
 7164TIP3    H121437   1.677   7.317   2.966
 7164TIP3    H221438   1.537   7.260   2.971
 7165TIP3   OH221439   4.832   7.065   6.486
 7165TIP3    H121440   4.854   7.055   6.393
 7165TIP3    H221441   4.793   6.981   6.510
 7166TIP3   OH221442   6.914   4.469   2.620
 7166TIP3    H121443   6.939   4.481   2.712
 7166TIP3    H221444   6.876   4.381   2.616
 7167TIP3   OH221445   6.231   0.450   3.170
 7167TIP3    H121446   6.243   0.441   3.076
 7167TIP3    H221447   6.319   0.472   3.203
 7168TIP3   OH221448   4.667   3.370   2.399
 7168TIP3    H121449   4.613   3.404   2.328
 7168TIP3    H221450   4.620   3.394   2.479
 7169TIP3   OH221451   1.794   7.020   4.457
 7169TIP3    H121452   1.715   7.040   4.407
 7169TIP3    H221453   1.803   6.925   4.452
 7170TIP3   OH221454   6.324   2.418   5.814
 7170TIP3    H121455   6.241   2.392   5.776
 7170TIP3    H221456   6.334   2.363   5.891
 7171TIP3   OH221457   0.173   6.600   2.883
 7171TIP3    H121458   0.263   6.568   2.872
 7171TIP3    H221459   0.150   6.576   2.973
 7172TIP3   OH221460   8.203   0.787   6.354
 7172TIP3    H121461   8.129   0.755   6.406
 7172TIP3    H221462   8.179   0.767   6.264
 7173TIP3   OH221463   7.603   1.092   1.008
 7173TIP3    H121464   7.561   1.178   1.012
 7173TIP3    H221465   7.686   1.107   0.963
 7174TIP3   OH221466   7.293   3.651   4.342
 7174TIP3    H121467   7.338   3.650   4.426
 7174TIP3    H221468   7.266   3.560   4.328
 7175TIP3   OH221469   1.188   7.740   4.450
 7175TIP3    H121470   1.169   7.664   4.394
 7175TIP3    H221471   1.236   7.703   4.524
 7176TIP3   OH221472   5.118   2.939   0.923
 7176TIP3    H121473   5.100   2.884   0.848
 7176TIP3    H221474   5.141   2.878   0.993
 7177TIP3   OH221475   0.683   7.004   4.035
 7177TIP3    H121476   0.705   7.067   3.966
 7177TIP3    H221477   0.743   6.931   4.021
 7178TIP3   OH221478   2.959   3.785   5.498
 7178TIP3    H121479   2.969   3.700   5.542
 7178TIP3    H221480   2.877   3.820   5.533
 7179TIP3   OH221481   0.993   4.868   1.189
 7179TIP3    H121482   1.081   4.831   1.200
 7179TIP3    H221483   0.937   4.812   1.242
 7180TIP3   OH221484   4.655   2.364   1.205
 7180TIP3    H121485   4.737   2.401   1.237
 7180TIP3    H221486   4.617   2.321   1.281
 7181TIP3   OH221487   7.528   6.399   0.390
 7181TIP3    H121488   7.480   6.433   0.315
 7181TIP3    H221489   7.463   6.395   0.461
 7182TIP3   OH221490   6.481   7.571   1.553
 7182TIP3    H121491   6.551   7.560   1.488
 7182TIP3    H221492   6.410   7.612   1.504
 7183TIP3   OH221493   3.880   0.938   6.369
 7183TIP3    H121494   3.898   0.852   6.407
 7183TIP3    H221495   3.836   0.919   6.286
 7184TIP3   OH221496   5.318   6.068   2.559
 7184TIP3    H121497   5.391   6.131   2.554
 7184TIP3    H221498   5.255   6.110   2.617
 7185TIP3   OH221499   3.940   1.081   3.366
 7185TIP3    H121500   3.926   1.056   3.275
 7185TIP3    H221501   3.860   1.127   3.391
 7186TIP3   OH221502   7.856   6.811   3.798
 7186TIP3    H121503   7.951   6.809   3.795
 7186TIP3    H221504   7.832   6.893   3.754
 7187TIP3   OH221505   0.208   6.178   6.755
 7187TIP3    H121506   0.150   6.223   6.693
 7187TIP3    H221507   0.209   6.235   6.832
 7188TIP3   OH221508   1.081   4.954   6.770
 7188TIP3    H121509   1.168   4.991   6.761
 7188TIP3    H221510   1.025   5.028   6.794
 7189TIP3   OH221511   1.831   4.788   2.857
 7189TIP3    H121512   1.826   4.756   2.767
 7189TIP3    H221513   1.803   4.879   2.853
 7190TIP3   OH221514   2.978   1.025   0.051
 7190TIP3    H121515   3.009   0.946   0.007
 7190TIP3    H221516   2.962   1.087  -0.020
 7191TIP3   OH221517   4.870   1.729   1.619
 7191TIP3    H121518   4.780   1.755   1.637
 7191TIP3    H221519   4.923   1.802   1.651
 7192TIP3   OH221520   7.535   6.327   6.773
 7192TIP3    H121521   7.523   6.292   6.861
 7192TIP3    H221522   7.611   6.385   6.780
 7193TIP3   OH221523   1.084   6.879   2.482
 7193TIP3    H121524   1.041   6.913   2.561
 7193TIP3    H221525   1.175   6.908   2.490
 7194TIP3   OH221526   4.569   5.210   3.135
 7194TIP3    H121527   4.557   5.185   3.043
 7194TIP3    H221528   4.611   5.296   3.132
 7195TIP3   OH221529   1.746   1.397   1.964
 7195TIP3    H121530   1.674   1.456   1.983
 7195TIP3    H221531   1.748   1.337   2.039
 7196TIP3   OH221532   1.121   1.579   2.357
 7196TIP3    H121533   1.078   1.503   2.396
 7196TIP3    H221534   1.197   1.542   2.311
 7197TIP3   OH221535   6.775   1.118   5.599
 7197TIP3    H121536   6.764   1.162   5.684
 7197TIP3    H221537   6.818   1.036   5.621
 7198TIP3   OH221538   4.204   3.691   2.147
 7198TIP3    H121539   4.154   3.712   2.068
 7198TIP3    H221540   4.292   3.669   2.115
 7199TIP3   OH221541   8.104   5.011   5.525
 7199TIP3    H121542   8.047   4.947   5.481
 7199TIP3    H221543   8.043   5.072   5.566
 7200TIP3   OH221544   7.141   7.457   5.427
 7200TIP3    H121545   7.092   7.487   5.351
 7200TIP3    H221546   7.104   7.506   5.501
 7201TIP3   OH221547   6.124   5.323   2.889
 7201TIP3    H121548   6.143   5.395   2.949
 7201TIP3    H221549   6.155   5.355   2.804
 7202TIP3   OH221550   4.957   0.268   2.347
 7202TIP3    H121551   4.954   0.212   2.425
 7202TIP3    H221552   5.050   0.284   2.332
 7203TIP3   OH221553   8.199   1.354   3.839
 7203TIP3    H121554   8.265   1.421   3.824
 7203TIP3    H221555   8.206   1.296   3.763
 7204TIP3   OH221556   2.279   6.556   1.553
 7204TIP3    H121557   2.277   6.591   1.642
 7204TIP3    H221558   2.314   6.468   1.563
 7205TIP3   OH221559   6.200   0.984   2.071
 7205TIP3    H121560   6.189   0.999   2.164
 7205TIP3    H221561   6.111   0.991   2.034
 7206TIP3   OH221562   6.535   3.092   3.727
 7206TIP3    H121563   6.611   3.147   3.707
 7206TIP3    H221564   6.471   3.114   3.658
 7207TIP3   OH221565   3.007   0.819   4.831
 7207TIP3    H121566   2.959   0.738   4.847
 7207TIP3    H221567   2.941   0.881   4.802
 7208TIP3   OH221568   7.969   6.434   1.373
 7208TIP3    H121569   8.046   6.491   1.376
 7208TIP3    H221570   7.992   6.360   1.429
 7209TIP3   OH221571   5.027   5.447   4.196
 7209TIP3    H121572   4.957   5.394   4.159
 7209TIP3    H221573   5.091   5.457   4.125
 7210TIP3   OH221574   4.507   2.159   1.976
 7210TIP3    H121575   4.460   2.218   2.035
 7210TIP3    H221576   4.586   2.135   2.024
 7211TIP3   OH221577   6.638   7.708   0.679
 7211TIP3    H121578   6.663   7.798   0.700
 7211TIP3    H221579   6.618   7.668   0.763
 7212TIP3   OH221580   6.507   4.799   1.070
 7212TIP3    H121581   6.506   4.824   1.162
 7212TIP3    H221582   6.418   4.769   1.052
 7213TIP3   OH221583   6.322   3.246   5.323
 7213TIP3    H121584   6.388   3.176   5.320
 7213TIP3    H221585   6.364   3.320   5.280
 7214TIP3   OH221586   0.764   5.452   2.146
 7214TIP3    H121587   0.761   5.405   2.229
 7214TIP3    H221588   0.813   5.394   2.087
 7215TIP3   OH221589   5.227   3.183   2.914
 7215TIP3    H121590   5.282   3.199   2.837
 7215TIP3    H221591   5.259   3.100   2.950
 7216TIP3   OH221592   2.838   6.927   1.769
 7216TIP3    H121593   2.888   6.903   1.691
 7216TIP3    H221594   2.870   7.014   1.791
 7217TIP3   OH221595   2.314   3.052   6.302
 7217TIP3    H121596   2.272   3.135   6.322
 7217TIP3    H221597   2.403   3.077   6.276
 7218TIP3   OH221598   7.898   3.328   4.835
 7218TIP3    H121599   7.888   3.236   4.811
 7218TIP3    H221600   7.889   3.375   4.752
 7219TIP3   OH221601   1.260   5.466   0.303
 7219TIP3    H121602   1.217   5.448   0.220
 7219TIP3    H221603   1.353   5.455   0.285
 7220TIP3   OH221604   1.901   0.274   5.625
 7220TIP3    H121605   1.828   0.335   5.639
 7220TIP3    H221606   1.886   0.238   5.538
 7221TIP3   OH221607   1.944   5.143   2.096
 7221TIP3    H121608   1.946   5.193   2.178
 7221TIP3    H221609   1.892   5.066   2.116
 7222TIP3   OH221610   2.508   6.528   6.369
 7222TIP3    H121611   2.596   6.557   6.392
 7222TIP3    H221612   2.517   6.490   6.282
 7223TIP3   OH221613   5.035   1.732   6.666
 7223TIP3    H121614   5.069   1.670   6.731
 7223TIP3    H221615   4.941   1.736   6.684
 7224TIP3   OH221616   2.083   0.702   5.339
 7224TIP3    H121617   2.061   0.674   5.428
 7224TIP3    H221618   2.001   0.737   5.304
 7225TIP3   OH221619   2.466   5.785   1.954
 7225TIP3    H121620   2.469   5.879   1.938
 7225TIP3    H221621   2.553   5.753   1.928
 7226TIP3   OH221622   2.586   5.451   6.514
 7226TIP3    H121623   2.607   5.359   6.501
 7226TIP3    H221624   2.618   5.494   6.435
 7227TIP3   OH221625   7.584   1.398   2.026
 7227TIP3    H121626   7.600   1.491   2.037
 7227TIP3    H221627   7.502   1.392   1.977
 7228TIP3   OH221628   4.190   3.571   6.064
 7228TIP3    H121629   4.272   3.609   6.096
 7228TIP3    H221630   4.217   3.506   6.000
 7229TIP3   OH221631   6.310   0.952   1.669
 7229TIP3    H121632   6.342   1.016   1.605
 7229TIP3    H221633   6.355   0.975   1.750
 7230TIP3   OH221634   4.319   5.252   6.741
 7230TIP3    H121635   4.283   5.340   6.734
 7230TIP3    H221636   4.297   5.210   6.658
 7231TIP3   OH221637   7.714   5.224   2.910
 7231TIP3    H121638   7.630   5.269   2.898
 7231TIP3    H221639   7.779   5.281   2.869
 7232TIP3   OH221640   6.130   7.215   5.010
 7232TIP3    H121641   6.149   7.266   5.088
 7232TIP3    H221642   6.182   7.135   5.020
 7233TIP3   OH221643   3.437   5.895   3.198
 7233TIP3    H121644   3.396   5.965   3.249
 7233TIP3    H221645   3.478   5.940   3.124
 7234TIP3   OH221646   6.317   5.650   3.826
 7234TIP3    H121647   6.254   5.610   3.886
 7234TIP3    H221648   6.315   5.743   3.847
 7235TIP3   OH221649   1.559   6.005   1.721
 7235TIP3    H121650   1.564   5.910   1.708
 7235TIP3    H221651   1.646   6.029   1.753
 7236TIP3   OH221652   1.924   2.993   1.942
 7236TIP3    H121653   1.961   2.927   2.001
 7236TIP3    H221654   1.984   3.067   1.949
 7237TIP3   OH221655   3.090   3.410   2.567
 7237TIP3    H121656   3.087   3.492   2.519
 7237TIP3    H221657   3.117   3.345   2.502
 7238TIP3   OH221658   0.976   7.770   5.981
 7238TIP3    H121659   0.959   7.864   5.978
 7238TIP3    H221660   0.960   7.740   5.891
 7239TIP3   OH221661   0.655   6.517   4.967
 7239TIP3    H121662   0.723   6.544   4.906
 7239TIP3    H221663   0.599   6.594   4.976
 7240TIP3   OH221664   0.289   1.844   6.009
 7240TIP3    H121665   0.315   1.766   6.058
 7240TIP3    H221666   0.286   1.913   6.075
 7241TIP3   OH221667   1.611   5.883   0.402
 7241TIP3    H121668   1.651   5.845   0.480
 7241TIP3    H221669   1.527   5.917   0.431
 7242TIP3   OH221670   4.631   2.725   3.064
 7242TIP3    H121671   4.662   2.646   3.108
 7242TIP3    H221672   4.536   2.723   3.075
 7243TIP3   OH221673   3.700   4.370   4.120
 7243TIP3    H121674   3.787   4.355   4.082
 7243TIP3    H221675   3.640   4.323   4.062
 7244TIP3   OH221676   2.735   3.548   1.468
 7244TIP3    H121677   2.675   3.556   1.542
 7244TIP3    H221678   2.798   3.618   1.480
 7245TIP3   OH221679   0.093   6.381   4.405
 7245TIP3    H121680   0.093   6.313   4.338
 7245TIP3    H221681   0.119   6.336   4.485
 7246TIP3   OH221682   4.296   5.964   6.703
 7246TIP3    H121683   4.330   6.025   6.638
 7246TIP3    H221684   4.318   6.003   6.788
 7247TIP3   OH221685   2.345   3.661   2.774
 7247TIP3    H121686   2.328   3.618   2.690
 7247TIP3    H221687   2.304   3.747   2.766
 7248TIP3   OH221688   0.360   3.028   4.505
 7248TIP3    H121689   0.345   2.938   4.475
 7248TIP3    H221690   0.425   3.020   4.574
 7249TIP3   OH221691   6.264   1.586   6.591
 7249TIP3    H121692   6.271   1.502   6.636
 7249TIP3    H221693   6.212   1.640   6.651
 7250TIP3   OH221694   2.994   0.473   5.808
 7250TIP3    H121695   2.938   0.446   5.736
 7250TIP3    H221696   3.077   0.428   5.793
 7251TIP3   OH221697   7.569   4.589   0.698
 7251TIP3    H121698   7.610   4.556   0.778
 7251TIP3    H221699   7.549   4.510   0.647
 7252TIP3   OH221700   1.212   0.974   2.829
 7252TIP3    H121701   1.233   0.937   2.915
 7252TIP3    H221702   1.183   1.063   2.848
 7253TIP3   OH221703   2.073   3.224   2.027
 7253TIP3    H121704   2.060   3.257   1.938
 7253TIP3    H221705   2.062   3.301   2.083
 7254TIP3   OH221706   6.816   7.073   2.973
 7254TIP3    H121707   6.798   7.075   2.879
 7254TIP3    H221708   6.895   7.125   2.984
 7255TIP3   OH221709   2.778   7.386   6.369
 7255TIP3    H121710   2.803   7.475   6.345
 7255TIP3    H221711   2.692   7.373   6.328
 7256TIP3   OH221712   4.711   2.975   6.258
 7256TIP3    H121713   4.666   3.040   6.311
 7256TIP3    H221714   4.801   2.973   6.292
 7257TIP3   OH221715   1.122   0.607   6.257
 7257TIP3    H121716   1.113   0.626   6.164
 7257TIP3    H221717   1.213   0.629   6.278
 7258TIP3   OH221718   6.192   4.835   4.224
 7258TIP3    H121719   6.247   4.766   4.185
 7258TIP3    H221720   6.163   4.887   4.150
 7259TIP3   OH221721   4.073   3.015   4.030
 7259TIP3    H121722   4.089   3.006   3.936
 7259TIP3    H221723   4.124   3.091   4.056
 7260TIP3   OH221724   4.400   5.723   2.797
 7260TIP3    H121725   4.461   5.796   2.811
 7260TIP3    H221726   4.448   5.663   2.740
 7261TIP3   OH221727   2.795   0.009   4.735
 7261TIP3    H121728   2.790   0.037   4.644
 7261TIP3    H221729   2.853   0.073   4.777
 7262TIP3   OH221730   6.733   7.160   6.222
 7262TIP3    H121731   6.760   7.248   6.194
 7262TIP3    H221732   6.693   7.173   6.308
 7263TIP3   OH221733   3.513   6.030   0.210
 7263TIP3    H121734   3.441   6.078   0.167
 7263TIP3    H221735   3.470   5.979   0.278
 7264TIP3   OH221736   7.820   5.946   3.031
 7264TIP3    H121737   7.830   6.012   2.962
 7264TIP3    H221738   7.897   5.890   3.022
 7265TIP3   OH221739   3.172   3.470   0.987
 7265TIP3    H121740   3.172   3.528   1.063
 7265TIP3    H221741   3.079   3.446   0.976
 7266TIP3   OH221742   7.221   5.901   1.906
 7266TIP3    H121743   7.262   5.824   1.866
 7266TIP3    H221744   7.214   5.964   1.835
 7267TIP3   OH221745   3.909   5.121   3.863
 7267TIP3    H121746   3.977   5.167   3.912
 7267TIP3    H221747   3.884   5.048   3.919
 7268TIP3   OH221748   7.457   4.515   0.983
 7268TIP3    H121749   7.504   4.433   0.993
 7268TIP3    H221750   7.491   4.572   1.052
 7269TIP3   OH221751   1.514   6.755   6.549
 7269TIP3    H121752   1.608   6.742   6.554
 7269TIP3    H221753   1.478   6.708   6.624
 7270TIP3   OH221754   2.473   7.746   3.200
 7270TIP3    H121755   2.403   7.696   3.243
 7270TIP3    H221756   2.502   7.689   3.129
 7271TIP3   OH221757   4.347   4.471   1.922
 7271TIP3    H121758   4.321   4.438   1.836
 7271TIP3    H221759   4.305   4.411   1.984
 7272TIP3   OH221760   1.886   3.231   5.026
 7272TIP3    H121761   1.965   3.270   4.988
 7272TIP3    H221762   1.826   3.220   4.952
 7273TIP3   OH221763   0.574   6.153   6.554
 7273TIP3    H121764   0.548   6.106   6.633
 7273TIP3    H221765   0.494   6.158   6.501
 7274TIP3   OH221766   6.470   7.274   1.387
 7274TIP3    H121767   6.479   7.211   1.315
 7274TIP3    H221768   6.498   7.358   1.349
 7275TIP3   OH221769   0.395   0.000   1.863
 7275TIP3    H121770   0.470   0.027   1.916
 7275TIP3    H221771   0.372   0.078   1.812
 7276TIP3   OH221772   3.321   7.156   4.411
 7276TIP3    H121773   3.346   7.209   4.487
 7276TIP3    H221774   3.313   7.219   4.340
 7277TIP3   OH221775   7.190   0.853   2.139
 7277TIP3    H121776   7.112   0.869   2.087
 7277TIP3    H221777   7.209   0.760   2.126
 7278TIP3   OH221778   1.381   0.778   2.233
 7278TIP3    H121779   1.329   0.823   2.166
 7278TIP3    H221780   1.397   0.691   2.197
 7279TIP3   OH221781   0.734   6.818   2.621
 7279TIP3    H121782   0.784   6.784   2.696
 7279TIP3    H221783   0.792   6.808   2.546
 7280TIP3   OH221784   6.741   6.020   3.455
 7280TIP3    H121785   6.834   6.003   3.446
 7280TIP3    H221786   6.730   6.111   3.429
 7281TIP3   OH221787   3.792   0.133   2.052
 7281TIP3    H121788   3.861   0.077   2.087
 7281TIP3    H221789   3.718   0.121   2.113
 7282TIP3   OH221790   4.473   1.318   0.770
 7282TIP3    H121791   4.553   1.349   0.728
 7282TIP3    H221792   4.464   1.227   0.740
 7283TIP3   OH221793   6.515   0.824   4.218
 7283TIP3    H121794   6.451   0.764   4.180
 7283TIP3    H221795   6.543   0.782   4.299
 7284TIP3   OH221796   0.553   1.598   3.453
 7284TIP3    H121797   0.524   1.528   3.512
 7284TIP3    H221798   0.630   1.562   3.410
 7285TIP3   OH221799   0.195   3.891   1.229
 7285TIP3    H121800   0.251   3.953   1.183
 7285TIP3    H221801   0.172   3.825   1.164
 7286TIP3   OH221802   0.548   3.341   2.476
 7286TIP3    H121803   0.615   3.380   2.420
 7286TIP3    H221804   0.482   3.410   2.486
 7287TIP3   OH221805   5.612   4.288   6.324
 7287TIP3    H121806   5.675   4.229   6.283
 7287TIP3    H221807   5.647   4.302   6.412
 7288TIP3   OH221808   5.670   6.286   0.129
 7288TIP3    H121809   5.687   6.230   0.053
 7288TIP3    H221810   5.674   6.375   0.094
 7289TIP3   OH221811   0.352   5.636   5.995
 7289TIP3    H121812   0.378   5.722   6.028
 7289TIP3    H221813   0.433   5.585   5.996
 7290TIP3   OH221814   0.527   1.943   0.404
 7290TIP3    H121815   0.605   1.978   0.447
 7290TIP3    H221816   0.470   2.019   0.393
 7291TIP3   OH221817   0.866   5.808   2.504
 7291TIP3    H121818   0.851   5.738   2.441
 7291TIP3    H221819   0.781   5.850   2.515
 7292TIP3   OH221820   4.108   5.464   2.001
 7292TIP3    H121821   4.124   5.547   2.047
 7292TIP3    H221822   4.167   5.402   2.043
 7293TIP3   OH221823   0.209   3.438   6.144
 7293TIP3    H121824   0.168   3.509   6.193
 7293TIP3    H221825   0.267   3.483   6.082
 7294TIP3   OH221826   0.801   6.105   0.886
 7294TIP3    H121827   0.708   6.103   0.909
 7294TIP3    H221828   0.841   6.162   0.951
 7295TIP3   OH221829   7.055   6.395   1.112
 7295TIP3    H121830   6.998   6.471   1.101
 7295TIP3    H221831   7.016   6.328   1.057
 7296TIP3   OH221832   3.829   3.776   5.598
 7296TIP3    H121833   3.826   3.813   5.686
 7296TIP3    H221834   3.807   3.849   5.541
 7297TIP3   OH221835   6.450   2.848   5.885
 7297TIP3    H121836   6.450   2.782   5.955
 7297TIP3    H221837   6.417   2.801   5.809
 7298TIP3   OH221838   0.269   3.341   2.025
 7298TIP3    H121839   0.308   3.311   2.106
 7298TIP3    H221840   0.304   3.429   2.012
 7299TIP3   OH221841   2.497   2.352   0.929
 7299TIP3    H121842   2.465   2.270   0.891
 7299TIP3    H221843   2.528   2.328   1.016
 7300TIP3   OH221844   6.400   3.942   0.494
 7300TIP3    H121845   6.324   4.001   0.490
 7300TIP3    H221846   6.363   3.855   0.502
 7301TIP3   OH221847   1.817   5.954   1.986
 7301TIP3    H121848   1.725   5.958   2.009
 7301TIP3    H221849   1.834   5.861   1.969
 7302TIP3   OH221850   3.397   3.700   2.065
 7302TIP3    H121851   3.468   3.660   2.115
 7302TIP3    H221852   3.318   3.678   2.115
 7303TIP3   OH221853   5.924   0.901   0.163
 7303TIP3    H121854   5.911   0.860   0.249
 7303TIP3    H221855   5.850   0.870   0.111
 7304TIP3   OH221856   3.337   5.678   2.015
 7304TIP3    H121857   3.369   5.740   1.950
 7304TIP3    H221858   3.357   5.718   2.099
 7305TIP3   OH221859   2.274   4.520   4.043
 7305TIP3    H121860   2.321   4.526   3.960
 7305TIP3    H221861   2.304   4.438   4.082
 7306TIP3   OH221862   4.416   1.992   6.197
 7306TIP3    H121863   4.492   2.049   6.214
 7306TIP3    H221864   4.345   2.053   6.178
 7307TIP3   OH221865   5.525   3.586   3.159
 7307TIP3    H121866   5.559   3.501   3.188
 7307TIP3    H221867   5.602   3.641   3.147
 7308TIP3   OH221868   7.357   4.471   2.693
 7308TIP3    H121869   7.434   4.434   2.648
 7308TIP3    H221870   7.383   4.473   2.785
 7309TIP3   OH221871   5.109   3.649   2.317
 7309TIP3    H121872   5.021   3.615   2.302
 7309TIP3    H221873   5.132   3.693   2.235
 7310TIP3   OH221874   1.614   0.149   3.385
 7310TIP3    H121875   1.607   0.183   3.475
 7310TIP3    H221876   1.704   0.119   3.378
 7311TIP3   OH221877   5.224   3.353   3.908
 7311TIP3    H121878   5.265   3.282   3.959
 7311TIP3    H221879   5.140   3.368   3.951
 7312TIP3   OH221880   6.212   5.947   5.128
 7312TIP3    H121881   6.277   5.967   5.195
 7312TIP3    H221882   6.197   6.030   5.083
 7313TIP3   OH221883   1.589   3.091   5.994
 7313TIP3    H121884   1.672   3.058   6.030
 7313TIP3    H221885   1.577   3.175   6.038
 7314TIP3   OH221886   4.442   0.980   4.238
 7314TIP3    H121887   4.393   1.057   4.268
 7314TIP3    H221888   4.434   0.917   4.310
 7315TIP3   OH221889   8.191   7.433   5.779
 7315TIP3    H121890   8.182   7.343   5.809
 7315TIP3    H221891   8.171   7.487   5.856
 7316TIP3   OH221892   2.394   4.427   5.476
 7316TIP3    H121893   2.322   4.429   5.539
 7316TIP3    H221894   2.473   4.418   5.529
 7317TIP3   OH221895   4.646   6.981   3.055
 7317TIP3    H121896   4.703   6.970   3.131
 7317TIP3    H221897   4.660   6.902   3.003
 7318TIP3   OH221898   6.028   7.152   5.279
 7318TIP3    H121899   5.985   7.165   5.195
 7318TIP3    H221900   6.008   7.061   5.302
 7319TIP3   OH221901   1.547   0.182   3.651
 7319TIP3    H121902   1.579   0.267   3.681
 7319TIP3    H221903   1.531   0.132   3.732
 7320TIP3   OH221904   2.318   6.808   3.313
 7320TIP3    H121905   2.292   6.884   3.366
 7320TIP3    H221906   2.235   6.768   3.288
 7321TIP3   OH221907   1.670   3.612   0.043
 7321TIP3    H121908   1.634   3.537  -0.005
 7321TIP3    H221909   1.610   3.684   0.024
 7322TIP3   OH221910   5.603   1.056   5.094
 7322TIP3    H121911   5.672   1.066   5.159
 7322TIP3    H221912   5.560   0.973   5.118
 7323TIP3   OH221913   0.802   6.561   5.198
 7323TIP3    H121914   0.756   6.608   5.267
 7323TIP3    H221915   0.750   6.577   5.119
 7324TIP3   OH221916   3.426   1.254   0.468
 7324TIP3    H121917   3.345   1.303   0.483
 7324TIP3    H221918   3.399   1.162   0.476
 7325TIP3   OH221919   0.099   0.506   3.866
 7325TIP3    H121920   0.158   0.473   3.934
 7325TIP3    H221921   0.014   0.467   3.887
 7326TIP3   OH221922   5.488   0.792   5.160
 7326TIP3    H121923   5.464   0.746   5.241
 7326TIP3    H221924   5.467   0.730   5.090
 7327TIP3   OH221925   6.091   0.804   3.692
 7327TIP3    H121926   6.135   0.785   3.775
 7327TIP3    H221927   6.068   0.718   3.657
 7328TIP3   OH221928   2.224   0.513   2.098
 7328TIP3    H121929   2.291   0.464   2.146
 7328TIP3    H221930   2.269   0.591   2.066
 7329TIP3   OH221931   3.084   3.837   2.166
 7329TIP3    H121932   3.028   3.876   2.233
 7329TIP3    H221933   3.159   3.896   2.158
 7330TIP3   OH221934   3.141   1.735   5.576
 7330TIP3    H121935   3.206   1.776   5.519
 7330TIP3    H221936   3.185   1.658   5.611
 7331TIP3   OH221937   6.733   6.683   1.650
 7331TIP3    H121938   6.693   6.769   1.637
 7331TIP3    H221939   6.721   6.664   1.743
 7332TIP3   OH221940   0.149   1.569   4.379
 7332TIP3    H121941   0.092   1.514   4.326
 7332TIP3    H221942   0.091   1.637   4.415
 7333TIP3   OH221943   7.870   4.452   6.404
 7333TIP3    H121944   7.919   4.385   6.355
 7333TIP3    H221945   7.778   4.424   6.398
 7334TIP3   OH221946   5.429   2.156   1.611
 7334TIP3    H121947   5.455   2.191   1.526
 7334TIP3    H221948   5.335   2.169   1.615
 7335TIP3   OH221949   7.086   1.296   6.405
 7335TIP3    H121950   7.059   1.277   6.315
 7335TIP3    H221951   7.056   1.385   6.421
 7336TIP3   OH221952   6.267   3.844   2.222
 7336TIP3    H121953   6.316   3.901   2.281
 7336TIP3    H221954   6.195   3.899   2.190
 7337TIP3   OH221955   4.467   6.265   1.936
 7337TIP3    H121956   4.373   6.260   1.917
 7337TIP3    H221957   4.480   6.355   1.966
 7338TIP3   OH221958   0.254   0.174   5.327
 7338TIP3    H121959   0.264   0.085   5.293
 7338TIP3    H221960   0.160   0.187   5.337
 7339TIP3   OH221961   1.611   6.223   3.249
 7339TIP3    H121962   1.700   6.208   3.282
 7339TIP3    H221963   1.593   6.315   3.269
 7340TIP3   OH221964   2.776   7.801   0.504
 7340TIP3    H121965   2.810   7.712   0.509
 7340TIP3    H221966   2.745   7.820   0.593
 7341TIP3   OH221967   7.113   0.788   4.621
 7341TIP3    H121968   7.145   0.821   4.537
 7341TIP3    H221969   7.169   0.713   4.639
 7342TIP3   OH221970   2.547   0.175   3.445
 7342TIP3    H121971   2.453   0.156   3.443
 7342TIP3    H221972   2.553   0.269   3.460
 7343TIP3   OH221973   1.666   7.199   5.502
 7343TIP3    H121974   1.666   7.107   5.528
 7343TIP3    H221975   1.614   7.201   5.422
 7344TIP3   OH221976   6.008   2.949   6.273
 7344TIP3    H121977   6.040   2.976   6.359
 7344TIP3    H221978   5.915   2.933   6.286
 7345TIP3   OH221979   7.494   3.784   6.281
 7345TIP3    H121980   7.535   3.842   6.217
 7345TIP3    H221981   7.536   3.699   6.267
 7346TIP3   OH221982   3.340   7.526   3.394
 7346TIP3    H121983   3.388   7.608   3.406
 7346TIP3    H221984   3.325   7.519   3.300
 7347TIP3   OH221985   1.831   2.414   2.033
 7347TIP3    H121986   1.900   2.454   2.085
 7347TIP3    H221987   1.865   2.327   2.011
 7348TIP3   OH221988   3.886   5.090   3.133
 7348TIP3    H121989   3.806   5.052   3.094
 7348TIP3    H221990   3.914   5.025   3.197
 7349TIP3   OH221991   8.259   2.289   2.733
 7349TIP3    H121992   8.179   2.236   2.728
 7349TIP3    H221993   8.316   2.242   2.794
 7350TIP3   OH221994   7.484   1.499   4.928
 7350TIP3    H121995   7.427   1.477   4.855
 7350TIP3    H221996   7.493   1.594   4.924
 7351TIP3   OH221997   5.259   0.666   3.281
 7351TIP3    H121998   5.227   0.756   3.274
 7351TIP3    H221999   5.290   0.645   3.193
 7352TIP3   OH222000   0.376   0.300   3.104
 7352TIP3    H122001   0.348   0.292   3.013
 7352TIP3    H222002   0.303   0.344   3.148
 7353TIP3   OH222003   5.069   4.481   4.304
 7353TIP3    H122004   5.060   4.426   4.226
 7353TIP3    H222005   5.158   4.463   4.335
 7354TIP3   OH222006   8.070   5.787   3.017
 7354TIP3    H122007   8.116   5.703   3.011
 7354TIP3    H222008   8.087   5.817   3.106
 7355TIP3   OH222009   1.549   5.036   1.730
 7355TIP3    H122010   1.551   5.074   1.818
 7355TIP3    H222011   1.475   4.975   1.731
 7356TIP3   OH222012   0.904   2.063   5.067
 7356TIP3    H122013   0.986   2.063   5.018
 7356TIP3    H222014   0.922   2.119   5.143
 7357TIP3   OH222015   4.718   6.731   2.924
 7357TIP3    H122016   4.715   6.694   2.835
 7357TIP3    H222017   4.812   6.733   2.945
 7358TIP3   OH222018   1.568   6.777   2.655
 7358TIP3    H122019   1.604   6.847   2.709
 7358TIP3    H222020   1.536   6.712   2.718
 7359TIP3   OH222021   5.342   3.084   5.363
 7359TIP3    H122022   5.410   3.105   5.427
 7359TIP3    H222023   5.370   3.127   5.283
 7360TIP3   OH222024   2.253   1.191   4.013
 7360TIP3    H122025   2.193   1.227   4.078
 7360TIP3    H222026   2.252   1.254   3.941
 7361TIP3   OH222027   0.322   4.235   2.726
 7361TIP3    H122028   0.256   4.173   2.756
 7361TIP3    H222029   0.276   4.318   2.720
 7362TIP3   OH222030   4.780   0.537   4.462
 7362TIP3    H122031   4.763   0.627   4.434
 7362TIP3    H222032   4.761   0.537   4.556
 7363TIP3   OH222033   2.629   7.159   5.053
 7363TIP3    H122034   2.575   7.142   5.130
 7363TIP3    H222035   2.568   7.154   4.979
 7364TIP3   OH222036   5.665   2.716   1.421
 7364TIP3    H122037   5.659   2.751   1.332
 7364TIP3    H222038   5.688   2.791   1.475
 7365TIP3   OH222039   6.777   3.225   3.706
 7365TIP3    H122040   6.765   3.297   3.768
 7365TIP3    H222041   6.829   3.263   3.635
 7366TIP3   OH222042   1.107   1.464   0.617
 7366TIP3    H122043   1.139   1.374   0.623
 7366TIP3    H222044   1.125   1.501   0.704
 7367TIP3   OH222045   5.701   1.624   0.892
 7367TIP3    H122046   5.626   1.643   0.948
 7367TIP3    H222047   5.748   1.554   0.938
 7368TIP3   OH222048   0.424   6.133   2.456
 7368TIP3    H122049   0.332   6.109   2.467
 7368TIP3    H222050   0.436   6.210   2.511
 7369TIP3   OH222051   4.737   2.186   2.547
 7369TIP3    H122052   4.743   2.250   2.618
 7369TIP3    H222053   4.715   2.104   2.590
 7370TIP3   OH222054   6.377   2.226   1.509
 7370TIP3    H122055   6.473   2.230   1.501
 7370TIP3    H222056   6.358   2.277   1.587
 7371TIP3   OH222057   4.357   0.832   2.829
 7371TIP3    H122058   4.264   0.811   2.815
 7371TIP3    H222059   4.404   0.772   2.772
 7372TIP3   OH222060   1.806   1.934   0.469
 7372TIP3    H122061   1.774   1.946   0.379
 7372TIP3    H222062   1.731   1.959   0.524
 7373TIP3   OH222063   5.397   0.854   4.088
 7373TIP3    H122064   5.374   0.929   4.033
 7373TIP3    H222065   5.490   0.837   4.068
 7374TIP3   OH222066   7.020   7.351   3.782
 7374TIP3    H122067   7.018   7.276   3.842
 7374TIP3    H222068   6.942   7.402   3.805
 7375TIP3   OH222069   7.546   6.653   0.536
 7375TIP3    H122070   7.557   6.722   0.601
 7375TIP3    H222071   7.617   6.591   0.555
 7376TIP3   OH222072   4.024   5.142   5.337
 7376TIP3    H122073   3.954   5.115   5.397
 7376TIP3    H222074   3.999   5.230   5.308
 7377TIP3   OH222075   4.118   5.573   0.281
 7377TIP3    H122076   4.173   5.605   0.353
 7377TIP3    H222077   4.039   5.626   0.285
 7378TIP3   OH222078   3.003   7.571   2.537
 7378TIP3    H122079   2.929   7.550   2.480
 7378TIP3    H222080   2.992   7.512   2.612
 7379TIP3   OH222081   4.341   3.246   6.186
 7379TIP3    H122082   4.313   3.318   6.242
 7379TIP3    H222083   4.333   3.168   6.241
 7380TIP3   OH222084   4.235   6.025   4.487
 7380TIP3    H122085   4.235   5.934   4.514
 7380TIP3    H222086   4.172   6.068   4.545
 7381TIP3   OH222087   5.894   0.196   0.193
 7381TIP3    H122088   5.856   0.129   0.136
 7381TIP3    H222089   5.969   0.152   0.235
 7382TIP3   OH222090   7.440   2.582   1.524
 7382TIP3    H122091   7.386   2.588   1.603
 7382TIP3    H222092   7.484   2.667   1.519
 7383TIP3   OH222093   4.250   5.543   6.626
 7383TIP3    H122094   4.226   5.530   6.717
 7383TIP3    H222095   4.203   5.623   6.600
 7384TIP3   OH222096   5.993   5.861   0.683
 7384TIP3    H122097   5.934   5.791   0.656
 7384TIP3    H222098   5.976   5.873   0.776
 7385TIP3   OH222099   0.613   1.721   1.121
 7385TIP3    H122100   0.642   1.808   1.093
 7385TIP3    H222101   0.565   1.737   1.202
 7386TIP3   OH222102   5.451   6.922   6.114
 7386TIP3    H122103   5.414   6.958   6.033
 7386TIP3    H222104   5.515   6.986   6.142
 7387TIP3   OH222105   7.418   6.029   2.876
 7387TIP3    H122106   7.387   6.104   2.825
 7387TIP3    H222107   7.440   6.066   2.962
 7388TIP3   OH222108   0.921   3.488   2.616
 7388TIP3    H122109   0.912   3.576   2.578
 7388TIP3    H222110   0.965   3.502   2.700
 7389TIP3   OH222111   5.395   1.324   1.070
 7389TIP3    H122112   5.329   1.390   1.047
 7389TIP3    H222113   5.428   1.293   0.985
 7390TIP3   OH222114   2.292   3.485   4.014
 7390TIP3    H122115   2.326   3.545   3.948
 7390TIP3    H222116   2.362   3.478   4.079
 7391TIP3   OH222117   0.239   4.896   1.169
 7391TIP3    H122118   0.294   4.819   1.154
 7391TIP3    H222119   0.152   4.861   1.184
 7392TIP3   OH222120   4.816   5.810   1.554
 7392TIP3    H122121   4.816   5.722   1.592
 7392TIP3    H222122   4.762   5.862   1.612
 7393TIP3   OH222123   2.448   7.666   4.363
 7393TIP3    H122124   2.439   7.742   4.305
 7393TIP3    H222125   2.522   7.688   4.419
 7394TIP3   OH222126   4.773   2.089   5.555
 7394TIP3    H122127   4.837   2.132   5.499
 7394TIP3    H222128   4.730   2.025   5.498
 7395TIP3   OH222129   5.327   4.369   3.609
 7395TIP3    H122130   5.266   4.317   3.557
 7395TIP3    H222131   5.328   4.328   3.695
 7396TIP3   OH222132   0.900   4.804   4.448
 7396TIP3    H122133   0.879   4.787   4.540
 7396TIP3    H222134   0.911   4.899   4.443
 7397TIP3   OH222135   4.485   1.685   4.412
 7397TIP3    H122136   4.539   1.697   4.491
 7397TIP3    H222137   4.539   1.631   4.354
 7398TIP3   OH222138   7.930   3.348   5.715
 7398TIP3    H122139   7.978   3.430   5.726
 7398TIP3    H222140   7.985   3.296   5.655
 7399TIP3   OH222141   1.317   7.383   2.693
 7399TIP3    H122142   1.347   7.361   2.781
 7399TIP3    H222143   1.315   7.300   2.646
 7400TIP3   OH222144   5.571   3.392   2.355
 7400TIP3    H122145   5.536   3.449   2.287
 7400TIP3    H222146   5.501   3.388   2.421
 7401TIP3   OH222147   1.148   0.460   5.632
 7401TIP3    H122148   1.067   0.412   5.648
 7401TIP3    H222149   1.131   0.509   5.552
 7402TIP3   OH222150   6.014   2.758   4.064
 7402TIP3    H122151   5.984   2.786   3.978
 7402TIP3    H222152   5.960   2.807   4.126
 7403TIP3   OH222153   8.073   2.875   1.760
 7403TIP3    H122154   8.088   2.803   1.698
 7403TIP3    H222155   8.091   2.838   1.846
 7404TIP3   OH222156   0.260   4.102   1.053
 7404TIP3    H122157   0.310   4.184   1.056
 7404TIP3    H222158   0.188   4.120   0.993
 7405TIP3   OH222159   4.449   4.633   5.844
 7405TIP3    H122160   4.452   4.539   5.857
 7405TIP3    H222161   4.531   4.654   5.800
 7406TIP3   OH222162   8.168   5.691   2.082
 7406TIP3    H122163   8.179   5.599   2.104
 7406TIP3    H222164   8.164   5.736   2.166
 7407TIP3   OH222165   7.862   7.480   2.493
 7407TIP3    H122166   7.848   7.429   2.413
 7407TIP3    H222167   7.811   7.433   2.560
 7408TIP3   OH222168   3.258   6.685   4.161
 7408TIP3    H122169   3.352   6.700   4.149
 7408TIP3    H222170   3.222   6.772   4.176
 7409TIP3   OH222171   0.702   3.197   6.045
 7409TIP3    H122172   0.626   3.252   6.064
 7409TIP3    H222173   0.676   3.144   5.970
 7410TIP3   OH222174   7.331   3.821   1.106
 7410TIP3    H122175   7.315   3.748   1.047
 7410TIP3    H222176   7.264   3.886   1.084
 7411TIP3   OH222177   5.152   7.076   0.785
 7411TIP3    H122178   5.065   7.093   0.821
 7411TIP3    H222179   5.167   6.983   0.801
 7412TIP3   OH222180   0.365   3.922   3.794
 7412TIP3    H122181   0.415   3.863   3.738
 7412TIP3    H222182   0.430   3.967   3.847
 7413TIP3   OH222183   4.754   7.587   2.467
 7413TIP3    H122184   4.805   7.591   2.548
 7413TIP3    H222185   4.747   7.494   2.447
 7414TIP3   OH222186   0.618   1.378   1.968
 7414TIP3    H122187   0.596   1.452   2.024
 7414TIP3    H222188   0.618   1.302   2.026
 7415TIP3   OH222189   1.685   2.010   2.342
 7415TIP3    H122190   1.777   2.037   2.339
 7415TIP3    H222191   1.678   1.959   2.422
 7416TIP3   OH222192   1.349   5.482   1.884
 7416TIP3    H122193   1.381   5.446   1.801
 7416TIP3    H222194   1.327   5.573   1.864
 7417TIP3   OH222195   5.247   0.391   4.550
 7417TIP3    H122196   5.318   0.452   4.570
 7417TIP3    H222197   5.168   0.437   4.576
 7418TIP3   OH222198   6.992   0.446   3.884
 7418TIP3    H122199   7.046   0.472   3.810
 7418TIP3    H222200   6.960   0.359   3.861
 7419TIP3   OH222201   2.928   4.201   4.512
 7419TIP3    H122202   2.872   4.244   4.576
 7419TIP3    H222203   2.872   4.187   4.436
 7420TIP3   OH222204   8.242   0.428   1.056
 7420TIP3    H122205   8.163   0.480   1.067
 7420TIP3    H222206   8.225   0.348   1.107
 7421TIP3   OH222207   3.118   5.902   3.510
 7421TIP3    H122208   3.165   5.926   3.430
 7421TIP3    H222209   3.079   5.817   3.490
 7422TIP3   OH222210   6.486   4.649   2.524
 7422TIP3    H122211   6.469   4.710   2.596
 7422TIP3    H222212   6.412   4.661   2.464
 7423TIP3   OH222213   4.254   0.421   0.884
 7423TIP3    H122214   4.199   0.359   0.836
 7423TIP3    H222215   4.191   0.477   0.931
 7424TIP3   OH222216   3.903   3.345   0.168
 7424TIP3    H122217   3.871   3.434   0.169
 7424TIP3    H222218   3.986   3.349   0.217
 7425TIP3   OH222219   6.243   0.742   1.916
 7425TIP3    H122220   6.238   0.830   1.952
 7425TIP3    H222221   6.192   0.745   1.836
 7426TIP3   OH222222   6.299   6.876   0.261
 7426TIP3    H122223   6.360   6.818   0.307
 7426TIP3    H222224   6.323   6.964   0.290
 7427TIP3   OH222225   3.019   6.424   0.530
 7427TIP3    H122226   3.099   6.459   0.490
 7427TIP3    H222227   2.974   6.501   0.565
 7428TIP3   OH222228   1.692   2.637   3.457
 7428TIP3    H122229   1.642   2.640   3.538
 7428TIP3    H222230   1.683   2.547   3.426
 7429TIP3   OH222231   2.682   3.262   5.679
 7429TIP3    H122232   2.742   3.305   5.618
 7429TIP3    H222233   2.625   3.333   5.710
 7430TIP3   OH222234   2.302   7.535   3.214
 7430TIP3    H122235   2.231   7.506   3.271
 7430TIP3    H222236   2.370   7.468   3.223
 7431TIP3   OH222237   6.679   6.331   1.810
 7431TIP3    H122238   6.600   6.344   1.757
 7431TIP3    H222239   6.688   6.236   1.816
 7432TIP3   OH222240   0.561   5.285   0.423
 7432TIP3    H122241   0.491   5.350   0.431
 7432TIP3    H222242   0.531   5.211   0.475
 7433TIP3   OH222243   3.005   2.850   2.744
 7433TIP3    H122244   2.958   2.928   2.773
 7433TIP3    H222245   3.064   2.880   2.675
 7434TIP3   OH222246   6.545   7.046   5.765
 7434TIP3    H122247   6.462   7.063   5.810
 7434TIP3    H222248   6.607   7.105   5.807
 7435TIP3   OH222249   4.881   7.734   6.612
 7435TIP3    H122250   4.801   7.741   6.560
 7435TIP3    H222251   4.858   7.776   6.695
 7436TIP3   OH222252   5.520   4.343   1.762
 7436TIP3    H122253   5.502   4.413   1.699
 7436TIP3    H222254   5.543   4.268   1.708
 7437TIP3   OH222255   0.246   0.235   5.969
 7437TIP3    H122256   0.292   0.200   5.892
 7437TIP3    H222257   0.310   0.292   6.011
 7438TIP3   OH222258   5.614   0.062   6.762
 7438TIP3    H122259   5.641   0.021   6.844
 7438TIP3    H222260   5.577  -0.010   6.710
 7439TIP3   OH222261   1.125   6.499   4.440
 7439TIP3    H122262   1.158   6.588   4.454
 7439TIP3    H222263   1.043   6.495   4.488
 7440TIP3   OH222264   4.199   5.263   4.784
 7440TIP3    H122265   4.109   5.279   4.754
 7440TIP3    H222266   4.216   5.332   4.847
 7441TIP3   OH222267   2.243   3.390   2.200
 7441TIP3    H122268   2.310   3.345   2.148
 7441TIP3    H222269   2.229   3.334   2.276
 7442TIP3   OH222270   1.775   5.965   4.320
 7442TIP3    H122271   1.863   5.995   4.298
 7442TIP3    H222272   1.762   5.886   4.268
 7443TIP3   OH222273   7.985   6.350   4.139
 7443TIP3    H122274   7.954   6.372   4.051
 7443TIP3    H222275   8.058   6.411   4.154
 7444TIP3   OH222276   3.982   2.021   3.137
 7444TIP3    H122277   4.055   2.030   3.198
 7444TIP3    H222278   4.010   1.952   3.076
 7445TIP3   OH222279   2.057   6.670   2.231
 7445TIP3    H122280   2.044   6.634   2.319
 7445TIP3    H222281   2.150   6.696   2.229
 7446TIP3   OH222282   0.989   6.687   1.440
 7446TIP3    H122283   1.072   6.641   1.431
 7446TIP3    H222284   0.928   6.637   1.386
 7447TIP3   OH222285   2.482   0.103   6.178
 7447TIP3    H122286   2.400   0.144   6.206
 7447TIP3    H222287   2.461   0.059   6.096
 7448TIP3   OH222288   0.978   1.374   2.444
 7448TIP3    H122289   1.040   1.300   2.448
 7448TIP3    H222290   0.928   1.367   2.526
 7449TIP3   OH222291   2.596   0.077   1.690
 7449TIP3    H122292   2.634   0.043   1.609
 7449TIP3    H222293   2.663   0.063   1.756
 7450TIP3   OH222294   4.067   1.711   5.359
 7450TIP3    H122295   4.145   1.766   5.350
 7450TIP3    H222296   4.026   1.715   5.272
 7451TIP3   OH222297   2.204   7.180   1.240
 7451TIP3    H122298   2.209   7.265   1.285
 7451TIP3    H222299   2.164   7.200   1.155
 7452TIP3   OH222300   0.186   1.526   2.147
 7452TIP3    H122301   0.238   1.571   2.080
 7452TIP3    H222302   0.105   1.502   2.102
 7453TIP3   OH222303   2.858   6.376   6.187
 7453TIP3    H122304   2.934   6.394   6.132
 7453TIP3    H222305   2.895   6.340   6.268
 7454TIP3   OH222306   5.975   3.143   1.964
 7454TIP3    H122307   6.068   3.118   1.966
 7454TIP3    H222308   5.934   3.077   1.908
 7455TIP3   OH222309   7.681   1.451   2.845
 7455TIP3    H122310   7.646   1.516   2.905
 7455TIP3    H222311   7.679   1.492   2.759
 7456TIP3   OH222312   5.030   6.043   5.044
 7456TIP3    H122313   5.061   5.995   5.121
 7456TIP3    H222314   5.101   6.035   4.980
 7457TIP3   OH222315   6.097   2.894   2.794
 7457TIP3    H122316   6.034   2.940   2.738
 7457TIP3    H222317   6.063   2.907   2.882
 7458TIP3   OH222318   5.034   3.117   1.121
 7458TIP3    H122319   5.101   3.077   1.177
 7458TIP3    H222320   5.060   3.093   1.032
 7459TIP3   OH222321   1.538   0.714   1.513
 7459TIP3    H122322   1.465   0.664   1.478
 7459TIP3    H222323   1.505   0.751   1.595
 7460TIP3   OH222324   5.128   1.076   4.192
 7460TIP3    H122325   5.082   1.039   4.117
 7460TIP3    H222326   5.066   1.139   4.229
 7461TIP3   OH222327   1.239   0.314   2.033
 7461TIP3    H122328   1.206   0.376   1.969
 7461TIP3    H222329   1.176   0.318   2.105
 7462TIP3   OH222330   1.148   1.512   1.232
 7462TIP3    H122331   1.208   1.460   1.180
 7462TIP3    H222332   1.201   1.587   1.261
 7463TIP3   OH222333   4.722   1.665   1.327
 7463TIP3    H122334   4.732   1.755   1.359
 7463TIP3    H222335   4.671   1.621   1.395
 7464TIP3   OH222336   8.132   6.906   1.815
 7464TIP3    H122337   8.133   6.934   1.723
 7464TIP3    H222338   8.118   6.812   1.810
 7465TIP3   OH222339   0.372   4.174   4.346
 7465TIP3    H122340   0.410   4.144   4.428
 7465TIP3    H222341   0.369   4.269   4.354
 7466TIP3   OH222342   4.713   7.293   5.831
 7466TIP3    H122343   4.739   7.384   5.820
 7466TIP3    H222344   4.763   7.246   5.765
 7467TIP3   OH222345   0.807   5.353   5.707
 7467TIP3    H122346   0.852   5.409   5.770
 7467TIP3    H222347   0.838   5.265   5.727
 7468TIP3   OH222348   5.518   7.048   0.884
 7468TIP3    H122349   5.452   7.084   0.943
 7468TIP3    H222350   5.498   7.086   0.799
 7469TIP3   OH222351   4.357   2.044   0.883
 7469TIP3    H122352   4.389   1.976   0.823
 7469TIP3    H222353   4.435   2.070   0.933
 7470TIP3   OH222354   5.459   5.246   1.338
 7470TIP3    H122355   5.394   5.292   1.391
 7470TIP3    H222356   5.409   5.178   1.292
 7471TIP3   OH222357   2.200   2.008   3.714
 7471TIP3    H122358   2.109   1.983   3.732
 7471TIP3    H222359   2.244   1.926   3.693
 7472TIP3   OH222360   2.831   2.446   5.404
 7472TIP3    H122361   2.861   2.355   5.402
 7472TIP3    H222362   2.886   2.488   5.470
 7473TIP3   OH222363   1.042   5.004   4.617
 7473TIP3    H122364   1.066   5.072   4.679
 7473TIP3    H222365   0.988   5.049   4.552
 7474TIP3   OH222366   2.333   3.365   5.006
 7474TIP3    H122367   2.269   3.340   4.940
 7474TIP3    H222368   2.351   3.285   5.054
 7475TIP3   OH222369   7.186   7.171   5.990
 7475TIP3    H122370   7.140   7.244   6.032
 7475TIP3    H222371   7.117   7.107   5.973
 7476TIP3   OH222372   1.314   5.090   6.698
 7476TIP3    H122373   1.330   5.184   6.695
 7476TIP3    H222374   1.321   5.061   6.607
 7477TIP3   OH222375   7.191   1.825   3.276
 7477TIP3    H122376   7.201   1.838   3.182
 7477TIP3    H222377   7.235   1.901   3.315
 7478TIP3   OH222378   5.727   4.333   6.575
 7478TIP3    H122379   5.691   4.415   6.609
 7478TIP3    H222380   5.815   4.356   6.545
 7479TIP3   OH222381   0.245   2.792   5.754
 7479TIP3    H122382   0.292   2.722   5.708
 7479TIP3    H222383   0.274   2.785   5.844
 7480TIP3   OH222384   2.921   4.431   3.930
 7480TIP3    H122385   2.984   4.503   3.929
 7480TIP3    H222386   2.915   4.406   4.022
 7481TIP3   OH222387   7.783   3.661   5.316
 7481TIP3    H122388   7.841   3.710   5.257
 7481TIP3    H222389   7.705   3.716   5.323
 7482TIP3   OH222390   2.705   5.926   3.270
 7482TIP3    H122391   2.732   5.846   3.225
 7482TIP3    H222392   2.610   5.929   3.261
 7483TIP3   OH222393   5.934   3.264   1.624
 7483TIP3    H122394   5.955   3.267   1.717
 7483TIP3    H222395   5.853   3.313   1.616
 7484TIP3   OH222396   2.051   6.654   2.504
 7484TIP3    H122397   2.020   6.572   2.541
 7484TIP3    H222398   2.003   6.722   2.552
 7485TIP3   OH222399   6.809   6.092   2.186
 7485TIP3    H122400   6.810   5.997   2.179
 7485TIP3    H222401   6.894   6.120   2.152
 7486TIP3   OH222402   6.695   2.488   0.256
 7486TIP3    H122403   6.663   2.474   0.166
 7486TIP3    H222404   6.615   2.504   0.307
 7487TIP3   OH222405   5.409   5.772   3.084
 7487TIP3    H122406   5.384   5.798   3.173
 7487TIP3    H222407   5.488   5.718   3.097
 7488TIP3   OH222408   1.703   7.143   6.311
 7488TIP3    H122409   1.665   7.210   6.366
 7488TIP3    H222410   1.797   7.162   6.311
 7489TIP3   OH222411   2.650   7.180   5.606
 7489TIP3    H122412   2.572   7.166   5.552
 7489TIP3    H222413   2.717   7.124   5.566
 7490TIP3   OH222414   0.950   3.530   6.175
 7490TIP3    H122415   0.984   3.600   6.231
 7490TIP3    H222416   0.919   3.576   6.097
 7491TIP3   OH222417   3.718   2.170   0.821
 7491TIP3    H122418   3.792   2.229   0.807
 7491TIP3    H222419   3.757   2.090   0.856
 7492TIP3   OH222420   7.323   4.389   1.620
 7492TIP3    H122421   7.302   4.374   1.528
 7492TIP3    H222422   7.318   4.302   1.660
 7493TIP3   OH222423   0.481   2.858   3.907
 7493TIP3    H122424   0.458   2.800   3.834
 7493TIP3    H222425   0.461   2.946   3.875
 7494TIP3   OH222426   5.844   5.668   6.020
 7494TIP3    H122427   5.777   5.599   6.014
 7494TIP3    H222428   5.879   5.674   5.931
 7495TIP3   OH222429   7.200   4.869   2.633
 7495TIP3    H122430   7.212   4.884   2.539
 7495TIP3    H222431   7.120   4.917   2.655
 7496TIP3   OH222432   3.637   7.006   3.993
 7496TIP3    H122433   3.638   7.025   4.086
 7496TIP3    H222434   3.547   6.982   3.974
 7497TIP3   OH222435   5.379   3.390   1.780
 7497TIP3    H122436   5.302   3.438   1.750
 7497TIP3    H222437   5.447   3.457   1.790
 7498TIP3   OH222438   0.373   0.715   6.723
 7498TIP3    H122439   0.299   0.663   6.692
 7498TIP3    H222440   0.344   0.749   6.808
 7499TIP3   OH222441   4.248   1.427   5.468
 7499TIP3    H122442   4.212   1.497   5.414
 7499TIP3    H222443   4.246   1.350   5.411
 7500TIP3   OH222444   5.488   1.072   2.736
 7500TIP3    H122445   5.511   0.985   2.768
 7500TIP3    H222446   5.401   1.088   2.771
 7501TIP3   OH222447   4.154   0.436   3.234
 7501TIP3    H122448   4.215   0.388   3.289
 7501TIP3    H222449   4.068   0.397   3.254
 7502TIP3   OH222450   6.644   6.413   5.996
 7502TIP3    H122451   6.657   6.348   6.064
 7502TIP3    H222452   6.721   6.470   6.002
 7503TIP3   OH222453   5.048   1.902   1.706
 7503TIP3    H122454   5.142   1.886   1.714
 7503TIP3    H222455   5.017   1.910   1.796
 7504TIP3   OH222456   1.616   2.781   6.758
 7504TIP3    H122457   1.540   2.834   6.736
 7504TIP3    H222458   1.681   2.843   6.790
 7505TIP3   OH222459   1.028   0.933   2.653
 7505TIP3    H122460   1.115   0.944   2.692
 7505TIP3    H222461   1.045   0.909   2.562
 7506TIP3   OH222462   4.431   6.810   3.488
 7506TIP3    H122463   4.482   6.890   3.474
 7506TIP3    H222464   4.481   6.760   3.552
 7507TIP3   OH222465   6.623   3.771   3.999
 7507TIP3    H122466   6.580   3.702   4.050
 7507TIP3    H222467   6.642   3.840   4.062
 7508TIP3   OH222468   2.621   3.854   3.998
 7508TIP3    H122469   2.648   3.763   3.984
 7508TIP3    H222470   2.558   3.849   4.070
 7509TIP3   OH222471   7.603   2.245   2.101
 7509TIP3    H122472   7.597   2.248   2.005
 7509TIP3    H222473   7.611   2.152   2.122
 7510TIP3   OH222474   0.005   7.228   3.207
 7510TIP3    H122475  -0.068   7.262   3.154
 7510TIP3    H222476   0.017   7.139   3.176
 7511TIP3   OH222477   5.925   4.874   1.903
 7511TIP3    H122478   5.831   4.892   1.905
 7511TIP3    H222479   5.950   4.869   1.995
 7512TIP3   OH222480   0.055   1.237   3.363
 7512TIP3    H122481  -0.005   1.181   3.314
 7512TIP3    H222482   0.109   1.279   3.297
 7513TIP3   OH222483   7.618   4.975   6.749
 7513TIP3    H122484   7.619   5.009   6.839
 7513TIP3    H222485   7.668   5.039   6.699
 7514TIP3   OH222486   1.268   2.077   2.421
 7514TIP3    H122487   1.295   1.993   2.457
 7514TIP3    H222488   1.349   2.120   2.396
 7515TIP3   OH222489   6.263   0.672   6.082
 7515TIP3    H122490   6.276   0.689   6.175
 7515TIP3    H222491   6.176   0.707   6.063
 7516TIP3   OH222492   7.197   7.611   3.616
 7516TIP3    H122493   7.105   7.636   3.626
 7516TIP3    H222494   7.206   7.589   3.524
 7517TIP3   OH222495   6.686   3.435   6.223
 7517TIP3    H122496   6.609   3.378   6.218
 7517TIP3    H222497   6.663   3.501   6.288
 7518TIP3   OH222498   0.127   2.967   4.655
 7518TIP3    H122499   0.166   2.881   4.671
 7518TIP3    H222500   0.158   2.991   4.568
 7519TIP3   OH222501   2.149   0.949   2.463
 7519TIP3    H122502   2.210   0.905   2.521
 7519TIP3    H222503   2.142   0.890   2.387
 7520TIP3   OH222504   0.712   4.539   6.573
 7520TIP3    H122505   0.765   4.547   6.652
 7520TIP3    H222506   0.668   4.624   6.565
 7521TIP3   OH222507   3.856   7.318   0.824
 7521TIP3    H122508   3.870   7.227   0.850
 7521TIP3    H222509   3.912   7.368   0.884
 7522TIP3   OH222510   3.112   4.415   3.344
 7522TIP3    H122511   3.134   4.382   3.431
 7522TIP3    H222512   3.185   4.473   3.321
 7523TIP3   OH222513   1.870   4.564   0.066
 7523TIP3    H122514   1.870   4.475   0.102
 7523TIP3    H222515   1.918   4.556  -0.017
 7524TIP3   OH222516   7.307   6.551   4.784
 7524TIP3    H122517   7.328   6.458   4.776
 7524TIP3    H222518   7.388   6.596   4.759
 7525TIP3   OH222519   3.956   2.490   1.817
 7525TIP3    H122520   3.949   2.515   1.725
 7525TIP3    H222521   4.048   2.467   1.829
 7526TIP3   OH222522   2.054   7.361   2.863
 7526TIP3    H122523   2.082   7.452   2.853
 7526TIP3    H222524   2.037   7.331   2.774
 7527TIP3   OH222525   4.674   7.439   2.205
 7527TIP3    H122526   4.724   7.476   2.132
 7527TIP3    H222527   4.740   7.392   2.257
 7528TIP3   OH222528   1.669   3.839   3.107
 7528TIP3    H122529   1.730   3.781   3.153
 7528TIP3    H222530   1.583   3.817   3.143
 7529TIP3   OH222531   1.409   0.181   2.975
 7529TIP3    H122532   1.374   0.230   3.050
 7529TIP3    H222533   1.371   0.224   2.898
 7530TIP3   OH222534   8.230   4.182   1.829
 7530TIP3    H122535   8.325   4.186   1.840
 7530TIP3    H222536   8.218   4.170   1.734
 7531TIP3   OH222537   4.510   4.229   1.233
 7531TIP3    H122538   4.519   4.153   1.176
 7531TIP3    H222539   4.599   4.262   1.244
 7532TIP3   OH222540   4.758   0.916   5.526
 7532TIP3    H122541   4.833   0.874   5.568
 7532TIP3    H222542   4.780   1.009   5.525
 7533TIP3   OH222543   6.261   7.758   2.931
 7533TIP3    H122544   6.241   7.670   2.961
 7533TIP3    H222545   6.349   7.776   2.966
 7534TIP3   OH222546   7.238   2.072   5.815
 7534TIP3    H122547   7.242   2.168   5.806
 7534TIP3    H222548   7.152   2.055   5.852
 7535TIP3   OH222549   0.899   0.934   4.249
 7535TIP3    H122550   0.828   0.984   4.290
 7535TIP3    H222551   0.923   0.869   4.316
 7536TIP3   OH222552   6.561   2.577   5.162
 7536TIP3    H122553   6.582   2.546   5.074
 7536TIP3    H222554   6.542   2.670   5.152
 7537TIP3   OH222555   1.256   7.267   1.277
 7537TIP3    H122556   1.220   7.263   1.188
 7537TIP3    H222557   1.209   7.199   1.325
 7538TIP3   OH222558   3.568   0.715   1.987
 7538TIP3    H122559   3.640   0.652   1.983
 7538TIP3    H222560   3.555   0.731   2.081
 7539TIP3   OH222561   2.304   3.647   6.740
 7539TIP3    H122562   2.377   3.674   6.796
 7539TIP3    H222563   2.305   3.710   6.668
 7540TIP3   OH222564   6.403   0.220   1.975
 7540TIP3    H122565   6.366   0.278   2.041
 7540TIP3    H222566   6.399   0.133   2.014
 7541TIP3   OH222567   0.846   5.061   2.833
 7541TIP3    H122568   0.751   5.050   2.826
 7541TIP3    H222569   0.883   4.985   2.789
 7542TIP3   OH222570   5.431   7.410   0.309
 7542TIP3    H122571   5.493   7.476   0.340
 7542TIP3    H222572   5.484   7.331   0.296
 7543TIP3   OH222573   3.863   7.769   4.769
 7543TIP3    H122574   3.775   7.732   4.781
 7543TIP3    H222575   3.913   7.737   4.843
 7544TIP3   OH222576   1.199   3.340   2.259
 7544TIP3    H122577   1.195   3.297   2.174
 7544TIP3    H222578   1.107   3.359   2.281
 7545TIP3   OH222579   4.551   1.251   6.084
 7545TIP3    H122580   4.606   1.222   6.158
 7545TIP3    H222581   4.467   1.209   6.100
 7546TIP3   OH222582   6.058   4.120   4.004
 7546TIP3    H122583   6.148   4.086   4.008
 7546TIP3    H222584   6.045   4.163   4.088
 7547TIP3   OH222585   5.126   0.040   0.646
 7547TIP3    H122586   5.141  -0.005   0.729
 7547TIP3    H222587   5.170   0.124   0.655
 7548TIP3   OH222588   2.194   0.419   1.004
 7548TIP3    H122589   2.233   0.344   0.959
 7548TIP3    H222590   2.166   0.384   1.089
 7549TIP3   OH222591   5.883   3.569   5.229
 7549TIP3    H122592   5.802   3.557   5.279
 7549TIP3    H222593   5.854   3.611   5.148
 7550TIP3   OH222594   2.161   5.538   0.144
 7550TIP3    H122595   2.234   5.512   0.088
 7550TIP3    H222596   2.175   5.632   0.158
 7551TIP3   OH222597   3.484   3.488   6.735
 7551TIP3    H122598   3.411   3.471   6.793
 7551TIP3    H222599   3.521   3.402   6.717
 7552TIP3   OH222600   1.991   2.762   3.696
 7552TIP3    H122601   2.023   2.682   3.655
 7552TIP3    H222602   1.904   2.739   3.729
 7553TIP3   OH222603   3.046   5.811   4.637
 7553TIP3    H122604   2.953   5.832   4.647
 7553TIP3    H222605   3.046   5.725   4.595
 7554TIP3   OH222606   4.611   0.382   2.858
 7554TIP3    H122607   4.631   0.452   2.796
 7554TIP3    H222608   4.516   0.370   2.852
 7555TIP3   OH222609   2.927   7.794   5.281
 7555TIP3    H122610   3.020   7.795   5.305
 7555TIP3    H222611   2.880   7.805   5.364
 7556TIP3   OH222612   5.823   7.513   6.313
 7556TIP3    H122613   5.867   7.596   6.292
 7556TIP3    H222614   5.766   7.535   6.387
 7557TIP3   OH222615   6.951   6.269   3.064
 7557TIP3    H122616   6.876   6.309   3.108
 7557TIP3    H222617   6.932   6.175   3.067
 7558TIP3   OH222618   2.869   7.026   2.843
 7558TIP3    H122619   2.783   7.016   2.803
 7558TIP3    H222620   2.853   7.016   2.937
 7559TIP3   OH222621   2.061   1.638   2.306
 7559TIP3    H122622   2.102   1.571   2.361
 7559TIP3    H222623   2.048   1.713   2.363
 7560TIP3   OH222624   0.719   1.447   6.110
 7560TIP3    H122625   0.705   1.401   6.028
 7560TIP3    H222626   0.716   1.540   6.087
 7561TIP3   OH222627   0.709   7.130   2.007
 7561TIP3    H122628   0.698   7.062   1.941
 7561TIP3    H222629   0.796   7.167   1.990
 7562TIP3   OH222630   5.485   2.476   2.447
 7562TIP3    H122631   5.446   2.527   2.517
 7562TIP3    H222632   5.432   2.396   2.442
 7563TIP3   OH222633   7.029   0.593   6.515
 7563TIP3    H122634   6.973   0.527   6.556
 7563TIP3    H222635   6.989   0.608   6.430
 7564TIP3   OH222636   2.199   6.682   1.889
 7564TIP3    H122637   2.251   6.713   1.963
 7564TIP3    H222638   2.209   6.586   1.891
 7565TIP3   OH222639   5.644   7.026   4.650
 7565TIP3    H122640   5.601   7.034   4.735
 7565TIP3    H222641   5.737   7.041   4.668
 7566TIP3   OH222642   4.654   3.866   0.694
 7566TIP3    H122643   4.695   3.919   0.763
 7566TIP3    H222644   4.589   3.813   0.740
 7567TIP3   OH222645   2.242   5.810   5.781
 7567TIP3    H122646   2.207   5.896   5.804
 7567TIP3    H222647   2.318   5.829   5.725
 7568TIP3   OH222648   5.814   6.671   2.791
 7568TIP3    H122649   5.751   6.735   2.756
 7568TIP3    H222650   5.894   6.722   2.806
 7569TIP3   OH222651   1.446   6.914   1.831
 7569TIP3    H122652   1.507   6.978   1.794
 7569TIP3    H222653   1.401   6.960   1.901
 7570TIP3   OH222654   5.628   6.028   6.475
 7570TIP3    H122655   5.664   6.012   6.388
 7570TIP3    H222656   5.535   6.008   6.466
 7571TIP3   OH222657   4.073   6.684   3.893
 7571TIP3    H122658   4.006   6.750   3.878
 7571TIP3    H222659   4.025   6.606   3.921
 7572TIP3   OH222660   2.115   0.827   4.503
 7572TIP3    H122661   2.162   0.871   4.432
 7572TIP3    H222662   2.034   0.797   4.463
 7573TIP3   OH222663   7.748   2.657   2.803
 7573TIP3    H122664   7.762   2.569   2.838
 7573TIP3    H222665   7.678   2.646   2.738
 7574TIP3   OH222666   4.867   6.070   3.390
 7574TIP3    H122667   4.848   5.981   3.362
 7574TIP3    H222668   4.948   6.063   3.441
 7575TIP3   OH222669   3.820   0.034   5.263
 7575TIP3    H122670   3.778  -0.052   5.263
 7575TIP3    H222671   3.812   0.064   5.353
 7576TIP3   OH222672   7.882   0.299   1.150
 7576TIP3    H122673   7.967   0.290   1.193
 7576TIP3    H222674   7.891   0.249   1.069
 7577TIP3   OH222675   7.042   7.624   0.107
 7577TIP3    H122676   7.119   7.678   0.090
 7577TIP3    H222677   7.077   7.538   0.127
 7578TIP3   OH222678   1.615   6.106   3.000
 7578TIP3    H122679   1.602   6.148   3.085
 7578TIP3    H222680   1.640   6.016   3.021
 7579TIP3   OH222681   7.927   7.099   2.762
 7579TIP3    H122682   7.837   7.109   2.731
 7579TIP3    H222683   7.928   7.015   2.808
 7580TIP3   OH222684   1.337   7.400   0.156
 7580TIP3    H122685   1.265   7.381   0.216
 7580TIP3    H222686   1.339   7.496   0.150
 7581TIP3   OH222687   3.194   4.196   1.801
 7581TIP3    H122688   3.206   4.285   1.835
 7581TIP3    H222689   3.130   4.205   1.731
 7582TIP3   OH222690   4.464   1.529   1.784
 7582TIP3    H122691   4.409   1.451   1.775
 7582TIP3    H222692   4.507   1.538   1.699
 7583TIP3   OH222693   2.165   7.114   2.964
 7583TIP3    H122694   2.120   7.101   3.047
 7583TIP3    H222695   2.110   7.175   2.915
 7584TIP3   OH222696   5.787   6.117   3.378
 7584TIP3    H122697   5.715   6.179   3.384
 7584TIP3    H222698   5.849   6.158   3.317
 7585TIP3   OH222699   1.449   1.270   2.879
 7585TIP3    H122700   1.476   1.351   2.922
 7585TIP3    H222701   1.531   1.231   2.847
 7586TIP3   OH222702   0.525   5.870   5.902
 7586TIP3    H122703   0.551   5.880   5.993
 7586TIP3    H222704   0.465   5.943   5.886
 7587TIP3   OH222705   0.187   7.230   3.402
 7587TIP3    H122706   0.115   7.227   3.339
 7587TIP3    H222707   0.159   7.174   3.474
 7588TIP3   OH222708   3.773   1.757   5.648
 7588TIP3    H122709   3.766   1.763   5.744
 7588TIP3    H222710   3.849   1.702   5.633
 7589TIP3   OH222711   5.449   3.519   0.538
 7589TIP3    H122712   5.417   3.454   0.600
 7589TIP3    H222713   5.388   3.515   0.465
 7590TIP3   OH222714   4.625   2.523   3.457
 7590TIP3    H122715   4.721   2.513   3.460
 7590TIP3    H222716   4.601   2.490   3.371
 7591TIP3   OH222717   7.732   5.101   1.163
 7591TIP3    H122718   7.752   5.159   1.089
 7591TIP3    H222719   7.813   5.100   1.215
 7592TIP3   OH222720   8.083   4.203   2.194
 7592TIP3    H122721   8.089   4.273   2.129
 7592TIP3    H222722   8.084   4.248   2.279
 7593TIP3   OH222723   4.696   3.084   5.069
 7593TIP3    H122724   4.664   3.142   5.000
 7593TIP3    H222725   4.776   3.045   5.033
 7594TIP3   OH222726   8.055   2.368   5.556
 7594TIP3    H122727   8.040   2.283   5.597
 7594TIP3    H222728   7.972   2.390   5.515
 7595TIP3   OH222729   5.107   0.670   1.248
 7595TIP3    H122730   5.034   0.714   1.203
 7595TIP3    H222731   5.173   0.657   1.180
 7596TIP3   OH222732   5.398   1.216   1.527
 7596TIP3    H122733   5.424   1.180   1.442
 7596TIP3    H222734   5.370   1.306   1.507
 7597TIP3   OH222735   4.067   7.265   0.454
 7597TIP3    H122736   4.120   7.294   0.528
 7597TIP3    H222737   3.977   7.270   0.486
 7598TIP3   OH222738   7.286   2.002   3.919
 7598TIP3    H122739   7.212   1.944   3.938
 7598TIP3    H222740   7.275   2.025   3.826
 7599TIP3   OH222741   0.173   7.142   5.100
 7599TIP3    H122742   0.117   7.069   5.075
 7599TIP3    H222743   0.122   7.220   5.077
 7600TIP3   OH222744   5.356   7.728   5.252
 7600TIP3    H122745   5.392   7.702   5.337
 7600TIP3    H222746   5.274   7.679   5.244
 7601TIP3   OH222747   2.486   1.925   1.890
 7601TIP3    H122748   2.571   1.928   1.935
 7601TIP3    H222749   2.431   1.986   1.940
 7602TIP3   OH222750   4.601   5.239   1.788
 7602TIP3    H122751   4.567   5.204   1.870
 7602TIP3    H222752   4.696   5.228   1.794
 7603TIP3   OH222753   7.165   2.603   3.046
 7603TIP3    H122754   7.095   2.552   3.087
 7603TIP3    H222755   7.119   2.666   2.990
 7604TIP3   OH222756   0.635   2.535   3.232
 7604TIP3    H122757   0.690   2.488   3.169
 7604TIP3    H222758   0.550   2.544   3.188
 7605TIP3   OH222759   2.728   2.695   4.076
 7605TIP3    H122760   2.759   2.606   4.059
 7605TIP3    H222761   2.705   2.695   4.169
 7606TIP3   OH222762   5.365   0.144   4.837
 7606TIP3    H122763   5.342   0.055   4.863
 7606TIP3    H222764   5.326   0.154   4.751
 7607TIP3   OH222765   5.990   6.452   3.531
 7607TIP3    H122766   6.024   6.455   3.442
 7607TIP3    H222767   5.958   6.540   3.548
 7608TIP3   OH222768   2.179   4.903   4.184
 7608TIP3    H122769   2.132   4.974   4.139
 7608TIP3    H222770   2.268   4.935   4.193
 7609TIP3   OH222771   1.934   0.331   4.579
 7609TIP3    H122772   1.997   0.402   4.571
 7609TIP3    H222773   1.969   0.276   4.649
 7610TIP3   OH222774   4.731   4.755   1.982
 7610TIP3    H122775   4.689   4.839   2.002
 7610TIP3    H222776   4.745   4.715   2.067
 7611TIP3   OH222777   5.073   4.843   1.325
 7611TIP3    H122778   5.063   4.917   1.385
 7611TIP3    H222779   5.105   4.771   1.379
 7612TIP3   OH222780   7.648   7.152   4.230
 7612TIP3    H122781   7.654   7.072   4.178
 7612TIP3    H222782   7.572   7.198   4.193
 7613TIP3   OH222783   0.900   2.586   5.413
 7613TIP3    H122784   0.892   2.494   5.386
 7613TIP3    H222785   0.818   2.626   5.384
 7614TIP3   OH222786   5.119   0.429   3.317
 7614TIP3    H122787   5.174   0.359   3.281
 7614TIP3    H222788   5.174   0.508   3.312
 7615TIP3   OH222789   6.468   0.591   3.256
 7615TIP3    H122790   6.536   0.536   3.295
 7615TIP3    H222791   6.513   0.673   3.235
 7616TIP3   OH222792   8.211   4.121   6.041
 7616TIP3    H122793   8.305   4.136   6.034
 7616TIP3    H222794   8.173   4.170   5.968
 7617TIP3   OH222795   4.459   7.274   0.222
 7617TIP3    H122796   4.472   7.356   0.269
 7617TIP3    H222797   4.522   7.278   0.150
 7618TIP3   OH222798   1.542   7.621   6.644
 7618TIP3    H122799   1.515   7.675   6.569
 7618TIP3    H222800   1.466   7.623   6.703
 7619TIP3   OH222801   0.117   1.496   6.766
 7619TIP3    H122802   0.087   1.415   6.805
 7619TIP3    H222803   0.196   1.472   6.717
 7620TIP3   OH222804   7.350   6.271   1.141
 7620TIP3    H122805   7.343   6.268   1.237
 7620TIP3    H222806   7.275   6.323   1.113
 7621TIP3   OH222807   5.223   7.325   3.270
 7621TIP3    H122808   5.168   7.328   3.191
 7621TIP3    H222809   5.306   7.288   3.240
 7622TIP3   OH222810   4.093   5.320   3.089
 7622TIP3    H122811   4.059   5.374   3.017
 7622TIP3    H222812   4.041   5.240   3.085
 7623TIP3   OH222813   7.407   2.476   2.968
 7623TIP3    H122814   7.443   2.463   3.055
 7623TIP3    H222815   7.320   2.511   2.982
 7624TIP3   OH222816   7.511   5.556   2.628
 7624TIP3    H122817   7.471   5.642   2.633
 7624TIP3    H222818   7.524   5.541   2.534
 7625TIP3   OH222819   2.783   5.188   0.128
 7625TIP3    H122820   2.690   5.195   0.150
 7625TIP3    H222821   2.816   5.121   0.188
 7626TIP3   OH222822   5.340   4.463   4.324
 7626TIP3    H122823   5.426   4.433   4.294
 7626TIP3    H222824   5.347   4.463   4.419
 7627TIP3   OH222825   4.187   0.609   5.474
 7627TIP3    H122826   4.196   0.691   5.523
 7627TIP3    H222827   4.134   0.553   5.531
 7628TIP3   OH222828   1.435   0.615   2.730
 7628TIP3    H122829   1.423   0.708   2.709
 7628TIP3    H222830   1.464   0.575   2.649
 7629TIP3   OH222831   6.229   6.530   3.762
 7629TIP3    H122832   6.195   6.447   3.728
 7629TIP3    H222833   6.171   6.552   3.835
 7630TIP3   OH222834   7.833   1.584   0.764
 7630TIP3    H122835   7.918   1.570   0.722
 7630TIP3    H222836   7.842   1.545   0.851
 7631TIP3   OH222837   5.121   1.459   6.252
 7631TIP3    H122838   5.067   1.457   6.331
 7631TIP3    H222839   5.206   1.491   6.282
 7632TIP3   OH222840   7.432   0.647   1.809
 7632TIP3    H122841   7.369   0.578   1.827
 7632TIP3    H222842   7.486   0.650   1.888
 7633TIP3   OH222843   3.410   4.944   0.941
 7633TIP3    H122844   3.456   4.919   0.861
 7633TIP3    H222845   3.406   5.040   0.938
 7634TIP3   OH222846   0.582   7.317   1.198
 7634TIP3    H122847   0.566   7.359   1.113
 7634TIP3    H222848   0.542   7.231   1.191
 7635TIP3   OH222849   3.299   0.554   1.982
 7635TIP3    H122850   3.259   0.567   1.896
 7635TIP3    H222851   3.392   0.569   1.967
 7636TIP3   OH222852   4.173   6.839   3.423
 7636TIP3    H122853   4.258   6.832   3.468
 7636TIP3    H222854   4.175   6.927   3.384
 7637TIP3   OH222855   6.149   7.609   3.978
 7637TIP3    H122856   6.153   7.704   3.993
 7637TIP3    H222857   6.071   7.581   4.025
 7638TIP3   OH222858   2.134   0.642   6.450
 7638TIP3    H122859   2.181   0.720   6.421
 7638TIP3    H222860   2.184   0.569   6.413
 7639TIP3   OH222861   4.697   3.593   0.350
 7639TIP3    H122862   4.675   3.515   0.400
 7639TIP3    H222863   4.728   3.560   0.265
 7640TIP3   OH222864   4.918   0.163   0.250
 7640TIP3    H122865   4.930   0.098   0.320
 7640TIP3    H222866   4.990   0.146   0.189
 7641TIP3   OH222867   3.177   5.362   5.033
 7641TIP3    H122868   3.265   5.325   5.026
 7641TIP3    H222869   3.167   5.382   5.126
 7642TIP3   OH222870   4.062   1.301   2.851
 7642TIP3    H122871   4.023   1.310   2.938
 7642TIP3    H222872   4.064   1.207   2.835
 7643TIP3   OH222873   5.966   1.082   2.790
 7643TIP3    H122874   5.889   1.069   2.845
 7643TIP3    H222875   6.033   1.117   2.849
 7644TIP3   OH222876   2.411   2.818   2.552
 7644TIP3    H122877   2.417   2.891   2.491
 7644TIP3    H222878   2.495   2.817   2.597
 7645TIP3   OH222879   0.766   5.479   3.097
 7645TIP3    H122880   0.681   5.461   3.056
 7645TIP3    H222881   0.751   5.460   3.190
 7646TIP3   OH222882   1.455   5.190   2.760
 7646TIP3    H122883   1.397   5.177   2.685
 7646TIP3    H222884   1.399   5.233   2.825
 7647TIP3   OH222885   7.067   3.422   2.280
 7647TIP3    H122886   7.143   3.426   2.223
 7647TIP3    H222887   7.101   3.390   2.364
 7648TIP3   OH222888   8.253   4.686   6.083
 7648TIP3    H122889   8.258   4.781   6.094
 7648TIP3    H222890   8.172   4.661   6.127
 7649TIP3   OH222891   3.061   0.998   3.023
 7649TIP3    H122892   3.033   1.050   2.948
 7649TIP3    H222893   3.065   1.060   3.096
 7650TIP3   OH222894   5.845   0.611   1.311
 7650TIP3    H122895   5.915   0.672   1.330
 7650TIP3    H222896   5.866   0.533   1.362
 7651TIP3   OH222897   1.519   7.198   6.605
 7651TIP3    H122898   1.449   7.137   6.582
 7651TIP3    H222899   1.530   7.187   6.700
 7652TIP3   OH222900   1.420   7.615   5.907
 7652TIP3    H122901   1.335   7.619   5.863
 7652TIP3    H222902   1.473   7.558   5.852
 7653TIP3   OH222903   3.507   3.713   6.565
 7653TIP3    H122904   3.597   3.720   6.596
 7653TIP3    H222905   3.471   3.639   6.613
 7654TIP3   OH222906   4.510   4.421   3.160
 7654TIP3    H122907   4.472   4.502   3.193
 7654TIP3    H222908   4.560   4.386   3.234
 7655TIP3   OH222909   2.322   4.877   3.711
 7655TIP3    H122910   2.289   4.871   3.801
 7655TIP3    H222911   2.251   4.842   3.657
 7656TIP3   OH222912   2.362   6.242   5.782
 7656TIP3    H122913   2.416   6.300   5.728
 7656TIP3    H222914   2.381   6.269   5.872
 7657TIP3   OH222915   6.377   7.529   6.268
 7657TIP3    H122916   6.359   7.617   6.237
 7657TIP3    H222917   6.422   7.486   6.195
 7658TIP3   OH222918   0.569   1.299   3.247
 7658TIP3    H122919   0.476   1.308   3.267
 7658TIP3    H222920   0.582   1.204   3.235
 7659TIP3   OH222921   4.295   2.755   3.213
 7659TIP3    H122922   4.351   2.833   3.216
 7659TIP3    H222923   4.238   2.763   3.289
 7660TIP3   OH222924   7.210   4.920   4.312
 7660TIP3    H122925   7.122   4.955   4.296
 7660TIP3    H222926   7.265   4.957   4.243
 7661TIP3   OH222927   0.182   2.242   4.255
 7661TIP3    H122928   0.191   2.331   4.290
 7661TIP3    H222929   0.270   2.218   4.227
 7662TIP3   OH222930   6.891   3.328   2.513
 7662TIP3    H122931   6.859   3.238   2.508
 7662TIP3    H222932   6.985   3.321   2.499
 7663TIP3   OH222933   6.625   5.761   3.318
 7663TIP3    H122934   6.579   5.821   3.259
 7663TIP3    H222935   6.692   5.815   3.359
 7664TIP3   OH222936   0.069   1.828   4.928
 7664TIP3    H122937   0.126   1.775   4.873
 7664TIP3    H222938   0.043   1.901   4.872
 7665TIP3   OH222939   4.816   7.011   2.417
 7665TIP3    H122940   4.906   7.012   2.450
 7665TIP3    H222941   4.766   6.969   2.487
 7666TIP3   OH222942   5.722   3.344   3.294
 7666TIP3    H122943   5.658   3.317   3.360
 7666TIP3    H222944   5.780   3.405   3.340
 7667TIP3   OH222945   6.506   1.597   2.240
 7667TIP3    H122946   6.576   1.576   2.302
 7667TIP3    H222947   6.538   1.672   2.191
 7668TIP3   OH222948   6.588   6.573   1.422
 7668TIP3    H122949   6.642   6.611   1.492
 7668TIP3    H222950   6.651   6.540   1.358
 7669TIP3   OH222951   1.489   4.868   6.305
 7669TIP3    H122952   1.446   4.927   6.243
 7669TIP3    H222953   1.459   4.898   6.391
 7670TIP3   OH222954   1.666   1.533   1.030
 7670TIP3    H122955   1.603   1.464   1.009
 7670TIP3    H222956   1.627   1.580   1.103
 7671TIP3   OH222957   7.841   6.434   3.141
 7671TIP3    H122958   7.892   6.370   3.189
 7671TIP3    H222959   7.750   6.416   3.165
 7672TIP3   OH222960   1.881   0.870   0.530
 7672TIP3    H122961   1.869   0.779   0.501
 7672TIP3    H222962   1.940   0.908   0.465
 7673TIP3   OH222963   4.572   1.827   0.152
 7673TIP3    H122964   4.580   1.775   0.232
 7673TIP3    H222965   4.544   1.763   0.085
 7674TIP3   OH222966   5.445   4.424   3.881
 7674TIP3    H122967   5.453   4.344   3.932
 7674TIP3    H222968   5.352   4.434   3.865
 7675TIP3   OH222969   1.804   5.891   3.869
 7675TIP3    H122970   1.740   5.902   3.939
 7675TIP3    H222971   1.804   5.797   3.850
 7676TIP3   OH222972   1.169   1.245   6.160
 7676TIP3    H122973   1.241   1.196   6.200
 7676TIP3    H222974   1.128   1.183   6.100
 7677TIP3   OH222975   5.743   7.025   1.433
 7677TIP3    H122976   5.724   7.087   1.363
 7677TIP3    H222977   5.675   6.958   1.424
 7678TIP3   OH222978   3.491   1.174   5.342
 7678TIP3    H122979   3.555   1.109   5.370
 7678TIP3    H222980   3.433   1.185   5.417
 7679TIP3   OH222981   7.844   1.931   4.710
 7679TIP3    H122982   7.912   1.940   4.777
 7679TIP3    H222983   7.892   1.921   4.628
 7680TIP3   OH222984   6.156   0.066   0.853
 7680TIP3    H122985   6.096   0.096   0.922
 7680TIP3    H222986   6.119   0.102   0.772
 7681TIP3   OH222987   2.127   3.776   4.766
 7681TIP3    H122988   2.156   3.686   4.752
 7681TIP3    H222989   2.037   3.778   4.734
 7682TIP3   OH222990   4.569   0.333   1.227
 7682TIP3    H122991   4.500   0.274   1.257
 7682TIP3    H222992   4.543   0.419   1.262
 7683TIP3   OH222993   0.023   7.620   0.714
 7683TIP3    H122994   0.081   7.600   0.788
 7683TIP3    H222995  -0.034   7.543   0.707
 7684TIP3   OH222996   0.525   7.765   2.470
 7684TIP3    H122997   0.588   7.697   2.445
 7684TIP3    H222998   0.503   7.746   2.561
 7685TIP3   OH222999   8.166   6.999   1.543
 7685TIP3    H123000   8.261   7.011   1.545
 7685TIP3    H223001   8.132   7.081   1.507
 7686TIP3   OH223002   2.546   7.225   2.146
 7686TIP3    H123003   2.465   7.196   2.188
 7686TIP3    H223004   2.544   7.321   2.153
 7687TIP3   OH223005   8.090   0.127   4.980
 7687TIP3    H123006   8.017   0.066   4.969
 7687TIP3    H223007   8.138   0.092   5.055
 7688TIP3   OH223008   0.486   6.747   4.975
 7688TIP3    H123009   0.438   6.816   5.021
 7688TIP3    H223010   0.532   6.792   4.904
 7689TIP3   OH223011   4.971   0.362   5.605
 7689TIP3    H123012   4.911   0.415   5.553
 7689TIP3    H223013   4.930   0.276   5.609
 7690TIP3   OH223014   5.029   6.865   0.356
 7690TIP3    H123015   5.048   6.845   0.264
 7690TIP3    H223016   4.956   6.926   0.352
 7691TIP3   OH223017   5.916   2.104   5.798
 7691TIP3    H123018   5.943   2.013   5.787
 7691TIP3    H223019   5.874   2.106   5.884
 7692TIP3   OH223020   1.300   0.069   3.438
 7692TIP3    H123021   1.345   0.030   3.363
 7692TIP3    H223022   1.208   0.046   3.424
 7693TIP3   OH223023   4.451   6.769   6.398
 7693TIP3    H123024   4.524   6.723   6.356
 7693TIP3    H223025   4.373   6.731   6.357
 7694TIP3   OH223026   3.551   7.490   5.050
 7694TIP3    H123027   3.489   7.559   5.071
 7694TIP3    H223028   3.497   7.413   5.034
 7695TIP3   OH223029   4.339   4.286   5.208
 7695TIP3    H123030   4.285   4.217   5.170
 7695TIP3    H223031   4.362   4.253   5.295
 7696TIP3   OH223032   7.142   1.984   0.289
 7696TIP3    H123033   7.052   2.001   0.315
 7696TIP3    H223034   7.195   2.013   0.364
 7697TIP3   OH223035   2.110   2.474   6.541
 7697TIP3    H123036   2.057   2.549   6.567
 7697TIP3    H223037   2.198   2.510   6.528
 7698TIP3   OH223038   7.877   2.769   3.979
 7698TIP3    H123039   7.864   2.833   4.048
 7698TIP3    H223040   7.971   2.752   3.979
 7699TIP3   OH223041   7.175   1.322   0.725
 7699TIP3    H123042   7.186   1.260   0.653
 7699TIP3    H223043   7.200   1.274   0.803
 7700TIP3   OH223044   5.134   0.701   4.447
 7700TIP3    H123045   5.055   0.674   4.494
 7700TIP3    H223046   5.149   0.791   4.474
 7701TIP3   OH223047   8.292   4.048   1.358
 7701TIP3    H123048   8.211   4.040   1.307
 7701TIP3    H223049   8.361   4.024   1.295
 7702TIP3   OH223050   1.555   3.693   4.211
 7702TIP3    H123051   1.649   3.702   4.223
 7702TIP3    H223052   1.546   3.629   4.140
 7703TIP3   OH223053   6.442   7.169   6.064
 7703TIP3    H123054   6.418   7.108   6.133
 7703TIP3    H223055   6.532   7.195   6.084
 7704TIP3   OH223056   1.915   6.130   0.931
 7704TIP3    H123057   1.930   6.113   0.839
 7704TIP3    H223058   1.950   6.218   0.946
 7705TIP3   OH223059   2.059   5.051   4.515
 7705TIP3    H123060   2.137   5.001   4.536
 7705TIP3    H223061   1.989   4.985   4.512
 7706TIP3   OH223062   5.261   3.443   2.395
 7706TIP3    H123063   5.206   3.519   2.379
 7706TIP3    H223064   5.308   3.464   2.476
 7707TIP3   OH223065   4.799   3.955   3.287
 7707TIP3    H123066   4.716   3.970   3.242
 7707TIP3    H223067   4.849   3.898   3.228
 7708TIP3   OH223068   1.731   0.830   4.575
 7708TIP3    H123069   1.752   0.785   4.657
 7708TIP3    H223070   1.799   0.802   4.514
 7709TIP3   OH223071   6.426   7.212   1.086
 7709TIP3    H123072   6.522   7.211   1.088
 7709TIP3    H223073   6.403   7.155   1.013
 7710TIP3   OH223074   0.830   3.010   2.582
 7710TIP3    H123075   0.769   3.072   2.622
 7710TIP3    H223076   0.805   3.006   2.490
 7711TIP3   OH223077   5.865   3.618   6.155
 7711TIP3    H123078   5.839   3.537   6.111
 7711TIP3    H223079   5.866   3.595   6.248
 7712TIP3   OH223080   2.239   2.937   3.478
 7712TIP3    H123081   2.300   2.871   3.513
 7712TIP3    H223082   2.185   2.962   3.553
 7713TIP3   OH223083   0.035   2.696   0.173
 7713TIP3    H123084   0.062   2.788   0.171
 7713TIP3    H223085  -0.053   2.696   0.135
 7714TIP3   OH223086   1.892   2.703   2.399
 7714TIP3    H123087   1.982   2.727   2.378
 7714TIP3    H223088   1.900   2.628   2.459
 7715TIP3   OH223089   3.409   4.174   3.203
 7715TIP3    H123090   3.346   4.103   3.218
 7715TIP3    H223091   3.491   4.141   3.239
 7716TIP3   OH223092   2.751   0.138   5.349
 7716TIP3    H123093   2.672   0.174   5.390
 7716TIP3    H223094   2.767   0.195   5.275
 7717TIP3   OH223095   5.026   0.042   4.595
 7717TIP3    H123096   5.107   0.075   4.558
 7717TIP3    H223097   4.958   0.101   4.562
 7718TIP3   OH223098   5.823   0.773   0.713
 7718TIP3    H123099   5.852   0.780   0.622
 7718TIP3    H223100   5.752   0.708   0.711
 7719TIP3   OH223101   1.230   5.000   2.961
 7719TIP3    H123102   1.186   4.964   2.885
 7719TIP3    H223103   1.251   5.090   2.936
 7720TIP3   OH223104   2.802   3.318   3.434
 7720TIP3    H123105   2.735   3.279   3.377
 7720TIP3    H223106   2.761   3.322   3.520
 7721TIP3   OH223107   7.325   5.002   0.431
 7721TIP3    H123108   7.276   5.026   0.509
 7721TIP3    H223109   7.347   4.910   0.443
 7722TIP3   OH223110   0.919   4.300   0.079
 7722TIP3    H123111   0.946   4.212   0.106
 7722TIP3    H223112   0.964   4.313  -0.005
 7723TIP3   OH223113   2.836   1.789   5.070
 7723TIP3    H123114   2.801   1.856   5.011
 7723TIP3    H223115   2.760   1.755   5.117
 7724TIP3   OH223116   5.972   6.271   6.551
 7724TIP3    H123117   5.949   6.196   6.496
 7724TIP3    H223118   5.939   6.346   6.503
 7725TIP3   OH223119   3.383   6.653   6.192
 7725TIP3    H123120   3.318   6.685   6.255
 7725TIP3    H223121   3.442   6.727   6.180
 7726TIP3   OH223122   6.867   1.863   6.647
 7726TIP3    H123123   6.843   1.954   6.664
 7726TIP3    H223124   6.881   1.860   6.552
 7727TIP3   OH223125   4.063   3.783   3.991
 7727TIP3    H123126   4.066   3.875   4.015
 7727TIP3    H223127   4.104   3.737   4.064
 7728TIP3   OH223128   3.260   4.300   0.771
 7728TIP3    H123129   3.180   4.275   0.725
 7728TIP3    H223130   3.328   4.248   0.729
 7729TIP3   OH223131   5.358   4.476   6.024
 7729TIP3    H123132   5.437   4.489   5.972
 7729TIP3    H223133   5.286   4.499   5.965
 7730TIP3   OH223134   8.078   5.359   5.803
 7730TIP3    H123135   8.151   5.301   5.823
 7730TIP3    H223136   8.011   5.302   5.765
 7731TIP3   OH223137   0.659   7.151   6.204
 7731TIP3    H123138   0.738   7.164   6.257
 7731TIP3    H223139   0.686   7.090   6.135
 7732TIP3   OH223140   2.302   3.156   2.716
 7732TIP3    H123141   2.217   3.196   2.734
 7732TIP3    H223142   2.342   3.213   2.650
 7733TIP3   OH223143   5.205   6.093   2.286
 7733TIP3    H123144   5.277   6.103   2.348
 7733TIP3    H223145   5.242   6.121   2.202
 7734TIP3   OH223146   4.579   0.605   6.032
 7734TIP3    H123147   4.623   0.556   6.101
 7734TIP3    H223148   4.647   0.624   5.968
 7735TIP3   OH223149   4.510   4.893   0.915
 7735TIP3    H123150   4.427   4.873   0.872
 7735TIP3    H223151   4.556   4.809   0.918
 7736TIP3   OH223152   2.583   4.845   3.610
 7736TIP3    H123153   2.556   4.857   3.519
 7736TIP3    H223154   2.502   4.857   3.661
 7737TIP3   OH223155   7.513   1.364   4.397
 7737TIP3    H123156   7.484   1.406   4.316
 7737TIP3    H223157   7.609   1.360   4.389
 7738TIP3   OH223158   1.762   0.859   1.410
 7738TIP3    H123159   1.834   0.857   1.473
 7738TIP3    H223160   1.685   0.831   1.459
 7739TIP3   OH223161   3.851   3.924   2.083
 7739TIP3    H123162   3.756   3.929   2.075
 7739TIP3    H223163   3.866   3.848   2.140
 7740TIP3   OH223164   6.369   5.724   4.437
 7740TIP3    H123165   6.335   5.724   4.347
 7740TIP3    H223166   6.443   5.784   4.435
 7741TIP3   OH223167   6.766   2.314   1.466
 7741TIP3    H123168   6.835   2.363   1.421
 7741TIP3    H223169   6.813   2.253   1.523
 7742TIP3   OH223170   8.241   0.245   1.630
 7742TIP3    H123171   8.203   0.213   1.712
 7742TIP3    H223172   8.306   0.180   1.606
 7743TIP3   OH223173   7.627   5.784   4.330
 7743TIP3    H123174   7.682   5.742   4.263
 7743TIP3    H223175   7.546   5.733   4.330
 7744TIP3   OH223176   5.101   5.025   1.542
 7744TIP3    H123177   5.149   5.100   1.576
 7744TIP3    H223178   5.169   4.962   1.516
 7745TIP3   OH223179   7.210   3.704   6.727
 7745TIP3    H123180   7.242   3.747   6.648
 7745TIP3    H223181   7.248   3.616   6.724
 7746TIP3   OH223182   5.770   4.687   0.321
 7746TIP3    H123183   5.675   4.697   0.310
 7746TIP3    H223184   5.806   4.704   0.235
 7747TIP3   OH223185   4.589   2.924   0.899
 7747TIP3    H123186   4.563   2.912   0.990
 7747TIP3    H223187   4.628   2.840   0.875
 7748TIP3   OH223188   6.194   2.429   5.285
 7748TIP3    H123189   6.148   2.431   5.201
 7748TIP3    H223190   6.145   2.366   5.338
 7749TIP3   OH223191   3.024   1.258   3.193
 7749TIP3    H123192   2.987   1.345   3.206
 7749TIP3    H223193   3.102   1.273   3.139
 7750TIP3   OH223194   7.984   0.982   3.730
 7750TIP3    H123195   7.916   0.915   3.732
 7750TIP3    H223196   7.998   0.999   3.636
 7751TIP3   OH223197   0.560   1.106   0.219
 7751TIP3    H123198   0.501   1.149   0.157
 7751TIP3    H223199   0.501   1.058   0.278
 7752TIP3   OH223200   2.416   5.047   4.028
 7752TIP3    H123201   2.361   5.082   3.958
 7752TIP3    H223202   2.410   4.952   4.019
 7753TIP3   OH223203   2.575   0.942   1.108
 7753TIP3    H123204   2.610   0.894   1.033
 7753TIP3    H223205   2.612   1.030   1.099
 7754TIP3   OH223206   1.846   7.740   0.173
 7754TIP3    H123207   1.789   7.693   0.111
 7754TIP3    H223208   1.922   7.767   0.121
 7755TIP3   OH223209   5.388   3.779   6.675
 7755TIP3    H123210   5.417   3.807   6.762
 7755TIP3    H223211   5.326   3.846   6.648
 7756TIP3   OH223212   0.837   4.570   5.344
 7756TIP3    H123213   0.805   4.509   5.411
 7756TIP3    H223214   0.762   4.627   5.326
 7757TIP3   OH223215   2.007   7.239   4.659
 7757TIP3    H123216   1.942   7.182   4.700
 7757TIP3    H223217   2.032   7.300   4.727
 7758TIP3   OH223218   5.318   2.812   5.400
 7758TIP3    H123219   5.361   2.782   5.320
 7758TIP3    H223220   5.311   2.907   5.390
 7759TIP3   OH223221   4.451   7.338   1.195
 7759TIP3    H123222   4.430   7.395   1.121
 7759TIP3    H223223   4.390   7.364   1.264
 7760TIP3   OH223224   0.378   3.384   3.114
 7760TIP3    H123225   0.299   3.381   3.169
 7760TIP3    H223226   0.366   3.312   3.052
 7761TIP3   OH223227   0.873   3.862   4.950
 7761TIP3    H123228   0.896   3.862   5.043
 7761TIP3    H223229   0.935   3.924   4.910
 7762TIP3   OH223230   5.878   2.510   6.037
 7762TIP3    H123231   5.829   2.490   5.958
 7762TIP3    H223232   5.931   2.587   6.014
 7763TIP3   OH223233   3.904   1.583   5.005
 7763TIP3    H123234   3.969   1.513   5.006
 7763TIP3    H223235   3.872   1.587   5.095
 7764TIP3   OH223236   6.282   2.645   6.389
 7764TIP3    H123237   6.316   2.605   6.470
 7764TIP3    H223238   6.292   2.577   6.323
 7765TIP3   OH223239   0.030   5.562   0.281
 7765TIP3    H123240   0.068   5.523   0.360
 7765TIP3    H223241   0.004   5.650   0.308
 7766TIP3   OH223242   0.582   2.507   4.251
 7766TIP3    H123243   0.550   2.426   4.291
 7766TIP3    H223244   0.503   2.556   4.227
 7767TIP3   OH223245   4.729   0.699   5.273
 7767TIP3    H123246   4.811   0.716   5.226
 7767TIP3    H223247   4.717   0.777   5.328
 7768TIP3   OH223248   3.197   7.365   3.901
 7768TIP3    H123249   3.114   7.335   3.937
 7768TIP3    H223250   3.175   7.444   3.851
 7769TIP3   OH223251   4.484   0.603   1.762
 7769TIP3    H123252   4.522   0.571   1.844
 7769TIP3    H223253   4.433   0.679   1.788
 7770TIP3   OH223254   2.390   7.529   0.269
 7770TIP3    H123255   2.445   7.601   0.300
 7770TIP3    H223256   2.303   7.569   0.258
 7771TIP3   OH223257   4.974   4.867   0.381
 7771TIP3    H123258   4.885   4.836   0.367
 7771TIP3    H223259   4.966   4.933   0.450
 7772TIP3   OH223260   3.281   6.123   1.083
 7772TIP3    H123261   3.263   6.029   1.091
 7772TIP3    H223262   3.334   6.130   1.003
 7773TIP3   OH223263   4.193   1.364   6.282
 7773TIP3    H123264   4.191   1.444   6.334
 7773TIP3    H223265   4.270   1.317   6.313
 7774TIP3   OH223266   6.014   3.749   5.407
 7774TIP3    H123267   5.975   3.679   5.354
 7774TIP3    H223268   6.107   3.746   5.387
 7775TIP3   OH223269   4.793   7.767   2.972
 7775TIP3    H123270   4.857   7.838   2.979
 7775TIP3    H223271   4.824   7.701   3.034
 7776TIP3   OH223272   7.227   3.623   3.159
 7776TIP3    H123273   7.264   3.623   3.071
 7776TIP3    H223274   7.303   3.618   3.217
 7777TIP3   OH223275   2.296   3.891   1.482
 7777TIP3    H123276   2.217   3.852   1.519
 7777TIP3    H223277   2.356   3.900   1.556
 7778TIP3   OH223278   1.745   4.527   5.532
 7778TIP3    H123279   1.779   4.594   5.591
 7778TIP3    H223280   1.712   4.459   5.589
 7779TIP3   OH223281   8.289   5.781   5.943
 7779TIP3    H123282   8.292   5.872   5.972
 7779TIP3    H223283   8.356   5.774   5.875
 7780TIP3   OH223284   3.778   5.100   0.883
 7780TIP3    H123285   3.725   5.031   0.843
 7780TIP3    H223286   3.849   5.114   0.821
 7781TIP3   OH223287   8.106   6.548   0.698
 7781TIP3    H123288   8.137   6.584   0.615
 7781TIP3    H223289   8.097   6.454   0.681
 7782TIP3   OH223290   4.619   6.500   1.987
 7782TIP3    H123291   4.576   6.528   1.906
 7782TIP3    H223292   4.693   6.559   1.997
 7783TIP3   OH223293   8.238   4.526   2.591
 7783TIP3    H123294   8.163   4.531   2.649
 7783TIP3    H223295   8.215   4.458   2.527
 7784TIP3   OH223296   8.134   1.277   5.102
 7784TIP3    H123297   8.154   1.256   5.011
 7784TIP3    H223298   8.068   1.346   5.097
 7785TIP3   OH223299   4.323   4.013   1.928
 7785TIP3    H123300   4.403   3.982   1.885
 7785TIP3    H223301   4.346   4.017   2.021
 7786TIP3   OH223302   5.168   7.600   6.616
 7786TIP3    H123303   5.077   7.586   6.591
 7786TIP3    H223304   5.214   7.616   6.533
 7787TIP3   OH223305   5.738   4.730   5.005
 7787TIP3    H123306   5.713   4.815   5.043
 7787TIP3    H223307   5.746   4.748   4.911
 7788TIP3   OH223308   2.176   7.673   0.190
 7788TIP3    H123309   2.131   7.690   0.273
 7788TIP3    H223310   2.107   7.647   0.130
 7789TIP3   OH223311   4.080   4.467   4.666
 7789TIP3    H123312   4.099   4.531   4.598
 7789TIP3    H223313   3.995   4.493   4.701
 7790TIP3   OH223314   2.891   3.128   2.227
 7790TIP3    H123315   2.883   3.189   2.300
 7790TIP3    H223316   2.889   3.041   2.268
 7791TIP3   OH223317   3.420   2.116   3.331
 7791TIP3    H123318   3.467   2.190   3.369
 7791TIP3    H223319   3.488   2.049   3.318
 7792TIP3   OH223320   1.095   6.971   0.486
 7792TIP3    H123321   1.053   6.889   0.509
 7792TIP3    H223322   1.029   7.019   0.436
 7793TIP3   OH223323   0.409   3.429   5.749
 7793TIP3    H123324   0.366   3.357   5.794
 7793TIP3    H223325   0.348   3.455   5.681
 7794TIP3   OH223326   2.307   7.559   1.010
 7794TIP3    H123327   2.351   7.493   0.956
 7794TIP3    H223328   2.255   7.508   1.072
 7795TIP3   OH223329   3.395   5.670   5.510
 7795TIP3    H123330   3.409   5.575   5.504
 7795TIP3    H223331   3.301   5.681   5.499
 7796TIP3   OH223332   7.007   4.901   4.590
 7796TIP3    H123333   6.955   4.894   4.671
 7796TIP3    H223334   6.967   4.838   4.531
 7797TIP3   OH223335   3.467   2.329   6.539
 7797TIP3    H123336   3.522   2.293   6.608
 7797TIP3    H223337   3.381   2.339   6.579
 7798TIP3   OH223338   5.582   3.645   0.030
 7798TIP3    H123339   5.609   3.663  -0.060
 7798TIP3    H223340   5.662   3.657   0.082
 7799TIP3   OH223341   7.133   3.542   5.468
 7799TIP3    H123342   7.185   3.592   5.405
 7799TIP3    H223343   7.182   3.551   5.550
 7800TIP3   OH223344   0.125   6.341   0.034
 7800TIP3    H123345   0.042   6.387   0.047
 7800TIP3    H223346   0.163   6.379  -0.045
 7801TIP3   OH223347   6.685   0.928   2.252
 7801TIP3    H123348   6.625   0.930   2.327
 7801TIP3    H223349   6.759   0.876   2.282
 7802TIP3   OH223350   3.246   0.813   4.951
 7802TIP3    H123351   3.255   0.830   5.044
 7802TIP3    H223352   3.176   0.872   4.923
 7803TIP3   OH223353   3.225   6.738   2.126
 7803TIP3    H123354   3.143   6.747   2.078
 7803TIP3    H223355   3.203   6.760   2.216
 7804TIP3   OH223356   6.207   3.113   0.032
 7804TIP3    H123357   6.205   3.209   0.036
 7804TIP3    H223358   6.166   3.085   0.113
 7805TIP3   OH223359   6.449   4.246   2.804
 7805TIP3    H123360   6.543   4.261   2.792
 7805TIP3    H223361   6.409   4.288   2.727
 7806TIP3   OH223362   1.027   1.448   2.924
 7806TIP3    H123363   0.934   1.450   2.903
 7806TIP3    H223364   1.039   1.521   2.985
 7807TIP3   OH223365   1.044   4.202   4.776
 7807TIP3    H123366   1.011   4.275   4.724
 7807TIP3    H223367   1.070   4.136   4.712
 7808TIP3   OH223368   3.558   1.082   3.979
 7808TIP3    H123369   3.470   1.053   4.004
 7808TIP3    H223370   3.551   1.100   3.885
 7809TIP3   OH223371   2.099   4.944   6.716
 7809TIP3    H123372   2.128   5.019   6.768
 7809TIP3    H223373   2.177   4.889   6.708
 7810TIP3   OH223374   1.816   0.026   4.268
 7810TIP3    H123375   1.811   0.091   4.198
 7810TIP3    H223376   1.887   0.056   4.324
 7811TIP3   OH223377   6.945   5.745   5.250
 7811TIP3    H123378   6.999   5.707   5.180
 7811TIP3    H223379   7.008   5.780   5.312
 7812TIP3   OH223380   6.090   1.741   4.958
 7812TIP3    H123381   6.136   1.727   5.041
 7812TIP3    H223382   6.160   1.751   4.894
 7813TIP3   OH223383   5.300   5.038   4.275
 7813TIP3    H123384   5.214   5.020   4.237
 7813TIP3    H223385   5.281   5.068   4.364
 7814TIP3   OH223386   2.832   3.998   1.403
 7814TIP3    H123387   2.905   4.022   1.346
 7814TIP3    H223388   2.767   4.068   1.389
 7815TIP3   OH223389   6.159   3.865   5.875
 7815TIP3    H123390   6.159   3.877   5.780
 7815TIP3    H223391   6.122   3.777   5.888
 7816TIP3   OH223392   2.962   6.271   2.994
 7816TIP3    H123393   3.010   6.331   2.937
 7816TIP3    H223394   2.986   6.298   3.082
 7817TIP3   OH223395   5.014   0.298   2.841
 7817TIP3    H123396   4.933   0.249   2.827
 7817TIP3    H223397   4.988   0.372   2.896
 7818TIP3   OH223398   4.997   7.674   1.810
 7818TIP3    H123399   5.000   7.580   1.792
 7818TIP3    H223400   5.084   7.706   1.784
 7819TIP3   OH223401   1.991   5.510   0.366
 7819TIP3    H123402   1.919   5.550   0.317
 7819TIP3    H223403   2.062   5.503   0.302
 7820TIP3   OH223404   2.787   5.424   4.811
 7820TIP3    H123405   2.782   5.385   4.723
 7820TIP3    H223406   2.784   5.348   4.870
 7821TIP3   OH223407   8.243   0.097   2.618
 7821TIP3    H123408   8.165   0.145   2.592
 7821TIP3    H223409   8.212   0.034   2.682
 7822TIP3   OH223410   5.290   4.085   0.502
 7822TIP3    H123411   5.238   4.020   0.454
 7822TIP3    H223412   5.334   4.035   0.570
 7823TIP3   OH223413   1.650   2.587   0.826
 7823TIP3    H123414   1.579   2.609   0.766
 7823TIP3    H223415   1.727   2.578   0.769
 7824TIP3   OH223416   5.807   3.688   3.069
 7824TIP3    H123417   5.879   3.750   3.061
 7824TIP3    H223418   5.796   3.676   3.164
 7825TIP3   OH223419   8.230   4.799   3.438
 7825TIP3    H123420   8.204   4.753   3.518
 7825TIP3    H223421   8.314   4.760   3.414
 7826TIP3   OH223422   0.870   6.298   3.123
 7826TIP3    H123423   0.810   6.248   3.179
 7826TIP3    H223424   0.813   6.348   3.065
 7827TIP3   OH223425   6.734   6.756   2.986
 7827TIP3    H123426   6.682   6.705   2.924
 7827TIP3    H223427   6.674   6.824   3.018
 7828TIP3   OH223428   7.550   6.372   3.137
 7828TIP3    H123429   7.546   6.277   3.140
 7828TIP3    H223430   7.459   6.399   3.124
 7829TIP3   OH223431   6.540   5.737   6.002
 7829TIP3    H123432   6.507   5.825   6.021
 7829TIP3    H223433   6.543   5.732   5.907
 7830TIP3   OH223434   6.541   4.112   3.867
 7830TIP3    H123435   6.487   4.035   3.849
 7830TIP3    H223436   6.490   4.164   3.928
 7831TIP3   OH223437   3.101   1.050   6.358
 7831TIP3    H123438   3.187   1.045   6.400
 7831TIP3    H223439   3.064   0.963   6.369
 7832TIP3   OH223440   7.541   6.969   5.698
 7832TIP3    H123441   7.616   7.025   5.681
 7832TIP3    H223442   7.483   7.023   5.753
 7833TIP3   OH223443   5.980   5.146   6.655
 7833TIP3    H123444   5.978   5.110   6.566
 7833TIP3    H223445   6.029   5.080   6.705
 7834TIP3   OH223446   0.799   2.306   4.683
 7834TIP3    H123447   0.839   2.317   4.597
 7834TIP3    H223448   0.863   2.254   4.732
 7835TIP3   OH223449   5.596   5.607   0.077
 7835TIP3    H123450   5.583   5.557  -0.003
 7835TIP3    H223451   5.510   5.606   0.120
 7836TIP3   OH223452   3.826   7.344   2.741
 7836TIP3    H123453   3.773   7.349   2.661
 7836TIP3    H223454   3.888   7.417   2.733
 7837TIP3   OH223455   5.021   3.641   4.569
 7837TIP3    H123456   5.011   3.709   4.635
 7837TIP3    H223457   4.971   3.673   4.494
 7838TIP3   OH223458   2.543   2.285   1.442
 7838TIP3    H123459   2.468   2.343   1.427
 7838TIP3    H223460   2.549   2.278   1.537
 7839TIP3   OH223461   5.419   7.268   4.776
 7839TIP3    H123462   5.485   7.233   4.835
 7839TIP3    H223463   5.439   7.362   4.771
 7840TIP3   OH223464   1.832   4.908   6.762
 7840TIP3    H123465   1.859   4.993   6.797
 7840TIP3    H223466   1.912   4.872   6.724
 7841TIP3   OH223467   4.509   5.778   4.447
 7841TIP3    H123468   4.499   5.809   4.357
 7841TIP3    H223469   4.428   5.803   4.491
 7842TIP3   OH223470   3.181   6.016   1.999
 7842TIP3    H123471   3.258   6.029   2.053
 7842TIP3    H223472   3.215   6.007   1.910
 7843TIP3   OH223473   6.825   2.898   4.672
 7843TIP3    H123474   6.764   2.851   4.728
 7843TIP3    H223475   6.851   2.834   4.606
 7844TIP3   OH223476   6.036   6.840   6.210
 7844TIP3    H123477   5.990   6.914   6.250
 7844TIP3    H223478   5.996   6.762   6.249
 7845TIP3   OH223479   5.968   0.417   2.292
 7845TIP3    H123480   6.000   0.408   2.203
 7845TIP3    H223481   5.944   0.509   2.300
 7846TIP3   OH223482   2.546   6.036   6.033
 7846TIP3    H123483   2.611   6.058   5.966
 7846TIP3    H223484   2.490   6.114   6.038
 7847TIP3   OH223485   5.157   2.288   4.002
 7847TIP3    H123486   5.234   2.323   3.959
 7847TIP3    H223487   5.109   2.365   4.033
 7848TIP3   OH223488   3.750   6.276   2.181
 7848TIP3    H123489   3.750   6.181   2.170
 7848TIP3    H223490   3.676   6.306   2.129
 7849TIP3   OH223491   0.336   1.390   0.738
 7849TIP3    H123492   0.432   1.382   0.736
 7849TIP3    H223493   0.313   1.373   0.830
 7850TIP3   OH223494   6.882   1.352   0.471
 7850TIP3    H123495   6.817   1.325   0.536
 7850TIP3    H223496   6.859   1.305   0.392
 7851TIP3   OH223497   1.853   7.042   1.337
 7851TIP3    H123498   1.802   7.053   1.417
 7851TIP3    H223499   1.856   7.129   1.297
 7852TIP3   OH223500   1.319   6.932   2.620
 7852TIP3    H123501   1.358   7.009   2.661
 7852TIP3    H223502   1.382   6.862   2.635
 7853TIP3   OH223503   7.346   4.157   6.102
 7853TIP3    H123504   7.374   4.231   6.049
 7853TIP3    H223505   7.294   4.196   6.173
 7854TIP3   OH223506   4.213   0.807   1.010
 7854TIP3    H123507   4.140   0.810   0.948
 7854TIP3    H223508   4.281   0.861   0.970
 7855TIP3   OH223509   6.099   7.557   6.051
 7855TIP3    H123510   6.075   7.599   6.134
 7855TIP3    H223511   6.149   7.480   6.078
 7856TIP3   OH223512   1.719   2.640   2.185
 7856TIP3    H123513   1.790   2.664   2.245
 7856TIP3    H223514   1.763   2.596   2.112
 7857TIP3   OH223515   5.017   3.256   0.439
 7857TIP3    H123516   5.029   3.223   0.350
 7857TIP3    H223517   4.926   3.236   0.460
 7858TIP3   OH223518   7.841   0.790   5.671
 7858TIP3    H123519   7.931   0.762   5.657
 7858TIP3    H223520   7.788   0.713   5.647
 7859TIP3   OH223521   6.886   3.142   4.190
 7859TIP3    H123522   6.946   3.132   4.264
 7859TIP3    H223523   6.830   3.064   4.193
 7860TIP3   OH223524   7.365   1.781   5.763
 7860TIP3    H123525   7.273   1.755   5.771
 7860TIP3    H223526   7.373   1.861   5.814
 7861TIP3   OH223527   7.958   3.187   2.016
 7861TIP3    H123528   7.963   3.149   2.104
 7861TIP3    H223529   8.043   3.228   2.002
 7862TIP3   OH223530   7.620   5.219   5.884
 7862TIP3    H123531   7.566   5.283   5.837
 7862TIP3    H223532   7.569   5.138   5.881
 7863TIP3   OH223533   3.479   6.554   1.001
 7863TIP3    H123534   3.394   6.511   1.007
 7863TIP3    H223535   3.522   6.511   0.927
 7864TIP3   OH223536   5.896   6.937   2.719
 7864TIP3    H123537   5.819   6.954   2.774
 7864TIP3    H223538   5.897   7.009   2.657
 7865TIP3   OH223539   8.041   0.592   1.161
 7865TIP3    H123540   7.946   0.604   1.168
 7865TIP3    H223541   8.073   0.601   1.251
 7866TIP3   OH223542   0.868   2.175   3.338
 7866TIP3    H123543   0.876   2.133   3.424
 7866TIP3    H223544   0.794   2.130   3.296
 7867TIP3   OH223545   0.756   6.703   1.204
 7867TIP3    H123546   0.704   6.689   1.284
 7867TIP3    H223547   0.691   6.709   1.134
 7868TIP3   OH223548   2.133   2.661   0.722
 7868TIP3    H123549   2.123   2.752   0.696
 7868TIP3    H223550   2.149   2.664   0.816
 7869TIP3   OH223551   0.226   7.415   4.656
 7869TIP3    H123552   0.131   7.404   4.647
 7869TIP3    H223553   0.239   7.509   4.664
 7870TIP3   OH223554   0.952   0.467   5.004
 7870TIP3    H123555   0.979   0.521   4.929
 7870TIP3    H223556   0.969   0.377   4.977
 7871TIP3   OH223557   1.418   2.674   3.289
 7871TIP3    H123558   1.501   2.630   3.273
 7871TIP3    H223559   1.435   2.766   3.267
 7872TIP3   OH223560   1.743   7.460   2.723
 7872TIP3    H123561   1.688   7.439   2.799
 7872TIP3    H223562   1.719   7.550   2.701
 7873TIP3   OH223563   7.379   0.362   4.550
 7873TIP3    H123564   7.324   0.349   4.473
 7873TIP3    H223565   7.333   0.315   4.620
 7874TIP3   OH223566   2.655   1.707   0.399
 7874TIP3    H123567   2.560   1.706   0.405
 7874TIP3    H223568   2.679   1.618   0.374
 7875TIP3   OH223569   5.178   4.746   6.075
 7875TIP3    H123570   5.085   4.743   6.054
 7875TIP3    H223571   5.206   4.655   6.071
 7876TIP3   OH223572   3.051   0.506   4.494
 7876TIP3    H123573   3.135   0.495   4.451
 7876TIP3    H223574   3.050   0.597   4.523
 7877TIP3   OH223575   3.264   1.957   5.716
 7877TIP3    H123576   3.356   1.941   5.734
 7877TIP3    H223577   3.238   1.885   5.658
 7878TIP3   OH223578   6.268   7.680   1.395
 7878TIP3    H123579   6.245   7.698   1.486
 7878TIP3    H223580   6.187   7.649   1.355
 7879TIP3   OH223581   3.875   6.016   2.119
 7879TIP3    H123582   3.962   6.055   2.118
 7879TIP3    H223583   3.871   5.968   2.202
 7880TIP3   OH223584   0.889   5.840   3.876
 7880TIP3    H123585   0.837   5.823   3.798
 7880TIP3    H223586   0.980   5.827   3.848
 7881TIP3   OH223587   4.769   3.707   6.696
 7881TIP3    H123588   4.759   3.701   6.791
 7881TIP3    H223589   4.798   3.619   6.670
 7882TIP3   OH223590   5.082   6.123   1.579
 7882TIP3    H123591   4.987   6.137   1.582
 7882TIP3    H223592   5.099   6.091   1.490
 7883TIP3   OH223593   3.460   6.548   0.263
 7883TIP3    H123594   3.390   6.486   0.280
 7883TIP3    H223595   3.541   6.497   0.274
 7884TIP3   OH223596   0.772   3.982   4.517
 7884TIP3    H123597   0.833   4.050   4.488
 7884TIP3    H223598   0.768   3.921   4.443
 7885TIP3   OH223599   1.138   7.026   3.308
 7885TIP3    H123600   1.124   7.009   3.214
 7885TIP3    H223601   1.177   7.113   3.311
 7886TIP3   OH223602   1.819   5.782   3.478
 7886TIP3    H123603   1.903   5.749   3.510
 7886TIP3    H223604   1.812   5.870   3.515
 7887TIP3   OH223605   2.268   6.867   0.068
 7887TIP3    H123606   2.195   6.919   0.036
 7887TIP3    H223607   2.330   6.932   0.102
 7888TIP3   OH223608   6.526   0.222   2.752
 7888TIP3    H123609   6.527   0.309   2.792
 7888TIP3    H223610   6.465   0.172   2.805
 7889TIP3   OH223611   7.832   2.393   2.855
 7889TIP3    H123612   7.913   2.444   2.852
 7889TIP3    H223613   7.841   2.338   2.933
 7890TIP3   OH223614   4.369   4.711   1.632
 7890TIP3    H123615   4.334   4.758   1.556
 7890TIP3    H223616   4.443   4.763   1.661
 7891TIP3   OH223617   2.004   4.346   0.157
 7891TIP3    H123618   2.070   4.406   0.193
 7891TIP3    H223619   2.043   4.259   0.168
 7892TIP3   OH223620   3.630   6.334   1.834
 7892TIP3    H123621   3.652   6.251   1.877
 7892TIP3    H223622   3.542   6.318   1.798
 7893TIP3   OH223623   2.889   5.039   1.783
 7893TIP3    H123624   2.963   5.098   1.799
 7893TIP3    H223625   2.853   5.068   1.699
 7894TIP3   OH223626   4.163   5.808   5.197
 7894TIP3    H123627   4.139   5.723   5.161
 7894TIP3    H223628   4.235   5.789   5.257
 7895TIP3   OH223629   3.527   2.949   6.233
 7895TIP3    H123630   3.534   2.943   6.138
 7895TIP3    H223631   3.462   3.018   6.248
 7896TIP3   OH223632   2.559   0.809   4.230
 7896TIP3    H123633   2.517   0.892   4.207
 7896TIP3    H223634   2.539   0.797   4.322
 7897TIP3   OH223635   8.005   3.934   0.222
 7897TIP3    H123636   8.070   3.989   0.178
 7897TIP3    H223637   7.924   3.985   0.219
 7898TIP3   OH223638   4.606   1.812   5.978
 7898TIP3    H123639   4.636   1.824   6.068
 7898TIP3    H223640   4.680   1.773   5.933
 7899TIP3   OH223641   1.089   1.882   4.229
 7899TIP3    H123642   1.175   1.918   4.210
 7899TIP3    H223643   1.083   1.883   4.324
 7900TIP3   OH223644   7.430   5.203   3.020
 7900TIP3    H123645   7.406   5.148   2.946
 7900TIP3    H223646   7.351   5.252   3.040
 7901TIP3   OH223647   5.639   7.813   1.907
 7901TIP3    H123648   5.598   7.870   1.972
 7901TIP3    H223649   5.730   7.841   1.905
 7902TIP3   OH223650   6.741   2.725   0.990
 7902TIP3    H123651   6.706   2.792   0.931
 7902TIP3    H223652   6.788   2.775   1.056
 7903TIP3   OH223653   3.508   6.418   4.947
 7903TIP3    H123654   3.440   6.390   5.008
 7903TIP3    H223655   3.464   6.425   4.863
 7904TIP3   OH223656   5.619   6.506   2.358
 7904TIP3    H123657   5.599   6.593   2.394
 7904TIP3    H223658   5.714   6.508   2.346
 7905TIP3   OH223659   6.099   6.756   1.681
 7905TIP3    H123660   6.139   6.818   1.619
 7905TIP3    H223661   6.155   6.759   1.758
 7906TIP3   OH223662   0.023   7.386   5.041
 7906TIP3    H123663   0.021   7.467   4.989
 7906TIP3    H223664   0.012   7.415   5.131
 7907TIP3   OH223665   6.137   5.097   1.300
 7907TIP3    H123666   6.101   5.049   1.225
 7907TIP3    H223667   6.136   5.033   1.372
 7908TIP3   OH223668   0.550   1.031   4.798
 7908TIP3    H123669   0.524   1.122   4.812
 7908TIP3    H223670   0.468   0.985   4.779
 7909TIP3   OH223671   5.088   4.882   4.160
 7909TIP3    H123672   5.124   4.793   4.169
 7909TIP3    H223673   5.082   4.896   4.066
 7910TIP3   OH223674   3.515   5.870   1.799
 7910TIP3    H123675   3.546   5.780   1.806
 7910TIP3    H223676   3.587   5.923   1.832
 7911TIP3   OH223677   7.067   7.112   5.086
 7911TIP3    H123678   7.099   7.197   5.055
 7911TIP3    H223679   7.006   7.084   5.018
 7912TIP3   OH223680   6.465   2.188   5.571
 7912TIP3    H123681   6.474   2.256   5.504
 7912TIP3    H223682   6.458   2.236   5.653
 7913TIP3   OH223683   6.381   1.100   6.100
 7913TIP3    H123684   6.335   1.184   6.101
 7913TIP3    H223685   6.338   1.048   6.168
 7914TIP3   OH223686   4.044   6.014   3.731
 7914TIP3    H123687   4.116   6.025   3.669
 7914TIP3    H223688   4.030   5.920   3.736
 7915TIP3   OH223689   2.747   0.793   5.427
 7915TIP3    H123690   2.712   0.756   5.346
 7915TIP3    H223691   2.743   0.720   5.490
 7916TIP3   OH223692   5.966   5.475   1.104
 7916TIP3    H123693   5.960   5.395   1.052
 7916TIP3    H223694   6.032   5.455   1.170
 7917TIP3   OH223695   7.699   3.708   0.681
 7917TIP3    H123696   7.740   3.734   0.598
 7917TIP3    H223697   7.678   3.791   0.724
 7918TIP3   OH223698   3.777   2.406   4.611
 7918TIP3    H123699   3.682   2.418   4.616
 7918TIP3    H223700   3.788   2.311   4.604
 7919TIP3   OH223701   5.019   0.880   5.646
 7919TIP3    H123702   5.087   0.845   5.587
 7919TIP3    H223703   5.065   0.945   5.699
 7920TIP3   OH223704   8.101   7.506   1.585
 7920TIP3    H123705   8.060   7.504   1.499
 7920TIP3    H223706   8.054   7.573   1.633
 7921TIP3   OH223707   2.582   1.900   6.714
 7921TIP3    H123708   2.595   1.841   6.788
 7921TIP3    H223709   2.632   1.861   6.643
 7922TIP3   OH223710   4.966   4.155   2.678
 7922TIP3    H123711   5.017   4.231   2.651
 7922TIP3    H223712   4.958   4.101   2.599
 7923TIP3   OH223713   2.696   7.236   4.185
 7923TIP3    H123714   2.732   7.283   4.261
 7923TIP3    H223715   2.626   7.293   4.153
 7924TIP3   OH223716   5.534   3.150   0.133
 7924TIP3    H123717   5.530   3.243   0.156
 7924TIP3    H223718   5.484   3.144   0.052
 7925TIP3   OH223719   5.053   6.808   5.830
 7925TIP3    H123720   5.127   6.867   5.839
 7925TIP3    H223721   5.029   6.813   5.738
 7926TIP3   OH223722   5.196   5.811   2.606
 7926TIP3    H123723   5.229   5.901   2.594
 7926TIP3    H223724   5.250   5.775   2.675
 7927TIP3   OH223725   3.348   5.233   1.838
 7927TIP3    H123726   3.339   5.138   1.830
 7927TIP3    H223727   3.391   5.246   1.922
 7928TIP3   OH223728   6.304   4.430   4.756
 7928TIP3    H123729   6.382   4.402   4.708
 7928TIP3    H223730   6.237   4.441   4.688
 7929TIP3   OH223731   1.883   6.464   4.410
 7929TIP3    H123732   1.969   6.470   4.452
 7929TIP3    H223733   1.894   6.396   4.343
 7930TIP3   OH223734   2.108   2.153   2.703
 7930TIP3    H123735   2.031   2.106   2.734
 7930TIP3    H223736   2.117   2.228   2.761
 7931TIP3   OH223737   2.967   3.236   0.395
 7931TIP3    H123738   3.033   3.198   0.337
 7931TIP3    H223739   3.002   3.222   0.483
 7932TIP3   OH223740   2.570   1.365   0.926
 7932TIP3    H123741   2.481   1.330   0.922
 7932TIP3    H223742   2.598   1.369   0.835
 7933TIP3   OH223743   5.841   4.898   1.286
 7933TIP3    H123744   5.903   4.893   1.358
 7933TIP3    H223745   5.800   4.812   1.282
 7934TIP3   OH223746   6.476   5.157   2.470
 7934TIP3    H123747   6.506   5.101   2.541
 7934TIP3    H223748   6.383   5.138   2.461
 7935TIP3   OH223749   3.485   1.740   0.684
 7935TIP3    H123750   3.524   1.698   0.607
 7935TIP3    H223751   3.391   1.729   0.673
 7936TIP3   OH223752   4.682   7.740   0.070
 7936TIP3    H123753   4.656   7.750   0.162
 7936TIP3    H223754   4.743   7.811   0.054
 7937TIP3   OH223755   7.093   1.483   0.225
 7937TIP3    H123756   6.999   1.474   0.245
 7937TIP3    H223757   7.121   1.395   0.201
 7938TIP3   OH223758   5.995   2.910   3.049
 7938TIP3    H123759   5.982   2.834   3.107
 7938TIP3    H223760   5.937   2.977   3.084
 7939TIP3   OH223761   0.982   4.742   1.977
 7939TIP3    H123762   0.899   4.702   2.003
 7939TIP3    H223763   1.049   4.688   2.021
 7940TIP3   OH223764   6.656   1.195   6.194
 7940TIP3    H123765   6.638   1.281   6.157
 7940TIP3    H223766   6.570   1.158   6.213
 7941TIP3   OH223767   3.035   6.659   6.602
 7941TIP3    H123768   3.044   6.640   6.508
 7941TIP3    H223769   3.070   6.748   6.611
 7942TIP3   OH223770   4.138   3.439   6.487
 7942TIP3    H123771   4.225   3.437   6.447
 7942TIP3    H223772   4.150   3.400   6.573
 7943TIP3   OH223773   0.072   6.074   1.611
 7943TIP3    H123774   0.136   6.137   1.644
 7943TIP3    H223775   0.066   6.094   1.517
 7944TIP3   OH223776   1.989   3.540   5.003
 7944TIP3    H123777   2.028   3.469   5.054
 7944TIP3    H223778   2.030   3.619   5.039
 7945TIP3   OH223779   4.127   6.886   1.494
 7945TIP3    H123780   4.180   6.949   1.445
 7945TIP3    H223781   4.079   6.837   1.427
 7946TIP3   OH223782   4.370   7.175   3.566
 7946TIP3    H123783   4.435   7.135   3.507
 7946TIP3    H223784   4.334   7.101   3.615
 7947TIP3   OH223785   7.178   6.231   6.351
 7947TIP3    H123786   7.161   6.149   6.304
 7947TIP3    H223787   7.145   6.215   6.439
 7948TIP3   OH223788   4.305   7.152   5.339
 7948TIP3    H123789   4.273   7.086   5.277
 7948TIP3    H223790   4.310   7.232   5.287
 7949TIP3   OH223791   2.583   5.012   2.817
 7949TIP3    H123792   2.536   5.063   2.752
 7949TIP3    H223793   2.540   5.034   2.900
 7950TIP3   OH223794   0.935   5.284   2.030
 7950TIP3    H123795   0.896   5.245   1.952
 7950TIP3    H223796   1.030   5.278   2.016
 7951TIP3   OH223797   6.457   5.912   0.578
 7951TIP3    H123798   6.401   5.987   0.598
 7951TIP3    H223799   6.407   5.861   0.514
 7952TIP3   OH223800   5.782   2.431   2.641
 7952TIP3    H123801   5.754   2.431   2.733
 7952TIP3    H223802   5.799   2.523   2.622
 7953TIP3   OH223803   5.930   7.774   3.660
 7953TIP3    H123804   5.986   7.698   3.644
 7953TIP3    H223805   5.915   7.773   3.755
 7954TIP3   OH223806   3.306   1.418   0.933
 7954TIP3    H123807   3.261   1.388   0.854
 7954TIP3    H223808   3.382   1.360   0.940
 7955TIP3   OH223809   3.860   5.721   5.423
 7955TIP3    H123810   3.931   5.687   5.476
 7955TIP3    H223811   3.889   5.809   5.397
 7956TIP3   OH223812   6.276   3.107   1.920
 7956TIP3    H123813   6.306   3.047   1.852
 7956TIP3    H223814   6.318   3.190   1.899
 7957TIP3   OH223815   3.990   2.835   6.404
 7957TIP3    H123816   3.924   2.820   6.336
 7957TIP3    H223817   4.052   2.896   6.364
 7958TIP3   OH223818   2.493   7.226   6.536
 7958TIP3    H123819   2.556   7.294   6.562
 7958TIP3    H223820   2.468   7.250   6.447
 7959TIP3   OH223821   6.600   3.148   4.738
 7959TIP3    H123822   6.510   3.117   4.739
 7959TIP3    H223823   6.632   3.126   4.651
 7960TIP3   OH223824   3.211   1.710   1.263
 7960TIP3    H123825   3.265   1.788   1.279
 7960TIP3    H223826   3.238   1.648   1.330
 7961TIP3   OH223827   1.090   4.549   5.241
 7961TIP3    H123828   0.999   4.539   5.269
 7961TIP3    H223829   1.086   4.553   5.146
 7962TIP3   OH223830   7.665   6.781   2.860
 7962TIP3    H123831   7.728   6.733   2.807
 7962TIP3    H223832   7.636   6.852   2.804
 7963TIP3   OH223833   2.048   1.923   1.845
 7963TIP3    H123834   2.081   1.912   1.934
 7963TIP3    H223835   2.118   1.888   1.789
 7964TIP3   OH223836   6.025   2.154   0.009
 7964TIP3    H123837   6.019   2.121   0.099
 7964TIP3    H223838   5.953   2.216   0.002
 7965TIP3   OH223839   4.535   5.033   6.085
 7965TIP3    H123840   4.590   5.005   6.012
 7965TIP3    H223841   4.497   4.952   6.120
 7966TIP3   OH223842   5.376   5.382   1.864
 7966TIP3    H123843   5.350   5.404   1.953
 7966TIP3    H223844   5.465   5.347   1.873
 7967TIP3   OH223845   1.112   6.808   0.775
 7967TIP3    H123846   1.204   6.821   0.802
 7967TIP3    H223847   1.105   6.715   0.759
 7968TIP3   OH223848   1.996   1.521   0.520
 7968TIP3    H123849   1.996   1.458   0.448
 7968TIP3    H223850   1.990   1.467   0.599
 7969TIP3   OH223851   6.059   3.859   4.213
 7969TIP3    H123852   6.043   3.909   4.133
 7969TIP3    H223853   6.118   3.915   4.264
 7970TIP3   OH223854   6.244   0.743   3.908
 7970TIP3    H123855   6.314   0.685   3.938
 7970TIP3    H223856   6.190   0.758   3.986
 7971TIP3   OH223857   7.557   5.978   6.470
 7971TIP3    H123858   7.600   6.032   6.537
 7971TIP3    H223859   7.630   5.936   6.423
 7972TIP3   OH223860   0.706   7.809   1.154
 7972TIP3    H123861   0.628   7.807   1.099
 7972TIP3    H223862   0.779   7.806   1.092
 7973TIP3   OH223863   0.876   0.320   1.698
 7973TIP3    H123864   0.860   0.352   1.786
 7973TIP3    H223865   0.926   0.239   1.710
 7974TIP3   OH223866   8.139   4.619   2.956
 7974TIP3    H123867   8.186   4.670   3.022
 7974TIP3    H223868   8.178   4.532   2.960
 7975TIP3   OH223869   4.634   5.726   0.517
 7975TIP3    H123870   4.664   5.635   0.519
 7975TIP3    H223871   4.612   5.746   0.608
 7976TIP3   OH223872   5.248   7.767   1.770
 7976TIP3    H123873   5.300   7.741   1.694
 7976TIP3    H223874   5.256   7.862   1.773
 7977TIP3   OH223875   8.065   7.386   3.087
 7977TIP3    H123876   7.975   7.399   3.058
 7977TIP3    H223877   8.119   7.421   3.016
 7978TIP3   OH223878   3.630   2.921   5.971
 7978TIP3    H123879   3.631   3.007   5.929
 7978TIP3    H223880   3.673   2.864   5.907
 7979TIP3   OH223881   5.408   2.247   3.309
 7979TIP3    H123882   5.401   2.318   3.374
 7979TIP3    H223883   5.412   2.167   3.362
 7980TIP3   OH223884   5.442   3.224   2.725
 7980TIP3    H123885   5.528   3.194   2.754
 7980TIP3    H223886   5.434   3.191   2.635
 7981TIP3   OH223887   5.308   5.133   6.697
 7981TIP3    H123888   5.347   5.210   6.656
 7981TIP3    H223889   5.368   5.111   6.768
 7982TIP3   OH223890   7.343   1.118   2.736
 7982TIP3    H123891   7.348   1.206   2.772
 7982TIP3    H223892   7.419   1.111   2.679
 7983TIP3   OH223893   7.315   5.025   0.754
 7983TIP3    H123894   7.346   4.948   0.706
 7983TIP3    H223895   7.329   5.003   0.846
 7984TIP3   OH223896   4.622   6.928   0.925
 7984TIP3    H123897   4.596   7.020   0.936
 7984TIP3    H223898   4.681   6.911   0.998
 7985TIP3   OH223899   2.621   7.486   2.103
 7985TIP3    H123900   2.687   7.445   2.159
 7985TIP3    H223901   2.668   7.508   2.023
 7986TIP3   OH223902   1.180   4.095   4.989
 7986TIP3    H123903   1.243   4.163   5.010
 7986TIP3    H223904   1.135   4.126   4.911
 7987TIP3   OH223905   7.948   4.939   6.629
 7987TIP3    H123906   7.886   5.007   6.657
 7987TIP3    H223907   8.023   4.988   6.595
 7988TIP3   OH223908   5.117   2.346   6.370
 7988TIP3    H123909   5.200   2.366   6.412
 7988TIP3    H223910   5.140   2.287   6.298
 7989TIP3   OH223911   0.617   5.109   6.466
 7989TIP3    H123912   0.707   5.131   6.487
 7989TIP3    H223913   0.623   5.051   6.390
 7990TIP3   OH223914   2.625   2.599   2.918
 7990TIP3    H123915   2.543   2.629   2.878
 7990TIP3    H223916   2.693   2.627   2.856
 7991TIP3   OH223917   7.856   5.302   1.474
 7991TIP3    H123918   7.935   5.277   1.523
 7991TIP3    H223919   7.855   5.244   1.398
 7992TIP3   OH223920   3.305   2.044   5.209
 7992TIP3    H123921   3.251   2.062   5.132
 7992TIP3    H223922   3.395   2.048   5.175
 7993TIP3   OH223923   5.847   0.769   3.836
 7993TIP3    H123924   5.936   0.765   3.801
 7993TIP3    H223925   5.791   0.782   3.759
 7994TIP3   OH223926   1.425   6.416   6.142
 7994TIP3    H123927   1.513   6.390   6.167
 7994TIP3    H223928   1.401   6.484   6.204
 7995TIP3   OH223929   6.983   2.457   2.515
 7995TIP3    H123930   6.939   2.411   2.444
 7995TIP3    H223931   7.067   2.411   2.524
 7996TIP3   OH223932   3.169   5.711   0.167
 7996TIP3    H123933   3.237   5.746   0.224
 7996TIP3    H223934   3.199   5.731   0.079
 7997TIP3   OH223935   0.464   1.172   3.912
 7997TIP3    H123936   0.502   1.185   3.999
 7997TIP3    H223937   0.488   1.251   3.863
 7998TIP3   OH223938   4.021   1.002   4.744
 7998TIP3    H123939   4.060   0.918   4.718
 7998TIP3    H223940   3.934   0.979   4.776
 7999TIP3   OH223941   6.137   1.777   2.543
 7999TIP3    H123942   6.200   1.849   2.534
 7999TIP3    H223943   6.123   1.768   2.637
 8000TIP3   OH223944   1.176   2.179   0.995
 8000TIP3    H123945   1.082   2.167   0.985
 8000TIP3    H223946   1.207   2.202   0.907
 8001TIP3   OH223947   0.736   0.784   0.358
 8001TIP3    H123948   0.723   0.800   0.451
 8001TIP3    H223949   0.819   0.737   0.353
 8002TIP3   OH223950   1.113   6.929   6.604
 8002TIP3    H123951   1.044   6.993   6.620
 8002TIP3    H223952   1.071   6.844   6.614
 8003TIP3   OH223953   6.031   4.320   3.809
 8003TIP3    H123954   6.069   4.256   3.869
 8003TIP3    H223955   5.979   4.267   3.748
 8004TIP3   OH223956   5.927   3.003   3.413
 8004TIP3    H123957   5.993   2.934   3.421
 8004TIP3    H223958   5.869   2.990   3.488
 8005TIP3   OH223959   5.818   7.286   2.967
 8005TIP3    H123960   5.834   7.199   2.929
 8005TIP3    H223961   5.868   7.346   2.912
 8006TIP3   OH223962   6.162   7.424   5.716
 8006TIP3    H123963   6.105   7.392   5.786
 8006TIP3    H223964   6.148   7.362   5.644
 8007TIP3   OH223965   3.326   0.314   4.232
 8007TIP3    H123966   3.306   0.402   4.263
 8007TIP3    H223967   3.412   0.294   4.269
 8008TIP3   OH223968   0.479   6.003   4.149
 8008TIP3    H123969   0.416   6.072   4.170
 8008TIP3    H223970   0.537   6.043   4.084
 8009TIP3   OH223971   6.444   5.315   6.535
 8009TIP3    H123972   6.408   5.250   6.596
 8009TIP3    H223973   6.539   5.313   6.550
 8010TIP3   OH223974   7.432   0.888   6.543
 8010TIP3    H123975   7.366   0.819   6.545
 8010TIP3    H223976   7.515   0.842   6.529
 8011TIP3   OH223977   5.667   0.168   0.348
 8011TIP3    H123978   5.752   0.178   0.306
 8011TIP3    H223979   5.672   0.085   0.395
 8012TIP3   OH223980   2.989   5.097   4.796
 8012TIP3    H123981   2.975   5.168   4.858
 8012TIP3    H223982   3.018   5.023   4.850
 8013TIP3   OH223983   1.055   6.969   2.221
 8013TIP3    H123984   1.076   6.952   2.313
 8013TIP3    H223985   1.096   6.896   2.174
 8014TIP3   OH223986   5.822   5.382   4.380
 8014TIP3    H123987   5.796   5.334   4.459
 8014TIP3    H223988   5.777   5.466   4.387
 8015TIP3   OH223989   7.652   6.227   1.880
 8015TIP3    H123990   7.584   6.286   1.912
 8015TIP3    H223991   7.685   6.183   1.959
 8016TIP3   OH223992   1.942   3.765   1.359
 8016TIP3    H123993   2.033   3.792   1.370
 8016TIP3    H223994   1.916   3.802   1.275
 8017TIP3   OH223995   3.258   3.109   5.874
 8017TIP3    H123996   3.339   3.072   5.839
 8017TIP3    H223997   3.266   3.203   5.860
 8018TIP3   OH223998   2.213   4.007   3.559
 8018TIP3    H123999   2.236   4.099   3.577
 8018TIP3    H224000   2.181   4.008   3.469
 8019TIP3   OH224001   3.128   5.639   5.541
 8019TIP3    H124002   3.070   5.595   5.603
 8019TIP3    H224003   3.090   5.726   5.530
 8020TIP3   OH224004   2.422   0.446   0.722
 8020TIP3    H124005   2.436   0.468   0.814
 8020TIP3    H224006   2.474   0.366   0.709
 8021TIP3   OH224007   2.871   0.377   3.010
 8021TIP3    H124008   2.896   0.434   3.083
 8021TIP3    H224009   2.951   0.369   2.958
 8022TIP3   OH224010   5.707   1.810   5.193
 8022TIP3    H124011   5.742   1.850   5.273
 8022TIP3    H224012   5.771   1.743   5.171
 8023TIP3   OH224013   7.009   6.185   5.384
 8023TIP3    H124014   6.922   6.150   5.364
 8023TIP3    H224015   6.991   6.265   5.434
 8024TIP3   OH224016   0.623   4.464   1.124
 8024TIP3    H124017   0.599   4.373   1.111
 8024TIP3    H224018   0.684   4.463   1.197
 8025TIP3   OH224019   1.173   7.632   6.418
 8025TIP3    H124020   1.159   7.722   6.390
 8025TIP3    H224021   1.267   7.627   6.438
 8026TIP3   OH224022   2.120   3.971   4.951
 8026TIP3    H124023   2.127   4.063   4.926
 8026TIP3    H224024   2.114   3.924   4.868
 8027TIP3   OH224025   0.597   2.743   3.555
 8027TIP3    H124026   0.538   2.714   3.625
 8027TIP3    H224027   0.541   2.793   3.496
 8028TIP3   OH224028   1.294   2.472   1.326
 8028TIP3    H124029   1.263   2.457   1.237
 8028TIP3    H224030   1.370   2.530   1.316
 8029TIP3   OH224031   0.886   0.065   2.054
 8029TIP3    H124032   0.944   0.088   1.981
 8029TIP3    H224033   0.945   0.029   2.121
 8030TIP3   OH224034   5.000   0.617   0.796
 8030TIP3    H124035   4.993   0.539   0.741
 8030TIP3    H224036   4.972   0.689   0.739
 8031TIP3   OH224037   7.368   5.460   0.462
 8031TIP3    H124038   7.282   5.498   0.482
 8031TIP3    H224039   7.371   5.379   0.512
 8032TIP3   OH224040   8.279   3.910   1.995
 8032TIP3    H124041   8.234   3.891   2.077
 8032TIP3    H224042   8.286   4.005   1.993
 8033TIP3   OH224043   5.242   4.071   1.777
 8033TIP3    H124044   5.270   4.103   1.691
 8033TIP3    H224045   5.148   4.059   1.768
 8034TIP3   OH224046   7.988   0.531   3.928
 8034TIP3    H124047   8.030   0.582   3.858
 8034TIP3    H224048   8.040   0.549   4.006
 8035TIP3   OH224049   2.457   1.541   6.426
 8035TIP3    H124050   2.365   1.521   6.444
 8035TIP3    H224051   2.454   1.601   6.351
 8036TIP3   OH224052   5.611   2.605   3.855
 8036TIP3    H124053   5.645   2.657   3.927
 8036TIP3    H224054   5.589   2.670   3.787
 8037TIP3   OH224055   2.600   1.167   6.512
 8037TIP3    H124056   2.581   1.083   6.470
 8037TIP3    H224057   2.576   1.153   6.604
 8038TIP3   OH224058   0.139   7.215   2.697
 8038TIP3    H124059   0.050   7.186   2.716
 8038TIP3    H224060   0.162   7.168   2.616
 8039TIP3   OH224061   2.082   4.025   3.316
 8039TIP3    H124062   2.112   3.979   3.237
 8039TIP3    H224063   1.986   4.023   3.309
 8040TIP3   OH224064   1.274   3.794   2.492
 8040TIP3    H124065   1.219   3.720   2.517
 8040TIP3    H224066   1.298   3.777   2.401
 8041TIP3   OH224067   1.060   2.205   5.244
 8041TIP3    H124068   1.083   2.268   5.176
 8041TIP3    H224069   1.050   2.258   5.323
 8042TIP3   OH224070   0.227   2.583   2.634
 8042TIP3    H124071   0.281   2.585   2.555
 8042TIP3    H224072   0.156   2.523   2.614
 8043TIP3   OH224073   6.641   2.182   0.157
 8043TIP3    H124074   6.595   2.101   0.137
 8043TIP3    H224075   6.604   2.211   0.241
 8044TIP3   OH224076   1.100   4.508   0.523
 8044TIP3    H124077   1.103   4.441   0.592
 8044TIP3    H224078   1.054   4.465   0.451
 8045TIP3   OH224079   2.365   0.951   0.933
 8045TIP3    H124080   2.427   0.939   1.004
 8045TIP3    H224081   2.328   0.864   0.918
 8046TIP3   OH224082   6.982   1.283   4.190
 8046TIP3    H124083   6.974   1.319   4.278
 8046TIP3    H224084   6.891   1.275   4.159
 8047TIP3   OH224085   3.701   5.467   4.711
 8047TIP3    H124086   3.688   5.392   4.769
 8047TIP3    H224087   3.617   5.513   4.712
 8048TIP3   OH224088   5.439   6.385   3.451
 8048TIP3    H124089   5.442   6.360   3.544
 8048TIP3    H224090   5.526   6.363   3.418
 8049TIP3   OH224091   6.785   3.746   0.366
 8049TIP3    H124092   6.796   3.655   0.391
 8049TIP3    H224093   6.704   3.748   0.316
 8050TIP3   OH224094   0.234   3.800   2.692
 8050TIP3    H124095   0.289   3.843   2.758
 8050TIP3    H224096   0.147   3.839   2.703
 8051TIP3   OH224097   4.076   2.064   0.308
 8051TIP3    H124098   4.080   2.158   0.327
 8051TIP3    H224099   3.983   2.046   0.296
 8052TIP3   OH224100   0.358   2.242   2.979
 8052TIP3    H124101   0.352   2.177   3.049
 8052TIP3    H224102   0.300   2.210   2.911
 8053TIP3   OH224103   6.881   5.655   1.756
 8053TIP3    H124104   6.797   5.611   1.763
 8053TIP3    H224105   6.878   5.701   1.673
 8054TIP3   OH224106   3.303   7.094   1.444
 8054TIP3    H124107   3.216   7.065   1.473
 8054TIP3    H224108   3.287   7.179   1.403
 8055TIP3   OH224109   5.645   4.660   3.184
 8055TIP3    H124110   5.655   4.754   3.169
 8055TIP3    H224111   5.712   4.620   3.129
 8056TIP3   OH224112   2.615   0.845   1.492
 8056TIP3    H124113   2.541   0.851   1.553
 8056TIP3    H224114   2.622   0.752   1.473
 8057TIP3   OH224115   1.650   1.057   4.677
 8057TIP3    H124116   1.741   1.068   4.703
 8057TIP3    H224117   1.649   0.974   4.629
 8058TIP3   OH224118   7.230   5.089   6.029
 8058TIP3    H124119   7.221   5.033   6.106
 8058TIP3    H224120   7.157   5.150   6.034
 8059TIP3   OH224121   6.447   4.998   6.131
 8059TIP3    H124122   6.424   5.042   6.213
 8059TIP3    H224123   6.370   4.945   6.110
 8060TIP3   OH224124   5.712   2.773   3.002
 8060TIP3    H124125   5.774   2.774   2.928
 8060TIP3    H224126   5.760   2.731   3.073
 8061TIP3   OH224127   6.773   3.255   5.506
 8061TIP3    H124128   6.815   3.290   5.428
 8061TIP3    H224129   6.694   3.211   5.474
 8062TIP3   OH224130   1.087   6.472   1.238
 8062TIP3    H124131   1.116   6.381   1.240
 8062TIP3    H224132   1.140   6.516   1.305
 8063TIP3   OH224133   4.086   7.658   6.170
 8063TIP3    H124134   4.054   7.578   6.213
 8063TIP3    H224135   4.093   7.633   6.078
 8064TIP3   OH224136   4.601   2.738   6.499
 8064TIP3    H124137   4.517   2.782   6.486
 8064TIP3    H224138   4.591   2.655   6.453
 8065TIP3   OH224139   6.967   2.411   0.251
 8065TIP3    H124140   6.960   2.408   0.155
 8065TIP3    H224141   6.882   2.444   0.280
 8066TIP3   OH224142   7.469   4.199   1.862
 8066TIP3    H124143   7.482   4.139   1.788
 8066TIP3    H224144   7.515   4.279   1.836
 8067TIP3   OH224145   1.916   3.136   2.803
 8067TIP3    H124146   1.821   3.129   2.796
 8067TIP3    H224147   1.945   3.167   2.717
 8068TIP3   OH224148   7.377   4.747   4.515
 8068TIP3    H124149   7.305   4.800   4.480
 8068TIP3    H224150   7.451   4.768   4.458
 8069TIP3   OH224151   3.268   7.316   2.931
 8069TIP3    H124152   3.346   7.357   2.894
 8069TIP3    H224153   3.295   7.227   2.954
 8070TIP3   OH224154   3.868   6.495   6.583
 8070TIP3    H124155   3.872   6.400   6.593
 8070TIP3    H224156   3.815   6.525   6.657
 8071TIP3   OH224157   4.449   6.137   0.599
 8071TIP3    H124158   4.363   6.097   0.591
 8071TIP3    H224159   4.439   6.224   0.560
 8072TIP3   OH224160   2.052   0.922   0.312
 8072TIP3    H124161   1.975   0.976   0.294
 8072TIP3    H224162   2.127   0.978   0.289
 8073TIP3   OH224163   3.544   4.042   4.785
 8073TIP3    H124164   3.482   3.981   4.745
 8073TIP3    H224165   3.518   4.045   4.877
 8074TIP3   OH224166   0.661   1.783   3.090
 8074TIP3    H124167   0.657   1.693   3.058
 8074TIP3    H224168   0.660   1.836   3.010
 8075TIP3   OH224169   6.277   3.327   2.295
 8075TIP3    H124170   6.340   3.270   2.252
 8075TIP3    H224171   6.195   3.277   2.295
 8076TIP3   OH224172   0.461   3.662   6.274
 8076TIP3    H124173   0.418   3.636   6.193
 8076TIP3    H224174   0.502   3.581   6.306
 8077TIP3   OH224175   0.137   0.236   0.616
 8077TIP3    H124176   0.116   0.323   0.650
 8077TIP3    H224177   0.196   0.199   0.682
 8078TIP3   OH224178   5.527   7.107   6.306
 8078TIP3    H124179   5.440   7.073   6.287
 8078TIP3    H224180   5.511   7.193   6.346
 8079TIP3   OH224181   3.677   1.495   0.149
 8079TIP3    H124182   3.601   1.525   0.100
 8079TIP3    H224183   3.652   1.408   0.181
 8080TIP3   OH224184   1.647   4.541   0.403
 8080TIP3    H124185   1.566   4.575   0.441
 8080TIP3    H224186   1.713   4.605   0.428
 8081TIP3   OH224187   5.466   5.992   1.958
 8081TIP3    H124188   5.396   6.023   1.902
 8081TIP3    H224189   5.520   6.069   1.975
 8082TIP3   OH224190   3.573   3.351   1.882
 8082TIP3    H124191   3.534   3.275   1.925
 8082TIP3    H224192   3.663   3.353   1.914
 8083TIP3   OH224193   7.610   4.319   6.409
 8083TIP3    H124194   7.607   4.311   6.504
 8083TIP3    H224195   7.537   4.377   6.387
 8084TIP3   OH224196   3.136   5.094   1.593
 8084TIP3    H124197   3.092   5.141   1.523
 8084TIP3    H224198   3.229   5.102   1.572
 8085TIP3   OH224199   4.992   7.527   5.249
 8085TIP3    H124200   4.933   7.601   5.261
 8085TIP3    H224201   5.043   7.524   5.330
 8086TIP3   OH224202   1.897   0.969   3.462
 8086TIP3    H124203   1.877   0.945   3.553
 8086TIP3    H224204   1.992   0.960   3.456
 8087TIP3   OH224205   4.758   0.470   5.465
 8087TIP3    H124206   4.730   0.542   5.409
 8087TIP3    H224207   4.711   0.393   5.431
 8088TIP3   OH224208   8.167   4.156   0.514
 8088TIP3    H124209   8.155   4.214   0.590
 8088TIP3    H224210   8.145   4.069   0.546
 8089TIP3   OH224211   7.954   5.839   0.808
 8089TIP3    H124212   7.956   5.780   0.884
 8089TIP3    H224213   7.873   5.889   0.818
 8090TIP3   OH224214   5.030   6.765   5.141
 8090TIP3    H124215   4.978   6.766   5.222
 8090TIP3    H224216   5.033   6.857   5.114
 8091TIP3   OH224217   0.188   5.832   6.476
 8091TIP3    H124218   0.130   5.784   6.535
 8091TIP3    H224219   0.180   5.787   6.392
 8092TIP3   OH224220   3.164   3.019   4.559
 8092TIP3    H124221   3.209   2.937   4.579
 8092TIP3    H224222   3.159   3.021   4.463
 8093TIP3   OH224223   8.293   7.142   0.091
 8093TIP3    H124224   8.199   7.158   0.078
 8093TIP3    H224225   8.320   7.207   0.156
 8094TIP3   OH224226   0.378   3.492   2.677
 8094TIP3    H124227   0.451   3.516   2.734
 8094TIP3    H224228   0.330   3.574   2.663
 8095TIP3   OH224229   6.469   4.613   2.134
 8095TIP3    H124230   6.419   4.620   2.216
 8095TIP3    H224231   6.535   4.682   2.141
 8096TIP3   OH224232   4.761   1.029   1.554
 8096TIP3    H124233   4.717   1.033   1.639
 8096TIP3    H224234   4.689   1.016   1.491
 8097TIP3   OH224235   2.015   7.019   0.409
 8097TIP3    H124236   1.951   7.079   0.446
 8097TIP3    H224237   1.972   6.934   0.409
 8098TIP3   OH224238   7.897   1.854   5.785
 8098TIP3    H124239   7.834   1.896   5.726
 8098TIP3    H224240   7.859   1.768   5.803
 8099TIP3   OH224241   6.740   0.025   0.506
 8099TIP3    H124242   6.685   0.080   0.561
 8099TIP3    H224243   6.755  -0.054   0.557
 8100TIP3   OH224244   4.572   4.915   4.910
 8100TIP3    H124245   4.551   4.851   4.977
 8100TIP3    H224246   4.497   4.914   4.851
 8101TIP3   OH224247   0.286   5.378   0.438
 8101TIP3    H124248   0.200   5.411   0.464
 8101TIP3    H224249   0.300   5.302   0.494
 8102TIP3   OH224250   0.357   3.990   3.458
 8102TIP3    H124251   0.403   3.967   3.378
 8102TIP3    H224252   0.426   3.998   3.524
 8103TIP3   OH224253   6.954   0.951   2.052
 8103TIP3    H124254   6.911   0.948   1.966
 8103TIP3    H224255   6.982   1.042   2.062
 8104TIP3   OH224256   7.145   6.178   4.626
 8104TIP3    H124257   7.169   6.223   4.545
 8104TIP3    H224258   7.059   6.213   4.648
 8105TIP3   OH224259   3.471   5.660   4.270
 8105TIP3    H124260   3.522   5.697   4.198
 8105TIP3    H224261   3.448   5.572   4.239
 8106TIP3   OH224262   1.175   6.391   6.010
 8106TIP3    H124263   1.258   6.402   6.055
 8106TIP3    H224264   1.163   6.474   5.962
 8107TIP3   OH224265   2.630   1.893   4.705
 8107TIP3    H124266   2.724   1.880   4.710
 8107TIP3    H224267   2.593   1.807   4.726
 8108TIP3   OH224268   8.217   7.267   4.008
 8108TIP3    H124269   8.200   7.296   4.098
 8108TIP3    H224270   8.130   7.264   3.967
 8109TIP3   OH224271   4.105   6.717   2.070
 8109TIP3    H124272   4.124   6.647   2.008
 8109TIP3    H224273   4.010   6.714   2.081
 8110TIP3   OH224274   3.537   0.358   2.621
 8110TIP3    H124275   3.548   0.350   2.527
 8110TIP3    H224276   3.442   0.351   2.635
 8111TIP3   OH224277   1.977   5.121   0.665
 8111TIP3    H124278   1.932   5.166   0.593
 8111TIP3    H224279   2.069   5.145   0.655
 8112TIP3   OH224280   2.202   4.597   6.770
 8112TIP3    H124281   2.281   4.614   6.719
 8112TIP3    H224282   2.175   4.509   6.744
 8113TIP3   OH224283   7.168   3.204   1.806
 8113TIP3    H124284   7.157   3.284   1.754
 8113TIP3    H224285   7.156   3.133   1.743
 8114TIP3   OH224286   4.963   5.372   0.503
 8114TIP3    H124287   4.931   5.287   0.532
 8114TIP3    H224288   4.908   5.435   0.548
 8115TIP3   OH224289   0.450   7.637   5.993
 8115TIP3    H124290   0.497   7.568   5.947
 8115TIP3    H224291   0.458   7.713   5.935
 8116TIP3   OH224292   5.740   1.341   1.281
 8116TIP3    H124293   5.777   1.387   1.356
 8116TIP3    H224294   5.647   1.366   1.281
 8117TIP3   OH224295   5.922   5.032   0.388
 8117TIP3    H124296   5.881   5.057   0.305
 8117TIP3    H224297   5.992   4.971   0.363
 8118TIP3   OH224298   0.924   0.790   2.854
 8118TIP3    H124299   0.965   0.842   2.785
 8118TIP3    H224300   0.951   0.833   2.936
 8119TIP3   OH224301   7.047   4.005   5.106
 8119TIP3    H124302   6.992   3.942   5.060
 8119TIP3    H224303   7.121   4.020   5.048
 8120TIP3   OH224304   7.045   7.716   1.860
 8120TIP3    H124305   7.121   7.681   1.907
 8120TIP3    H224306   7.032   7.803   1.899
 8121TIP3   OH224307   2.883   0.995   0.496
 8121TIP3    H124308   2.836   1.072   0.461
 8121TIP3    H224309   2.885   0.933   0.423
 8122TIP3   OH224310   4.452   5.544   3.360
 8122TIP3    H124311   4.430   5.626   3.316
 8122TIP3    H224312   4.438   5.476   3.294
 8123TIP3   OH224313   8.043   4.868   3.684
 8123TIP3    H124314   7.954   4.904   3.674
 8123TIP3    H224315   8.096   4.942   3.713
 8124TIP3   OH224316   5.721   0.734   6.359
 8124TIP3    H124317   5.768   0.813   6.329
 8124TIP3    H224318   5.748   0.666   6.298
 8125TIP3   OH224319   0.513   2.629   4.627
 8125TIP3    H124320   0.484   2.538   4.636
 8125TIP3    H224321   0.604   2.628   4.656
 8126TIP3   OH224322   4.490   5.751   3.122
 8126TIP3    H124323   4.580   5.758   3.090
 8126TIP3    H224324   4.441   5.720   3.046
 8127TIP3   OH224325   6.238   3.224   1.518
 8127TIP3    H124326   6.192   3.307   1.533
 8127TIP3    H224327   6.325   3.237   1.556
 8128TIP3   OH224328   2.796   2.347   2.329
 8128TIP3    H124329   2.885   2.314   2.312
 8128TIP3    H224330   2.742   2.301   2.265
 8129TIP3   OH224331   0.044   5.484   0.539
 8129TIP3    H124332   0.008   5.415   0.594
 8129TIP3    H224333  -0.005   5.562   0.563
 8130TIP3   OH224334   7.343   2.840   1.296
 8130TIP3    H124335   7.384   2.829   1.382
 8130TIP3    H224336   7.417   2.852   1.236
 8131TIP3   OH224337   6.917   1.569   4.575
 8131TIP3    H124338   6.824   1.571   4.551
 8131TIP3    H224339   6.952   1.495   4.525
 8132TIP3   OH224340   7.871   3.749   3.877
 8132TIP3    H124341   7.788   3.738   3.830
 8132TIP3    H224342   7.899   3.659   3.895
 8133TIP3   OH224343   2.244   6.343   2.397
 8133TIP3    H124344   2.150   6.344   2.378
 8133TIP3    H224345   2.249   6.320   2.490
 8134TIP3   OH224346   0.824   2.379   5.218
 8134TIP3    H124347   0.894   2.396   5.156
 8134TIP3    H224348   0.839   2.289   5.247
 8135TIP3   OH224349   7.472   5.573   4.372
 8135TIP3    H124350   7.545   5.513   4.382
 8135TIP3    H224351   7.397   5.516   4.353
 8136TIP3   OH224352   2.522   3.656   0.236
 8136TIP3    H124353   2.581   3.603   0.182
 8136TIP3    H224354   2.454   3.686   0.175
 8137TIP3   OH224355   5.580   5.881   0.803
 8137TIP3    H124356   5.531   5.877   0.885
 8137TIP3    H224357   5.528   5.830   0.741
 8138TIP3   OH224358   5.798   3.360   1.972
 8138TIP3    H124359   5.850   3.279   1.968
 8138TIP3    H224360   5.799   3.384   2.064
 8139TIP3   OH224361   1.273   1.822   6.173
 8139TIP3    H124362   1.363   1.838   6.145
 8139TIP3    H224363   1.259   1.728   6.156
 8140TIP3   OH224364   2.458   2.940   2.035
 8140TIP3    H124365   2.486   3.030   2.020
 8140TIP3    H224366   2.508   2.889   1.971
 8141TIP3   OH224367   3.285   5.589   2.680
 8141TIP3    H124368   3.317   5.649   2.612
 8141TIP3    H224369   3.359   5.579   2.740
 8142TIP3   OH224370   3.990   1.921   3.631
 8142TIP3    H124371   3.975   1.927   3.725
 8142TIP3    H224372   3.903   1.917   3.593
 8143TIP3   OH224373   7.098   7.059   1.968
 8143TIP3    H124374   7.137   6.977   1.940
 8143TIP3    H224375   7.077   7.046   2.061
 8144TIP3   OH224376   1.481   1.810   2.289
 8144TIP3    H124377   1.564   1.836   2.328
 8144TIP3    H224378   1.415   1.841   2.352
 8145TIP3   OH224379   2.443   3.203   0.080
 8145TIP3    H124380   2.531   3.237   0.062
 8145TIP3    H224381   2.386   3.279   0.075
 8146TIP3   OH224382   2.232   6.624   5.057
 8146TIP3    H124383   2.267   6.551   5.108
 8146TIP3    H224384   2.294   6.696   5.072
 8147TIP3   OH224385   3.384   0.322   6.099
 8147TIP3    H124386   3.395   0.228   6.114
 8147TIP3    H224387   3.436   0.363   6.168
 8148TIP3   OH224388   4.247   1.983   4.016
 8148TIP3    H124389   4.299   1.923   3.962
 8148TIP3    H224390   4.158   1.947   4.011
 8149TIP3   OH224391   8.022   3.542   6.246
 8149TIP3    H124392   7.995   3.451   6.234
 8149TIP3    H224393   8.106   3.548   6.201
 8150TIP3   OH224394   3.374   6.124   5.820
 8150TIP3    H124395   3.333   6.205   5.851
 8150TIP3    H224396   3.355   6.060   5.889
 8151TIP3   OH224397   2.484   2.694   6.085
 8151TIP3    H124398   2.545   2.694   6.159
 8151TIP3    H224399   2.402   2.662   6.123
 8152TIP3   OH224400   4.896   3.150   4.471
 8152TIP3    H124401   4.835   3.223   4.469
 8152TIP3    H224402   4.955   3.169   4.544
 8153TIP3   OH224403   2.231   7.317   4.820
 8153TIP3    H124404   2.225   7.400   4.773
 8153TIP3    H224405   2.203   7.251   4.757
 8154TIP3   OH224406   6.067   6.191   0.444
 8154TIP3    H124407   6.093   6.232   0.362
 8154TIP3    H224408   5.990   6.240   0.472
 8155TIP3   OH224409   6.576   7.542   2.868
 8155TIP3    H124410   6.671   7.556   2.873
 8155TIP3    H224411   6.539   7.612   2.921
 8156TIP3   OH224412   4.821   0.796   1.299
 8156TIP3    H124413   4.849   0.749   1.220
 8156TIP3    H224414   4.811   0.729   1.366
 8157TIP3   OH224415   5.633   6.374   1.883
 8157TIP3    H124416   5.540   6.388   1.901
 8157TIP3    H224417   5.644   6.401   1.792
 8158TIP3   OH224418   6.846   3.091   0.949
 8158TIP3    H124419   6.888   3.045   0.877
 8158TIP3    H224420   6.861   3.036   1.026
 8159TIP3   OH224421   0.958   7.027   5.849
 8159TIP3    H124422   0.882   6.971   5.837
 8159TIP3    H224423   0.953   7.056   5.939
 8160TIP3   OH224424   0.494   6.442   4.221
 8160TIP3    H124425   0.444   6.481   4.293
 8160TIP3    H224426   0.447   6.361   4.200
 8161TIP3   OH224427   2.340   3.125   1.529
 8161TIP3    H124428   2.430   3.093   1.522
 8161TIP3    H224429   2.336   3.198   1.467
 8162TIP3   OH224430   5.359   4.309   4.626
 8162TIP3    H124431   5.373   4.285   4.718
 8162TIP3    H224432   5.274   4.353   4.625
 8163TIP3   OH224433   0.908   4.249   2.847
 8163TIP3    H124434   1.003   4.236   2.840
 8163TIP3    H224435   0.871   4.192   2.780
 8164TIP3   OH224436   7.972   5.895   4.718
 8164TIP3    H124437   7.882   5.871   4.741
 8164TIP3    H224438   7.997   5.961   4.783
 8165TIP3   OH224439   7.747   1.360   4.940
 8165TIP3    H124440   7.794   1.414   4.877
 8165TIP3    H224441   7.677   1.416   4.972
 8166TIP3   OH224442   4.646   0.423   6.252
 8166TIP3    H124443   4.552   0.440   6.253
 8166TIP3    H224444   4.657   0.343   6.304
 8167TIP3   OH224445   6.953   7.362   2.713
 8167TIP3    H124446   6.998   7.411   2.782
 8167TIP3    H224447   6.866   7.401   2.708
 8168TIP3   OH224448   6.785   6.773   5.256
 8168TIP3    H124449   6.862   6.799   5.205
 8168TIP3    H224450   6.748   6.856   5.286
 8169TIP3   OH224451   3.350   1.332   1.264
 8169TIP3    H124452   3.354   1.239   1.240
 8169TIP3    H224453   3.442   1.361   1.264
 8170TIP3   OH224454   7.042   6.074   4.231
 8170TIP3    H124455   6.975   6.062   4.298
 8170TIP3    H224456   7.108   6.129   4.272
 8171TIP3   OH224457   3.308   3.203   0.523
 8171TIP3    H124458   3.397   3.169   0.523
 8171TIP3    H224459   3.293   3.233   0.613
 8172TIP3   OH224460   4.934   4.663   2.201
 8172TIP3    H124461   4.847   4.634   2.172
 8172TIP3    H224462   4.943   4.628   2.290
 8173TIP3   OH224463   5.340   2.775   2.386
 8173TIP3    H124464   5.419   2.824   2.409
 8173TIP3    H224465   5.270   2.819   2.435
 8174TIP3   OH224466   1.445   2.120   5.065
 8174TIP3    H124467   1.418   2.151   4.978
 8174TIP3    H224468   1.410   2.031   5.070
 8175TIP3   OH224469   4.894   1.746   0.856
 8175TIP3    H124470   4.979   1.751   0.814
 8175TIP3    H224471   4.894   1.661   0.901
 8176TIP3   OH224472   1.855   1.779   1.549
 8176TIP3    H124473   1.909   1.755   1.625
 8176TIP3    H224474   1.813   1.698   1.522
 8177TIP3   OH224475   3.294   7.559   1.932
 8177TIP3    H124476   3.346   7.482   1.912
 8177TIP3    H224477   3.214   7.549   1.881
 8178TIP3   OH224478   1.455   0.880   1.167
 8178TIP3    H124479   1.437   0.823   1.092
 8178TIP3    H224480   1.541   0.853   1.198
 8179TIP3   OH224481   7.955   7.407   0.247
 8179TIP3    H124482   7.936   7.434   0.337
 8179TIP3    H224483   8.050   7.420   0.237
 8180TIP3   OH224484   2.802   6.592   6.414
 8180TIP3    H124485   2.791   6.685   6.399
 8180TIP3    H224486   2.891   6.573   6.387
 8181TIP3   OH224487   1.466   6.298   5.042
 8181TIP3    H124488   1.427   6.295   5.129
 8181TIP3    H224489   1.392   6.301   4.982
 8182TIP3   OH224490   2.145   2.690   3.963
 8182TIP3    H124491   2.115   2.604   3.990
 8182TIP3    H224492   2.113   2.700   3.873
 8183TIP3   OH224493   3.087   1.156   5.615
 8183TIP3    H124494   3.019   1.212   5.579
 8183TIP3    H224495   3.169   1.195   5.586
 8184TIP3   OH224496   4.702   0.868   4.794
 8184TIP3    H124497   4.646   0.791   4.780
 8184TIP3    H224498   4.675   0.901   4.880
 8185TIP3   OH224499   6.961   1.511   2.627
 8185TIP3    H124500   6.956   1.415   2.619
 8185TIP3    H224501   7.007   1.539   2.548
 8186TIP3   OH224502   4.071   5.479   0.583
 8186TIP3    H124503   4.054   5.544   0.652
 8186TIP3    H224504   4.162   5.454   0.597
 8187TIP3   OH224505   3.139   2.464   0.157
 8187TIP3    H124506   3.079   2.409   0.106
 8187TIP3    H224507   3.149   2.418   0.240
 8188TIP3   OH224508   0.295   7.514   1.371
 8188TIP3    H124509   0.237   7.520   1.447
 8188TIP3    H224510   0.369   7.569   1.394
 8189TIP3   OH224511   6.652   2.056   6.714
 8189TIP3    H124512   6.647   2.141   6.669
 8189TIP3    H224513   6.562   2.040   6.743
 8190TIP3   OH224514   7.349   6.529   2.046
 8190TIP3    H124515   7.257   6.541   2.066
 8190TIP3    H224516   7.362   6.434   2.047
 8191TIP3   OH224517   3.014   5.610   3.641
 8191TIP3    H124518   3.031   5.690   3.691
 8191TIP3    H224519   3.057   5.540   3.691
 8192TIP3   OH224520   5.763   6.144   4.493
 8192TIP3    H124521   5.674   6.122   4.465
 8192TIP3    H224522   5.753   6.176   4.582
 8193TIP3   OH224523   3.387   0.758   4.521
 8193TIP3    H124524   3.478   0.788   4.521
 8193TIP3    H224525   3.338   0.833   4.487
 8194TIP3   OH224526   1.313   2.842   6.492
 8194TIP3    H124527   1.296   2.936   6.482
 8194TIP3    H224528   1.314   2.829   6.587
 8195TIP3   OH224529   1.345   1.843   2.520
 8195TIP3    H124530   1.429   1.814   2.556
 8195TIP3    H224531   1.287   1.767   2.529
 8196TIP3   OH224532   5.061   1.334   2.909
 8196TIP3    H124533   4.974   1.319   2.947
 8196TIP3    H224534   5.098   1.246   2.898
 8197TIP3   OH224535   2.771   3.557   2.810
 8197TIP3    H124536   2.706   3.497   2.847
 8197TIP3    H224537   2.767   3.634   2.867
 8198TIP3   OH224538   6.581   6.974   1.326
 8198TIP3    H124539   6.602   7.054   1.279
 8198TIP3    H224540   6.650   6.913   1.303
 8199TIP3   OH224541   7.299   2.018   4.758
 8199TIP3    H124542   7.302   1.985   4.668
 8199TIP3    H224543   7.219   2.072   4.761
 8200TIP3   OH224544   0.319   1.089   5.019
 8200TIP3    H124545   0.353   1.126   5.100
 8200TIP3    H224546   0.334   0.995   5.027
 8201TIP3   OH224547   3.783   2.806   6.598
 8201TIP3    H124548   3.802   2.750   6.674
 8201TIP3    H224549   3.869   2.823   6.559
 8202TIP3   OH224550   6.620   7.510   4.695
 8202TIP3    H124551   6.552   7.566   4.657
 8202TIP3    H224552   6.693   7.516   4.633
 8203TIP3   OH224553   2.512   1.039   2.802
 8203TIP3    H124554   2.558   1.034   2.718
 8203TIP3    H224555   2.580   1.024   2.867
 8204TIP3   OH224556   1.643   7.310   3.529
 8204TIP3    H124557   1.639   7.313   3.625
 8204TIP3    H224558   1.561   7.349   3.500
 8205TIP3   OH224559   3.981   2.880   5.714
 8205TIP3    H124560   3.960   2.966   5.751
 8205TIP3    H224561   4.075   2.871   5.725
 8206TIP3   OH224562   7.807   5.819   2.398
 8206TIP3    H124563   7.736   5.883   2.394
 8206TIP3    H224564   7.879   5.865   2.441
 8207TIP3   OH224565   2.621   5.608   4.649
 8207TIP3    H124566   2.599   5.642   4.736
 8207TIP3    H224567   2.699   5.555   4.664
 8208TIP3   OH224568   7.464   5.855   2.585
 8208TIP3    H124569   7.383   5.905   2.593
 8208TIP3    H224570   7.515   5.901   2.518
 8209TIP3   OH224571   1.023   4.623   3.385
 8209TIP3    H124572   1.050   4.679   3.313
 8209TIP3    H224573   1.103   4.577   3.412
 8210TIP3   OH224574   0.361   2.621   5.247
 8210TIP3    H124575   0.366   2.716   5.234
 8210TIP3    H224576   0.281   2.595   5.201
 8211TIP3   OH224577   4.834   4.783   1.424
 8211TIP3    H124578   4.918   4.744   1.401
 8211TIP3    H224579   4.779   4.709   1.448
 8212TIP3   OH224580   0.543   7.182   5.777
 8212TIP3    H124581   0.516   7.172   5.868
 8212TIP3    H224582   0.461   7.188   5.728
 8213TIP3   OH224583   1.367   7.215   1.568
 8213TIP3    H124584   1.316   7.195   1.646
 8213TIP3    H224585   1.302   7.235   1.501
 8214TIP3   OH224586   6.220   0.740   3.065
 8214TIP3    H124587   6.168   0.802   3.116
 8214TIP3    H224588   6.249   0.674   3.128
 8215TIP3   OH224589   8.115   2.908   4.683
 8215TIP3    H124590   8.201   2.940   4.658
 8215TIP3    H224591   8.111   2.924   4.778
 8216TIP3   OH224592   6.439   5.855   6.350
 8216TIP3    H124593   6.430   5.794   6.423
 8216TIP3    H224594   6.363   5.839   6.295
 8217TIP3   OH224595   2.988   3.320   2.810
 8217TIP3    H124596   2.911   3.372   2.834
 8217TIP3    H224597   3.031   3.372   2.741
 8218TIP3   OH224598   2.499   5.129   1.273
 8218TIP3    H124599   2.475   5.129   1.365
 8218TIP3    H224600   2.423   5.165   1.228
 8219TIP3   OH224601   4.314   7.544   0.287
 8219TIP3    H124602   4.330   7.562   0.195
 8219TIP3    H224603   4.307   7.630   0.328
 8220TIP3   OH224604   3.163   0.862   4.358
 8220TIP3    H124605   3.122   0.802   4.420
 8220TIP3    H224606   3.129   0.836   4.273
 8221TIP3   OH224607   1.991   3.919   3.661
 8221TIP3    H124608   1.986   3.977   3.737
 8221TIP3    H224609   2.084   3.921   3.636
 8222TIP3   OH224610   1.038   4.283   0.692
 8222TIP3    H124611   1.013   4.224   0.763
 8222TIP3    H224612   0.956   4.305   0.648
 8223TIP3   OH224613   2.579   6.336   3.716
 8223TIP3    H124614   2.646   6.404   3.708
 8223TIP3    H224615   2.574   6.296   3.629
 8224TIP3   OH224616   6.672   5.388   0.255
 8224TIP3    H124617   6.761   5.398   0.286
 8224TIP3    H224618   6.646   5.301   0.286
 8225TIP3   OH224619   4.174   5.749   4.135
 8225TIP3    H124620   4.222   5.677   4.095
 8225TIP3    H224621   4.092   5.709   4.165
 8226TIP3   OH224622   4.586   5.439   0.218
 8226TIP3    H124623   4.509   5.382   0.211
 8226TIP3    H224624   4.566   5.514   0.163
 8227TIP3   OH224625   6.867   1.444   2.019
 8227TIP3    H124626   6.771   1.444   2.023
 8227TIP3    H224627   6.891   1.354   2.042
 8228TIP3   OH224628   8.122   5.290   3.085
 8228TIP3    H124629   8.125   5.201   3.051
 8228TIP3    H224630   8.087   5.281   3.174
 8229TIP3   OH224631   8.081   7.660   3.608
 8229TIP3    H124632   8.032   7.720   3.664
 8229TIP3    H224633   8.070   7.695   3.520
 8230TIP3   OH224634   5.846   2.626   0.495
 8230TIP3    H124635   5.871   2.535   0.478
 8230TIP3    H224636   5.788   2.649   0.423
 8231TIP3   OH224637   2.942   1.601   1.734
 8231TIP3    H124638   2.981   1.523   1.694
 8231TIP3    H224639   2.995   1.616   1.813
 8232TIP3   OH224640   8.044   2.809   0.786
 8232TIP3    H124641   8.135   2.790   0.763
 8232TIP3    H224642   8.046   2.897   0.824
 8233TIP3   OH224643   4.594   6.649   5.893
 8233TIP3    H124644   4.580   6.555   5.900
 8233TIP3    H224645   4.524   6.687   5.946
 8234TIP3   OH224646   7.405   6.668   2.908
 8234TIP3    H124647   7.379   6.698   2.821
 8234TIP3    H224648   7.489   6.711   2.924
 8235TIP3   OH224649   4.629   7.640   1.212
 8235TIP3    H124650   4.682   7.717   1.189
 8235TIP3    H224651   4.544   7.657   1.173
 8236TIP3   OH224652   2.397   1.196   1.567
 8236TIP3    H124653   2.458   1.187   1.494
 8236TIP3    H224654   2.314   1.162   1.534
 8237TIP3   OH224655   2.324   7.656   5.877
 8237TIP3    H124656   2.301   7.749   5.883
 8237TIP3    H224657   2.381   7.651   5.800
 8238TIP3   OH224658   5.876   2.401   4.683
 8238TIP3    H124659   5.809   2.337   4.660
 8238TIP3    H224660   5.871   2.408   4.778
 8239TIP3   OH224661   1.906   5.250   0.440
 8239TIP3    H124662   1.940   5.338   0.427
 8239TIP3    H224663   1.908   5.210   0.352
 8240TIP3   OH224664   4.968   4.025   2.422
 8240TIP3    H124665   4.959   4.002   2.330
 8240TIP3    H224666   4.961   3.942   2.469
 8241TIP3   OH224667   0.981   1.881   1.497
 8241TIP3    H124668   0.990   1.955   1.437
 8241TIP3    H224669   0.899   1.839   1.471
 8242TIP3   OH224670   6.998   0.444   4.893
 8242TIP3    H124671   7.037   0.441   4.805
 8242TIP3    H224672   6.933   0.374   4.894
 8243TIP3   OH224673   6.824   2.114   3.583
 8243TIP3    H124674   6.739   2.079   3.559
 8243TIP3    H224675   6.885   2.076   3.519
 8244TIP3   OH224676   5.958   5.253   0.912
 8244TIP3    H124677   5.962   5.163   0.880
 8244TIP3    H224678   5.883   5.292   0.865
 8245TIP3   OH224679   6.746   0.120   6.625
 8245TIP3    H124680   6.705   0.103   6.709
 8245TIP3    H224681   6.717   0.208   6.601
 8246TIP3   OH224682   2.045   6.031   1.825
 8246TIP3    H124683   2.013   6.091   1.757
 8246TIP3    H224684   1.969   5.977   1.847
 8247TIP3   OH224685   8.165   7.194   5.892
 8247TIP3    H124686   8.077   7.157   5.882
 8247TIP3    H224687   8.223   7.130   5.851
 8248TIP3   OH224688   2.533   3.611   4.179
 8248TIP3    H124689   2.537   3.528   4.226
 8248TIP3    H224690   2.607   3.607   4.118
 8249TIP3   OH224691   6.799   7.518   3.777
 8249TIP3    H124692   6.740   7.479   3.841
 8249TIP3    H224693   6.831   7.598   3.819
 8250TIP3   OH224694   2.135   0.660   1.289
 8250TIP3    H124695   2.198   0.731   1.284
 8250TIP3    H224696   2.090   0.660   1.204
 8251TIP3   OH224697   6.983   0.339   5.170
 8251TIP3    H124698   6.935   0.340   5.252
 8251TIP3    H224699   7.065   0.294   5.191
 8252TIP3   OH224700   1.431   1.471   4.740
 8252TIP3    H124701   1.424   1.543   4.678
 8252TIP3    H224702   1.459   1.396   4.687
 8253TIP3   OH224703   5.211   3.363   0.141
 8253TIP3    H124704   5.280   3.355   0.075
 8253TIP3    H224705   5.162   3.281   0.133
 8254TIP3   OH224706   3.281   2.914   2.918
 8254TIP3    H124707   3.305   2.860   2.993
 8254TIP3    H224708   3.211   2.971   2.951
 8255TIP3   OH224709   0.224   5.089   5.555
 8255TIP3    H124710   0.155   5.035   5.592
 8255TIP3    H224711   0.244   5.153   5.623
 8256TIP3   OH224712   4.207   5.632   6.147
 8256TIP3    H124713   4.208   5.680   6.230
 8256TIP3    H224714   4.143   5.563   6.160
 8257TIP3   OH224715   4.851   3.769   3.750
 8257TIP3    H124716   4.886   3.773   3.839
 8257TIP3    H224717   4.807   3.853   3.738
 8258TIP3   OH224718   5.536   4.843   5.555
 8258TIP3    H124719   5.539   4.787   5.632
 8258TIP3    H224720   5.618   4.825   5.510
 8259TIP3   OH224721   5.358   6.721   2.474
 8259TIP3    H124722   5.445   6.751   2.447
 8259TIP3    H224723   5.375   6.665   2.550
 8260TIP3   OH224724   3.167   3.569   5.220
 8260TIP3    H124725   3.072   3.566   5.223
 8260TIP3    H224726   3.190   3.659   5.243
 8261TIP3   OH224727   3.594   5.330   1.603
 8261TIP3    H124728   3.617   5.285   1.684
 8261TIP3    H224729   3.510   5.373   1.622
 8262TIP3   OH224730   3.551   3.473   5.495
 8262TIP3    H124731   3.614   3.416   5.452
 8262TIP3    H224732   3.466   3.444   5.461
 8263TIP3   OH224733   0.378   0.762   2.291
 8263TIP3    H124734   0.394   0.673   2.259
 8263TIP3    H224735   0.397   0.818   2.215
 8264TIP3   OH224736   5.796   6.404   4.319
 8264TIP3    H124737   5.790   6.334   4.384
 8264TIP3    H224738   5.745   6.373   4.245
 8265TIP3   OH224739   1.447   3.885   1.536
 8265TIP3    H124740   1.471   3.872   1.627
 8265TIP3    H224741   1.429   3.979   1.529
 8266TIP3   OH224742   7.272   4.125   3.829
 8266TIP3    H124743   7.297   4.054   3.888
 8266TIP3    H224744   7.293   4.092   3.742
 8267TIP3   OH224745   7.529   1.996   5.847
 8267TIP3    H124746   7.597   1.967   5.787
 8267TIP3    H224747   7.518   2.089   5.827
 8268TIP3   OH224748   5.844   5.932   1.843
 8268TIP3    H124749   5.812   5.884   1.919
 8268TIP3    H224750   5.865   5.864   1.779
 8269TIP3   OH224751   0.708   4.939   0.886
 8269TIP3    H124752   0.778   4.998   0.913
 8269TIP3    H224753   0.752   4.860   0.855
 8270TIP3   OH224754   0.089   6.086   4.341
 8270TIP3    H124755  -0.003   6.097   4.366
 8270TIP3    H224756   0.113   5.999   4.374
 8271TIP3   OH224757   2.580   7.139   3.591
 8271TIP3    H124758   2.644   7.122   3.522
 8271TIP3    H224759   2.572   7.235   3.593
 8272TIP3   OH224760   2.962   5.892   0.213
 8272TIP3    H124761   3.020   5.820   0.189
 8272TIP3    H224762   2.965   5.895   0.308
 8273TIP3   OH224763   2.894   0.355   5.581
 8273TIP3    H124764   2.847   0.309   5.650
 8273TIP3    H224765   2.972   0.301   5.564
 8274TIP3   OH224766   5.115   5.167   6.446
 8274TIP3    H124767   5.165   5.165   6.527
 8274TIP3    H224768   5.123   5.078   6.411
 8275TIP3   OH224769   4.967   2.807   1.773
 8275TIP3    H124770   5.021   2.765   1.705
 8275TIP3    H224771   4.904   2.860   1.724
 8276TIP3   OH224772   1.046   5.992   6.335
 8276TIP3    H124773   1.037   6.007   6.241
 8276TIP3    H224774   0.967   5.944   6.359
 8277TIP3   OH224775   8.037   4.707   6.762
 8277TIP3    H124776   7.956   4.682   6.807
 8277TIP3    H224777   8.015   4.788   6.716
 8278TIP3   OH224778   3.348   3.573   1.781
 8278TIP3    H124779   3.271   3.580   1.838
 8278TIP3    H224780   3.421   3.561   1.842
 8279TIP3   OH224781   6.091   2.227   5.419
 8279TIP3    H124782   6.152   2.154   5.415
 8279TIP3    H224783   6.023   2.205   5.355
 8280TIP3   OH224784   4.750   0.932   0.323
 8280TIP3    H124785   4.721   0.876   0.395
 8280TIP3    H224786   4.844   0.943   0.338
 8281TIP3   OH224787   1.632   6.002   6.112
 8281TIP3    H124788   1.544   6.036   6.131
 8281TIP3    H224789   1.680   6.078   6.079
 8282TIP3   OH224790   3.840   2.162   4.064
 8282TIP3    H124791   3.792   2.191   4.141
 8282TIP3    H224792   3.772   2.143   3.999
 8283TIP3   OH224793   1.861   4.472   0.843
 8283TIP3    H124794   1.846   4.388   0.884
 8283TIP3    H224795   1.775   4.499   0.810
 8284TIP3   OH224796   4.911   4.896   6.636
 8284TIP3    H124797   4.948   4.970   6.683
 8284TIP3    H224798   4.941   4.819   6.684
 8285TIP3   OH224799   3.842   0.652   5.610
 8285TIP3    H124800   3.806   0.572   5.570
 8285TIP3    H224801   3.853   0.629   5.702
 8286TIP3   OH224802   8.016   0.183   2.784
 8286TIP3    H124803   8.030   0.090   2.762
 8286TIP3    H224804   8.005   0.184   2.879
 8287TIP3   OH224805   1.999   4.975   1.755
 8287TIP3    H124806   1.929   4.952   1.693
 8287TIP3    H224807   1.985   5.068   1.773
 8288TIP3   OH224808   3.484   0.868   6.162
 8288TIP3    H124809   3.539   0.856   6.240
 8288TIP3    H224810   3.534   0.928   6.106
 8289TIP3   OH224811   4.690   1.481   6.573
 8289TIP3    H124812   4.780   1.509   6.586
 8289TIP3    H224813   4.676   1.412   6.639
 8290TIP3   OH224814   3.599   2.161   2.825
 8290TIP3    H124815   3.577   2.237   2.879
 8290TIP3    H224816   3.515   2.122   2.803
 8291TIP3   OH224817   8.124   0.632   3.701
 8291TIP3    H124818   8.067   0.665   3.631
 8291TIP3    H224819   8.156   0.547   3.668
 8292TIP3   OH224820   0.619   6.899   3.103
 8292TIP3    H124821   0.623   6.804   3.089
 8292TIP3    H224822   0.548   6.911   3.166
 8293TIP3   OH224823   1.524   5.788   1.069
 8293TIP3    H124824   1.582   5.737   1.126
 8293TIP3    H224825   1.545   5.759   0.981
 8294TIP3   OH224826   0.908   0.854   5.734
 8294TIP3    H124827   1.002   0.865   5.749
 8294TIP3    H224828   0.884   0.929   5.680
 8295TIP3   OH224829   6.508   2.367   4.283
 8295TIP3    H124830   6.490   2.458   4.306
 8295TIP3    H224831   6.422   2.324   4.286
 8296TIP3   OH224832   7.577   2.137   3.267
 8296TIP3    H124833   7.561   2.110   3.358
 8296TIP3    H224834   7.627   2.219   3.275
 8297TIP3   OH224835   7.967   4.383   6.664
 8297TIP3    H124836   7.921   4.390   6.581
 8297TIP3    H224837   8.052   4.423   6.649
 8298TIP3   OH224838   2.501   4.954   5.757
 8298TIP3    H124839   2.446   4.976   5.833
 8298TIP3    H224840   2.458   4.997   5.683
 8299TIP3   OH224841   1.686   7.387   0.636
 8299TIP3    H124842   1.739   7.389   0.556
 8299TIP3    H224843   1.665   7.479   0.652
 8300TIP3   OH224844   3.042   0.257   0.625
 8300TIP3    H124845   3.036   0.278   0.532
 8300TIP3    H224846   3.031   0.340   0.670
 8301TIP3   OH224847   3.361   3.851   4.754
 8301TIP3    H124848   3.360   3.854   4.850
 8301TIP3    H224849   3.360   3.757   4.733
 8302TIP3   OH224850   3.222   5.351   5.707
 8302TIP3    H124851   3.137   5.342   5.665
 8302TIP3    H224852   3.284   5.358   5.634
 8303TIP3   OH224853   8.058   6.977   4.925
 8303TIP3    H124854   8.147   6.949   4.949
 8303TIP3    H224855   8.058   7.072   4.939
 8304TIP3   OH224856   3.458   6.729   1.768
 8304TIP3    H124857   3.511   6.694   1.697
 8304TIP3    H224858   3.470   6.667   1.840
 8305TIP3   OH224859   6.699   4.632   5.757
 8305TIP3    H124860   6.722   4.558   5.812
 8305TIP3    H224861   6.782   4.666   5.725
 8306TIP3   OH224862   3.851   7.226   6.258
 8306TIP3    H124863   3.870   7.178   6.177
 8306TIP3    H224864   3.926   7.285   6.269
 8307TIP3   OH224865   6.254   1.362   6.072
 8307TIP3    H124866   6.250   1.400   6.160
 8307TIP3    H224867   6.163   1.346   6.048
 8308TIP3   OH224868   5.053   7.799   0.145
 8308TIP3    H124869   5.004   7.724   0.113
 8308TIP3    H224870   5.125   7.761   0.196
 8309TIP3   OH224871   6.846   1.919   2.544
 8309TIP3    H124872   6.870   1.969   2.466
 8309TIP3    H224873   6.864   1.977   2.617
 8310TIP3   OH224874   3.216   6.056   0.438
 8310TIP3    H124875   3.225   6.105   0.356
 8310TIP3    H224876   3.267   5.976   0.425
 8311TIP3   OH224877   7.372   6.917   4.680
 8311TIP3    H124878   7.380   6.955   4.768
 8311TIP3    H224879   7.280   6.892   4.672
 8312TIP3   OH224880   2.253   1.190   1.947
 8312TIP3    H124881   2.184   1.147   1.896
 8312TIP3    H224882   2.210   1.268   1.983
 8313TIP3   OH224883   2.820   3.916   5.739
 8313TIP3    H124884   2.751   3.912   5.672
 8313TIP3    H224885   2.815   3.831   5.783
 8314TIP3   OH224886   1.686   3.728   3.893
 8314TIP3    H124887   1.759   3.731   3.955
 8314TIP3    H224888   1.653   3.638   3.898
 8315TIP3   OH224889   6.455   2.841   6.644
 8315TIP3    H124890   6.527   2.778   6.648
 8315TIP3    H224891   6.491   2.922   6.682
 8316TIP3   OH224892   5.693   3.054   5.974
 8316TIP3    H124893   5.712   3.092   5.888
 8316TIP3    H224894   5.621   3.107   6.008
 8317TIP3   OH224895   1.450   7.291   0.938
 8317TIP3    H124896   1.545   7.300   0.933
 8317TIP3    H224897   1.434   7.197   0.934
 8318TIP3   OH224898   3.922   7.480   1.036
 8318TIP3    H124899   3.880   7.541   0.975
 8318TIP3    H224900   3.908   7.520   1.122
 8319TIP3   OH224901   6.891   3.681   0.075
 8319TIP3    H124902   6.905   3.704   0.166
 8319TIP3    H224903   6.796   3.680   0.064
 8320TIP3   OH224904   3.337   0.642   5.673
 8320TIP3    H124905   3.242   0.652   5.680
 8320TIP3    H224906   3.349   0.591   5.593
 8321TIP3   OH224907   3.285   4.343   4.810
 8321TIP3    H124908   3.308   4.345   4.903
 8321TIP3    H224909   3.360   4.384   4.766
 8322TIP3   OH224910   1.010   5.788   5.377
 8322TIP3    H124911   1.063   5.757   5.304
 8322TIP3    H224912   0.973   5.709   5.416
 8323TIP3   OH224913   2.458   6.420   2.828
 8323TIP3    H124914   2.534   6.394   2.775
 8323TIP3    H224915   2.430   6.503   2.791
 8324TIP3   OH224916   0.837   6.262   0.069
 8324TIP3    H124917   0.867   6.349   0.095
 8324TIP3    H224918   0.907   6.229   0.013
 8325TIP3   OH224919   2.707   0.007   4.358
 8325TIP3    H124920   2.651   0.073   4.317
 8325TIP3    H224921   2.796   0.033   4.336
 8326TIP3   OH224922   7.858   6.821   3.370
 8326TIP3    H124923   7.783   6.873   3.342
 8326TIP3    H224924   7.892   6.783   3.289
 8327TIP3   OH224925   7.738   3.027   1.583
 8327TIP3    H124926   7.823   3.052   1.620
 8327TIP3    H224927   7.675   3.080   1.632
 8328TIP3   OH224928   2.642   7.505   1.028
 8328TIP3    H124929   2.730   7.514   0.991
 8328TIP3    H224930   2.583   7.508   0.953
 8329TIP3   OH224931   6.174   1.286   1.333
 8329TIP3    H124932   6.092   1.249   1.301
 8329TIP3    H224933   6.165   1.380   1.317
 8330TIP3   OH224934   5.910   1.081   1.519
 8330TIP3    H124935   5.834   1.049   1.470
 8330TIP3    H224936   5.874   1.145   1.580
 8331TIP3   OH224937   7.577   1.596   1.664
 8331TIP3    H124938   7.557   1.652   1.740
 8331TIP3    H224939   7.661   1.629   1.632
 8332TIP3   OH224940   1.497   3.712   0.346
 8332TIP3    H124941   1.511   3.806   0.357
 8332TIP3    H224942   1.478   3.701   0.253
 8333TIP3   OH224943   0.557   4.323   2.965
 8333TIP3    H124944   0.480   4.372   2.991
 8333TIP3    H224945   0.569   4.342   2.872
 8334TIP3   OH224946   7.592   0.078   1.241
 8334TIP3    H124947   7.646   0.068   1.319
 8334TIP3    H224948   7.511   0.117   1.273
 8335TIP3   OH224949   4.579   5.439   2.349
 8335TIP3    H124950   4.531   5.522   2.357
 8335TIP3    H224951   4.513   5.372   2.365
 8336TIP3   OH224952   0.839   1.668   1.744
 8336TIP3    H124953   0.815   1.576   1.758
 8336TIP3    H224954   0.872   1.671   1.655
 8337TIP3   OH224955   0.109   6.718   0.993
 8337TIP3    H124956   0.048   6.783   0.958
 8337TIP3    H224957   0.196   6.755   0.974
 8338TIP3   OH224958   2.259   5.075   0.525
 8338TIP3    H124959   2.226   5.163   0.542
 8338TIP3    H224960   2.203   5.041   0.455
 8339TIP3   OH224961   0.315   0.093   6.318
 8339TIP3    H124962   0.231   0.061   6.285
 8339TIP3    H224963   0.313   0.187   6.302
 8340TIP3   OH224964   7.927   5.089   1.881
 8340TIP3    H124965   7.864   5.036   1.831
 8340TIP3    H224966   7.985   5.025   1.922
 8341TIP3   OH224967   7.874   5.847   0.445
 8341TIP3    H124968   7.906   5.935   0.465
 8341TIP3    H224969   7.786   5.844   0.483
 8342TIP3   OH224970   4.111   1.251   4.893
 8342TIP3    H124971   4.111   1.283   4.803
 8342TIP3    H224972   4.086   1.159   4.887
 8343TIP3   OH224973   5.383   6.795   1.388
 8343TIP3    H124974   5.412   6.863   1.327
 8343TIP3    H224975   5.302   6.761   1.350
 8344TIP3   OH224976   0.527   6.582   0.791
 8344TIP3    H124977   0.453   6.536   0.753
 8344TIP3    H224978   0.594   6.580   0.723
 8345TIP3   OH224979   2.179   3.967   1.071
 8345TIP3    H124980   2.242   4.034   1.099
 8345TIP3    H224981   2.233   3.897   1.036
 8346TIP3   OH224982   5.430   4.916   5.070
 8346TIP3    H124983   5.409   4.933   5.162
 8346TIP3    H224984   5.479   4.993   5.042
 8347TIP3   OH224985   5.955   6.131   4.304
 8347TIP3    H124986   5.901   6.129   4.382
 8347TIP3    H224987   5.895   6.109   4.232
 8348TIP3   OH224988   0.917   5.185   0.558
 8348TIP3    H124989   1.004   5.205   0.523
 8348TIP3    H224990   0.873   5.138   0.487
 8349TIP3   OH224991   4.056   1.831   4.440
 8349TIP3    H124992   4.118   1.875   4.382
 8349TIP3    H224993   4.103   1.753   4.470
 8350TIP3   OH224994   5.519   3.801   1.463
 8350TIP3    H124995   5.499   3.805   1.556
 8350TIP3    H224996   5.543   3.891   1.440
 8351TIP3   OH224997   5.992   4.672   2.324
 8351TIP3    H124998   5.919   4.641   2.271
 8351TIP3    H224999   5.956   4.683   2.412
 8352TIP3   OH225000   5.838   4.727   2.517
 8352TIP3    H125001   5.808   4.807   2.475
 8352TIP3    H225002   5.788   4.723   2.599
 8353TIP3   OH225003   5.132   7.574   3.035
 8353TIP3    H125004   5.162   7.499   2.984
 8353TIP3    H225005   5.211   7.605   3.079
 8354TIP3   OH225006   3.577   5.916   2.317
 8354TIP3    H125007   3.668   5.895   2.338
 8354TIP3    H225008   3.526   5.868   2.382
 8355TIP3   OH225009   6.250   1.324   4.614
 8355TIP3    H125010   6.338   1.308   4.648
 8355TIP3    H225011   6.200   1.353   4.690
 8356TIP3   OH225012   2.789   1.098   1.709
 8356TIP3    H125013   2.790   1.144   1.625
 8356TIP3    H225014   2.719   1.034   1.701
 8357TIP3   OH225015   5.806   2.748   2.742
 8357TIP3    H125016   5.716   2.735   2.714
 8357TIP3    H225017   5.841   2.814   2.682
 8358TIP3   OH225018   1.557   5.266   2.047
 8358TIP3    H125019   1.529   5.175   2.042
 8358TIP3    H225020   1.518   5.308   1.971
 8359TIP3   OH225021   3.384   7.317   0.559
 8359TIP3    H125022   3.366   7.240   0.506
 8359TIP3    H225023   3.420   7.282   0.641
 8360TIP3   OH225024   1.718   3.709   0.703
 8360TIP3    H125025   1.756   3.621   0.708
 8360TIP3    H225026   1.635   3.697   0.657
 8361TIP3   OH225027   3.573   5.014   0.534
 8361TIP3    H125028   3.624   5.018   0.453
 8361TIP3    H225029   3.556   5.106   0.556
 8362TIP3   OH225030   3.042   4.882   4.533
 8362TIP3    H125031   3.046   4.977   4.540
 8362TIP3    H225032   2.973   4.865   4.469
 8363TIP3   OH225033   5.846   2.217   5.308
 8363TIP3    H125034   5.789   2.188   5.236
 8363TIP3    H225035   5.807   2.300   5.337
 8364TIP3   OH225036   7.681   6.518   2.028
 8364TIP3    H125037   7.592   6.555   2.030
 8364TIP3    H225038   7.728   6.566   2.097
 8365TIP3   OH225039   3.806   1.170   5.132
 8365TIP3    H125040   3.821   1.194   5.041
 8365TIP3    H225041   3.863   1.229   5.182
 8366TIP3   OH225042   1.278   0.945   2.467
 8366TIP3    H125043   1.275   0.875   2.402
 8366TIP3    H225044   1.350   0.921   2.526
 8367TIP3   OH225045   2.682   0.131   6.350
 8367TIP3    H125046   2.757   0.149   6.293
 8367TIP3    H225047   2.611   0.107   6.290
 8368TIP3   OH225048   4.352   1.676   5.514
 8368TIP3    H125049   4.407   1.602   5.539
 8368TIP3    H225050   4.297   1.693   5.591
 8369TIP3   OH225051   2.503   6.970   1.553
 8369TIP3    H125052   2.591   6.938   1.533
 8369TIP3    H225053   2.445   6.899   1.525
 8370TIP3   OH225054   8.288   7.163   0.761
 8370TIP3    H125055   8.314   7.242   0.809
 8370TIP3    H225056   8.361   7.146   0.702
 8371TIP3   OH225057   1.180   4.574   6.220
 8371TIP3    H125058   1.219   4.492   6.251
 8371TIP3    H225059   1.242   4.606   6.154
 8372TIP3   OH225060   0.649   3.548   6.076
 8372TIP3    H125061   0.657   3.520   6.167
 8372TIP3    H225062   0.558   3.530   6.053
 8373TIP3   OH225063   4.969   6.281   4.909
 8373TIP3    H125064   4.923   6.274   4.825
 8373TIP3    H225065   4.967   6.192   4.944
 8374TIP3   OH225066   6.080   2.409   6.263
 8374TIP3    H125067   6.032   2.413   6.346
 8374TIP3    H225068   6.081   2.500   6.232
 8375TIP3   OH225069   2.586   3.874   0.015
 8375TIP3    H125070   2.538   3.801  -0.024
 8375TIP3    H225071   2.615   3.927  -0.060
 8376TIP3   OH225072   7.496   1.576   0.385
 8376TIP3    H125073   7.410   1.555   0.421
 8376TIP3    H225074   7.558   1.529   0.440
 8377TIP3   OH225075   3.613   1.862   2.573
 8377TIP3    H125076   3.603   1.792   2.509
 8377TIP3    H225077   3.668   1.824   2.641
 8378TIP3   OH225078   3.752   5.206   3.646
 8378TIP3    H125079   3.797   5.168   3.721
 8378TIP3    H225080   3.822   5.238   3.589
 8379TIP3   OH225081   4.633   2.506   2.098
 8379TIP3    H125082   4.582   2.426   2.096
 8379TIP3    H225083   4.704   2.488   2.160
 8380TIP3   OH225084   4.218   6.685   6.287
 8380TIP3    H125085   4.168   6.662   6.365
 8380TIP3    H225086   4.179   6.765   6.254
 8381TIP3   OH225087   4.894   0.608   3.329
 8381TIP3    H125088   4.832   0.606   3.257
 8381TIP3    H225089   4.939   0.524   3.325
 8382TIP3   OH225090   1.810   3.450   4.185
 8382TIP3    H125091   1.817   3.543   4.206
 8382TIP3    H225092   1.774   3.410   4.264
 8383TIP3   OH225093   2.864   7.623   4.633
 8383TIP3    H125094   2.906   7.620   4.547
 8383TIP3    H225095   2.871   7.533   4.666
 8384TIP3   OH225096   8.291   7.624   3.055
 8384TIP3    H125097   8.305   7.547   3.000
 8384TIP3    H225098   8.330   7.696   3.005
 8385TIP3   OH225099   0.459   1.571   4.844
 8385TIP3    H125100   0.373   1.604   4.819
 8385TIP3    H225101   0.472   1.603   4.933
 8386TIP3   OH225102   5.807   3.297   0.955
 8386TIP3    H125103   5.902   3.285   0.948
 8386TIP3    H225104   5.787   3.365   0.890
 8387TIP3   OH225105   5.331   1.300   0.350
 8387TIP3    H125106   5.328   1.221   0.296
 8387TIP3    H225107   5.395   1.280   0.418
 8388TIP3   OH225108   6.547   2.731   1.221
 8388TIP3    H125109   6.598   2.652   1.203
 8388TIP3    H225110   6.513   2.758   1.136
 8389TIP3   OH225111   6.920   3.823   1.850
 8389TIP3    H125112   6.840   3.875   1.852
 8389TIP3    H225113   6.968   3.855   1.774
 8390TIP3   OH225114   1.749   7.418   5.007
 8390TIP3    H125115   1.691   7.417   4.931
 8390TIP3    H225116   1.815   7.351   4.987
 8391TIP3   OH225117   5.221   1.488   0.155
 8391TIP3    H125118   5.255   1.457   0.239
 8391TIP3    H225119   5.258   1.428   0.090
 8392TIP3   OH225120   0.529   3.615   0.890
 8392TIP3    H125121   0.544   3.567   0.971
 8392TIP3    H225122   0.489   3.697   0.919
 8393TIP3   OH225123   5.964   4.534   6.294
 8393TIP3    H125124   5.956   4.611   6.238
 8393TIP3    H225125   6.056   4.509   6.287
 8394TIP3   OH225126   3.534   2.388   4.527
 8394TIP3    H125127   3.480   2.419   4.455
 8394TIP3    H225128   3.471   2.360   4.594
 8395TIP3   OH225129   6.209   0.679   5.072
 8395TIP3    H125130   6.114   0.682   5.085
 8395TIP3    H225131   6.225   0.737   4.998
 8396TIP3   OH225132   5.917   7.484   5.211
 8396TIP3    H125133   5.843   7.424   5.224
 8396TIP3    H225134   5.987   7.428   5.179
 8397TIP3   OH225135   1.077   4.640   1.299
 8397TIP3    H125136   1.157   4.655   1.350
 8397TIP3    H225137   1.108   4.616   1.212
 8398TIP3   OH225138   2.515   3.865   0.464
 8398TIP3    H125139   2.422   3.864   0.485
 8398TIP3    H225140   2.528   3.789   0.407
 8399TIP3   OH225141   2.870   1.874   3.631
 8399TIP3    H125142   2.782   1.892   3.665
 8399TIP3    H225143   2.892   1.953   3.582
 8400TIP3   OH225144   3.852   3.586   4.689
 8400TIP3    H125145   3.831   3.660   4.632
 8400TIP3    H225146   3.800   3.601   4.768
 8401TIP3   OH225147   5.292   4.478   6.494
 8401TIP3    H125148   5.330   4.435   6.418
 8401TIP3    H225149   5.293   4.571   6.472
 8402TIP3   OH225150   7.621   3.227   3.191
 8402TIP3    H125151   7.569   3.159   3.149
 8402TIP3    H225152   7.645   3.286   3.121
 8403TIP3   OH225153   3.378   0.046   6.152
 8403TIP3    H125154   3.347   0.039   6.062
 8403TIP3    H225155   3.298   0.054   6.204
 8404TIP3   OH225156   5.348   2.348   3.563
 8404TIP3    H125157   5.375   2.277   3.623
 8404TIP3    H225158   5.253   2.338   3.557
 8405TIP3   OH225159   5.695   0.636   1.583
 8405TIP3    H125160   5.675   0.558   1.531
 8405TIP3    H225161   5.649   0.707   1.538
 8406TIP3   OH225162   5.864   7.576   1.988
 8406TIP3    H125163   5.824   7.516   1.925
 8406TIP3    H225164   5.908   7.642   1.935
 8407TIP3   OH225165   2.678   7.467   4.419
 8407TIP3    H125166   2.631   7.499   4.342
 8407TIP3    H225167   2.765   7.507   4.412
 8408TIP3   OH225168   2.425   4.904   6.748
 8408TIP3    H125169   2.459   4.848   6.818
 8408TIP3    H225170   2.496   4.965   6.729
 8409TIP3   OH225171   8.114   0.440   0.737
 8409TIP3    H125172   8.160   0.519   0.768
 8409TIP3    H225173   8.160   0.367   0.779
 8410TIP3   OH225174   6.245   5.264   1.017
 8410TIP3    H125175   6.290   5.326   0.959
 8410TIP3    H225176   6.153   5.270   0.991
 8411TIP3   OH225177   3.339   5.082   0.058
 8411TIP3    H125178   3.407   5.132   0.014
 8411TIP3    H225179   3.364   5.083   0.150
 8412TIP3   OH225180   3.251   7.465   2.423
 8412TIP3    H125181   3.187   7.510   2.479
 8412TIP3    H225182   3.203   7.392   2.385
 8413TIP3   OH225183   3.736   3.563   4.106
 8413TIP3    H125184   3.758   3.474   4.079
 8413TIP3    H225185   3.792   3.580   4.182
 8414TIP3   OH225186   3.255   5.391   1.391
 8414TIP3    H125187   3.313   5.396   1.467
 8414TIP3    H225188   3.222   5.481   1.381
 8415TIP3   OH225189   3.160   2.955   2.528
 8415TIP3    H125190   3.212   2.897   2.474
 8415TIP3    H225191   3.222   2.995   2.589
 8416TIP3   OH225192   8.016   3.865   2.541
 8416TIP3    H125193   7.926   3.883   2.567
 8416TIP3    H225194   8.049   3.948   2.508
 8417TIP3   OH225195   1.249   0.214   2.343
 8417TIP3    H125196   1.175   0.275   2.334
 8417TIP3    H225197   1.233   0.148   2.276
 8418TIP3   OH225198   5.422   1.571   5.922
 8418TIP3    H125199   5.387   1.507   5.860
 8418TIP3    H225200   5.500   1.606   5.879
 8419TIP3   OH225201   3.941   0.855   3.534
 8419TIP3    H125202   3.989   0.921   3.484
 8419TIP3    H225203   3.849   0.866   3.508
 8420TIP3   OH225204   7.928   3.839   4.798
 8420TIP3    H125205   7.960   3.755   4.830
 8420TIP3    H225206   8.002   3.877   4.751
 8421TIP3   OH225207   0.957   3.815   1.650
 8421TIP3    H125208   0.972   3.751   1.581
 8421TIP3    H225209   1.003   3.894   1.620
 8422TIP3   OH225210   3.627   4.720   3.205
 8422TIP3    H125211   3.594   4.791   3.261
 8422TIP3    H225212   3.554   4.700   3.147
 8423TIP3   OH225213   3.402   0.008   1.951
 8423TIP3    H125214   3.417  -0.038   1.869
 8423TIP3    H225215   3.307   0.022   1.955
 8424TIP3   OH225216   4.624   2.280   4.778
 8424TIP3    H125217   4.659   2.341   4.843
 8424TIP3    H225218   4.583   2.210   4.829
 8425TIP3   OH225219   7.705   0.990   4.128
 8425TIP3    H125220   7.782   1.027   4.171
 8425TIP3    H225221   7.665   1.064   4.083
 8426TIP3   OH225222   7.568   4.270   0.975
 8426TIP3    H125223   7.534   4.181   0.975
 8426TIP3    H225224   7.644   4.267   0.918
 8427TIP3   OH225225   4.347   0.354   2.899
 8427TIP3    H125226   4.269   0.298   2.894
 8427TIP3    H225227   4.314   0.440   2.923
 8428TIP3   OH225228   3.226   2.915   6.708
 8428TIP3    H125229   3.170   2.984   6.744
 8428TIP3    H225230   3.251   2.947   6.621
 8429TIP3   OH225231   7.910   0.651   0.279
 8429TIP3    H125232   7.965   0.663   0.202
 8429TIP3    H225233   7.834   0.602   0.247
 8430TIP3   OH225234   1.900   7.016   1.614
 8430TIP3    H125235   1.810   7.035   1.639
 8430TIP3    H225236   1.913   6.924   1.640
 8431TIP3   OH225237   0.641   3.276   1.036
 8431TIP3    H125238   0.631   3.371   1.047
 8431TIP3    H225239   0.735   3.263   1.024
 8432TIP3   OH225240   1.208   3.225   6.098
 8432TIP3    H125241   1.266   3.301   6.097
 8432TIP3    H225242   1.222   3.183   6.013
 8433TIP3   OH225243   3.393   4.441   0.168
 8433TIP3    H125244   3.330   4.512   0.167
 8433TIP3    H225245   3.401   4.417   0.260
 8434TIP3   OH225246   3.908   7.424   5.328
 8434TIP3    H125247   3.901   7.426   5.232
 8434TIP3    H225248   3.995   7.388   5.344
 8435TIP3   OH225249   2.911   2.452   3.019
 8435TIP3    H125250   2.819   2.460   3.044
 8435TIP3    H225251   2.956   2.431   3.101
 8436TIP3   OH225252   1.019   0.880   3.106
 8436TIP3    H125253   1.109   0.913   3.112
 8436TIP3    H225254   0.998   0.854   3.196
 8437TIP3   OH225255   7.702   7.079   1.991
 8437TIP3    H125256   7.749   6.999   2.014
 8437TIP3    H225257   7.609   7.056   2.000
 8438TIP3   OH225258   1.986   4.845   1.988
 8438TIP3    H125259   1.909   4.788   1.992
 8438TIP3    H225260   1.978   4.891   1.905
 8439TIP3   OH225261   8.106   0.341   2.327
 8439TIP3    H125262   8.144   0.254   2.317
 8439TIP3    H225263   8.090   0.371   2.238
 8440TIP3   OH225264   5.115   7.746   0.783
 8440TIP3    H125265   5.086   7.725   0.872
 8440TIP3    H225266   5.124   7.661   0.740
 8441TIP3   OH225267   3.338   1.005   6.470
 8441TIP3    H125268   3.412   1.041   6.420
 8441TIP3    H225269   3.379   0.948   6.535
 8442TIP3   OH225270   4.341   2.744   3.823
 8442TIP3    H125271   4.361   2.683   3.752
 8442TIP3    H225272   4.325   2.688   3.899
 8443TIP3   OH225273   3.510   3.682   5.669
 8443TIP3    H125274   3.528   3.616   5.602
 8443TIP3    H225275   3.581   3.672   5.732
 8444TIP3   OH225276   2.621   0.990   4.817
 8444TIP3    H125277   2.709   0.983   4.779
 8444TIP3    H225278   2.578   1.059   4.768
 8445TIP3   OH225279   4.713   5.032   0.809
 8445TIP3    H125280   4.633   4.998   0.850
 8445TIP3    H225281   4.775   5.041   0.880
 8446TIP3   OH225282   5.650   0.526   0.834
 8446TIP3    H125283   5.571   0.570   0.866
 8446TIP3    H225284   5.695   0.497   0.913
 8447TIP3   OH225285   4.269   4.603   4.479
 8447TIP3    H125286   4.244   4.548   4.404
 8447TIP3    H225287   4.365   4.605   4.476
 8448TIP3   OH225288   4.508   2.785   2.716
 8448TIP3    H125289   4.582   2.839   2.689
 8448TIP3    H225290   4.544   2.723   2.779
 8449TIP3   OH225291   1.545   1.389   5.483
 8449TIP3    H125292   1.492   1.429   5.552
 8449TIP3    H225293   1.568   1.303   5.517
 8450TIP3   OH225294   8.103   0.347   0.271
 8450TIP3    H125295   8.014   0.338   0.237
 8450TIP3    H225296   8.098   0.317   0.362
 8451TIP3   OH225297   6.522   3.486   2.653
 8451TIP3    H125298   6.550   3.396   2.670
 8451TIP3    H225299   6.525   3.529   2.738
 8452TIP3   OH225300   8.215   6.004   5.352
 8452TIP3    H125301   8.249   6.077   5.404
 8452TIP3    H225302   8.272   5.931   5.372
 8453TIP3   OH225303   6.698   6.717   6.327
 8453TIP3    H125304   6.763   6.690   6.392
 8453TIP3    H225305   6.661   6.636   6.294
 8454TIP3   OH225306   0.087   3.986   4.636
 8454TIP3    H125307   0.158   4.025   4.686
 8454TIP3    H225308   0.131   3.936   4.567
 8455TIP3   OH225309   1.920   2.132   2.057
 8455TIP3    H125310   1.989   2.074   2.024
 8455TIP3    H225311   1.841   2.078   2.057
 8456TIP3   OH225312   6.793   5.096   4.960
 8456TIP3    H125313   6.755   5.119   5.045
 8456TIP3    H225314   6.830   5.178   4.927
 8457TIP3   OH225315   3.711   6.033   1.916
 8457TIP3    H125316   3.775   6.009   1.983
 8457TIP3    H225317   3.755   6.015   1.833
 8458TIP3   OH225318   8.072   3.700   0.108
 8458TIP3    H125319   8.052   3.770   0.170
 8458TIP3    H225320   7.991   3.690   0.058
 8459TIP3   OH225321   3.754   3.012   5.398
 8459TIP3    H125322   3.757   2.917   5.396
 8459TIP3    H225323   3.677   3.034   5.344
 8460TIP3   OH225324   6.242   3.479   6.174
 8460TIP3    H125325   6.324   3.432   6.163
 8460TIP3    H225326   6.174   3.418   6.145
 8461TIP3   OH225327   7.145   3.097   3.067
 8461TIP3    H125328   7.178   3.084   3.155
 8461TIP3    H225329   7.117   3.189   3.064
 8462TIP3   OH225330   8.008   3.240   5.987
 8462TIP3    H125331   7.968   3.267   5.905
 8462TIP3    H225332   8.102   3.248   5.971
 8463TIP3   OH225333   4.312   7.041   1.986
 8463TIP3    H125334   4.327   7.133   2.006
 8463TIP3    H225335   4.353   6.994   2.058
 8464TIP3   OH225336   5.622   2.805   0.725
 8464TIP3    H125337   5.645   2.882   0.674
 8464TIP3    H225338   5.563   2.838   0.794
 8465TIP3   OH225339   7.087   7.346   0.711
 8465TIP3    H125340   7.005   7.314   0.675
 8465TIP3    H225341   7.127   7.396   0.640
 8466TIP3   OH225342   2.377   2.082   6.619
 8466TIP3    H125343   2.432   2.009   6.647
 8466TIP3    H225344   2.317   2.096   6.692
 8467TIP3   OH225345   3.466   2.184   1.996
 8467TIP3    H125346   3.393   2.244   2.014
 8467TIP3    H225347   3.475   2.186   1.901
 8468TIP3   OH225348   2.494   1.012   1.996
 8468TIP3    H125349   2.449   1.096   2.002
 8468TIP3    H225350   2.541   1.003   2.079
 8469TIP3   OH225351   4.553   6.531   4.000
 8469TIP3    H125352   4.603   6.531   3.918
 8469TIP3    H225353   4.508   6.616   4.002
 8470TIP3   OH225354   0.435   6.272   6.277
 8470TIP3    H125355   0.521   6.242   6.305
 8470TIP3    H225356   0.374   6.207   6.312
 8471TIP3   OH225357   5.679   5.725   3.123
 8471TIP3    H125358   5.761   5.766   3.097
 8471TIP3    H225359   5.678   5.641   3.077
 8472TIP3   OH225360   6.314   5.466   5.576
 8472TIP3    H125361   6.232   5.426   5.606
 8472TIP3    H225362   6.312   5.458   5.481
 8473TIP3   OH225363   5.749   5.618   1.774
 8473TIP3    H125364   5.806   5.573   1.836
 8473TIP3    H225365   5.681   5.657   1.828
 8474TIP3   OH225366   3.976   2.370   6.299
 8474TIP3    H125367   3.936   2.374   6.387
 8474TIP3    H225368   4.069   2.360   6.316
 8475TIP3   OH225369   6.885   0.579   1.908
 8475TIP3    H125370   6.964   0.605   1.862
 8475TIP3    H225371   6.813   0.614   1.855
 8476TIP3   OH225372   1.332   4.617   3.227
 8476TIP3    H125373   1.330   4.527   3.258
 8476TIP3    H225374   1.421   4.628   3.192
 8477TIP3   OH225375   1.102   0.034   0.228
 8477TIP3    H125376   1.193   0.003   0.228
 8477TIP3    H225377   1.108   0.126   0.203
 8478TIP3   OH225378   5.890   6.464   1.232
 8478TIP3    H125379   5.905   6.376   1.267
 8478TIP3    H225380   5.889   6.451   1.137
 8479TIP3   OH225381   3.599   7.683   4.484
 8479TIP3    H125382   3.571   7.593   4.501
 8479TIP3    H225383   3.645   7.678   4.400
 8480TIP3   OH225384   0.368   2.752   4.430
 8480TIP3    H125385   0.400   2.722   4.345
 8480TIP3    H225386   0.424   2.707   4.494
 8481TIP3   OH225387   4.628   0.681   4.982
 8481TIP3    H125388   4.673   0.745   5.037
 8481TIP3    H225389   4.536   0.688   5.008
 8482TIP3   OH225390   3.484   6.724   0.538
 8482TIP3    H125391   3.425   6.683   0.475
 8482TIP3    H225392   3.536   6.651   0.573
 8483TIP3   OH225393   7.471   3.794   3.531
 8483TIP3    H125394   7.480   3.734   3.457
 8483TIP3    H225395   7.428   3.742   3.599
 8484TIP3   OH225396   3.994   4.415   3.975
 8484TIP3    H125397   3.978   4.326   4.006
 8484TIP3    H225398   4.064   4.449   4.031
 8485TIP3   OH225399   4.611   3.432   1.544
 8485TIP3    H125400   4.561   3.461   1.468
 8485TIP3    H225401   4.559   3.459   1.620
 8486TIP3   OH225402   1.496   4.656   2.798
 8486TIP3    H125403   1.515   4.736   2.846
 8486TIP3    H225404   1.579   4.609   2.794
 8487TIP3   OH225405   5.619   6.824   2.435
 8487TIP3    H125406   5.685   6.811   2.502
 8487TIP3    H225407   5.666   6.866   2.363
 8488TIP3   OH225408   0.928   0.944   4.689
 8488TIP3    H125409   1.003   0.981   4.642
 8488TIP3    H225410   0.875   1.019   4.713
 8489TIP3   OH225411   5.413   6.469   3.813
 8489TIP3    H125412   5.401   6.556   3.775
 8489TIP3    H225413   5.458   6.486   3.896
 8490TIP3   OH225414   4.465   5.517   0.867
 8490TIP3    H125415   4.403   5.459   0.911
 8490TIP3    H225416   4.534   5.532   0.931
 8491TIP3   OH225417   1.089   2.789   6.021
 8491TIP3    H125418   1.160   2.801   6.084
 8491TIP3    H225419   1.039   2.871   6.026
 8492TIP3   OH225420   2.718   5.753   2.695
 8492TIP3    H125421   2.650   5.726   2.757
 8492TIP3    H225422   2.772   5.675   2.684
 8493TIP3   OH225423   0.954   4.111   3.680
 8493TIP3    H125424   0.996   4.043   3.627
 8493TIP3    H225425   0.861   4.101   3.662
 8494TIP3   OH225426   5.317   4.651   3.449
 8494TIP3    H125427   5.280   4.644   3.361
 8494TIP3    H225428   5.326   4.745   3.464
 8495TIP3   OH225429   4.116   7.379   0.713
 8495TIP3    H125430   4.084   7.469   0.710
 8495TIP3    H225431   4.211   7.387   0.716
 8496TIP3   OH225432   3.905   6.897   0.771
 8496TIP3    H125433   3.881   6.842   0.697
 8496TIP3    H225434   4.000   6.900   0.769
 8497TIP3   OH225435   8.028   3.720   3.112
 8497TIP3    H125436   8.010   3.809   3.143
 8497TIP3    H225437   7.942   3.678   3.106
 8498TIP3   OH225438   0.353   4.613   2.611
 8498TIP3    H125439   0.380   4.637   2.523
 8498TIP3    H225440   0.258   4.615   2.608
 8499TIP3   OH225441   2.904   2.395   1.609
 8499TIP3    H125442   2.897   2.308   1.570
 8499TIP3    H225443   2.999   2.412   1.611
 8500TIP3   OH225444   1.150   1.873   0.904
 8500TIP3    H125445   1.081   1.888   0.969
 8500TIP3    H225446   1.225   1.921   0.938
 8501TIP3   OH225447   6.362   0.109   1.434
 8501TIP3    H125448   6.303   0.034   1.430
 8501TIP3    H225449   6.336   0.155   1.514
 8502TIP3   OH225450   2.273   5.231   5.088
 8502TIP3    H125451   2.271   5.258   4.997
 8502TIP3    H225452   2.316   5.146   5.088
 8503TIP3   OH225453   8.212   0.059   4.710
 8503TIP3    H125454   8.149   0.085   4.777
 8503TIP3    H225455   8.294   0.045   4.757
 8504TIP3   OH225456   7.898   1.769   0.515
 8504TIP3    H125457   7.891   1.782   0.610
 8504TIP3    H225458   7.989   1.791   0.495
 8505TIP3   OH225459   6.086   6.450   4.441
 8505TIP3    H125460   6.129   6.479   4.360
 8505TIP3    H225461   5.995   6.475   4.430
 8506TIP3   OH225462   5.894   1.880   2.474
 8506TIP3    H125463   5.896   1.950   2.540
 8506TIP3    H225464   5.980   1.838   2.482
 8507TIP3   OH225465   5.182   2.696   4.011
 8507TIP3    H125466   5.142   2.630   4.068
 8507TIP3    H225467   5.191   2.773   4.067
 8508TIP3   OH225468   3.556   0.920   4.324
 8508TIP3    H125469   3.543   0.848   4.262
 8508TIP3    H225470   3.650   0.934   4.326
 8509TIP3   OH225471   0.739   7.807   5.324
 8509TIP3    H125472   0.785   7.739   5.374
 8509TIP3    H225473   0.696   7.758   5.253
 8510TIP3   OH225474   3.915   2.171   6.761
 8510TIP3    H125475   3.966   2.159   6.841
 8510TIP3    H225476   3.888   2.083   6.735
 8511TIP3   OH225477   3.885   3.318   2.803
 8511TIP3    H125478   3.882   3.381   2.876
 8511TIP3    H225479   3.940   3.247   2.836
 8512TIP3   OH225480   5.379   4.231   4.894
 8512TIP3    H125481   5.474   4.226   4.911
 8512TIP3    H225482   5.339   4.194   4.973
 8513TIP3   OH225483   1.191   2.116   2.843
 8513TIP3    H125484   1.194   2.162   2.927
 8513TIP3    H225485   1.117   2.057   2.850
 8514TIP3   OH225486   4.092   1.218   4.112
 8514TIP3    H125487   4.044   1.136   4.112
 8514TIP3    H225488   4.063   1.263   4.033
 8515TIP3   OH225489   3.986   6.664   4.499
 8515TIP3    H125490   3.928   6.727   4.542
 8515TIP3    H225491   3.927   6.602   4.458
 8516TIP3   OH225492   4.434   0.566   5.636
 8516TIP3    H125493   4.448   0.474   5.612
 8516TIP3    H225494   4.363   0.564   5.700
 8517TIP3   OH225495   4.393   1.047   6.739
 8517TIP3    H125496   4.401   1.018   6.830
 8517TIP3    H225497   4.353   1.134   6.745
 8518TIP3   OH225498   0.631   5.940   6.153
 8518TIP3    H125499   0.638   5.933   6.248
 8518TIP3    H225500   0.604   6.031   6.138
 8519TIP3   OH225501   4.913   5.284   5.191
 8519TIP3    H125502   4.968   5.206   5.206
 8519TIP3    H225503   4.845   5.254   5.130
 8520TIP3   OH225504   3.282   2.043   0.555
 8520TIP3    H125505   3.191   2.050   0.583
 8520TIP3    H225506   3.327   2.114   0.602
 8521TIP3   OH225507   7.447   0.499   5.576
 8521TIP3    H125508   7.538   0.528   5.577
 8521TIP3    H225509   7.451   0.407   5.550
 8522TIP3   OH225510   2.729   6.251   4.971
 8522TIP3    H125511   2.711   6.343   4.991
 8522TIP3    H225512   2.775   6.253   4.887
 8523TIP3   OH225513   3.372   1.111   4.267
 8523TIP3    H125514   3.459   1.070   4.266
 8523TIP3    H225515   3.389   1.202   4.291
 8524TIP3   OH225516   0.757   5.029   4.158
 8524TIP3    H125517   0.761   5.108   4.104
 8524TIP3    H225518   0.813   4.966   4.112
 8525TIP3   OH225519   4.610   1.925   3.031
 8525TIP3    H125520   4.516   1.908   3.023
 8525TIP3    H225521   4.633   1.892   3.118
 8526TIP3   OH225522   0.139   1.081   0.255
 8526TIP3    H125523   0.223   1.058   0.294
 8526TIP3    H225524   0.086   1.112   0.328
 8527TIP3   OH225525   0.589   0.370   1.197
 8527TIP3    H125526   0.535   0.428   1.251
 8527TIP3    H225527   0.590   0.287   1.246
 8528TIP3   OH225528   1.716   2.312   1.641
 8528TIP3    H125529   1.802   2.293   1.677
 8528TIP3    H225530   1.731   2.320   1.546
 8529TIP3   OH225531   6.368   2.662   5.696
 8529TIP3    H125532   6.362   2.572   5.728
 8529TIP3    H225533   6.354   2.655   5.602
 8530TIP3   OH225534   0.681   5.773   5.679
 8530TIP3    H125535   0.640   5.792   5.763
 8530TIP3    H225536   0.743   5.703   5.698
 8531TIP3   OH225537   6.213   1.041   6.746
 8531TIP3    H125538   6.290   0.997   6.781
 8531TIP3    H225539   6.165   0.972   6.700
 8532TIP3   OH225540   5.998   3.230   4.222
 8532TIP3    H125541   6.037   3.233   4.309
 8532TIP3    H225542   6.070   3.251   4.162
 8533TIP3   OH225543   1.568   1.333   0.243
 8533TIP3    H125544   1.532   1.347   0.156
 8533TIP3    H225545   1.548   1.242   0.263
 8534TIP3   OH225546   1.426   1.567   5.143
 8534TIP3    H125547   1.488   1.533   5.207
 8534TIP3    H225548   1.341   1.558   5.184
 8535TIP3   OH225549   2.109   3.256   1.169
 8535TIP3    H125550   2.141   3.323   1.109
 8535TIP3    H225551   2.159   3.269   1.249
 8536TIP3   OH225552   0.709   3.584   0.668
 8536TIP3    H125553   0.655   3.601   0.745
 8536TIP3    H225554   0.707   3.666   0.619
 8537TIP3   OH225555   5.871   4.094   5.105
 8537TIP3    H125556   5.944   4.080   5.164
 8537TIP3    H225557   5.879   4.186   5.078
 8538TIP3   OH225558   4.101   1.432   5.103
 8538TIP3    H125559   4.041   1.412   5.174
 8538TIP3    H225560   4.115   1.349   5.059
 8539TIP3   OH225561   5.086   1.841   4.752
 8539TIP3    H125562   5.111   1.798   4.833
 8539TIP3    H225563   5.041   1.921   4.780
 8540TIP3   OH225564   5.278   6.442   2.377
 8540TIP3    H125565   5.307   6.531   2.360
 8540TIP3    H225566   5.267   6.437   2.472
 8541TIP3   OH225567   3.578   3.707   3.160
 8541TIP3    H125568   3.525   3.631   3.184
 8541TIP3    H225569   3.519   3.764   3.111
 8542TIP3   OH225570   5.000   1.366   1.227
 8542TIP3    H125571   4.947   1.377   1.307
 8542TIP3    H225572   4.941   1.324   1.165
 8543TIP3   OH225573   3.915   6.359   2.962
 8543TIP3    H125574   3.823   6.334   2.965
 8543TIP3    H225575   3.914   6.452   2.937
 8544TIP3   OH225576   5.204   4.002   2.202
 8544TIP3    H125577   5.166   4.051   2.128
 8544TIP3    H225578   5.171   4.048   2.280
 8545TIP3   OH225579   0.219   7.711   1.206
 8545TIP3    H125580   0.241   7.632   1.255
 8545TIP3    H225581   0.125   7.705   1.190
 8546TIP3   OH225582   7.249   5.053   4.569
 8546TIP3    H125583   7.235   5.067   4.476
 8546TIP3    H225584   7.174   5.000   4.597
 8547TIP3   OH225585   6.085   2.737   3.407
 8547TIP3    H125586   6.170   2.715   3.445
 8547TIP3    H225587   6.022   2.685   3.457
 8548TIP3   OH225588   2.860   2.110   4.922
 8548TIP3    H125589   2.772   2.082   4.949
 8548TIP3    H225590   2.846   2.193   4.877
 8549TIP3   OH225591   5.363   1.313   2.429
 8549TIP3    H125592   5.394   1.386   2.376
 8549TIP3    H225593   5.442   1.276   2.468
 8550TIP3   OH225594   1.025   5.515   0.808
 8550TIP3    H125595   1.094   5.559   0.758
 8550TIP3    H225596   1.072   5.456   0.867
 8551TIP3   OH225597   5.385   4.681   0.804
 8551TIP3    H125598   5.445   4.753   0.784
 8551TIP3    H225599   5.313   4.721   0.851
 8552TIP3   OH225600   6.606   2.488   3.275
 8552TIP3    H125601   6.656   2.506   3.355
 8552TIP3    H225602   6.556   2.409   3.295
 8553TIP3   OH225603   0.332   6.915   4.233
 8553TIP3    H125604   0.333   6.999   4.280
 8553TIP3    H225605   0.248   6.914   4.188
 8554TIP3   OH225606   4.252   2.027   3.307
 8554TIP3    H125607   4.193   2.058   3.375
 8554TIP3    H225608   4.273   2.106   3.256
 8555TIP3   OH225609   3.564   1.593   1.933
 8555TIP3    H125610   3.517   1.637   1.863
 8555TIP3    H225611   3.653   1.627   1.927
 8556TIP3   OH225612   2.609   6.865   2.974
 8556TIP3    H125613   2.672   6.928   3.009
 8556TIP3    H225614   2.622   6.868   2.879
 8557TIP3   OH225615   3.674   2.624   2.847
 8557TIP3    H125616   3.755   2.639   2.797
 8557TIP3    H225617   3.692   2.663   2.933
 8558TIP3   OH225618   2.650   2.344   6.123
 8558TIP3    H125619   2.669   2.431   6.089
 8558TIP3    H225620   2.720   2.288   6.088
 8559TIP3   OH225621   8.108   2.686   6.731
 8559TIP3    H125622   8.120   2.591   6.720
 8559TIP3    H225623   8.100   2.719   6.642
 8560TIP3   OH225624   1.089   6.869   4.328
 8560TIP3    H125625   0.994   6.864   4.338
 8560TIP3    H225626   1.111   6.961   4.345
 8561TIP3   OH225627   2.980   6.939   0.224
 8561TIP3    H125628   2.975   6.886   0.144
 8561TIP3    H225629   2.965   7.028   0.196
 8562TIP3   OH225630   2.838   4.042   1.674
 8562TIP3    H125631   2.878   4.121   1.638
 8562TIP3    H225632   2.790   4.004   1.601
 8563TIP3   OH225633   7.926   5.777   2.778
 8563TIP3    H125634   7.955   5.763   2.868
 8563TIP3    H225635   7.837   5.741   2.776
 8564TIP3   OH225636   5.141   7.541   2.608
 8564TIP3    H125637   5.061   7.540   2.660
 8564TIP3    H225638   5.132   7.469   2.546
 8565TIP3   OH225639   1.039   1.360   3.648
 8565TIP3    H125640   0.987   1.286   3.618
 8565TIP3    H225641   1.035   1.423   3.575
 8566TIP3   OH225642   2.031   5.677   4.959
 8566TIP3    H125643   2.098   5.614   4.987
 8566TIP3    H225644   2.058   5.760   4.997
 8567TIP3   OH225645   0.935   4.281   3.405
 8567TIP3    H125646   0.914   4.318   3.319
 8567TIP3    H225647   0.990   4.205   3.386
 8568TIP3   OH225648   6.437   0.490   0.268
 8568TIP3    H125649   6.363   0.432   0.250
 8568TIP3    H225650   6.512   0.432   0.280
 8569TIP3   OH225651   2.294   2.874   0.856
 8569TIP3    H125652   2.251   2.952   0.821
 8569TIP3    H225653   2.270   2.872   0.948
 8570TIP3   OH225654   5.082   7.364   2.342
 8570TIP3    H125655   4.997   7.329   2.369
 8570TIP3    H225656   5.063   7.414   2.263
 8571TIP3   OH225657   2.830   2.723   1.790
 8571TIP3    H125658   2.879   2.801   1.816
 8571TIP3    H225659   2.812   2.677   1.872
 8572TIP3   OH225660   1.646   4.734   3.505
 8572TIP3    H125661   1.662   4.759   3.596
 8572TIP3    H225662   1.647   4.639   3.506
 8573TIP3   OH225663   7.134   2.038   0.898
 8573TIP3    H125664   7.126   1.957   0.848
 8573TIP3    H225665   7.228   2.057   0.898
 8574TIP3   OH225666   0.923   5.070   0.977
 8574TIP3    H125667   1.000   5.078   0.921
 8574TIP3    H225668   0.940   4.991   1.029
 8575TIP3   OH225669   2.156   3.271   5.675
 8575TIP3    H125670   2.123   3.249   5.762
 8575TIP3    H225671   2.233   3.215   5.664
 8576TIP3   OH225672   3.688   7.654   2.758
 8576TIP3    H125673   3.602   7.648   2.716
 8576TIP3    H225674   3.694   7.745   2.788
 8577TIP3   OH225675   2.110   5.085   3.561
 8577TIP3    H125676   2.058   5.097   3.641
 8577TIP3    H225677   2.107   4.991   3.544
 8578TIP3   OH225678   5.692   2.488   0.189
 8578TIP3    H125679   5.707   2.576   0.223
 8578TIP3    H225680   5.600   2.470   0.208
 8579TIP3   OH225681   1.263   7.050   6.103
 8579TIP3    H125682   1.284   7.030   6.012
 8579TIP3    H225683   1.313   7.129   6.122
 8580TIP3   OH225684   4.254   3.322   4.242
 8580TIP3    H125685   4.227   3.280   4.160
 8580TIP3    H225686   4.238   3.257   4.310
 8581TIP3   OH225687   6.584   0.361   4.778
 8581TIP3    H125688   6.547   0.438   4.822
 8581TIP3    H225689   6.678   0.372   4.785
 8582TIP3   OH225690   2.262   7.563   2.357
 8582TIP3    H125691   2.241   7.611   2.277
 8582TIP3    H225692   2.230   7.474   2.341
 8583TIP3   OH225693   1.726   3.513   5.033
 8583TIP3    H125694   1.780   3.525   5.111
 8583TIP3    H225695   1.762   3.574   4.969
 8584TIP3   OH225696   8.186   0.169   3.228
 8584TIP3    H125697   8.234   0.249   3.251
 8584TIP3    H225698   8.241   0.127   3.162
 8585TIP3   OH225699   6.091   2.409   5.021
 8585TIP3    H125700   6.113   2.319   5.045
 8585TIP3    H225701   6.008   2.402   4.975
 8586TIP3   OH225702   8.051   4.431   2.039
 8586TIP3    H125703   8.030   4.488   1.965
 8586TIP3    H225704   8.023   4.479   2.116
 8587TIP3   OH225705   4.789   4.766   5.698
 8587TIP3    H125706   4.793   4.825   5.623
 8587TIP3    H225707   4.765   4.681   5.660
 8588TIP3   OH225708   1.325   3.668   3.558
 8588TIP3    H125709   1.357   3.579   3.573
 8588TIP3    H225710   1.399   3.724   3.584
 8589TIP3   OH225711   1.518   5.886   0.783
 8589TIP3    H125712   1.551   5.938   0.855
 8589TIP3    H225713   1.429   5.919   0.768
 8590TIP3   OH225714   7.581   7.299   4.629
 8590TIP3    H125715   7.522   7.329   4.560
 8590TIP3    H225716   7.637   7.234   4.587
 8591TIP3   OH225717   0.362   3.171   2.911
 8591TIP3    H125718   0.371   3.085   2.951
 8591TIP3    H225719   0.451   3.206   2.908
 8592TIP3   OH225720   2.629   3.877   1.233
 8592TIP3    H125721   2.699   3.937   1.259
 8592TIP3    H225722   2.559   3.935   1.202
 8593TIP3   OH225723   0.888   5.549   5.473
 8593TIP3    H125724   0.895   5.520   5.564
 8593TIP3    H225725   0.877   5.467   5.424
 8594TIP3   OH225726   7.188   6.307   3.585
 8594TIP3    H125727   7.270   6.283   3.628
 8594TIP3    H225728   7.196   6.400   3.568
 8595TIP3   OH225729   6.346   2.378   1.743
 8595TIP3    H125730   6.368   2.319   1.815
 8595TIP3    H225731   6.300   2.451   1.785
 8596TIP3   OH225732   5.669   5.019   6.573
 8596TIP3    H125733   5.679   4.956   6.502
 8596TIP3    H225734   5.629   5.096   6.533
 8597TIP3   OH225735   6.289   6.722   3.252
 8597TIP3    H125736   6.291   6.811   3.287
 8597TIP3    H225737   6.335   6.729   3.168
 8598TIP3   OH225738   3.546   4.817   4.066
 8598TIP3    H125739   3.531   4.724   4.082
 8598TIP3    H225740   3.587   4.849   4.146
 8599TIP3   OH225741   7.760   0.637   5.275
 8599TIP3    H125742   7.829   0.702   5.286
 8599TIP3    H225743   7.718   0.660   5.192
 8600TIP3   OH225744   5.902   2.884   5.115
 8600TIP3    H125745   5.981   2.929   5.147
 8600TIP3    H225746   5.830   2.927   5.160
 8601TIP3   OH225747   1.335   4.469   2.692
 8601TIP3    H125748   1.403   4.515   2.741
 8601TIP3    H225749   1.360   4.377   2.698
 8602TIP3   OH225750   2.224   5.181   2.254
 8602TIP3    H125751   2.266   5.096   2.244
 8602TIP3    H225752   2.161   5.169   2.325
 8603TIP3   OH225753   7.487   2.944   4.030
 8603TIP3    H125754   7.575   2.943   4.067
 8603TIP3    H225755   7.499   2.968   3.939
 8604TIP3   OH225756   2.901   2.067   3.051
 8604TIP3    H125757   2.931   2.114   2.973
 8604TIP3    H225758   2.815   2.034   3.026
 8605TIP3   OH225759   0.599   7.465   6.532
 8605TIP3    H125760   0.631   7.516   6.458
 8605TIP3    H225761   0.535   7.405   6.493
 8606TIP3   OH225762   2.385   0.803   2.900
 8606TIP3    H125763   2.396   0.818   2.993
 8606TIP3    H225764   2.425   0.880   2.858
 8607TIP3   OH225765   3.566   3.711   0.504
 8607TIP3    H125766   3.515   3.631   0.522
 8607TIP3    H225767   3.601   3.737   0.589
 8608TIP3   OH225768   5.795   6.743   0.227
 8608TIP3    H125769   5.764   6.832   0.212
 8608TIP3    H225770   5.725   6.687   0.192
 8609TIP3   OH225771   3.240   0.747   3.864
 8609TIP3    H125772   3.218   0.829   3.908
 8609TIP3    H225773   3.176   0.740   3.793
 8610TIP3   OH225774   2.752   3.422   0.170
 8610TIP3    H125775   2.723   3.430   0.261
 8610TIP3    H225776   2.731   3.332   0.146
 8611TIP3   OH225777   5.375   1.572   4.442
 8611TIP3    H125778   5.378   1.484   4.479
 8611TIP3    H225779   5.460   1.582   4.398
 8612TIP3   OH225780   1.797   4.132   4.081
 8612TIP3    H125781   1.729   4.069   4.056
 8612TIP3    H225782   1.822   4.105   4.170
 8613TIP3   OH225783   5.657   7.783   3.476
 8613TIP3    H125784   5.748   7.796   3.452
 8613TIP3    H225785   5.654   7.797   3.570
 8614TIP3   OH225786   3.921   4.628   1.887
 8614TIP3    H125787   3.933   4.533   1.886
 8614TIP3    H225788   3.977   4.660   1.816
 8615TIP3   OH225789   1.693   0.594   5.444
 8615TIP3    H125790   1.696   0.532   5.371
 8615TIP3    H225791   1.767   0.569   5.500
 8616TIP3   OH225792   6.590   2.943   2.778
 8616TIP3    H125793   6.612   2.928   2.686
 8616TIP3    H225794   6.519   2.882   2.796
 8617TIP3   OH225795   2.984   3.868   3.952
 8617TIP3    H125796   2.936   3.863   4.035
 8617TIP3    H225797   3.070   3.833   3.972
 8618TIP3   OH225798   0.150   7.058   1.294
 8618TIP3    H125799   0.127   6.966   1.283
 8618TIP3    H225800   0.140   7.074   1.388
 8619TIP3   OH225801   7.040   7.731   3.339
 8619TIP3    H125802   7.079   7.818   3.345
 8619TIP3    H225803   7.111   7.673   3.312
 8620TIP3   OH225804   3.377   0.628   0.587
 8620TIP3    H125805   3.309   0.690   0.560
 8620TIP3    H225806   3.455   0.682   0.601
 8621TIP3   OH225807   4.803   3.634   5.677
 8621TIP3    H125808   4.720   3.680   5.665
 8621TIP3    H225809   4.837   3.624   5.588
 8622TIP3   OH225810   5.369   0.305   6.294
 8622TIP3    H125811   5.388   0.392   6.261
 8622TIP3    H225812   5.454   0.261   6.295
 8623TIP3   OH225813   2.621   7.126   4.586
 8623TIP3    H125814   2.576   7.075   4.518
 8623TIP3    H225815   2.560   7.197   4.607
 8624TIP3   OH225816   4.430   1.594   6.589
 8624TIP3    H125817   4.516   1.551   6.589
 8624TIP3    H225818   4.407   1.602   6.496
 8625TIP3   OH225819   3.777   2.731   5.843
 8625TIP3    H125820   3.781   2.647   5.796
 8625TIP3    H225821   3.844   2.785   5.801
 8626TIP3   OH225822   3.673   2.066   2.363
 8626TIP3    H125823   3.708   2.021   2.287
 8626TIP3    H225824   3.612   2.004   2.403
 8627TIP3   OH225825   3.827   2.721   2.357
 8627TIP3    H125826   3.870   2.649   2.311
 8627TIP3    H225827   3.752   2.680   2.401
 8628TIP3   OH225828   6.878   2.836   6.282
 8628TIP3    H125829   6.841   2.786   6.210
 8628TIP3    H225830   6.937   2.775   6.326
 8629TIP3   OH225831   1.767   1.946   3.098
 8629TIP3    H125832   1.805   1.980   3.179
 8629TIP3    H225833   1.768   1.851   3.110
 8630TIP3   OH225834   5.618   6.593   4.836
 8630TIP3    H125835   5.703   6.550   4.845
 8630TIP3    H225836   5.572   6.572   4.918
 8631TIP3   OH225837   6.602   1.753   6.667
 8631TIP3    H125838   6.603   1.705   6.584
 8631TIP3    H225839   6.681   1.808   6.663
 8632TIP3   OH225840   1.414   1.724   2.839
 8632TIP3    H125841   1.389   1.759   2.925
 8632TIP3    H225842   1.345   1.661   2.818
 8633TIP3   OH225843   1.709   5.467   1.836
 8633TIP3    H125844   1.667   5.536   1.887
 8633TIP3    H225845   1.678   5.481   1.746
 8634TIP3   OH225846   2.339   5.061   5.956
 8634TIP3    H125847   2.411   5.117   5.987
 8634TIP3    H225848   2.297   5.030   6.036
 8635TIP3   OH225849   4.459   5.491   1.754
 8635TIP3    H125850   4.511   5.424   1.797
 8635TIP3    H225851   4.518   5.530   1.689
 8636TIP3   OH225852   6.609   4.840   2.214
 8636TIP3    H125853   6.659   4.918   2.237
 8636TIP3    H225854   6.518   4.865   2.230
 8637TIP3   OH225855   6.456   4.687   5.353
 8637TIP3    H125856   6.436   4.602   5.314
 8637TIP3    H225857   6.547   4.680   5.381
 8638TIP3   OH225858   3.305   4.014   2.180
 8638TIP3    H125859   3.324   4.098   2.138
 8638TIP3    H225860   3.391   3.977   2.200
 8639TIP3   OH225861   2.073   2.206   4.431
 8639TIP3    H125862   1.981   2.186   4.411
 8639TIP3    H225863   2.123   2.135   4.390
 8640TIP3   OH225864   5.094   5.889   6.401
 8640TIP3    H125865   5.048   5.952   6.346
 8640TIP3    H225866   5.025   5.830   6.433
 8641TIP3   OH225867   2.881   6.244   3.901
 8641TIP3    H125868   2.954   6.195   3.864
 8641TIP3    H225869   2.877   6.325   3.851
 8642TIP3   OH225870   7.952   2.446   5.236
 8642TIP3    H125871   7.902   2.406   5.307
 8642TIP3    H225872   8.014   2.379   5.208
 8643TIP3   OH225873   0.865   0.509   3.072
 8643TIP3    H125874   0.822   0.455   3.006
 8643TIP3    H225875   0.792   0.554   3.116
 8644TIP3   OH225876   7.815   0.383   0.164
 8644TIP3    H125877   7.731   0.393   0.207
 8644TIP3    H225878   7.795   0.380   0.071
 8645TIP3   OH225879   1.749   1.987   6.755
 8645TIP3    H125880   1.803   2.042   6.698
 8645TIP3    H225881   1.661   2.023   6.746
 8646TIP3   OH225882   4.411   7.636   0.017
 8646TIP3    H125883   4.504   7.632   0.038
 8646TIP3    H225884   4.393   7.730   0.010
 8647TIP3   OH225885   2.402   7.319   2.943
 8647TIP3    H125886   2.381   7.251   3.007
 8647TIP3    H225887   2.322   7.328   2.890
 8648TIP3   OH225888   5.253   4.248   3.901
 8648TIP3    H125889   5.232   4.164   3.860
 8648TIP3    H225890   5.201   4.250   3.981
 8649TIP3   OH225891   6.649   1.677   4.449
 8649TIP3    H125892   6.625   1.591   4.482
 8649TIP3    H225893   6.710   1.659   4.378
 8650TIP3   OH225894   8.279   1.092   1.211
 8650TIP3    H125895   8.300   1.022   1.149
 8650TIP3    H225896   8.288   1.051   1.297
 8651TIP3   OH225897   5.163   6.610   3.918
 8651TIP3    H125898   5.073   6.641   3.929
 8651TIP3    H225899   5.201   6.670   3.854
 8652TIP3   OH225900   5.504   0.079   3.523
 8652TIP3    H125901   5.484   0.170   3.547
 8652TIP3    H225902   5.436   0.027   3.566
 8653TIP3   OH225903   0.304   4.094   6.585
 8653TIP3    H125904   0.310   4.017   6.641
 8653TIP3    H225905   0.240   4.070   6.518
 8654TIP3   OH225906   4.163   4.401   4.924
 8654TIP3    H125907   4.088   4.342   4.924
 8654TIP3    H225908   4.175   4.425   4.832
 8655TIP3   OH225909   1.751   5.498   3.471
 8655TIP3    H125910   1.745   5.592   3.455
 8655TIP3    H225911   1.842   5.485   3.499
 8656TIP3   OH225912   6.391   1.950   4.017
 8656TIP3    H125913   6.296   1.951   4.007
 8656TIP3    H225914   6.407   1.902   4.098
 8657TIP3   OH225915   6.938   3.723   3.308
 8657TIP3    H125916   7.001   3.660   3.272
 8657TIP3    H225917   6.875   3.669   3.356
 8658TIP3   OH225918   7.380   4.929   1.000
 8658TIP3    H125919   7.459   4.883   1.028
 8658TIP3    H225920   7.310   4.892   1.055
 8659TIP3   OH225921   1.455   2.809   4.830
 8659TIP3    H125922   1.452   2.808   4.734
 8659TIP3    H225923   1.491   2.724   4.854
 8660TIP3   OH225924   6.181   3.691   1.801
 8660TIP3    H125925   6.212   3.711   1.889
 8660TIP3    H225926   6.088   3.712   1.803
 8661TIP3   OH225927   0.600   4.980   2.737
 8661TIP3    H125928   0.531   5.046   2.738
 8661TIP3    H225929   0.556   4.899   2.763
 8662TIP3   OH225930   3.920   2.893   2.892
 8662TIP3    H125931   3.891   2.868   2.804
 8662TIP3    H225932   3.970   2.818   2.923
 8663TIP3   OH225933   1.919   6.266   4.632
 8663TIP3    H125934   1.983   6.251   4.562
 8663TIP3    H225935   1.871   6.183   4.639
 8664TIP3   OH225936   5.448   7.640   6.480
 8664TIP3    H125937   5.540   7.623   6.461
 8664TIP3    H225938   5.401   7.598   6.408
 8665TIP3   OH225939   1.078   1.406   4.853
 8665TIP3    H125940   1.004   1.396   4.912
 8665TIP3    H225941   1.153   1.372   4.903
 8666TIP3   OH225942   2.609   1.863   6.260
 8666TIP3    H125943   2.571   1.940   6.217
 8666TIP3    H225944   2.592   1.791   6.199
 8667TIP3   OH225945   2.853   6.538   4.565
 8667TIP3    H125946   2.885   6.628   4.577
 8667TIP3    H225947   2.816   6.537   4.477
 8668TIP3   OH225948   3.107   1.001   1.386
 8668TIP3    H125949   3.136   1.022   1.297
 8668TIP3    H225950   3.173   1.042   1.443
 8669TIP3   OH225951   1.812   1.638   5.970
 8669TIP3    H125952   1.758   1.609   5.896
 8669TIP3    H225953   1.846   1.723   5.943
 8670TIP3   OH225954   6.270   3.925   4.387
 8670TIP3    H125955   6.301   3.996   4.443
 8670TIP3    H225956   6.221   3.868   4.447
 8671TIP3   OH225957   2.977   4.387   3.075
 8671TIP3    H125958   2.943   4.315   3.129
 8671TIP3    H225959   3.072   4.377   3.079
 8672TIP3   OH225960   1.449   0.520   4.515
 8672TIP3    H125961   1.459   0.548   4.606
 8672TIP3    H225962   1.535   0.532   4.476
 8673TIP3   OH225963   3.169   0.309   1.302
 8673TIP3    H125964   3.184   0.224   1.261
 8673TIP3    H225965   3.211   0.372   1.244
 8674TIP3   OH225966   0.338   4.033   3.106
 8674TIP3    H125967   0.320   4.126   3.093
 8674TIP3    H225968   0.251   3.993   3.112
 8675TIP3   OH225969   2.386   5.826   0.027
 8675TIP3    H125970   2.369   5.773  -0.050
 8675TIP3    H225971   2.481   5.827   0.036
 8676TIP3   OH225972   2.445   7.023   1.223
 8676TIP3    H125973   2.419   6.964   1.294
 8676TIP3    H225974   2.380   7.093   1.226
 8677TIP3   OH225975   3.046   5.955   3.210
 8677TIP3    H125976   2.988   6.030   3.197
 8677TIP3    H225977   2.988   5.879   3.206
 8678TIP3   OH225978   7.139   3.014   1.629
 8678TIP3    H125979   7.134   2.919   1.621
 8678TIP3    H225980   7.092   3.047   1.553
 8679TIP3   OH225981   2.646   2.858   2.682
 8679TIP3    H125982   2.680   2.941   2.714
 8679TIP3    H225983   2.716   2.822   2.627
 8680TIP3   OH225984   7.234   1.118   5.113
 8680TIP3    H125985   7.205   1.075   5.033
 8680TIP3    H225986   7.249   1.209   5.086
 8681TIP3   OH225987   0.701   6.399   2.905
 8681TIP3    H125988   0.665   6.463   2.843
 8681TIP3    H225989   0.768   6.353   2.855
 8682TIP3   OH225990   2.042   0.978   3.964
 8682TIP3    H125991   1.992   0.968   4.045
 8682TIP3    H225992   2.133   0.987   3.992
 8683TIP3   OH225993   1.780   3.965   2.167
 8683TIP3    H125994   1.802   4.037   2.226
 8683TIP3    H225995   1.862   3.947   2.120
 8684TIP3   OH225996   7.731   6.287   1.408
 8684TIP3    H125997   7.725   6.292   1.504
 8684TIP3    H225998   7.797   6.353   1.386
 8685TIP3   OH225999   1.524   5.232   6.398
 8685TIP3    H126000   1.467   5.165   6.360
 8685TIP3    H226001   1.494   5.314   6.359
 8686TIP3   OH226002   6.369   2.787   5.142
 8686TIP3    H126003   6.367   2.878   5.113
 8686TIP3    H226004   6.283   2.752   5.117
 8687TIP3   OH226005   6.474   3.733   4.360
 8687TIP3    H126006   6.474   3.686   4.277
 8687TIP3    H226007   6.392   3.783   4.359
 8688TIP3   OH226008   1.439   4.519   2.346
 8688TIP3    H126009   1.411   4.435   2.383
 8688TIP3    H226010   1.408   4.585   2.408
 8689TIP3   OH226011   7.303   5.836   5.092
 8689TIP3    H126012   7.359   5.797   5.159
 8689TIP3    H226013   7.268   5.915   5.133
 8690TIP3   OH226014   7.598   1.219   3.630
 8690TIP3    H126015   7.531   1.201   3.696
 8690TIP3    H226016   7.562   1.289   3.576
 8691TIP3   OH226017   4.966   7.178   3.509
 8691TIP3    H126018   4.977   7.123   3.432
 8691TIP3    H226019   5.054   7.186   3.546
 8692TIP3   OH226020   2.341   7.208   5.793
 8692TIP3    H126021   2.273   7.140   5.794
 8692TIP3    H226022   2.346   7.239   5.884
 8693TIP3   OH226023   8.177   6.469   5.253
 8693TIP3    H126024   8.210   6.381   5.236
 8693TIP3    H226025   8.084   6.457   5.271
 8694TIP3   OH226026   6.630  -0.002   6.064
 8694TIP3    H126027   6.689  -0.039   6.129
 8694TIP3    H226028   6.662   0.087   6.051
 8695TIP3   OH226029   1.908   3.581   2.862
 8695TIP3    H126030   1.855   3.635   2.803
 8695TIP3    H226031   1.863   3.497   2.864
 8696TIP3   OH226032   3.936   3.394   1.269
 8696TIP3    H126033   3.925   3.314   1.217
 8696TIP3    H226034   3.919   3.366   1.359
 8697TIP3   OH226035   3.112   3.101   2.988
 8697TIP3    H126036   3.018   3.096   3.004
 8697TIP3    H226037   3.130   3.195   2.981
 8698TIP3   OH226038   5.033   7.694   4.449
 8698TIP3    H126039   5.057   7.722   4.537
 8698TIP3    H226040   5.059   7.602   4.446
 8699TIP3   OH226041   3.710   3.598   1.188
 8699TIP3    H126042   3.701   3.503   1.187
 8699TIP3    H226043   3.720   3.620   1.281
 8700TIP3   OH226044   5.806   6.665   4.362
 8700TIP3    H126045   5.721   6.688   4.401
 8700TIP3    H226046   5.802   6.570   4.353
 8701TIP3   OH226047   4.096   7.790   0.032
 8701TIP3    H126048   4.165   7.776  -0.033
 8701TIP3    H226049   4.093   7.708   0.081
 8702TIP3   OH226050   3.112   0.710   1.178
 8702TIP3    H126051   3.021   0.695   1.202
 8702TIP3    H226052   3.111   0.789   1.124
 8703TIP3   OH226053   8.251   4.206   4.845
 8703TIP3    H126054   8.329   4.195   4.791
 8703TIP3    H226055   8.178   4.194   4.784
 8704TIP3   OH226056   3.968   5.474   6.172
 8704TIP3    H126057   3.914   5.485   6.251
 8704TIP3    H226058   3.965   5.380   6.154
 8705TIP3   OH226059   7.446   0.933   2.931
 8705TIP3    H126060   7.451   1.021   2.893
 8705TIP3    H226061   7.411   0.878   2.861
 8706TIP3   OH226062   2.663   1.610   5.358
 8706TIP3    H126063   2.757   1.627   5.359
 8706TIP3    H226064   2.643   1.580   5.446
 8707TIP3   OH226065   2.904   6.031   2.096
 8707TIP3    H126066   2.885   6.117   2.134
 8707TIP3    H226067   2.999   6.033   2.081
 8708TIP3   OH226068   4.881   5.131   0.579
 8708TIP3    H126069   4.968   5.102   0.610
 8708TIP3    H226070   4.820   5.092   0.642
 8709TIP3   OH226071   0.099   0.669   1.760
 8709TIP3    H126072   0.157   0.603   1.797
 8709TIP3    H226073   0.155   0.723   1.705
 8710TIP3   OH226074   8.236   5.412   6.627
 8710TIP3    H126075   8.240   5.470   6.551
 8710TIP3    H226076   8.249   5.470   6.702
 8711TIP3   OH226077   6.764   5.056   3.703
 8711TIP3    H126078   6.765   5.143   3.664
 8711TIP3    H226079   6.689   5.012   3.661
 8712TIP3   OH226080   6.658   3.153   4.461
 8712TIP3    H126081   6.584   3.190   4.413
 8712TIP3    H226082   6.687   3.079   4.406
 8713TIP3   OH226083   3.731   6.345   0.884
 8713TIP3    H126084   3.678   6.304   0.953
 8713TIP3    H226085   3.806   6.286   0.874
 8714TIP3   OH226086   6.556   1.861   2.491
 8714TIP3    H126087   6.542   1.928   2.558
 8714TIP3    H226088   6.648   1.869   2.467
 8715TIP3   OH226089   3.127   6.308   4.545
 8715TIP3    H126090   3.036   6.322   4.518
 8715TIP3    H226091   3.175   6.382   4.507
 8716TIP3   OH226092   4.500   3.225   4.418
 8716TIP3    H126093   4.574   3.198   4.363
 8716TIP3    H226094   4.424   3.186   4.376
 8717TIP3   OH226095   7.234   3.606   0.104
 8717TIP3    H126096   7.177   3.633   0.032
 8717TIP3    H226097   7.302   3.553   0.062
 8718TIP3   OH226098   7.571   7.236   0.466
 8718TIP3    H126099   7.632   7.236   0.539
 8718TIP3    H226100   7.517   7.314   0.479
 8719TIP3   OH226101   3.273   3.660   1.166
 8719TIP3    H126102   3.283   3.599   1.239
 8719TIP3    H226103   3.212   3.726   1.198
 8720TIP3   OH226104   1.964   2.271   6.689
 8720TIP3    H126105   1.922   2.210   6.629
 8720TIP3    H226106   2.027   2.319   6.635
 8721TIP3   OH226107   1.567   1.726   3.353
 8721TIP3    H126108   1.603   1.773   3.278
 8721TIP3    H226109   1.631   1.658   3.372
 8722TIP3   OH226110   5.779   4.472   2.163
 8722TIP3    H126111   5.719   4.430   2.224
 8722TIP3    H226112   5.740   4.457   2.077
 8723TIP3   OH226113   3.757   4.085   1.274
 8723TIP3    H126114   3.771   4.177   1.248
 8723TIP3    H226115   3.684   4.056   1.220
 8724TIP3   OH226116   5.285   7.494   3.768
 8724TIP3    H126117   5.360   7.458   3.720
 8724TIP3    H226118   5.323   7.530   3.848
 8725TIP3   OH226119   4.157   1.587   6.478
 8725TIP3    H126120   4.168   1.671   6.435
 8725TIP3    H226121   4.064   1.582   6.499
 8726TIP3   OH226122   4.763   0.793   4.379
 8726TIP3    H126123   4.676   0.832   4.370
 8726TIP3    H226124   4.823   0.867   4.381
 8727TIP3   OH226125   4.198   3.035   1.791
 8727TIP3    H126126   4.266   3.102   1.799
 8727TIP3    H226127   4.246   2.953   1.783
 8728TIP3   OH226128   6.507   7.642   3.976
 8728TIP3    H126129   6.541   7.717   3.927
 8728TIP3    H226130   6.558   7.642   4.057
 8729TIP3   OH226131   0.337   1.452   4.539
 8729TIP3    H126132   0.393   1.528   4.557
 8729TIP3    H226133   0.273   1.484   4.475
 8730TIP3   OH226134   2.964   4.941   5.743
 8730TIP3    H126135   2.985   4.968   5.833
 8730TIP3    H226136   2.908   5.011   5.710
 8731TIP3   OH226137   6.418   3.527   0.078
 8731TIP3    H126138   6.337   3.577   0.087
 8731TIP3    H226139   6.410   3.455   0.141
 8732TIP3   OH226140   0.374   4.841   3.531
 8732TIP3    H126141   0.443   4.889   3.487
 8732TIP3    H226142   0.419   4.791   3.599
 8733TIP3   OH226143   6.107   3.897   6.440
 8733TIP3    H126144   6.189   3.857   6.469
 8733TIP3    H226145   6.040   3.832   6.461
 8734TIP3   OH226146   6.842   5.349   6.514
 8734TIP3    H126147   6.911   5.377   6.453
 8734TIP3    H226148   6.888   5.301   6.582
 8735TIP3   OH226149   3.767   0.504   6.627
 8735TIP3    H126150   3.748   0.528   6.717
 8735TIP3    H226151   3.710   0.428   6.610
 8736TIP3   OH226152   7.612   3.942   2.319
 8736TIP3    H126153   7.570   4.008   2.263
 8736TIP3    H226154   7.675   3.992   2.371
 8737TIP3   OH226155   0.765   0.663   6.562
 8737TIP3    H126156   0.821   0.677   6.486
 8737TIP3    H226157   0.805   0.588   6.607
 8738TIP3   OH226158   1.042   1.713   5.317
 8738TIP3    H126159   1.098   1.789   5.298
 8738TIP3    H226160   0.954   1.742   5.295
 8739TIP3   OH226161   2.161   6.495   0.314
 8739TIP3    H126162   2.125   6.408   0.331
 8739TIP3    H226163   2.237   6.479   0.259
 8740TIP3   OH226164   8.070   1.319   0.499
 8740TIP3    H126165   8.010   1.325   0.424
 8740TIP3    H226166   8.149   1.279   0.464
 8741TIP3   OH226167   7.169   5.296   3.102
 8741TIP3    H126168   7.145   5.207   3.129
 8741TIP3    H226169   7.087   5.346   3.110
 8742TIP3   OH226170   4.469   4.373   5.509
 8742TIP3    H126171   4.454   4.281   5.486
 8742TIP3    H226172   4.548   4.372   5.562
 8743TIP3   OH226173   5.120   7.810   3.290
 8743TIP3    H126174   5.163   7.727   3.308
 8743TIP3    H226175   5.027   7.789   3.283
 8744TIP3   OH226176   3.008   4.325   2.501
 8744TIP3    H126177   3.029   4.332   2.594
 8744TIP3    H226178   3.084   4.360   2.456
 8745TIP3   OH226179   5.390   3.241   4.100
 8745TIP3    H126180   5.484   3.235   4.121
 8745TIP3    H226181   5.356   3.307   4.160
 8746TIP3   OH226182   0.156   5.570   4.616
 8746TIP3    H126183   0.092   5.519   4.567
 8746TIP3    H226184   0.103   5.638   4.660
 8747TIP3   OH226185   6.456   3.876   2.022
 8747TIP3    H126186   6.431   3.968   2.009
 8747TIP3    H226187   6.395   3.843   2.087
 8748TIP3   OH226188   5.445   3.880   4.145
 8748TIP3    H126189   5.381   3.925   4.201
 8748TIP3    H226190   5.398   3.802   4.113
 8749TIP3   OH226191   6.623   2.273   3.712
 8749TIP3    H126192   6.685   2.307   3.776
 8749TIP3    H226193   6.663   2.192   3.679
 8750TIP3   OH226194   3.511   5.920   5.469
 8750TIP3    H126195   3.526   5.916   5.374
 8750TIP3    H226196   3.467   5.837   5.489
 8751TIP3   OH226197   3.887   2.485   4.847
 8751TIP3    H126198   3.879   2.461   4.755
 8751TIP3    H226199   3.909   2.403   4.891
 8752TIP3   OH226200   7.834   1.434   3.545
 8752TIP3    H126201   7.765   1.492   3.577
 8752TIP3    H226202   7.831   1.359   3.604
 8753TIP3   OH226203   2.515   0.907   0.481
 8753TIP3    H126204   2.469   0.982   0.519
 8753TIP3    H226205   2.551   0.860   0.556
 8754TIP3   OH226206   6.221   4.823   5.374
 8754TIP3    H126207   6.221   4.918   5.386
 8754TIP3    H226208   6.314   4.800   5.366
 8755TIP3   OH226209   1.055   3.961   6.499
 8755TIP3    H126210   1.141   3.918   6.494
 8755TIP3    H226211   1.045   3.984   6.591
 8756TIP3   OH226212   2.826   3.758   6.224
 8756TIP3    H126213   2.892   3.824   6.202
 8756TIP3    H226214   2.846   3.684   6.166
 8757TIP3   OH226215   3.498   2.710   2.504
 8757TIP3    H126216   3.547   2.628   2.493
 8757TIP3    H226217   3.467   2.706   2.595
 8758TIP3   OH226218   6.963   2.471   3.206
 8758TIP3    H126219   6.950   2.428   3.291
 8758TIP3    H226220   6.901   2.544   3.206
 8759TIP3   OH226221   0.601   2.395   6.211
 8759TIP3    H126222   0.684   2.408   6.257
 8759TIP3    H226223   0.582   2.302   6.222
 8760TIP3   OH226224   0.367   3.348   5.303
 8760TIP3    H126225   0.280   3.313   5.321
 8760TIP3    H226226   0.366   3.367   5.209
 8761TIP3   OH226227   3.517   1.428   4.747
 8761TIP3    H126228   3.491   1.408   4.837
 8761TIP3    H226229   3.596   1.481   4.755
 8762TIP3   OH226230   5.967   1.058   3.699
 8762TIP3    H126231   6.003   0.969   3.696
 8762TIP3    H226232   6.016   1.106   3.633
 8763TIP3   OH226233   4.511   5.785   6.639
 8763TIP3    H126234   4.443   5.843   6.673
 8763TIP3    H226235   4.472   5.746   6.561
 8764TIP3   OH226236   8.146   4.308   6.392
 8764TIP3    H126237   8.197   4.331   6.315
 8764TIP3    H226238   8.176   4.368   6.460
 8765TIP3   OH226239   6.169   0.583   6.590
 8765TIP3    H126240   6.109   0.508   6.598
 8765TIP3    H226241   6.197   0.601   6.679
 8766TIP3   OH226242   1.900   0.513   5.105
 8766TIP3    H126243   1.870   0.465   5.182
 8766TIP3    H226244   1.906   0.604   5.133
 8767TIP3   OH226245   3.806   5.324   3.223
 8767TIP3    H126246   3.851   5.240   3.217
 8767TIP3    H226247   3.799   5.342   3.316
 8768TIP3   OH226248   2.290   7.023   3.743
 8768TIP3    H126249   2.327   7.086   3.804
 8768TIP3    H226250   2.321   6.938   3.775
 8769TIP3   OH226251   4.769   4.155   1.563
 8769TIP3    H126252   4.797   4.192   1.479
 8769TIP3    H226253   4.674   4.150   1.556
 8770TIP3   OH226254   4.633   4.081   3.030
 8770TIP3    H126255   4.707   4.035   2.990
 8770TIP3    H226256   4.595   4.131   2.958
 8771TIP3   OH226257   3.990   2.787   1.410
 8771TIP3    H126258   3.906   2.829   1.428
 8771TIP3    H226259   4.049   2.859   1.386
 8772TIP3   OH226260   3.776   1.722   1.158
 8772TIP3    H126261   3.793   1.704   1.066
 8772TIP3    H226262   3.773   1.818   1.164
 8773TIP3   OH226263   0.143   6.879   2.142
 8773TIP3    H126264   0.112   6.951   2.086
 8773TIP3    H226265   0.090   6.804   2.115
 8774TIP3   OH226266   3.251   4.702   5.379
 8774TIP3    H126267   3.257   4.720   5.473
 8774TIP3    H226268   3.160   4.723   5.357
 8775TIP3   OH226269   4.497   1.576   0.993
 8775TIP3    H126270   4.467   1.599   0.905
 8775TIP3    H226271   4.472   1.651   1.047
 8776TIP3   OH226272   6.025   2.067   1.396
 8776TIP3    H126273   6.038   2.142   1.454
 8776TIP3    H226274   6.030   2.104   1.307
 8777TIP3   OH226275   7.311   0.590   4.285
 8777TIP3    H126276   7.283   0.579   4.194
 8777TIP3    H226277   7.287   0.508   4.327
 8778TIP3   OH226278   8.189   1.135   1.676
 8778TIP3    H126279   8.105   1.171   1.649
 8778TIP3    H226280   8.195   1.155   1.770
 8779TIP3   OH226281   2.237   2.744   5.226
 8779TIP3    H126282   2.253   2.716   5.135
 8779TIP3    H226283   2.179   2.819   5.218
 8780TIP3   OH226284   0.330   1.635   3.654
 8780TIP3    H126285   0.293   1.663   3.570
 8780TIP3    H226286   0.337   1.540   3.646
 8781TIP3   OH226287   6.747   2.083   4.377
 8781TIP3    H126288   6.787   1.997   4.361
 8781TIP3    H226289   6.677   2.065   4.440
 8782TIP3   OH226290   1.321   4.919   5.225
 8782TIP3    H126291   1.373   4.999   5.215
 8782TIP3    H226292   1.369   4.853   5.175
 8783TIP3   OH226293   2.635   2.628   6.328
 8783TIP3    H126294   2.721   2.606   6.292
 8783TIP3    H226295   2.610   2.551   6.379
 8784TIP3   OH226296   0.183   1.656   6.196
 8784TIP3    H126297   0.130   1.675   6.119
 8784TIP3    H226298   0.154   1.570   6.226
 8785TIP3   OH226299   4.471   5.924   5.096
 8785TIP3    H126300   4.489   5.850   5.154
 8785TIP3    H226301   4.454   5.998   5.155
 8786TIP3   OH226302   4.383   6.619   5.604
 8786TIP3    H126303   4.295   6.610   5.569
 8786TIP3    H226304   4.381   6.700   5.654
 8787TIP3   OH226305   7.496   1.224   1.425
 8787TIP3    H126306   7.488   1.128   1.421
 8787TIP3    H226307   7.443   1.248   1.501
 8788TIP3   OH226308   2.550   3.613   1.253
 8788TIP3    H126309   2.576   3.702   1.228
 8788TIP3    H226310   2.627   3.578   1.298
 8789TIP3   OH226311   1.763   5.149   5.601
 8789TIP3    H126312   1.769   5.108   5.688
 8789TIP3    H226313   1.742   5.077   5.542
 8790TIP3   OH226314   7.270   2.639   4.477
 8790TIP3    H126315   7.256   2.547   4.499
 8790TIP3    H226316   7.251   2.687   4.558
 8791TIP3   OH226317   1.481   3.624   6.621
 8791TIP3    H126318   1.534   3.651   6.696
 8791TIP3    H226319   1.530   3.552   6.582
 8792TIP3   OH226320   5.360   7.118   6.573
 8792TIP3    H126321   5.379   7.211   6.580
 8792TIP3    H226322   5.265   7.113   6.562
 8793TIP3   OH226323   0.647   4.176   0.008
 8793TIP3    H126324   0.683   4.236   0.073
 8793TIP3    H226325   0.562   4.214  -0.016
 8794TIP3   OH226326   3.153   5.664   0.536
 8794TIP3    H126327   3.072   5.694   0.494
 8794TIP3    H226328   3.222   5.718   0.496
 8795TIP3   OH226329   3.924   2.298   2.002
 8795TIP3    H126330   3.904   2.384   1.966
 8795TIP3    H226331   3.845   2.273   2.049
 8796TIP3   OH226332   0.220   2.783   1.924
 8796TIP3    H126333   0.210   2.871   1.960
 8796TIP3    H226334   0.266   2.795   1.841
 8797TIP3   OH226335   6.013   2.186   4.024
 8797TIP3    H126336   5.996   2.281   4.022
 8797TIP3    H226337   5.989   2.159   4.112
 8798TIP3   OH226338   6.514   2.385   1.231
 8798TIP3    H126339   6.585   2.412   1.172
 8798TIP3    H226340   6.506   2.290   1.216
 8799TIP3   OH226341   1.395   7.108   3.937
 8799TIP3    H126342   1.376   7.025   3.981
 8799TIP3    H226343   1.348   7.173   3.988
 8800TIP3   OH226344   6.106   2.022   2.064
 8800TIP3    H126345   6.022   2.038   2.108
 8800TIP3    H226346   6.153   1.963   2.123
 8801TIP3   OH226347   6.845   7.089   3.556
 8801TIP3    H126348   6.843   7.054   3.645
 8801TIP3    H226349   6.841   7.012   3.499
 8802TIP3   OH226350   6.761   6.443   5.638
 8802TIP3    H126351   6.721   6.474   5.557
 8802TIP3    H226352   6.692   6.393   5.682
 8803TIP3   OH226353   1.543   5.785   2.652
 8803TIP3    H126354   1.555   5.830   2.568
 8803TIP3    H226355   1.530   5.693   2.629
 8804TIP3   OH226356   3.563   0.611   2.898
 8804TIP3    H126357   3.620   0.552   2.848
 8804TIP3    H226358   3.479   0.567   2.899
 8805TIP3   OH226359   3.455   6.423   0.758
 8805TIP3    H126360   3.416   6.387   0.679
 8805TIP3    H226361   3.528   6.476   0.726
 8806TIP3   OH226362   1.480   6.547   1.054
 8806TIP3    H126363   1.558   6.502   1.021
 8806TIP3    H226364   1.467   6.509   1.141
 8807TIP3   OH226365   1.170   0.556   5.966
 8807TIP3    H126366   1.110   0.487   5.941
 8807TIP3    H226367   1.173   0.614   5.890
 8808TIP3   OH226368   0.790   2.660   5.111
 8808TIP3    H126369   0.826   2.643   5.024
 8808TIP3    H226370   0.825   2.746   5.135
 8809TIP3   OH226371   1.084   3.137   3.267
 8809TIP3    H126372   1.164   3.175   3.229
 8809TIP3    H226373   1.105   3.045   3.279
 8810TIP3   OH226374   0.921   5.515   3.651
 8810TIP3    H126375   0.861   5.500   3.578
 8810TIP3    H226376   1.005   5.534   3.609
 8811TIP3   OH226377   4.695   2.896   5.693
 8811TIP3    H126378   4.762   2.836   5.724
 8811TIP3    H226379   4.614   2.845   5.692
 8812TIP3   OH226380   6.837   7.490   1.036
 8812TIP3    H126381   6.929   7.518   1.038
 8812TIP3    H226382   6.788   7.570   1.053
 8813TIP3   OH226383   1.880   1.873   0.097
 8813TIP3    H126384   1.913   1.963   0.090
 8813TIP3    H226385   1.825   1.862   0.019
 8814TIP3   OH226386   5.971   4.499   3.147
 8814TIP3    H126387   5.955   4.457   3.231
 8814TIP3    H226388   6.041   4.446   3.107
 8815TIP3   OH226389   6.284   7.053   5.865
 8815TIP3    H126390   6.200   7.010   5.879
 8815TIP3    H226391   6.296   7.109   5.942
 8816TIP3   OH226392   7.488   0.849   3.181
 8816TIP3    H126393   7.488   0.886   3.093
 8816TIP3    H226394   7.441   0.914   3.234
 8817TIP3   OH226395   4.433   0.547   5.340
 8817TIP3    H126396   4.352   0.588   5.372
 8817TIP3    H226397   4.486   0.534   5.418
 8818TIP3   OH226398   4.094   0.223   5.326
 8818TIP3    H126399   4.114   0.131   5.311
 8818TIP3    H226400   4.088   0.261   5.238
 8819TIP3   OH226401   3.953   6.548   1.597
 8819TIP3    H126402   3.966   6.574   1.506
 8819TIP3    H226403   3.940   6.453   1.593
 8820TIP3   OH226404   2.999   7.487   1.276
 8820TIP3    H126405   3.063   7.417   1.281
 8820TIP3    H226406   2.930   7.462   1.337
 8821TIP3   OH226407   4.933   3.595   5.953
 8821TIP3    H126408   4.930   3.612   5.859
 8821TIP3    H226409   5.019   3.557   5.968
 8822TIP3   OH226410   1.988   6.786   1.319
 8822TIP3    H126411   1.914   6.845   1.337
 8822TIP3    H226412   2.064   6.830   1.359
 8823TIP3   OH226413   5.713   6.124   2.023
 8823TIP3    H126414   5.758   6.194   1.976
 8823TIP3    H226415   5.761   6.045   2.000
 8824TIP3   OH226416   4.291   5.412   5.740
 8824TIP3    H126417   4.384   5.417   5.760
 8824TIP3    H226418   4.250   5.475   5.799
 8825TIP3   OH226419   7.842   4.627   3.092
 8825TIP3    H126420   7.770   4.651   3.034
 8825TIP3    H226421   7.905   4.699   3.084
 8826TIP3   OH226422   1.786   6.589   2.635
 8826TIP3    H126423   1.729   6.665   2.642
 8826TIP3    H226424   1.731   6.521   2.596
 8827TIP3   OH226425   0.674   3.174   1.325
 8827TIP3    H126426   0.628   3.135   1.251
 8827TIP3    H226427   0.626   3.255   1.344
 8828TIP3   OH226428   7.957   6.852   4.488
 8828TIP3    H126429   7.898   6.810   4.425
 8828TIP3    H226430   7.959   6.792   4.562
 8829TIP3   OH226431   3.101   6.360   2.114
 8829TIP3    H126432   3.124   6.405   2.033
 8829TIP3    H226433   3.083   6.430   2.177
 8830TIP3   OH226434   4.167   3.827   6.008
 8830TIP3    H126435   4.174   3.733   6.023
 8830TIP3    H226436   4.077   3.841   5.980
 8831TIP3   OH226437   6.527   3.967   3.462
 8831TIP3    H126438   6.599   3.915   3.496
 8831TIP3    H226439   6.537   4.053   3.504
 8832TIP3   OH226440   2.454   6.267   1.571
 8832TIP3    H126441   2.456   6.224   1.656
 8832TIP3    H226442   2.392   6.215   1.520
 8833TIP3   OH226443   4.207   5.432   1.626
 8833TIP3    H126444   4.244   5.360   1.575
 8833TIP3    H226445   4.273   5.451   1.692
 8834TIP3   OH226446   2.840   4.338   5.048
 8834TIP3    H126447   2.915   4.289   5.015
 8834TIP3    H226448   2.820   4.402   4.980
 8835TIP3   OH226449   5.937   0.641   5.041
 8835TIP3    H126450   5.888   0.650   5.123
 8835TIP3    H226451   5.869   0.642   4.973
 8836TIP3   OH226452   5.240   6.954   1.055
 8836TIP3    H126453   5.271   6.909   0.976
 8836TIP3    H226454   5.310   6.940   1.119
 8837TIP3   OH226455   5.496   5.739   1.610
 8837TIP3    H126456   5.489   5.645   1.625
 8837TIP3    H226457   5.538   5.773   1.689
 8838TIP3   OH226458   1.999   2.858   6.636
 8838TIP3    H126459   1.978   2.828   6.547
 8838TIP3    H226460   2.091   2.882   6.632
 8839TIP3   OH226461   6.690   1.247   2.887
 8839TIP3    H126462   6.691   1.238   2.792
 8839TIP3    H226463   6.617   1.306   2.905
 8840TIP3   OH226464   8.084   3.728   1.932
 8840TIP3    H126465   8.140   3.651   1.944
 8840TIP3    H226466   8.144   3.802   1.938
 8841TIP3   OH226467   2.181   7.679   4.377
 8841TIP3    H126468   2.186   7.744   4.447
 8841TIP3    H226469   2.262   7.629   4.385
 8842TIP3   OH226470   0.945   7.291   5.126
 8842TIP3    H126471   0.961   7.213   5.179
 8842TIP3    H226472   1.027   7.341   5.133
 8843TIP3   OH226473   6.183   7.028   1.553
 8843TIP3    H126474   6.094   7.019   1.586
 8843TIP3    H226475   6.175   7.023   1.458
 8844TIP3   OH226476   4.552   2.482   0.700
 8844TIP3    H126477   4.571   2.398   0.658
 8844TIP3    H226478   4.472   2.512   0.656
 8845TIP3   OH226479   4.181   1.824   6.318
 8845TIP3    H126480   4.170   1.874   6.237
 8845TIP3    H226481   4.232   1.747   6.293
 8846TIP3   OH226482   4.291   3.375   5.313
 8846TIP3    H126483   4.294   3.288   5.352
 8846TIP3    H226484   4.216   3.372   5.254
 8847TIP3   OH226485   2.851   4.487   6.344
 8847TIP3    H126486   2.816   4.551   6.282
 8847TIP3    H226487   2.893   4.540   6.412
 8848TIP3   OH226488   1.406   1.782   3.560
 8848TIP3    H126489   1.441   1.780   3.471
 8848TIP3    H226490   1.358   1.864   3.565
 8849TIP3   OH226491   5.150   6.619   3.320
 8849TIP3    H126492   5.104   6.540   3.351
 8849TIP3    H226493   5.141   6.615   3.225
 8850TIP3   OH226494   2.964   0.996   2.057
 8850TIP3    H126495   2.993   0.941   2.130
 8850TIP3    H226496   2.990   0.948   1.978
 8851TIP3   OH226497   6.714   7.206   2.472
 8851TIP3    H126498   6.710   7.197   2.568
 8851TIP3    H226499   6.764   7.286   2.458
 8852TIP3   OH226500   3.281   1.075   4.533
 8852TIP3    H126501   3.300   1.090   4.625
 8852TIP3    H226502   3.365   1.053   4.493
 8853TIP3   OH226503   7.990   5.853   5.883
 8853TIP3    H126504   8.038   5.793   5.940
 8853TIP3    H226505   8.030   5.842   5.797
 8854TIP3   OH226506   6.820   1.173   6.734
 8854TIP3    H126507   6.891   1.235   6.721
 8854TIP3    H226508   6.856   1.089   6.706
 8855TIP3   OH226509   1.248   3.064   3.789
 8855TIP3    H126510   1.216   3.019   3.711
 8855TIP3    H226511   1.251   3.156   3.765
 8856TIP3   OH226512   7.305   0.685   3.613
 8856TIP3    H126513   7.286   0.620   3.681
 8856TIP3    H226514   7.355   0.753   3.659
 8857TIP3   OH226515   2.883   2.025   5.640
 8857TIP3    H126516   2.942   1.966   5.688
 8857TIP3    H226517   2.814   1.967   5.606
 8858TIP3   OH226518   1.789   2.896   4.826
 8858TIP3    H126519   1.814   2.806   4.804
 8858TIP3    H226520   1.804   2.946   4.745
 8859TIP3   OH226521   3.690   5.783   5.212
 8859TIP3    H126522   3.749   5.760   5.284
 8859TIP3    H226523   3.701   5.878   5.202
 8860TIP3   OH226524   1.048   2.458   5.083
 8860TIP3    H126525   1.117   2.453   5.017
 8860TIP3    H226526   1.062   2.542   5.126
 8861TIP3   OH226527   7.223   2.582   6.253
 8861TIP3    H126528   7.141   2.587   6.303
 8861TIP3    H226529   7.216   2.500   6.204
 8862TIP3   OH226530   4.979   2.671   2.355
 8862TIP3    H126531   5.020   2.749   2.393
 8862TIP3    H226532   4.904   2.705   2.306
 8863TIP3   OH226533   7.717   0.409   2.383
 8863TIP3    H126534   7.664   0.471   2.433
 8863TIP3    H226535   7.787   0.383   2.444
 8864TIP3   OH226536   6.605   6.703   1.889
 8864TIP3    H126537   6.599   6.642   1.963
 8864TIP3    H226538   6.639   6.784   1.928
 8865TIP3   OH226539   0.244   6.110   6.414
 8865TIP3    H126540   0.165   6.148   6.454
 8865TIP3    H226541   0.245   6.020   6.446
 8866TIP3   OH226542   2.161   0.578   4.976
 8866TIP3    H126543   2.145   0.483   4.973
 8866TIP3    H226544   2.217   0.590   5.052
 8867TIP3   OH226545   3.220   4.970   2.407
 8867TIP3    H126546   3.261   4.886   2.429
 8867TIP3    H226547   3.147   4.977   2.468
 8868TIP3   OH226548   6.803   0.225   6.241
 8868TIP3    H126549   6.871   0.210   6.307
 8868TIP3    H226550   6.721   0.202   6.284
 8869TIP3   OH226551   1.165   4.028   1.706
 8869TIP3    H126552   1.072   4.037   1.729
 8869TIP3    H226553   1.198   3.961   1.766
 8870TIP3   OH226554   1.960   4.527   5.359
 8870TIP3    H126555   2.008   4.517   5.442
 8870TIP3    H226556   1.868   4.523   5.384
 8871TIP3   OH226557   0.709   3.618   3.626
 8871TIP3    H126558   0.711   3.522   3.631
 8871TIP3    H226559   0.776   3.647   3.688
 8872TIP3   OH226560   2.187   1.445   1.360
 8872TIP3    H126561   2.163   1.373   1.419
 8872TIP3    H226562   2.270   1.477   1.393
 8873TIP3   OH226563   0.869   2.557   1.041
 8873TIP3    H126564   0.820   2.578   0.961
 8873TIP3    H226565   0.845   2.627   1.102
 8874TIP3   OH226566   1.785   3.357   1.930
 8874TIP3    H126567   1.776   3.420   1.859
 8874TIP3    H226568   1.845   3.399   1.992
 8875TIP3   OH226569   5.699   3.063   0.642
 8875TIP3    H126570   5.609   3.075   0.672
 8875TIP3    H226571   5.751   3.123   0.695
 8876TIP3   OH226572   3.522   3.839   6.090
 8876TIP3    H126573   3.484   3.791   6.164
 8876TIP3    H226574   3.455   3.905   6.068
 8877TIP3   OH226575   7.686   4.318   3.404
 8877TIP3    H126576   7.729   4.299   3.487
 8877TIP3    H226577   7.757   4.345   3.346
 8878TIP3   OH226578   5.791   0.331   3.896
 8878TIP3    H126579   5.713   0.292   3.934
 8878TIP3    H226580   5.760   0.371   3.815
 8879TIP3   OH226581   1.718   0.425   2.904
 8879TIP3    H126582   1.638   0.477   2.904
 8879TIP3    H226583   1.735   0.407   2.811
 8880TIP3   OH226584   4.170   0.477   1.721
 8880TIP3    H126585   4.215   0.463   1.804
 8880TIP3    H226586   4.235   0.517   1.664
 8881TIP3   OH226587   6.832   3.634   2.517
 8881TIP3    H126588   6.843   3.539   2.508
 8881TIP3    H226589   6.851   3.651   2.610
 8882TIP3   OH226590   7.450   3.100   5.819
 8882TIP3    H126591   7.390   3.037   5.859
 8882TIP3    H226592   7.401   3.136   5.745
 8883TIP3   OH226593   3.703   5.700   1.512
 8883TIP3    H126594   3.769   5.632   1.525
 8883TIP3    H226595   3.650   5.697   1.591
 8884TIP3   OH226596   1.459   0.351   6.261
 8884TIP3    H126597   1.389   0.296   6.294
 8884TIP3    H226598   1.524   0.289   6.228
 8885TIP3   OH226599   3.709   5.768   0.873
 8885TIP3    H126600   3.743   5.696   0.927
 8885TIP3    H226601   3.743   5.847   0.915
 8886TIP3   OH226602   6.601   2.323   5.958
 8886TIP3    H126603   6.636   2.235   5.945
 8886TIP3    H226604   6.507   2.310   5.972
 8887TIP3   OH226605   1.001   0.285   3.920
 8887TIP3    H126606   1.013   0.196   3.888
 8887TIP3    H226607   1.079   0.332   3.891
 8888TIP3   OH226608   1.098   7.575   2.206
 8888TIP3    H126609   1.080   7.662   2.242
 8888TIP3    H226610   1.011   7.537   2.189
 8889TIP3   OH226611   4.668   4.492   4.823
 8889TIP3    H126612   4.666   4.584   4.798
 8889TIP3    H226613   4.582   4.475   4.861
 8890TIP3   OH226614   1.542   7.817   3.525
 8890TIP3    H126615   1.476   7.815   3.594
 8890TIP3    H226616   1.617   7.770   3.562
 8891TIP3   OH226617   1.577   1.305   4.576
 8891TIP3    H126618   1.593   1.216   4.606
 8891TIP3    H226619   1.655   1.328   4.525
 8892TIP3   OH226620   5.587   1.064   1.656
 8892TIP3    H126621   5.629   1.046   1.572
 8892TIP3    H226622   5.519   1.128   1.636
 8893TIP3   OH226623   5.626   5.449   1.982
 8893TIP3    H126624   5.719   5.448   1.958
 8893TIP3    H226625   5.617   5.527   2.037
 8894TIP3   OH226626   7.457   0.799   6.016
 8894TIP3    H126627   7.385   0.792   5.954
 8894TIP3    H226628   7.451   0.888   6.050
 8895TIP3   OH226629   8.304   2.128   0.768
 8895TIP3    H126630   8.257   2.193   0.819
 8895TIP3    H226631   8.238   2.062   0.745
 8896TIP3   OH226632   0.215   7.477   2.433
 8896TIP3    H126633   0.286   7.413   2.427
 8896TIP3    H226634   0.136   7.426   2.413
 8897TIP3   OH226635   7.855   3.101   5.372
 8897TIP3    H126636   7.925   3.061   5.424
 8897TIP3    H226637   7.864   3.195   5.388
 8898TIP3   OH226638   2.618   0.621   0.339
 8898TIP3    H126639   2.527   0.649   0.335
 8898TIP3    H226640   2.622   0.544   0.282
 8899TIP3   OH226641   0.044   0.844   1.099
 8899TIP3    H126642   0.054   0.844   1.004
 8899TIP3    H226643   0.107   0.780   1.130
 8900TIP3   OH226644   5.720   2.093   4.204
 8900TIP3    H126645   5.695   2.171   4.254
 8900TIP3    H226646   5.810   2.074   4.231
 8901TIP3   OH226647   3.978   7.426   5.061
 8901TIP3    H126648   4.006   7.461   4.977
 8901TIP3    H226649   3.985   7.331   5.052
 8902TIP3   OH226650   1.431   6.030   4.235
 8902TIP3    H126651   1.345   6.072   4.230
 8902TIP3    H226652   1.431   5.987   4.321
 8903TIP3   OH226653   1.533   1.556   2.039
 8903TIP3    H126654   1.519   1.548   2.134
 8903TIP3    H226655   1.553   1.649   2.026
 8904TIP3   OH226656   6.488   1.262   5.890
 8904TIP3    H126657   6.466   1.185   5.942
 8904TIP3    H226658   6.457   1.337   5.941
 8905TIP3   OH226659   8.075   0.276   5.278
 8905TIP3    H126660   8.137   0.205   5.293
 8905TIP3    H226661   7.997   0.250   5.327
 8906TIP3   OH226662   3.905   6.521   6.269
 8906TIP3    H126663   3.823   6.509   6.316
 8906TIP3    H226664   3.972   6.488   6.328
 8907TIP3   OH226665   8.288   6.103   5.733
 8907TIP3    H126666   8.312   6.049   5.808
 8907TIP3    H226667   8.353   6.082   5.666
 8908TIP3   OH226668   1.027   2.899   5.722
 8908TIP3    H126669   1.067   2.938   5.800
 8908TIP3    H226670   0.933   2.900   5.741
 8909TIP3   OH226671   1.613   6.388   6.667
 8909TIP3    H126672   1.623   6.468   6.719
 8909TIP3    H226673   1.698   6.376   6.625
 8910TIP3   OH226674   0.893   2.090   2.229
 8910TIP3    H126675   0.807   2.049   2.240
 8910TIP3    H226676   0.903   2.099   2.134
 8911TIP3   OH226677   1.408   2.405   4.390
 8911TIP3    H126678   1.476   2.461   4.355
 8911TIP3    H226679   1.427   2.400   4.484
 8912TIP3   OH226680   0.198   5.433   4.325
 8912TIP3    H126681   0.162   5.344   4.315
 8912TIP3    H226682   0.224   5.458   4.237
 8913TIP3   OH226683   2.394   6.496   3.243
 8913TIP3    H126684   2.390   6.436   3.317
 8913TIP3    H226685   2.353   6.576   3.275
 8914TIP3   OH226686   3.632   4.272   0.912
 8914TIP3    H126687   3.585   4.191   0.929
 8914TIP3    H226688   3.628   4.283   0.817
 8915TIP3   OH226689   7.173   2.184   2.890
 8915TIP3    H126690   7.179   2.197   2.985
 8915TIP3    H226691   7.231   2.109   2.873
 8916TIP3   OH226692   2.418   4.550   0.739
 8916TIP3    H126693   2.418   4.573   0.647
 8916TIP3    H226694   2.361   4.474   0.746
 8917TIP3   OH226695   1.424   4.164   2.143
 8917TIP3    H126696   1.344   4.208   2.172
 8917TIP3    H226697   1.494   4.207   2.192
 8918TIP3   OH226698   4.129   2.434   1.098
 8918TIP3    H126699   4.164   2.471   1.017
 8918TIP3    H226700   4.152   2.341   1.092
 8919TIP3   OH226701   0.561   5.454   5.624
 8919TIP3    H126702   0.655   5.439   5.631
 8919TIP3    H226703   0.533   5.474   5.714
 8920TIP3   OH226704   3.147   7.270   5.565
 8920TIP3    H126705   3.067   7.251   5.516
 8920TIP3    H226706   3.217   7.233   5.513
 8921TIP3   OH226707   3.166   1.094   6.723
 8921TIP3    H126708   3.077   1.108   6.691
 8921TIP3    H226709   3.217   1.074   6.644
 8922TIP3   OH226710   3.202   2.594   2.557
 8922TIP3    H126711   3.194   2.671   2.614
 8922TIP3    H226712   3.294   2.570   2.562
 8923TIP3   OH226713   4.734   6.274   2.128
 8923TIP3    H126714   4.713   6.356   2.083
 8923TIP3    H226715   4.731   6.297   2.221
 8924TIP3   OH226716   3.953   1.216   6.242
 8924TIP3    H126717   4.040   1.256   6.246
 8924TIP3    H226718   3.968   1.123   6.261
 8925TIP3   OH226719   8.114   3.630   1.150
 8925TIP3    H126720   8.091   3.577   1.074
 8925TIP3    H226721   8.032   3.639   1.198
 8926TIP3   OH226722   2.444   3.006   3.225
 8926TIP3    H126723   2.499   2.984   3.150
 8926TIP3    H226724   2.355   3.011   3.190
 8927TIP3   OH226725   6.541   1.472   5.603
 8927TIP3    H126726   6.558   1.508   5.690
 8927TIP3    H226727   6.548   1.547   5.544
 8928TIP3   OH226728   4.929   4.264   2.306
 8928TIP3    H126729   4.938   4.351   2.345
 8928TIP3    H226730   4.969   4.205   2.370
 8929TIP3   OH226731   0.994   4.358   6.690
 8929TIP3    H126732   0.937   4.366   6.614
 8929TIP3    H226733   0.987   4.266   6.716
 8930TIP3   OH226734   0.309   7.815   6.171
 8930TIP3    H126735   0.305   7.787   6.079
 8930TIP3    H226736   0.264   7.745   6.219
 8931TIP3   OH226737   0.997   4.083   5.204
 8931TIP3    H126738   1.041   4.085   5.119
 8931TIP3    H226739   1.042   4.149   5.256
 8932TIP3   OH226740   5.100   2.109   5.108
 8932TIP3    H126741   5.059   2.063   5.035
 8932TIP3    H226742   5.146   2.182   5.066
 8933TIP3   OH226743   4.984   5.820   4.412
 8933TIP3    H126744   5.005   5.753   4.477
 8933TIP3    H226745   4.933   5.885   4.460
 8934TIP3   OH226746   2.839   3.267   6.015
 8934TIP3    H126747   2.745   3.273   6.030
 8934TIP3    H226748   2.850   3.296   5.924
 8935TIP3   OH226749   1.990   3.856   6.456
 8935TIP3    H126750   1.962   3.856   6.547
 8935TIP3    H226751   2.083   3.833   6.460
 8936TIP3   OH226752   4.975   6.133   2.058
 8936TIP3    H126753   4.943   6.046   2.032
 8936TIP3    H226754   4.895   6.184   2.073
 8937TIP3   OH226755   4.364   6.550   3.366
 8937TIP3    H126756   4.341   6.619   3.428
 8937TIP3    H226757   4.418   6.594   3.300
 8938TIP3   OH226758   0.047   7.131   0.447
 8938TIP3    H126759   0.053   7.038   0.470
 8938TIP3    H226760  -0.043   7.155   0.470
 8939TIP3   OH226761   7.024   4.865   4.016
 8939TIP3    H126762   6.999   4.939   4.072
 8939TIP3    H226763   7.073   4.905   3.944
 8940TIP3   OH226764   0.382   6.311   3.500
 8940TIP3    H126765   0.366   6.322   3.406
 8940TIP3    H226766   0.384   6.400   3.534
 8941TIP3   OH226767   7.340   1.968   6.765
 8941TIP3    H126768   7.296   2.037   6.715
 8941TIP3    H226769   7.269   1.913   6.797
 8942TIP3   OH226770   4.062   1.192   2.549
 8942TIP3    H126771   4.054   1.132   2.624
 8942TIP3    H226772   4.156   1.207   2.541
 8943TIP3   OH226773   2.929   6.526   2.266
 8943TIP3    H126774   2.847   6.522   2.316
 8943TIP3    H226775   2.967   6.611   2.289
 8944TIP3   OH226776   7.247   1.907   4.194
 8944TIP3    H126777   7.244   1.819   4.230
 8944TIP3    H226778   7.267   1.895   4.101
 8945TIP3   OH226779   4.087   2.749   4.170
 8945TIP3    H126780   4.027   2.754   4.244
 8945TIP3    H226781   4.082   2.836   4.129
 8946TIP3   OH226782   0.441   6.534   2.932
 8946TIP3    H126783   0.428   6.544   3.026
 8946TIP3    H226784   0.485   6.615   2.905
 8947TIP3   OH226785   0.717   4.883   3.856
 8947TIP3    H126786   0.730   4.804   3.804
 8947TIP3    H226787   0.791   4.886   3.916
 8948TIP3   OH226788   5.917   3.554   2.449
 8948TIP3    H126789   6.002   3.587   2.419
 8948TIP3    H226790   5.928   3.541   2.543
 8949TIP3   OH226791   4.053   5.046   5.636
 8949TIP3    H126792   4.135   5.002   5.613
 8949TIP3    H226793   3.990   5.013   5.572
 8950TIP3   OH226794   0.581   3.899   6.360
 8950TIP3    H126795   0.526   3.822   6.345
 8950TIP3    H226796   0.671   3.865   6.357
 8951TIP3   OH226797   6.301   6.624   2.671
 8951TIP3    H126798   6.370   6.672   2.717
 8951TIP3    H226799   6.220   6.667   2.699
 8952TIP3   OH226800   0.683   0.646   2.751
 8952TIP3    H126801   0.751   0.669   2.815
 8952TIP3    H226802   0.647   0.564   2.783
 8953TIP3   OH226803   3.961   1.274   3.106
 8953TIP3    H126804   4.035   1.316   3.151
 8953TIP3    H226805   3.885   1.328   3.130
 8954TIP3   OH226806   0.714   2.429   1.842
 8954TIP3    H126807   0.800   2.435   1.800
 8954TIP3    H226808   0.677   2.517   1.834
 8955TIP3   OH226809   2.370   6.206   0.250
 8955TIP3    H126810   2.389   6.299   0.242
 8955TIP3    H226811   2.328   6.182   0.167
 8956TIP3   OH226812   4.855   4.014   4.561
 8956TIP3    H126813   4.769   4.015   4.603
 8956TIP3    H226814   4.868   4.103   4.530
 8957TIP3   OH226815   1.477   7.053   3.689
 8957TIP3    H126816   1.445   7.077   3.776
 8957TIP3    H226817   1.524   6.970   3.704
 8958TIP3   OH226818   6.618   0.842   3.237
 8958TIP3    H126819   6.633   0.884   3.152
 8958TIP3    H226820   6.632   0.912   3.301
 8959TIP3   OH226821   3.108   4.628   3.860
 8959TIP3    H126822   3.191   4.672   3.875
 8959TIP3    H226823   3.048   4.699   3.836
 8960TIP3   OH226824   4.623   4.973   3.924
 8960TIP3    H126825   4.635   5.067   3.910
 8960TIP3    H226826   4.554   4.967   3.989
 8961TIP3   OH226827   3.130   2.219   5.651
 8961TIP3    H126828   3.038   2.192   5.648
 8961TIP3    H226829   3.174   2.151   5.702
 8962TIP3   OH226830   3.728   0.690   0.655
 8962TIP3    H126831   3.695   0.620   0.712
 8962TIP3    H226832   3.655   0.751   0.647
 8963TIP3   OH226833   1.735   7.016   6.580
 8963TIP3    H126834   1.709   7.039   6.670
 8963TIP3    H226835   1.672   7.063   6.525
 8964TIP3   OH226836   8.139   2.637   1.626
 8964TIP3    H126837   8.078   2.565   1.646
 8964TIP3    H226838   8.213   2.594   1.583
 8965TIP3   OH226839   5.511   2.409   3.101
 8965TIP3    H126840   5.495   2.367   3.185
 8965TIP3    H226841   5.444   2.372   3.042
 8966TIP3   OH226842   4.195   2.548   5.315
 8966TIP3    H126843   4.258   2.594   5.259
 8966TIP3    H226844   4.111   2.559   5.271
 8967TIP3   OH226845   3.836   3.856   0.596
 8967TIP3    H126846   3.926   3.889   0.592
 8967TIP3    H226847   3.812   3.839   0.505
 8968TIP3   OH226848   5.209   6.355   0.400
 8968TIP3    H126849   5.194   6.441   0.361
 8968TIP3    H226850   5.166   6.293   0.341
 8969TIP3   OH226851   2.799   2.935   4.000
 8969TIP3    H126852   2.763   2.846   4.002
 8969TIP3    H226853   2.778   2.972   4.085
 8970TIP3   OH226854   3.502   1.747   4.374
 8970TIP3    H126855   3.551   1.787   4.446
 8970TIP3    H226856   3.417   1.792   4.374
 8971TIP3   OH226857   6.919   4.500   1.669
 8971TIP3    H126858   6.922   4.475   1.762
 8971TIP3    H226859   6.914   4.595   1.670
 8972TIP3   OH226860   5.073   3.352   2.220
 8972TIP3    H126861   5.085   3.378   2.129
 8972TIP3    H226862   5.158   3.369   2.261
 8973TIP3   OH226863   1.728   5.346   2.509
 8973TIP3    H126864   1.685   5.297   2.440
 8973TIP3    H226865   1.770   5.280   2.564
 8974TIP3   OH226866   6.013   2.638   2.873
 8974TIP3    H126867   6.075   2.708   2.892
 8974TIP3    H226868   5.952   2.676   2.809
 8975TIP3   OH226869   0.501   5.398   1.575
 8975TIP3    H126870   0.436   5.360   1.635
 8975TIP3    H226871   0.455   5.407   1.492
 8976TIP3   OH226872   8.229   1.197   6.213
 8976TIP3    H126873   8.294   1.130   6.233
 8976TIP3    H226874   8.216   1.243   6.296
 8977TIP3   OH226875   6.024   0.728   1.717
 8977TIP3    H126876   6.007   0.712   1.624
 8977TIP3    H226877   5.956   0.680   1.763
 8978TIP3   OH226878   7.940   3.337   4.284
 8978TIP3    H126879   7.861   3.384   4.309
 8978TIP3    H226880   7.908   3.258   4.240
 8979TIP3   OH226881   3.345   2.625   5.936
 8979TIP3    H126882   3.297   2.682   5.995
 8979TIP3    H226883   3.279   2.588   5.878
 8980TIP3   OH226884   6.262   2.218   2.156
 8980TIP3    H126885   6.214   2.225   2.239
 8980TIP3    H226886   6.231   2.137   2.117
 8981TIP3   OH226887   0.612   3.017   4.267
 8981TIP3    H126888   0.517   3.025   4.260
 8981TIP3    H226889   0.629   2.923   4.271
 8982TIP3   OH226890   6.071   1.123   4.789
 8982TIP3    H126891   6.162   1.119   4.762
 8982TIP3    H226892   6.026   1.168   4.717
 8983TIP3   OH226893   7.161   1.216   0.153
 8983TIP3    H126894   7.107   1.142   0.123
 8983TIP3    H226895   7.240   1.212   0.098
 8984TIP3   OH226896   3.168   1.419   2.993
 8984TIP3    H126897   3.224   1.426   2.916
 8984TIP3    H226898   3.080   1.441   2.960
 8985TIP3   OH226899   7.358   5.681   1.847
 8985TIP3    H126900   7.350   5.647   1.936
 8985TIP3    H226901   7.360   5.603   1.792
 8986TIP3   OH226902   3.298   3.557   4.671
 8986TIP3    H126903   3.358   3.502   4.722
 8986TIP3    H226904   3.337   3.559   4.584
 8987TIP3   OH226905   3.807   7.269   1.185
 8987TIP3    H126906   3.806   7.335   1.116
 8987TIP3    H226907   3.728   7.218   1.171
 8988TIP3   OH226908   0.416   1.220   1.411
 8988TIP3    H126909   0.379   1.305   1.431
 8988TIP3    H226910   0.347   1.157   1.435
 8989TIP3   OH226911   7.378   2.352   1.045
 8989TIP3    H126912   7.411   2.426   1.096
 8989TIP3    H226913   7.317   2.391   0.982
 8990TIP3   OH226914   4.662   2.899   0.011
 8990TIP3    H126915   4.606   2.947  -0.050
 8990TIP3    H226916   4.736   2.957   0.027
 8991TIP3   OH226917   8.038   6.135   4.602
 8991TIP3    H126918   8.082   6.144   4.517
 8991TIP3    H226919   8.003   6.045   4.601
 8992TIP3   OH226920   0.597   0.238   6.524
 8992TIP3    H126921   0.506   0.224   6.552
 8992TIP3    H226922   0.629   0.308   6.581
 8993TIP3   OH226923   6.269   2.571   2.209
 8993TIP3    H126924   6.255   2.666   2.211
 8993TIP3    H226925   6.215   2.541   2.136
 8994TIP3   OH226926   2.782   1.165   3.162
 8994TIP3    H126927   2.874   1.178   3.184
 8994TIP3    H226928   2.746   1.116   3.237
 8995TIP3   OH226929   6.109   0.785   0.476
 8995TIP3    H126930   6.090   0.691   0.472
 8995TIP3    H226931   6.027   0.827   0.449
 8996TIP3   OH226932   7.185   1.575   2.764
 8996TIP3    H126933   7.178   1.664   2.730
 8996TIP3    H226934   7.120   1.525   2.716
 8997TIP3   OH226935   6.959   5.686   3.423
 8997TIP3    H126936   6.896   5.614   3.419
 8997TIP3    H226937   7.017   5.671   3.348
 8998TIP3   OH226938   4.560   5.940   2.805
 8998TIP3    H126939   4.632   6.001   2.789
 8998TIP3    H226940   4.482   5.995   2.804
 8999TIP3   OH226941   1.640   5.051   4.186
 8999TIP3    H126942   1.573   4.983   4.183
 8999TIP3    H226943   1.669   5.052   4.278
 9000TIP3   OH226944   5.237   0.904   3.662
 9000TIP3    H126945   5.280   0.955   3.731
 9000TIP3    H226946   5.245   0.813   3.691
 9001TIP3   OH226947   2.589   0.136   4.894
 9001TIP3    H126948   2.658   0.099   4.839
 9001TIP3    H226949   2.509   0.123   4.843
 9002TIP3   OH226950   5.280   5.745   3.605
 9002TIP3    H126951   5.319   5.658   3.602
 9002TIP3    H226952   5.305   5.786   3.522
 9003TIP3   OH226953   6.147   6.972   2.417
 9003TIP3    H126954   6.185   6.959   2.505
 9003TIP3    H226955   6.163   7.064   2.398
 9004TIP3   OH226956   1.788   3.824   3.484
 9004TIP3    H126957   1.804   3.900   3.429
 9004TIP3    H226958   1.846   3.835   3.560
 9005TIP3   OH226959   8.213   6.950   6.667
 9005TIP3    H126960   8.272   6.874   6.674
 9005TIP3    H226961   8.138   6.917   6.617
 9006TIP3   OH226962   2.293   4.053   0.700
 9006TIP3    H126963   2.279   3.973   0.649
 9006TIP3    H226964   2.364   4.032   0.760
 9007TIP3   OH226965   6.019   4.978   2.221
 9007TIP3    H126966   5.948   5.043   2.231
 9007TIP3    H226967   5.990   4.904   2.274
 9008TIP3   OH226968   3.997   4.724   5.309
 9008TIP3    H126969   3.922   4.718   5.368
 9008TIP3    H226970   4.058   4.657   5.339
 9009TIP3   OH226971   5.360   6.434   1.924
 9009TIP3    H126972   5.295   6.443   1.855
 9009TIP3    H226973   5.335   6.354   1.970
 9010TIP3   OH226974   1.942   4.407   6.556
 9010TIP3    H126975   1.892   4.374   6.482
 9010TIP3    H226976   1.884   4.396   6.631
 9011TIP3   OH226977   0.884   2.643   3.870
 9011TIP3    H126978   0.806   2.588   3.863
 9011TIP3    H226979   0.912   2.658   3.780
 9012TIP3   OH226980   5.404   4.302   2.984
 9012TIP3    H126981   5.485   4.276   3.026
 9012TIP3    H226982   5.416   4.394   2.961
 9013TIP3   OH226983   3.255   6.107   2.654
 9013TIP3    H126984   3.247   6.094   2.749
 9013TIP3    H226985   3.165   6.116   2.623
 9014TIP3   OH226986   6.338   5.590   6.147
 9014TIP3    H126987   6.408   5.621   6.090
 9014TIP3    H226988   6.268   5.655   6.135
 9015TIP3   OH226989   1.990   3.466   2.163
 9015TIP3    H126990   1.945   3.471   2.248
 9015TIP3    H226991   2.082   3.476   2.184
 9016TIP3   OH226992   7.897   0.549   6.734
 9016TIP3    H126993   7.991   0.545   6.717
 9016TIP3    H226994   7.873   0.640   6.713
 9017TIP3   OH226995   7.704   3.491   5.665
 9017TIP3    H126996   7.711   3.557   5.733
 9017TIP3    H226997   7.782   3.437   5.675
 9018TIP3   OH226998   6.345   4.022   2.413
 9018TIP3    H126999   6.320   4.003   2.503
 9018TIP3    H227000   6.299   4.104   2.392
 9019TIP3   OH227001   6.597   2.446   4.033
 9019TIP3    H127002   6.565   2.445   4.124
 9019TIP3    H227003   6.544   2.380   3.989
 9020TIP3   OH227004   5.701   2.221   6.023
 9020TIP3    H127005   5.659   2.293   5.977
 9020TIP3    H227006   5.683   2.238   6.116
 9021TIP3   OH227007   7.090   1.060   5.639
 9021TIP3    H127008   7.155   0.990   5.646
 9021TIP3    H227009   7.107   1.099   5.553
 9022TIP3   OH227010   1.368   6.964   2.908
 9022TIP3    H127011   1.332   6.897   2.966
 9022TIP3    H227012   1.292   6.998   2.860
 9023TIP3   OH227013   2.107   0.170   5.275
 9023TIP3    H127014   2.140   0.124   5.198
 9023TIP3    H227015   2.040   0.112   5.311
 9024TIP3   OH227016   5.016   0.457   2.586
 9024TIP3    H127017   5.020   0.386   2.522
 9024TIP3    H227018   4.982   0.415   2.665
 9025TIP3   OH227019   4.608   7.497   1.851
 9025TIP3    H127020   4.533   7.556   1.840
 9025TIP3    H227021   4.659   7.536   1.921
 9026TIP3   OH227022   5.869   2.096   1.799
 9026TIP3    H127023   5.960   2.105   1.770
 9026TIP3    H227024   5.857   2.002   1.814
 9027TIP3   OH227025   7.621   4.208   4.062
 9027TIP3    H127026   7.628   4.284   4.004
 9027TIP3    H227027   7.674   4.140   4.020
 9028TIP3   OH227028   0.565   3.495   5.383
 9028TIP3    H127029   0.572   3.487   5.478
 9028TIP3    H227030   0.524   3.412   5.356
 9029TIP3   OH227031   6.704   1.955   4.072
 9029TIP3    H127032   6.653   2.003   4.136
 9029TIP3    H227033   6.683   1.997   3.988
 9030TIP3   OH227034   7.728   3.060   0.876
 9030TIP3    H127035   7.654   3.077   0.817
 9030TIP3    H227036   7.800   3.037   0.818
 9031TIP3   OH227037   7.615   4.791   3.009
 9031TIP3    H127038   7.642   4.850   2.939
 9031TIP3    H227039   7.525   4.815   3.028
 9032TIP3   OH227040   8.085   6.455   6.552
 9032TIP3    H127041   8.024   6.424   6.619
 9032TIP3    H227042   8.029   6.493   6.484
 9033TIP3   OH227043   2.547   0.166   4.224
 9033TIP3    H127044   2.454   0.151   4.235
 9033TIP3    H227045   2.561   0.253   4.261
 9034TIP3   OH227046   8.035   0.960   4.021
 9034TIP3    H127047   8.002   0.951   3.931
 9034TIP3    H227048   8.085   0.880   4.036
 9035TIP3   OH227049   3.890   5.480   1.556
 9035TIP3    H127050   3.913   5.490   1.648
 9035TIP3    H227051   3.832   5.404   1.554
 9036TIP3   OH227052   3.006   0.226   2.598
 9036TIP3    H127053   2.969   0.152   2.550
 9036TIP3    H227054   3.008   0.298   2.535
 9037TIP3   OH227055   7.599   0.623   2.021
 9037TIP3    H127056   7.659   0.552   2.045
 9037TIP3    H227057   7.531   0.621   2.088
 9038TIP3   OH227058   0.322   3.480   3.992
 9038TIP3    H127059   0.297   3.550   4.052
 9038TIP3    H227060   0.378   3.423   4.044
 9039TIP3   OH227061   2.029   1.413   4.067
 9039TIP3    H127062   1.953   1.450   4.112
 9039TIP3    H227063   2.097   1.480   4.076
 9040TIP3   OH227064   2.450   7.415   3.752
 9040TIP3    H127065   2.374   7.433   3.697
 9040TIP3    H227066   2.415   7.363   3.824
 9041TIP3   OH227067   4.438   5.003   1.941
 9041TIP3    H127068   4.361   5.030   1.891
 9041TIP3    H227069   4.459   4.916   1.907
 9042TIP3   OH227070   2.620   1.986   1.038
 9042TIP3    H127071   2.564   2.047   1.086
 9042TIP3    H227072   2.664   1.935   1.105
 9043TIP3   OH227073   7.385   2.461   6.653
 9043TIP3    H127074   7.291   2.473   6.642
 9043TIP3    H227075   7.406   2.508   6.734
 9044TIP3   OH227076   4.557   4.414   2.424
 9044TIP3    H127077   4.601   4.331   2.443
 9044TIP3    H227078   4.590   4.474   2.492
 9045TIP3   OH227079   3.048   6.483   3.220
 9045TIP3    H127080   3.047   6.539   3.298
 9045TIP3    H227081   2.976   6.515   3.166
 9046TIP3   OH227082   5.669   2.176   4.673
 9046TIP3    H127083   5.576   2.162   4.654
 9046TIP3    H227084   5.699   2.094   4.712
 9047TIP3   OH227085   3.969   1.564   5.573
 9047TIP3    H127086   3.990   1.607   5.490
 9047TIP3    H227087   4.045   1.580   5.628
 9048TIP3   OH227088   2.649   7.212   1.248
 9048TIP3    H127089   2.618   7.285   1.195
 9048TIP3    H227090   2.570   7.161   1.267
 9049TIP3   OH227091   3.249   6.399   1.038
 9049TIP3    H127092   3.242   6.305   1.057
 9049TIP3    H227093   3.188   6.440   1.100
 9050TIP3   OH227094   6.609   2.033   5.898
 9050TIP3    H127095   6.663   1.998   5.828
 9050TIP3    H227096   6.535   1.972   5.904
 9051TIP3   OH227097   7.542   2.127   1.211
 9051TIP3    H127098   7.574   2.203   1.260
 9051TIP3    H227099   7.616   2.103   1.155
 9052TIP3   OH227100   0.156   0.925   0.854
 9052TIP3    H127101   0.107   1.008   0.851
 9052TIP3    H227102   0.127   0.878   0.776
 9053TIP3   OH227103   4.014   5.530   2.861
 9053TIP3    H127104   4.021   5.449   2.811
 9053TIP3    H227105   4.064   5.594   2.810
 9054TIP3   OH227106   0.863   5.326   5.988
 9054TIP3    H127107   0.930   5.258   5.995
 9054TIP3    H227108   0.908   5.407   6.013
 9055TIP3   OH227109   3.825   0.984   0.437
 9055TIP3    H127110   3.762   0.950   0.373
 9055TIP3    H227111   3.785   1.065   0.469
 9056TIP3   OH227112   2.379   2.363   3.342
 9056TIP3    H127113   2.323   2.387   3.268
 9056TIP3    H227114   2.401   2.447   3.383
 9057TIP3   OH227115   1.103   5.701   3.256
 9057TIP3    H127116   1.049   5.777   3.279
 9057TIP3    H227117   1.089   5.690   3.162
 9058TIP3   OH227118   4.863   2.975   1.354
 9058TIP3    H127119   4.886   2.902   1.296
 9058TIP3    H227120   4.821   3.039   1.297
 9059TIP3   OH227121   7.492   4.373   3.690
 9059TIP3    H127122   7.495   4.414   3.776
 9059TIP3    H227123   7.404   4.390   3.658
 9060TIP3   OH227124   1.214   5.258   4.162
 9060TIP3    H127125   1.218   5.246   4.257
 9060TIP3    H227126   1.305   5.247   4.133
 9061TIP3   OH227127   4.179   0.599   2.522
 9061TIP3    H127128   4.154   0.507   2.535
 9061TIP3    H227129   4.194   0.607   2.428
 9062TIP3   OH227130   2.374   6.854   0.976
 9062TIP3    H127131   2.434   6.784   1.001
 9062TIP3    H227132   2.415   6.934   1.008
 9063TIP3   OH227133   0.059   3.261   2.531
 9063TIP3    H127134   0.149   3.243   2.559
 9063TIP3    H227135   0.044   3.352   2.556
 9064TIP3   OH227136   3.878   5.345   2.108
 9064TIP3    H127137   3.836   5.429   2.088
 9064TIP3    H227138   3.972   5.366   2.111
 9065TIP3   OH227139   4.631   1.117   0.597
 9065TIP3    H127140   4.693   1.184   0.628
 9065TIP3    H227141   4.681   1.036   0.599
 9066TIP3   OH227142   1.837   5.423   5.074
 9066TIP3    H127143   1.883   5.499   5.109
 9066TIP3    H227144   1.847   5.430   4.979
 9067TIP3   OH227145   7.218   1.907   2.086
 9067TIP3    H127146   7.145   1.965   2.110
 9067TIP3    H227147   7.296   1.953   2.118
 9068TIP3   OH227148   1.554   1.493   1.300
 9068TIP3    H127149   1.509   1.413   1.330
 9068TIP3    H227150   1.483   1.550   1.270
 9069TIP3   OH227151   4.341   1.931   5.929
 9069TIP3    H127152   4.431   1.903   5.943
 9069TIP3    H227153   4.292   1.893   6.002
 9070TIP3   OH227154   4.487   2.208   3.448
 9070TIP3    H127155   4.506   2.211   3.354
 9070TIP3    H227156   4.455   2.296   3.468
 9071TIP3   OH227157   5.574   0.663   3.381
 9071TIP3    H127158   5.549   0.645   3.290
 9071TIP3    H227159   5.504   0.623   3.432
 9072TIP3   OH227160   1.264   4.882   1.249
 9072TIP3    H127161   1.308   4.889   1.165
 9072TIP3    H227162   1.304   4.806   1.291
 9073TIP3   OH227163   2.809   5.201   2.415
 9073TIP3    H127164   2.847   5.251   2.344
 9073TIP3    H227165   2.737   5.152   2.375
 9074TIP3   OH227166   0.632   3.541   1.149
 9074TIP3    H127167   0.713   3.592   1.146
 9074TIP3    H227168   0.593   3.562   1.234
 9075TIP3   OH227169   8.046   3.128   6.586
 9075TIP3    H127170   8.026   3.138   6.679
 9075TIP3    H227171   7.961   3.109   6.546
 9076TIP3   OH227172   1.629   0.793   6.052
 9076TIP3    H127173   1.558   0.730   6.064
 9076TIP3    H227174   1.705   0.751   6.093
 9077TIP3   OH227175   7.455   1.181   5.753
 9077TIP3    H127176   7.456   1.274   5.775
 9077TIP3    H227177   7.545   1.161   5.729
 9078TIP3   OH227178   4.866   3.598   2.932
 9078TIP3    H127179   4.795   3.563   2.987
 9078TIP3    H227180   4.936   3.533   2.939
 9079TIP3   OH227181   7.720   3.811   3.277
 9079TIP3    H127182   7.630   3.786   3.298
 9079TIP3    H227183   7.749   3.863   3.352
 9080TIP3   OH227184   5.098   7.656   0.457
 9080TIP3    H127185   5.111   7.656   0.363
 9080TIP3    H227186   5.119   7.745   0.485
 9081TIP3   OH227187   2.585   4.702   5.748
 9081TIP3    H127188   2.568   4.672   5.658
 9081TIP3    H227189   2.553   4.792   5.749
 9082TIP3   OH227190   5.371   1.206   4.208
 9082TIP3    H127191   5.296   1.147   4.194
 9082TIP3    H227192   5.347   1.256   4.286
 9083TIP3   OH227193   7.316   1.713   3.636
 9083TIP3    H127194   7.401   1.713   3.680
 9083TIP3    H227195   7.283   1.623   3.648
 9084TIP3   OH227196   3.431   2.484   1.711
 9084TIP3    H127197   3.348   2.440   1.727
 9084TIP3    H227198   3.498   2.417   1.727
 9085TIP3   OH227199   3.003   2.135   1.827
 9085TIP3    H127200   2.950   2.058   1.807
 9085TIP3    H227201   2.944   2.192   1.876
 9086TIP3   OH227202   1.422   0.988   0.652
 9086TIP3    H127203   1.417   0.892   0.654
 9086TIP3    H227204   1.494   1.007   0.592
 9087TIP3   OH227205   4.606   0.185   4.053
 9087TIP3    H127206   4.526   0.150   4.092
 9087TIP3    H227207   4.642   0.242   4.120
 9088TIP3   OH227208   6.473   6.572   2.423
 9088TIP3    H127209   6.474   6.651   2.368
 9088TIP3    H227210   6.433   6.601   2.505
 9089TIP3   OH227211   5.883   4.375   5.057
 9089TIP3    H127212   5.889   4.374   5.152
 9089TIP3    H227213   5.953   4.434   5.029
 9090TIP3   OH227214   0.129   3.819   0.740
 9090TIP3    H127215   0.221   3.826   0.714
 9090TIP3    H227216   0.110   3.726   0.737
 9091TIP3   OH227217   3.835   2.416   1.049
 9091TIP3    H127218   3.777   2.487   1.078
 9091TIP3    H227219   3.915   2.429   1.100
 9092TIP3   OH227220   1.292   4.332   6.326
 9092TIP3    H127221   1.387   4.318   6.319
 9092TIP3    H227222   1.275   4.335   6.420
 9093TIP3   OH227223   5.620   4.245   3.128
 9093TIP3    H127224   5.639   4.243   3.221
 9093TIP3    H227225   5.642   4.157   3.096
 9094TIP3   OH227226   2.354   5.394   6.244
 9094TIP3    H127227   2.426   5.340   6.212
 9094TIP3    H227228   2.276   5.358   6.203
 9095TIP3   OH227229   2.428   2.040   2.166
 9095TIP3    H127230   2.365   2.108   2.192
 9095TIP3    H227231   2.461   2.006   2.249
 9096TIP3   OH227232   1.369   7.557   2.499
 9096TIP3    H127233   1.334   7.507   2.572
 9096TIP3    H227234   1.453   7.517   2.479
 9097TIP3   OH227235   8.146   5.024   2.976
 9097TIP3    H127236   8.090   5.024   2.899
 9097TIP3    H227237   8.235   5.009   2.942
 9098TIP3   OH227238   7.963   1.636   4.293
 9098TIP3    H127239   8.014   1.556   4.281
 9098TIP3    H227240   7.899   1.634   4.222
 9099TIP3   OH227241   7.525   4.760   6.259
 9099TIP3    H127242   7.569   4.785   6.178
 9099TIP3    H227243   7.572   4.809   6.327
 9100TIP3   OH227244   0.592   1.719   5.258
 9100TIP3    H127245   0.592   1.791   5.196
 9100TIP3    H227246   0.535   1.749   5.329
 9101TIP3   OH227247   1.289   5.227   5.099
 9101TIP3    H127248   1.262   5.267   5.181
 9101TIP3    H227249   1.321   5.300   5.046
 9102TIP3   OH227250   5.637   3.690   1.174
 9102TIP3    H127251   5.641   3.737   1.257
 9102TIP3    H227252   5.609   3.755   1.111
 9103TIP3   OH227253   5.637   3.577   5.373
 9103TIP3    H127254   5.610   3.514   5.439
 9103TIP3    H227255   5.578   3.562   5.299
 9104TIP3   OH227256   0.103   5.101   0.053
 9104TIP3    H127257   0.052   5.120  -0.026
 9104TIP3    H227258   0.192   5.130   0.031
 9105TIP3   OH227259   5.603   1.614   3.359
 9105TIP3    H127260   5.634   1.697   3.324
 9105TIP3    H227261   5.583   1.561   3.281
 9106TIP3   OH227262   7.126   3.967   3.089
 9106TIP3    H127263   7.118   4.039   3.152
 9106TIP3    H227264   7.220   3.948   3.087
 9107TIP3   OH227265   6.830   5.407   0.885
 9107TIP3    H127266   6.786   5.416   0.970
 9107TIP3    H227267   6.766   5.361   0.830
 9108TIP3   OH227268   7.177   2.482   5.405
 9108TIP3    H127269   7.204   2.531   5.327
 9108TIP3    H227270   7.118   2.542   5.451
 9109TIP3   OH227271   7.041   5.642   5.687
 9109TIP3    H127272   6.953   5.610   5.665
 9109TIP3    H227273   7.032   5.738   5.683
 9110TIP3   OH227274   3.067   1.450   2.011
 9110TIP3    H127275   3.134   1.383   2.004
 9110TIP3    H227276   2.989   1.410   1.973
 9111TIP3   OH227277   7.314   1.459   3.716
 9111TIP3    H127278   7.325   1.378   3.766
 9111TIP3    H227279   7.378   1.452   3.645
 9112TIP3   OH227280   5.849   1.721   3.621
 9112TIP3    H127281   5.836   1.801   3.671
 9112TIP3    H227282   5.859   1.751   3.530
 9113TIP3   OH227283   7.560   1.070   2.559
 9113TIP3    H127284   7.506   1.069   2.480
 9113TIP3    H227285   7.642   1.028   2.534
 9114TIP3   OH227286   7.321   1.829   5.414
 9114TIP3    H127287   7.234   1.828   5.454
 9114TIP3    H227288   7.375   1.776   5.473
 9115TIP3   OH227289   3.822   7.401   0.576
 9115TIP3    H127290   3.840   7.403   0.670
 9115TIP3    H227291   3.773   7.320   0.563
 9116TIP3   OH227292   3.095   5.666   6.228
 9116TIP3    H127293   3.186   5.654   6.253
 9116TIP3    H227294   3.045   5.616   6.294
 9117TIP3   OH227295   7.057   4.142   0.766
 9117TIP3    H127296   7.015   4.169   0.684
 9117TIP3    H227297   7.059   4.221   0.820
 9118TIP3   OH227298   0.929   3.763   4.418
 9118TIP3    H127299   0.991   3.705   4.374
 9118TIP3    H227300   0.960   3.851   4.396
 9119TIP3   OH227301   7.045   4.993   3.724
 9119TIP3    H127302   7.081   5.062   3.780
 9119TIP3    H227303   6.951   5.013   3.720
 9120TIP3   OH227304   2.018   1.135   3.099
 9120TIP3    H127305   1.933   1.092   3.112
 9120TIP3    H227306   2.018   1.160   3.006
 9121TIP3   OH227307   1.081   7.236   1.038
 9121TIP3    H127308   1.044   7.150   1.016
 9121TIP3    H227309   1.030   7.266   1.113
 9122TIP3   OH227310   0.768   5.927   6.422
 9122TIP3    H127311   0.739   6.018   6.424
 9122TIP3    H227312   0.736   5.890   6.504
 9123TIP3   OH227313   7.010   4.371   4.652
 9123TIP3    H127314   7.052   4.389   4.567
 9123TIP3    H227315   7.079   4.385   4.716
 9124TIP3   OH227316   0.511   4.930   2.018
 9124TIP3    H127317   0.460   4.906   2.095
 9124TIP3    H227318   0.565   4.853   1.999
 9125TIP3   OH227319   7.571   7.303   6.547
 9125TIP3    H127320   7.590   7.214   6.578
 9125TIP3    H227321   7.655   7.335   6.513
 9126TIP3   OH227322   4.062   6.843   4.822
 9126TIP3    H127323   4.026   6.925   4.788
 9126TIP3    H227324   4.083   6.862   4.913
 9127TIP3   OH227325   5.600   1.261   2.552
 9127TIP3    H127326   5.573   1.201   2.622
 9127TIP3    H227327   5.693   1.278   2.570
 9128TIP3   OH227328   6.077   6.554   3.270
 9128TIP3    H127329   6.129   6.632   3.253
 9128TIP3    H227330   5.990   6.576   3.238
 9129TIP3   OH227331   1.677   1.263   5.045
 9129TIP3    H127332   1.623   1.275   5.123
 9129TIP3    H227333   1.648   1.181   5.007
 9130TIP3   OH227334   0.938   2.301   6.005
 9130TIP3    H127335   0.979   2.284   6.090
 9130TIP3    H227336   0.852   2.259   6.011
 9131TIP3   OH227337   3.701   0.829   1.467
 9131TIP3    H127338   3.653   0.907   1.495
 9131TIP3    H227339   3.742   0.855   1.384
 9132TIP3   OH227340   5.977   4.492   6.598
 9132TIP3    H127341   6.043   4.439   6.554
 9132TIP3    H227342   5.931   4.536   6.527
 9133TIP3   OH227343   8.101   4.752   3.974
 9133TIP3    H127344   8.075   4.828   3.923
 9133TIP3    H227345   8.100   4.781   4.065
 9134TIP3   OH227346   6.666   2.136   4.730
 9134TIP3    H127347   6.741   2.084   4.761
 9134TIP3    H227348   6.657   2.206   4.795
 9135TIP3   OH227349   5.473   1.343   3.995
 9135TIP3    H127350   5.421   1.307   3.923
 9135TIP3    H227351   5.444   1.296   4.073
 9136TIP3   OH227352   4.389   1.412   4.145
 9136TIP3    H127353   4.401   1.328   4.100
 9136TIP3    H227354   4.356   1.387   4.232
 9137TIP3   OH227355   6.007   3.861   2.740
 9137TIP3    H127356   6.088   3.826   2.703
 9137TIP3    H227357   6.012   3.839   2.833
 9138TIP3   OH227358   2.928   1.930   4.710
 9138TIP3    H127359   2.953   1.840   4.690
 9138TIP3    H227360   2.966   1.947   4.796
 9139TIP3   OH227361   1.330   5.893   5.028
 9139TIP3    H127362   1.396   5.901   5.097
 9139TIP3    H227363   1.249   5.924   5.070
 9140TIP3   OH227364   1.301   2.436   4.667
 9140TIP3    H127365   1.229   2.470   4.613
 9140TIP3    H227366   1.332   2.359   4.620
 9141TIP3   OH227367   2.216   0.933   6.758
 9141TIP3    H127368   2.263   0.916   6.677
 9141TIP3    H227369   2.258   0.876   6.823
 9142TIP3   OH227370   6.558   2.891   6.363
 9142TIP3    H127371   6.524   2.908   6.451
 9142TIP3    H227372   6.480   2.889   6.308
 9143TIP3   OH227373   3.661   1.004   5.869
 9143TIP3    H127374   3.596   0.938   5.844
 9143TIP3    H227375   3.739   0.982   5.817
 9144TIP3   OH227376   1.279   1.560   2.642
 9144TIP3    H127377   1.216   1.629   2.660
 9144TIP3    H227378   1.231   1.494   2.593
 9145TIP3   OH227379   4.169   2.408   0.036
 9145TIP3    H127380   4.231   2.374   0.101
 9145TIP3    H227381   4.088   2.421   0.085
 9146TIP3   OH227382   7.830   7.333   4.276
 9146TIP3    H127383   7.897   7.288   4.328
 9146TIP3    H227384   7.757   7.271   4.271
 9147TIP3   OH227385   2.506   7.186   2.713
 9147TIP3    H127386   2.600   7.203   2.701
 9147TIP3    H227387   2.486   7.225   2.798
 9148TIP3   OH227388   4.541   6.457   0.280
 9148TIP3    H127389   4.524   6.422   0.192
 9148TIP3    H227390   4.528   6.551   0.270
 9149TIP3   OH227391   3.174   7.671   6.177
 9149TIP3    H127392   3.133   7.640   6.097
 9149TIP3    H227393   3.156   7.765   6.179
 9150TIP3   OH227394   6.173   7.711   4.325
 9150TIP3    H127395   6.172   7.806   4.331
 9150TIP3    H227396   6.266   7.688   4.324
 9151TIP3   OH227397   8.173   4.565   5.331
 9151TIP3    H127398   8.095   4.599   5.376
 9151TIP3    H227399   8.246   4.613   5.370
 9152TIP3   OH227400   1.759   7.769   6.252
 9152TIP3    H127401   1.825   7.720   6.301
 9152TIP3    H227402   1.710   7.702   6.204
 9153TIP3   OH227403   1.385   2.017   0.785
 9153TIP3    H127404   1.358   2.108   0.783
 9153TIP3    H227405   1.368   1.989   0.875
 9154TIP3   OH227406   6.606   1.466   6.100
 9154TIP3    H127407   6.702   1.469   6.099
 9154TIP3    H227408   6.581   1.530   6.166
 9155TIP3   OH227409   1.021   2.106   1.344
 9155TIP3    H127410   0.962   2.170   1.305
 9155TIP3    H227411   1.097   2.103   1.285
 9156TIP3   OH227412  -0.003   0.945   3.421
 9156TIP3    H127413   0.033   0.857   3.432
 9156TIP3    H227414   0.061   1.003   3.463
 9157TIP3   OH227415   7.727   7.332   3.284
 9157TIP3    H127416   7.736   7.396   3.354
 9157TIP3    H227417   7.646   7.285   3.304
 9158TIP3   OH227418   2.903   2.717   3.306
 9158TIP3    H127419   2.813   2.686   3.297
 9158TIP3    H227420   2.929   2.690   3.394
 9159TIP3   OH227421   3.387   6.907   4.394
 9159TIP3    H127422   3.334   6.983   4.368
 9159TIP3    H227423   3.445   6.942   4.462
 9160TIP3   OH227424   2.396   1.827   5.743
 9160TIP3    H127425   2.346   1.909   5.752
 9160TIP3    H227426   2.349   1.765   5.799
 9161TIP3   OH227427   5.630   5.160   0.842
 9161TIP3    H127428   5.709   5.172   0.790
 9161TIP3    H227429   5.559   5.156   0.778
 9162TIP3   OH227430   3.110   2.693   5.454
 9162TIP3    H127431   3.083   2.686   5.363
 9162TIP3    H227432   3.126   2.786   5.467
 9163TIP3   OH227433   8.150   5.701   4.615
 9163TIP3    H127434   8.087   5.774   4.619
 9163TIP3    H227435   8.212   5.720   4.685
 9164TIP3   OH227436   3.310   1.341   5.562
 9164TIP3    H127437   3.342   1.429   5.546
 9164TIP3    H227438   3.361   1.310   5.637
 9165TIP3   OH227439   3.169   0.328   4.797
 9165TIP3    H127440   3.241   0.266   4.809
 9165TIP3    H227441   3.202   0.411   4.832
 9166TIP3   OH227442   5.576   5.089   0.341
 9166TIP3    H127443   5.524   5.130   0.272
 9166TIP3    H227444   5.647   5.045   0.294
 9167TIP3   OH227445   0.929   5.201   3.101
 9167TIP3    H127446   0.880   5.272   3.060
 9167TIP3    H227447   0.923   5.129   3.039
 9168TIP3   OH227448   6.715   4.841   2.948
 9168TIP3    H127449   6.736   4.753   2.981
 9168TIP3    H227450   6.672   4.825   2.864
 9169TIP3   OH227451   3.540   5.466   3.759
 9169TIP3    H127452   3.490   5.388   3.735
 9169TIP3    H227453   3.496   5.538   3.714
 9170TIP3   OH227454   3.047   6.561   5.292
 9170TIP3    H127455   3.056   6.523   5.205
 9170TIP3    H227456   3.015   6.489   5.347
 9171TIP3   OH227457   7.169   5.097   1.676
 9171TIP3    H127458   7.203   5.133   1.758
 9171TIP3    H227459   7.093   5.151   1.656
 9172TIP3   OH227460   2.261   7.090   6.600
 9172TIP3    H127461   2.342   7.139   6.582
 9172TIP3    H227462   2.290   7.015   6.652
 9173TIP3   OH227463   1.252   6.112   3.914
 9173TIP3    H127464   1.251   6.187   3.973
 9173TIP3    H227465   1.277   6.149   3.829
 9174TIP3   OH227466   1.365   4.298   5.102
 9174TIP3    H127467   1.445   4.258   5.068
 9174TIP3    H227468   1.362   4.272   5.194
 9175TIP3   OH227469   3.747   7.087   0.579
 9175TIP3    H127470   3.669   7.032   0.588
 9175TIP3    H227471   3.808   7.054   0.645
 9176TIP3   OH227472   5.656   2.652   2.318
 9176TIP3    H127473   5.616   2.724   2.367
 9176TIP3    H227474   5.605   2.575   2.342
 9177TIP3   OH227475   1.939   1.537   1.294
 9177TIP3    H127476   1.897   1.510   1.376
 9177TIP3    H227477   2.031   1.511   1.305
 9178TIP3   OH227478   0.535   1.634   4.522
 9178TIP3    H127479   0.539   1.728   4.539
 9178TIP3    H227480   0.603   1.596   4.577
 9179TIP3   OH227481   6.090   4.172   1.311
 9179TIP3    H127482   6.159   4.156   1.246
 9179TIP3    H227483   6.043   4.249   1.277
 9180TIP3   OH227484   3.499   0.767   0.069
 9180TIP3    H127485   3.430   0.740   0.129
 9180TIP3    H227486   3.503   0.697   0.003
 9181TIP3   OH227487   5.266   1.812   4.527
 9181TIP3    H127488   5.204   1.815   4.600
 9181TIP3    H227489   5.315   1.731   4.539
 9182TIP3   OH227490   3.559   0.010   2.195
 9182TIP3    H127491   3.497   0.002   2.123
 9182TIP3    H227492   3.523  -0.045   2.264
 9183TIP3   OH227493   3.569   1.604   4.165
 9183TIP3    H127494   3.544   1.590   4.257
 9183TIP3    H227495   3.534   1.691   4.144
 9184TIP3   OH227496   0.971   7.477   3.371
 9184TIP3    H127497   1.066   7.468   3.369
 9184TIP3    H227498   0.939   7.390   3.392
 9185TIP3   OH227499   2.435   6.789   5.111
 9185TIP3    H127500   2.512   6.749   5.151
 9185TIP3    H227501   2.463   6.878   5.089
 9186TIP3   OH227502   6.826   3.690   3.845
 9186TIP3    H127503   6.773   3.729   3.775
 9186TIP3    H227504   6.788   3.726   3.925
 9187TIP3   OH227505   5.760   3.751   0.365
 9187TIP3    H127506   5.665   3.746   0.376
 9187TIP3    H227507   5.773   3.777   0.274
 9188TIP3   OH227508   4.471   7.062   4.523
 9188TIP3    H127509   4.489   6.970   4.503
 9188TIP3    H227510   4.382   7.063   4.558
 9189TIP3   OH227511   2.091   2.904   4.909
 9189TIP3    H127512   2.042   2.970   4.860
 9189TIP3    H227513   2.125   2.951   4.986
 9190TIP3   OH227514   0.959   2.970   4.870
 9190TIP3    H127515   1.054   2.959   4.877
 9190TIP3    H227516   0.948   3.063   4.849
 9191TIP3   OH227517   3.219   1.670   0.701
 9191TIP3    H127518   3.160   1.621   0.645
 9191TIP3    H227519   3.177   1.670   0.787
 9192TIP3   OH227520   6.338   1.360   4.009
 9192TIP3    H127521   6.365   1.296   3.943
 9192TIP3    H227522   6.261   1.321   4.050
 9193TIP3   OH227523   0.883   4.768   0.072
 9193TIP3    H127524   0.821   4.695   0.078
 9193TIP3    H227525   0.918   4.776   0.161
 9194TIP3   OH227526   3.573   3.621   2.267
 9194TIP3    H127527   3.575   3.539   2.316
 9194TIP3    H227528   3.665   3.645   2.256
 9195TIP3   OH227529   7.441   7.074   6.026
 9195TIP3    H127530   7.473   7.140   5.965
 9195TIP3    H227531   7.346   7.075   6.016
 9196TIP3   OH227532   5.321   0.241   4.321
 9196TIP3    H127533   5.309   0.297   4.398
 9196TIP3    H227534   5.345   0.302   4.251
 9197TIP3   OH227535   3.402   0.136   0.888
 9197TIP3    H127536   3.318   0.172   0.916
 9197TIP3    H227537   3.461   0.212   0.887
 9198TIP3   OH227538   4.822   6.532   5.705
 9198TIP3    H127539   4.768   6.571   5.774
 9198TIP3    H227540   4.867   6.459   5.747
 9199TIP3   OH227541   4.108   4.628   0.610
 9199TIP3    H127542   4.113   4.655   0.518
 9199TIP3    H227543   4.063   4.544   0.608
 9200TIP3   OH227544   7.836   1.107   1.335
 9200TIP3    H127545   7.799   1.054   1.265
 9200TIP3    H227546   7.869   1.044   1.399
 9201TIP3   OH227547   0.031   4.338   5.463
 9201TIP3    H127548   0.000   4.428   5.469
 9201TIP3    H227549   0.102   4.341   5.399
 9202TIP3   OH227550   5.159   0.943   3.273
 9202TIP3    H127551   5.081   0.992   3.249
 9202TIP3    H227552   5.198   0.993   3.345
 9203TIP3   OH227553   5.853   1.064   5.208
 9203TIP3    H127554   5.919   1.006   5.170
 9203TIP3    H227555   5.852   1.043   5.301
 9204TIP3   OH227556   0.586   5.976   0.509
 9204TIP3    H127557   0.622   5.899   0.464
 9204TIP3    H227558   0.625   6.051   0.465
 9205TIP3   OH227559   7.303   0.269   3.005
 9205TIP3    H127560   7.366   0.314   3.061
 9205TIP3    H227561   7.228   0.327   3.002
 9206TIP3   OH227562   1.030   4.943   3.157
 9206TIP3    H127563   1.101   4.959   3.095
 9206TIP3    H227564   1.006   5.030   3.189
 9207TIP3   OH227565   3.951   5.293   4.310
 9207TIP3    H127566   4.040   5.327   4.319
 9207TIP3    H227567   3.962   5.201   4.288
 9208TIP3   OH227568   2.903   0.401   6.048
 9208TIP3    H127569   2.917   0.440   5.962
 9208TIP3    H227570   2.989   0.403   6.090
 9209TIP3   OH227571   8.013   0.515   1.679
 9209TIP3    H127572   7.920   0.497   1.691
 9209TIP3    H227573   8.055   0.430   1.692
 9210TIP3   OH227574   7.373   5.076   6.310
 9210TIP3    H127575   7.313   5.094   6.382
 9210TIP3    H227576   7.412   4.991   6.332
 9211TIP3   OH227577   1.291   0.325   2.708
 9211TIP3    H127578   1.235   0.403   2.712
 9211TIP3    H227579   1.368   0.354   2.659
 9212TIP3   OH227580   8.115   1.662   4.761
 9212TIP3    H127581   8.082   1.751   4.773
 9212TIP3    H227582   8.142   1.634   4.848
 9213TIP3   OH227583   7.094   1.572   0.801
 9213TIP3    H127584   7.019   1.548   0.856
 9213TIP3    H227585   7.122   1.489   0.762
 9214TIP3   OH227586   2.591   2.375   3.064
 9214TIP3    H127587   2.629   2.407   3.145
 9214TIP3    H227588   2.603   2.447   3.002
 9215TIP3   OH227589   8.156   0.588   2.731
 9215TIP3    H127590   8.204   0.556   2.807
 9215TIP3    H227591   8.116   0.670   2.761
 9216TIP3   OH227592   8.255   6.951   3.606
 9216TIP3    H127593   8.256   7.035   3.560
 9216TIP3    H227594   8.190   6.963   3.675
 9217TIP3   OH227595   5.183   0.684   4.183
 9217TIP3    H127596   5.151   0.686   4.273
 9217TIP3    H227597   5.250   0.753   4.180
 9218TIP3   OH227598   3.525   2.534   0.716
 9218TIP3    H127599   3.445   2.509   0.671
 9218TIP3    H227600   3.553   2.615   0.674
 9219TIP3   OH227601   0.126   1.723   0.644
 9219TIP3    H127602   0.082   1.776   0.710
 9219TIP3    H227603   0.219   1.732   0.664
 9220TIP3   OH227604   4.734   6.020   5.755
 9220TIP3    H127605   4.728   6.115   5.755
 9220TIP3    H227606   4.750   5.997   5.663
 9221TIP3   OH227607   6.396   2.524   2.439
 9221TIP3    H127608   6.475   2.568   2.407
 9221TIP3    H227609   6.342   2.514   2.361
 9222TIP3   OH227610   2.068   3.780   2.113
 9222TIP3    H127611   2.097   3.756   2.026
 9222TIP3    H227612   2.143   3.760   2.170
 9223TIP3   OH227613   6.463   3.088   0.882
 9223TIP3    H127614   6.547   3.095   0.836
 9223TIP3    H227615   6.454   3.171   0.928
 9224TIP3   OH227616   2.116   6.115   2.085
 9224TIP3    H127617   2.063   6.092   2.008
 9224TIP3    H227618   2.169   6.190   2.056
 9225TIP3   OH227619   3.096   7.044   2.392
 9225TIP3    H127620   3.184   7.007   2.395
 9225TIP3    H227621   3.109   7.133   2.359
 9226TIP3   OH227622   1.847   7.327   3.021
 9226TIP3    H127623   1.856   7.409   3.069
 9226TIP3    H227624   1.920   7.327   2.959
 9227TIP3   OH227625   3.822   7.671   6.669
 9227TIP3    H127626   3.759   7.603   6.648
 9227TIP3    H227627   3.882   7.631   6.731
 9228TIP3   OH227628   4.392   3.175   0.573
 9228TIP3    H127629   4.430   3.094   0.539
 9228TIP3    H227630   4.300   3.155   0.587
 9229TIP3   OH227631   5.919   5.786   6.272
 9229TIP3    H127632   5.958   5.722   6.332
 9229TIP3    H227633   5.906   5.738   6.190
 9230TIP3   OH227634   4.149   1.683   0.726
 9230TIP3    H127635   4.123   1.658   0.638
 9230TIP3    H227636   4.159   1.601   0.773
 9231TIP3   OH227637   1.675   3.842   4.483
 9231TIP3    H127638   1.697   3.817   4.393
 9231TIP3    H227639   1.727   3.784   4.538
 9232TIP3   OH227640   0.244   1.459   1.784
 9232TIP3    H127641   0.222   1.547   1.753
 9232TIP3    H227642   0.166   1.407   1.765
 9233TIP3   OH227643   2.149   2.315   1.907
 9233TIP3    H127644   2.133   2.379   1.837
 9233TIP3    H227645   2.226   2.266   1.878
 9234TIP3   OH227646   6.159   4.837   3.401
 9234TIP3    H127647   6.133   4.915   3.450
 9234TIP3    H227648   6.076   4.798   3.373
 9235TIP3   OH227649   7.653   5.029   5.616
 9235TIP3    H127650   7.573   4.978   5.623
 9235TIP3    H227651   7.632   5.098   5.553
 9236TIP3   OH227652   4.179   0.620   1.233
 9236TIP3    H127653   4.150   0.532   1.210
 9236TIP3    H227654   4.189   0.665   1.150
 9237TIP3   OH227655   0.772   1.354   2.248
 9237TIP3    H127656   0.807   1.339   2.160
 9237TIP3    H227657   0.847   1.382   2.300
 9238TIP3   OH227658   6.401   2.361   4.941
 9238TIP3    H127659   6.308   2.350   4.957
 9238TIP3    H227660   6.410   2.358   4.845
 9239TIP3   OH227661   2.024   4.901   6.418
 9239TIP3    H127662   2.069   4.913   6.502
 9239TIP3    H227663   1.957   4.969   6.417
 9240TIP3   OH227664   4.206   3.988   1.495
 9240TIP3    H127665   4.241   4.072   1.465
 9240TIP3    H227666   4.142   3.963   1.429
 9241TIP3   OH227667   3.085   4.507   0.277
 9241TIP3    H127668   3.056   4.596   0.256
 9241TIP3    H227669   3.015   4.451   0.243
 9242TIP3   OH227670   7.943   5.349   6.086
 9242TIP3    H127671   7.866   5.374   6.137
 9242TIP3    H227672   7.976   5.431   6.050
 9243TIP3   OH227673   7.319   2.311   1.703
 9243TIP3    H127674   7.268   2.379   1.747
 9243TIP3    H227675   7.255   2.242   1.684
 9244TIP3   OH227676   4.771   0.611   5.784
 9244TIP3    H127677   4.810   0.611   5.697
 9244TIP3    H227678   4.836   0.570   5.840
 9245TIP3   OH227679   6.302   7.405   5.459
 9245TIP3    H127680   6.308   7.452   5.543
 9245TIP3    H227681   6.367   7.335   5.466
 9246TIP3   OH227682   3.145   0.287   1.586
 9246TIP3    H127683   3.164   0.193   1.591
 9246TIP3    H227684   3.143   0.307   1.492
 9247TIP3   OH227685   2.640   1.447   0.285
 9247TIP3    H127686   2.546   1.438   0.270
 9247TIP3    H227687   2.676   1.471   0.200
 9248TIP3   OH227688   7.956   0.884   1.441
 9248TIP3    H127689   7.911   0.804   1.415
 9248TIP3    H227690   7.995   0.864   1.525
 9249TIP3   OH227691   1.274   3.470   0.642
 9249TIP3    H127692   1.194   3.520   0.660
 9249TIP3    H227693   1.278   3.405   0.712
 9250TIP3   OH227694   2.745   6.904   1.457
 9250TIP3    H127695   2.832   6.923   1.493
 9250TIP3    H227696   2.738   6.809   1.460
 9251TIP3   OH227697   1.959   1.818   4.243
 9251TIP3    H127698   2.008   1.851   4.168
 9251TIP3    H227699   1.907   1.746   4.208
 9252TIP3   OH227700   4.945   7.492   0.178
 9252TIP3    H127701   4.953   7.519   0.086
 9252TIP3    H227702   5.027   7.446   0.196
 9253TIP3   OH227703   7.205   5.514   2.145
 9253TIP3    H127704   7.155   5.587   2.180
 9253TIP3    H227705   7.172   5.501   2.056
 9254TIP3   OH227706   1.679   1.343   1.653
 9254TIP3    H127707   1.706   1.345   1.745
 9254TIP3    H227708   1.586   1.321   1.656
 9255TIP3   OH227709   3.522   6.671   5.027
 9255TIP3    H127710   3.520   6.575   5.023
 9255TIP3    H227711   3.615   6.693   5.033
 9256TIP3   OH227712   6.291   2.895   6.288
 9256TIP3    H127713   6.279   2.811   6.332
 9256TIP3    H227714   6.202   2.928   6.274
 9257TIP3   OH227715   3.031   3.539   0.698
 9257TIP3    H127716   2.939   3.564   0.697
 9257TIP3    H227717   3.075   3.611   0.743
 9258TIP3   OH227718   7.908   3.024   4.075
 9258TIP3    H127719   7.825   3.072   4.085
 9258TIP3    H227720   7.966   3.087   4.033
 9259TIP3   OH227721   8.141   0.585   1.403
 9259TIP3    H127722   8.121   0.495   1.377
 9259TIP3    H227723   8.110   0.592   1.493
 9260TIP3   OH227724   1.452   3.033   2.152
 9260TIP3    H127725   1.468   3.084   2.232
 9260TIP3    H227726   1.519   3.064   2.091
 9261TIP3   OH227727   0.516   7.613   1.480
 9261TIP3    H127728   0.583   7.544   1.477
 9261TIP3    H227729   0.562   7.692   1.450
 9262TIP3   OH227730   2.172   1.592   3.775
 9262TIP3    H127731   2.218   1.509   3.789
 9262TIP3    H227732   2.155   1.595   3.680
 9263TIP3   OH227733   1.099   6.916   3.011
 9263TIP3    H127734   1.074   6.999   2.972
 9263TIP3    H227735   1.026   6.894   3.069
 9264TIP3   OH227736   1.796   5.174   5.229
 9264TIP3    H127737   1.756   5.154   5.144
 9264TIP3    H227738   1.825   5.264   5.221
 9265TIP3   OH227739   1.655   5.132   1.487
 9265TIP3    H127740   1.641   5.049   1.443
 9265TIP3    H227741   1.625   5.118   1.577
 9266TIP3   OH227742   0.306   7.442   6.731
 9266TIP3    H127743   0.335   7.526   6.694
 9266TIP3    H227744   0.310   7.381   6.658
 9267TIP3   OH227745   7.599   7.829   6.330
 9267TIP3    H127746   7.522   7.850   6.277
 9267TIP3    H227747   7.565   7.772   6.399
 9268TIP3   OH227748   1.986   3.942   4.342
 9268TIP3    H127749   2.065   3.965   4.293
 9268TIP3    H227750   1.997   3.985   4.426
 9269TIP3   OH227751   4.305   4.560   6.472
 9269TIP3    H127752   4.302   4.654   6.453
 9269TIP3    H227753   4.389   4.547   6.515
 9270TIP3   OH227754   5.219   1.186   0.737
 9270TIP3    H127755   5.297   1.136   0.713
 9270TIP3    H227756   5.193   1.152   0.822
 9271TIP3   OH227757   6.130   3.396   5.040
 9271TIP3    H127758   6.139   3.489   5.059
 9271TIP3    H227759   6.083   3.361   5.116
 9272TIP3   OH227760   1.818   5.598   3.784
 9272TIP3    H127761   1.749   5.544   3.822
 9272TIP3    H227762   1.877   5.617   3.857
 9273TIP3   OH227763   4.307   7.451   5.779
 9273TIP3    H127764   4.333   7.541   5.762
 9273TIP3    H227765   4.363   7.423   5.851
 9274TIP3   OH227766   4.597   2.001   1.362
 9274TIP3    H127767   4.526   1.946   1.397
 9274TIP3    H227768   4.593   2.081   1.415
 9275TIP3   OH227769   6.401   6.028   4.438
 9275TIP3    H127770   6.339   6.098   4.418
 9275TIP3    H227771   6.447   6.058   4.516
 9276TIP3   OH227772   7.463   2.604   0.433
 9276TIP3    H127773   7.403   2.548   0.483
 9276TIP3    H227774   7.545   2.603   0.483
 9277TIP3   OH227775   7.014   4.639   3.371
 9277TIP3    H127776   7.035   4.672   3.458
 9277TIP3    H227777   6.938   4.583   3.384
 9278TIP3   OH227778   5.176   3.983   3.829
 9278TIP3    H127779   5.127   3.928   3.890
 9278TIP3    H227780   5.189   3.928   3.752
 9279TIP3   OH227781   7.467   3.950   6.674
 9279TIP3    H127782   7.513   4.033   6.682
 9279TIP3    H227783   7.535   3.887   6.649
 9280TIP3   OH227784   8.208   1.173   3.630
 9280TIP3    H127785   8.274   1.182   3.561
 9280TIP3    H227786   8.142   1.115   3.593
 9281TIP3   OH227787   5.055   3.087   2.133
 9281TIP3    H127788   5.061   3.181   2.152
 9281TIP3    H227789   4.984   3.056   2.189
 9282TIP3   OH227790   4.648   3.480   1.966
 9282TIP3    H127791   4.622   3.414   2.030
 9282TIP3    H227792   4.730   3.448   1.930
 9283TIP3   OH227793   5.175   5.530   0.356
 9283TIP3    H127794   5.115   5.460   0.383
 9283TIP3    H227795   5.139   5.609   0.396
 9284TIP3   OH227796   5.271   2.869   3.451
 9284TIP3    H127797   5.211   2.943   3.461
 9284TIP3    H227798   5.355   2.909   3.429
 9285TIP3   OH227799   2.151   7.666   2.127
 9285TIP3    H127800   2.136   7.615   2.047
 9285TIP3    H227801   2.067   7.665   2.172
 9286TIP3   OH227802   2.118   6.330   2.979
 9286TIP3    H127803   2.183   6.401   2.978
 9286TIP3    H227804   2.035   6.373   2.959
 9287TIP3   OH227805   6.150   1.220   2.968
 9287TIP3    H127806   6.246   1.216   2.967
 9287TIP3    H227807   6.127   1.220   3.060
 9288TIP3   OH227808   4.420   1.203   4.610
 9288TIP3    H127809   4.364   1.127   4.591
 9288TIP3    H227810   4.508   1.174   4.587
 9289TIP3   OH227811   4.429   5.905   3.326
 9289TIP3    H127812   4.354   5.959   3.302
 9289TIP3    H227813   4.437   5.842   3.255
 9290TIP3   OH227814   5.645   3.739   2.615
 9290TIP3    H127815   5.561   3.695   2.627
 9290TIP3    H227816   5.646   3.807   2.683
 9291TIP3   OH227817   2.857   4.061   1.956
 9291TIP3    H127818   2.866   4.150   1.992
 9291TIP3    H227819   2.839   4.075   1.863
 9292TIP3   OH227820   2.683   1.787   1.470
 9292TIP3    H127821   2.621   1.822   1.534
 9292TIP3    H227822   2.686   1.693   1.488
 9293TIP3   OH227823   4.494   3.345   3.246
 9293TIP3    H127824   4.425   3.295   3.203
 9293TIP3    H227825   4.453   3.427   3.271
 9294TIP3   OH227826   3.623   6.660   3.522
 9294TIP3    H127827   3.715   6.650   3.546
 9294TIP3    H227828   3.590   6.726   3.583
 9295TIP3   OH227829   3.491   6.624   5.459
 9295TIP3    H127830   3.430   6.637   5.387
 9295TIP3    H227831   3.568   6.677   5.435
 9296TIP3   OH227832   2.627   4.061   4.761
 9296TIP3    H127833   2.650   4.116   4.687
 9296TIP3    H227834   2.591   4.121   4.826
 9297TIP3   OH227835   7.226   2.340   3.764
 9297TIP3    H127836   7.188   2.400   3.827
 9297TIP3    H227837   7.171   2.261   3.769
 9298TIP3   OH227838   4.000   5.316   2.394
 9298TIP3    H127839   3.916   5.333   2.351
 9298TIP3    H227840   3.980   5.247   2.457
 9299TIP3   OH227841   8.278   4.210   5.735
 9299TIP3    H127842   8.186   4.231   5.753
 9299TIP3    H227843   8.296   4.252   5.651
 9300TIP3   OH227844   1.110   2.804   2.541
 9300TIP3    H127845   1.128   2.887   2.498
 9300TIP3    H227846   1.025   2.777   2.506
 9301TIP3   OH227847   3.254   0.039   5.883
 9301TIP3    H127848   3.242   0.003   5.795
 9301TIP3    H227849   3.278   0.130   5.868
 9302TIP3   OH227850   6.553   1.012   6.652
 9302TIP3    H127851   6.604   1.047   6.725
 9302TIP3    H227852   6.480   0.965   6.693
 9303TIP3   OH227853   7.812   6.709   4.298
 9303TIP3    H127854   7.720   6.731   4.281
 9303TIP3    H227855   7.853   6.708   4.212
 9304TIP3   OH227856   3.569   5.242   3.926
 9304TIP3    H127857   3.654   5.285   3.928
 9304TIP3    H227858   3.588   5.153   3.894
 9305TIP3   OH227859   0.357   7.493   5.037
 9305TIP3    H127860   0.308   7.492   4.955
 9305TIP3    H227861   0.311   7.557   5.092
 9306TIP3   OH227862   1.867   0.046   6.140
 9306TIP3    H127863   1.923   0.039   6.063
 9306TIP3    H227864   1.797  -0.017   6.125
 9307TIP3   OH227865   5.778   6.770   1.940
 9307TIP3    H127866   5.691   6.741   1.913
 9307TIP3    H227867   5.826   6.688   1.958
 9308TIP3   OH227868   3.961   6.971   6.472
 9308TIP3    H127869   4.045   6.934   6.499
 9308TIP3    H227870   3.950   6.941   6.381
 9309TIP3   OH227871   7.470   6.854   3.950
 9309TIP3    H127872   7.418   6.782   3.983
 9309TIP3    H227873   7.507   6.821   3.868
 9310TIP3   OH227874   2.165   3.104   0.759
 9310TIP3    H127875   2.134   3.069   0.676
 9310TIP3    H227876   2.152   3.198   0.752
 9311TIP3   OH227877   0.730   1.754   1.461
 9311TIP3    H127878   0.640   1.721   1.464
 9311TIP3    H227879   0.774   1.699   1.395
 9312TIP3   OH227880   5.408   7.233   5.594
 9312TIP3    H127881   5.335   7.253   5.653
 9312TIP3    H227882   5.485   7.266   5.640
 9313TIP3   OH227883   6.742   4.642   4.203
 9313TIP3    H127884   6.648   4.662   4.193
 9313TIP3    H227885   6.764   4.593   4.124
 9314TIP3   OH227886   0.627   6.876   3.627
 9314TIP3    H127887   0.639   6.963   3.663
 9314TIP3    H227888   0.699   6.865   3.564
 9315TIP3   OH227889   5.536   7.573   1.755
 9315TIP3    H127890   5.533   7.640   1.823
 9315TIP3    H227891   5.625   7.578   1.720
 9316TIP3   OH227892   0.792   6.083   4.654
 9316TIP3    H127893   0.785   6.037   4.570
 9316TIP3    H227894   0.884   6.073   4.678
 9317TIP3   OH227895   0.197   1.991   0.108
 9317TIP3    H127896   0.276   2.026   0.149
 9317TIP3    H227897   0.126   2.019   0.166
 9318TIP3   OH227898   2.217   4.317   0.749
 9318TIP3    H127899   2.184   4.326   0.839
 9318TIP3    H227900   2.249   4.227   0.745
 9319TIP3   OH227901   6.876   4.799   4.363
 9319TIP3    H127902   6.953   4.743   4.361
 9319TIP3    H227903   6.812   4.754   4.308
 9320TIP3   OH227904   0.040   0.136   2.117
 9320TIP3    H127905   0.129   0.118   2.148
 9320TIP3    H227906  -0.013   0.140   2.196
 9321TIP3   OH227907   2.840   7.257   5.194
 9321TIP3    H127908   2.772   7.218   5.138
 9321TIP3    H227909   2.857   7.343   5.155
 9322TIP3   OH227910   7.328   3.996   3.602
 9322TIP3    H127911   7.247   3.956   3.570
 9322TIP3    H227912   7.393   3.927   3.595
 9323TIP3   OH227913   1.997   7.703   0.598
 9323TIP3    H127914   2.010   7.675   0.688
 9323TIP3    H227915   1.931   7.772   0.603
 9324TIP3   OH227916   1.833   4.970   3.946
 9324TIP3    H127917   1.918   5.004   3.974
 9324TIP3    H227918   1.777   4.976   4.024
 9325TIP3   OH227919   8.232   4.948   0.211
 9325TIP3    H127920   8.279   4.889   0.271
 9325TIP3    H227921   8.300   5.008   0.179
 9326TIP3   OH227922   7.431   4.513   6.356
 9326TIP3    H127923   7.450   4.606   6.361
 9326TIP3    H227924   7.337   4.506   6.370
 9327TIP3   OH227925   0.808   1.060   2.324
 9327TIP3    H127926   0.818   1.008   2.244
 9327TIP3    H227927   0.801   1.150   2.292
 9328TIP3   OH227928   0.780   7.212   4.917
 9328TIP3    H127929   0.686   7.214   4.937
 9328TIP3    H227930   0.821   7.253   4.993
 9329TIP3   OH227931   6.143   5.381   1.303
 9329TIP3    H127932   6.116   5.290   1.292
 9329TIP3    H227933   6.141   5.397   1.397
 9330TIP3   OH227934   8.048   2.029   3.492
 9330TIP3    H127935   8.019   2.113   3.454
 9330TIP3    H227936   7.971   1.996   3.538
 9331TIP3   OH227937   3.790   3.867   4.805
 9331TIP3    H127938   3.778   3.857   4.899
 9331TIP3    H227939   3.734   3.941   4.781
 9332TIP3   OH227940   0.172   5.438   5.282
 9332TIP3    H127941   0.200   5.515   5.231
 9332TIP3    H227942   0.253   5.408   5.324
 9333TIP3   OH227943   0.245   1.477   2.774
 9333TIP3    H127944   0.255   1.397   2.825
 9333TIP3    H227945   0.321   1.531   2.798
 9334TIP3   OH227946   2.805   7.461   1.457
 9334TIP3    H127947   2.748   7.392   1.422
 9334TIP3    H227948   2.813   7.441   1.550
 9335TIP3   OH227949   0.695   5.129   1.929
 9335TIP3    H127950   0.765   5.122   1.994
 9335TIP3    H227951   0.633   5.060   1.953
 9336TIP3   OH227952   5.241   7.109   6.273
 9336TIP3    H127953   5.227   7.021   6.239
 9336TIP3    H227954   5.208   7.106   6.362
 9337TIP3   OH227955   7.967   3.795   6.623
 9337TIP3    H127956   8.037   3.798   6.558
 9337TIP3    H227957   7.971   3.706   6.658
 9338TIP3   OH227958   1.955   2.473   2.553
 9338TIP3    H127959   2.046   2.449   2.534
 9338TIP3    H227960   1.940   2.442   2.642
 9339TIP3   OH227961   6.380   0.928   6.324
 9339TIP3    H127962   6.363   1.011   6.368
 9339TIP3    H227963   6.475   0.928   6.308
 9340TIP3   OH227964   8.043   1.565   3.429
 9340TIP3    H127965   7.963   1.523   3.458
 9340TIP3    H227966   8.020   1.608   3.347
 9341TIP3   OH227967   5.860   6.306   2.934
 9341TIP3    H127968   5.899   6.234   2.884
 9341TIP3    H227969   5.824   6.364   2.867
 9342TIP3   OH227970   3.213   2.968   5.512
 9342TIP3    H127971   3.279   2.980   5.580
 9342TIP3    H227972   3.173   3.054   5.501
 9343TIP3   OH227973   2.984   0.737   5.926
 9343TIP3    H127974   2.993   0.669   5.859
 9343TIP3    H227975   3.070   0.742   5.968
 9344TIP3   OH227976   7.661   1.099   6.026
 9344TIP3    H127977   7.606   1.095   6.104
 9344TIP3    H227978   7.605   1.066   5.956
 9345TIP3   OH227979   4.687   4.548   2.189
 9345TIP3    H127980   4.640   4.516   2.266
 9345TIP3    H227981   4.686   4.474   2.129
 9346TIP3   OH227982   2.576   7.738   0.338
 9346TIP3    H127983   2.538   7.804   0.280
 9346TIP3    H227984   2.652   7.781   0.377
 9347TIP3   OH227985   8.012   6.091   4.035
 9347TIP3    H127986   7.965   6.020   4.078
 9347TIP3    H227987   7.979   6.170   4.077
 9348TIP3   OH227988   5.673   5.460   6.027
 9348TIP3    H127989   5.609   5.428   5.963
 9348TIP3    H227990   5.622   5.470   6.108
 9349TIP3   OH227991   4.613   4.372   1.775
 9349TIP3    H127992   4.553   4.401   1.843
 9349TIP3    H227993   4.563   4.307   1.725
 9350TIP3   OH227994   6.869   0.372   4.655
 9350TIP3    H127995   6.943   0.321   4.623
 9350TIP3    H227996   6.846   0.430   4.582
 9351TIP3   OH227997   6.402   6.289   4.962
 9351TIP3    H127998   6.415   6.378   4.930
 9351TIP3    H227999   6.385   6.299   5.055
 9352TIP3   OH228000   6.275   0.965   4.148
 9352TIP3    H128001   6.201   0.950   4.207
 9352TIP3    H228002   6.351   0.933   4.196
 9353TIP3   OH228003   7.022   5.141   6.295
 9353TIP3    H128004   7.046   5.227   6.262
 9353TIP3    H228005   7.070   5.132   6.377
 9354TIP3   OH228006   6.071   6.031   3.066
 9354TIP3    H128007   6.152   6.018   3.115
 9354TIP3    H228008   6.026   6.102   3.113
 9355TIP3   OH228009   0.523   2.000   1.025
 9355TIP3    H128010   0.474   1.966   1.100
 9355TIP3    H228011   0.476   1.965   0.949
 9356TIP3   OH228012   2.556   2.064   4.505
 9356TIP3    H128013   2.519   1.998   4.446
 9356TIP3    H228014   2.556   2.021   4.591
 9357TIP3   OH228015   3.663   0.192   5.846
 9357TIP3    H128016   3.640   0.162   5.758
 9357TIP3    H228017   3.742   0.243   5.835
 9358TIP3   OH228018   4.119   5.326   3.887
 9358TIP3    H128019   4.176   5.298   3.959
 9358TIP3    H228020   4.122   5.253   3.825
 9359TIP3   OH228021   1.539   4.012   2.409
 9359TIP3    H128022   1.554   3.931   2.359
 9359TIP3    H228023   1.614   4.016   2.469
 9360TIP3   OH228024   6.017   7.232   0.583
 9360TIP3    H128025   5.994   7.253   0.492
 9360TIP3    H228026   6.069   7.152   0.576
 9361TIP3   OH228027   4.611   6.741   2.659
 9361TIP3    H128028   4.544   6.798   2.697
 9361TIP3    H228029   4.661   6.799   2.602
 9362TIP3   OH228030   3.361   1.632   2.243
 9362TIP3    H128031   3.334   1.707   2.190
 9362TIP3    H228032   3.386   1.564   2.179
 9363TIP3   OH228033   0.543   4.398   1.892
 9363TIP3    H128034   0.622   4.451   1.882
 9363TIP3    H228035   0.477   4.442   1.838
 9364TIP3   OH228036   7.980   2.220   4.482
 9364TIP3    H128037   8.075   2.210   4.492
 9364TIP3    H228038   7.942   2.147   4.530
 9365TIP3   OH228039   1.578   4.339   1.488
 9365TIP3    H128040   1.524   4.409   1.452
 9365TIP3    H228041   1.627   4.305   1.413
 9366TIP3   OH228042   2.453   5.410   1.963
 9366TIP3    H128043   2.359   5.399   1.975
 9366TIP3    H228044   2.463   5.498   1.927
 9367TIP3   OH228045   4.307   2.766   6.746
 9367TIP3    H128046   4.318   2.678   6.781
 9367TIP3    H228047   4.218   2.767   6.711
 9368TIP3   OH228048   4.270   6.402   1.550
 9368TIP3    H128049   4.324   6.346   1.493
 9368TIP3    H228050   4.190   6.351   1.564
 9369TIP3   OH228051   4.616   4.000   5.623
 9369TIP3    H128052   4.682   4.044   5.677
 9369TIP3    H228053   4.648   3.911   5.614
 9370TIP3   OH228054   5.328   3.833   3.106
 9370TIP3    H128055   5.334   3.883   3.024
 9370TIP3    H228056   5.267   3.762   3.087
 9371TIP3   OH228057   7.547   5.978   2.321
 9371TIP3    H128058   7.491   5.983   2.243
 9371TIP3    H228059   7.546   6.067   2.357
 9372TIP3   OH228060   7.447   3.358   1.257
 9372TIP3    H128061   7.443   3.280   1.313
 9372TIP3    H228062   7.474   3.324   1.172
 9373TIP3   OH228063   4.301   1.898   4.322
 9373TIP3    H128064   4.314   1.912   4.228
 9373TIP3    H228065   4.354   1.821   4.342
 9374TIP3   OH228066   3.194   2.170   1.184
 9374TIP3    H128067   3.192   2.127   1.099
 9374TIP3    H228068   3.271   2.226   1.182
 9375TIP3   OH228069   4.912   5.769   6.125
 9375TIP3    H128070   4.902   5.723   6.208
 9375TIP3    H228071   4.824   5.772   6.088
 9376TIP3   OH228072   6.701   2.319   4.931
 9376TIP3    H128073   6.608   2.341   4.941
 9376TIP3    H228074   6.747   2.394   4.969
 9377TIP3   OH228075   7.928   0.531   2.978
 9377TIP3    H128076   7.909   0.493   3.064
 9377TIP3    H228077   8.014   0.497   2.956
 9378TIP3   OH228078   0.018   2.711   0.530
 9378TIP3    H128079  -0.061   2.658   0.516
 9378TIP3    H228080   0.015   2.733   0.623
 9379TIP3   OH228081   7.599   1.471   3.125
 9379TIP3    H128082   7.670   1.418   3.163
 9379TIP3    H228083   7.519   1.422   3.146
 9380TIP3   OH228084   7.590   5.531   2.345
 9380TIP3    H128085   7.589   5.622   2.313
 9380TIP3    H228086   7.610   5.479   2.268
 9381TIP3   OH228087   7.540   1.932   2.879
 9381TIP3    H128088   7.574   2.017   2.852
 9381TIP3    H228089   7.609   1.870   2.856
 9382TIP3   OH228090   5.645   0.659   0.277
 9382TIP3    H128091   5.695   0.637   0.199
 9382TIP3    H228092   5.653   0.582   0.333
 9383TIP3   OH228093   6.726   0.273   3.271
 9383TIP3    H128094   6.647   0.257   3.219
 9383TIP3    H228095   6.703   0.346   3.328
 9384TIP3   OH228096   6.518   6.972   3.003
 9384TIP3    H128097   6.529   7.067   2.997
 9384TIP3    H228098   6.571   6.947   3.079
 9385TIP3   OH228099   3.948   5.506   3.779
 9385TIP3    H128100   3.869   5.489   3.830
 9385TIP3    H228101   4.009   5.438   3.806
 9386TIP3   OH228102   4.126   4.694   3.751
 9386TIP3    H128103   4.184   4.652   3.689
 9386TIP3    H228104   4.171   4.686   3.835
 9387TIP3   OH228105   7.218   2.133   2.251
 9387TIP3    H128106   7.217   2.218   2.295
 9387TIP3    H228107   7.235   2.154   2.159
 9388TIP3   OH228108   5.421   1.796   5.630
 9388TIP3    H128109   5.420   1.804   5.535
 9388TIP3    H228110   5.329   1.795   5.655
 9389TIP3   OH228111   4.209   0.901   5.070
 9389TIP3    H128112   4.129   0.854   5.045
 9389TIP3    H228113   4.271   0.832   5.094
 9390TIP3   OH228114   5.852   0.253   5.673
 9390TIP3    H128115   5.810   0.320   5.620
 9390TIP3    H228116   5.928   0.226   5.622
 9391TIP3   OH228117   0.458   2.551   2.427
 9391TIP3    H128118   0.473   2.616   2.359
 9391TIP3    H228119   0.430   2.473   2.380
 9392TIP3   OH228120   0.156   3.582   4.207
 9392TIP3    H128121   0.168   3.562   4.300
 9392TIP3    H228122   0.063   3.602   4.198
 9393TIP3   OH228123   7.410   0.332   2.396
 9393TIP3    H128124   7.500   0.306   2.415
 9393TIP3    H228125   7.358   0.294   2.468
 9394TIP3   OH228126   3.836   3.335   1.916
 9394TIP3    H128127   3.879   3.420   1.909
 9394TIP3    H228128   3.878   3.293   1.992
 9395TIP3   OH228129   2.056   5.256   1.331
 9395TIP3    H128130   2.046   5.164   1.355
 9395TIP3    H228131   2.117   5.256   1.257
 9396TIP3   OH228132   4.928   1.087   4.837
 9396TIP3    H128133   4.890   1.125   4.916
 9396TIP3    H228134   4.928   0.993   4.852
 9397TIP3   OH228135   5.997   0.531   3.283
 9397TIP3    H128136   5.939   0.546   3.209
 9397TIP3    H228137   6.080   0.502   3.243
 9398TIP3   OH228138   7.188   4.329   0.962
 9398TIP3    H128139   7.232   4.331   0.876
 9398TIP3    H228140   7.257   4.351   1.024
 9399TIP3   OH228141   1.950   3.792   1.058
 9399TIP3    H128142   2.031   3.842   1.049
 9399TIP3    H228143   1.885   3.844   1.010
 9400TIP3   OH228144   0.814   0.210   2.345
 9400TIP3    H128145   0.803   0.120   2.313
 9400TIP3    H228146   0.841   0.199   2.436
 9401TIP3   OH228147   4.741   5.285   5.951
 9401TIP3    H128148   4.821   5.280   5.898
 9401TIP3    H228149   4.772   5.303   6.040
 9402TIP3   OH228150   6.826   6.593   4.058
 9402TIP3    H128151   6.807   6.587   4.151
 9402TIP3    H228152   6.922   6.591   4.053
 9403TIP3   OH228153   0.145   4.343   1.445
 9403TIP3    H128154   0.092   4.302   1.514
 9403TIP3    H228155   0.084   4.356   1.372
 9404TIP3   OH228156   0.909   6.132   3.829
 9404TIP3    H128157   0.915   6.065   3.761
 9404TIP3    H228158   0.984   6.114   3.886
 9405TIP3   OH228159   2.271   5.135   3.809
 9405TIP3    H128160   2.355   5.177   3.794
 9405TIP3    H228161   2.252   5.089   3.726
 9406TIP3   OH228162   3.209   4.697   3.257
 9406TIP3    H128163   3.289   4.725   3.301
 9406TIP3    H228164   3.140   4.712   3.322
 9407TIP3   OH228165   3.144   3.613   2.939
 9407TIP3    H128166   3.073   3.591   3.000
 9407TIP3    H228167   3.224   3.586   2.984
 9408TIP3   OH228168   0.789   7.437   0.852
 9408TIP3    H128169   0.841   7.508   0.889
 9408TIP3    H228170   0.853   7.379   0.811
 9409TIP3   OH228171   0.195   2.197   3.658
 9409TIP3    H128172   0.248   2.157   3.727
 9409TIP3    H228173   0.124   2.134   3.643
 9410TIP3   OH228174   1.307   1.264   4.955
 9410TIP3    H128175   1.365   1.188   4.956
 9410TIP3    H228176   1.351   1.328   5.010
 9411TIP3   OH228177   4.044   3.738   6.771
 9411TIP3    H128178   4.015   3.829   6.765
 9411TIP3    H228179   4.135   3.744   6.802
 9412TIP3   OH228180   0.662   2.237   0.676
 9412TIP3    H128181   0.568   2.222   0.677
 9412TIP3    H228182   0.693   2.194   0.596
 9413TIP3   OH228183   0.561   0.426   4.943
 9413TIP3    H128184   0.628   0.361   4.962
 9413TIP3    H228185   0.533   0.457   5.029
 9414TIP3   OH228186   1.827   6.871   2.111
 9414TIP3    H128187   1.869   6.787   2.091
 9414TIP3    H228188   1.778   6.855   2.192
 9415TIP3   OH228189   3.716   6.714   2.796
 9415TIP3    H128190   3.754   6.763   2.723
 9415TIP3    H228191   3.650   6.772   2.833
 9416TIP3   OH228192   1.485   4.178   1.746
 9416TIP3    H128193   1.546   4.252   1.746
 9416TIP3    H228194   1.514   4.123   1.819
 9417TIP3   OH228195   8.007   1.730   6.502
 9417TIP3    H128196   8.036   1.808   6.456
 9417TIP3    H228197   8.087   1.679   6.516
 9418TIP3   OH228198   7.593   4.794   1.064
 9418TIP3    H128199   7.653   4.734   1.020
 9418TIP3    H228200   7.587   4.760   1.153
 9419TIP3   OH228201   4.800   5.716   0.288
 9419TIP3    H128202   4.868   5.711   0.355
 9419TIP3    H228203   4.726   5.757   0.332
 9420TIP3   OH228204   1.508   0.402   5.238
 9420TIP3    H128205   1.518   0.349   5.158
 9420TIP3    H228206   1.450   0.350   5.294
 9421TIP3   OH228207   7.375   7.445   3.057
 9421TIP3    H128208   7.399   7.353   3.065
 9421TIP3    H228209   7.450   7.493   3.093
 9422TIP3   OH228210   0.926   6.806   0.201
 9422TIP3    H128211   0.991   6.825   0.133
 9422TIP3    H228212   0.887   6.891   0.220
 9423TIP3   OH228213   6.286   5.728   2.282
 9423TIP3    H128214   6.317   5.769   2.201
 9423TIP3    H228215   6.326   5.641   2.281
 9424TIP3   OH228216   2.943   1.559   0.253
 9424TIP3    H128217   3.006   1.530   0.187
 9424TIP3    H228218   2.860   1.562   0.206
 9425TIP3   OH228219   0.543   1.120   6.236
 9425TIP3    H128220   0.526   1.041   6.185
 9425TIP3    H228221   0.503   1.191   6.185
 9426TIP3   OH228222   2.523   2.041   2.454
 9426TIP3    H128223   2.609   1.999   2.450
 9426TIP3    H228224   2.518   2.075   2.543
 9427TIP3   OH228225   4.961   4.502   3.807
 9427TIP3    H128226   5.000   4.512   3.720
 9427TIP3    H228227   4.878   4.550   3.802
 9428TIP3   OH228228   1.198   1.488   5.258
 9428TIP3    H128229   1.151   1.413   5.296
 9428TIP3    H228230   1.138   1.562   5.270
 9429TIP3   OH228231   5.933   7.236   4.019
 9429TIP3    H128232   5.964   7.284   4.097
 9429TIP3    H228233   5.928   7.145   4.048
 9430TIP3   OH228234   5.312   2.489   1.558
 9430TIP3    H128235   5.362   2.484   1.640
 9430TIP3    H228236   5.373   2.459   1.491
 9431TIP3   OH228237   2.003   3.430   3.655
 9431TIP3    H128238   1.946   3.427   3.732
 9431TIP3    H228239   1.947   3.467   3.586
 9432TIP3   OH228240   0.408   3.372   3.739
 9432TIP3    H128241   0.501   3.379   3.758
 9432TIP3    H228242   0.365   3.418   3.811
 9433TIP3   OH228243   5.477   3.709   5.903
 9433TIP3    H128244   5.561   3.667   5.883
 9433TIP3    H228245   5.471   3.707   5.999
 9434TIP3   OH228246   1.224   7.048   5.812
 9434TIP3    H128247   1.234   7.106   5.737
 9434TIP3    H228248   1.133   7.019   5.809
 9435TIP3   OH228249   2.773   6.780   2.400
 9435TIP3    H128250   2.844   6.776   2.464
 9435TIP3    H228251   2.812   6.821   2.323
 9436TIP3   OH228252   3.983   7.544   0.372
 9436TIP3    H128253   3.963   7.624   0.421
 9436TIP3    H228254   3.931   7.476   0.416
 9437TIP3   OH228255   4.326   1.599   5.127
 9437TIP3    H128256   4.246   1.554   5.153
 9437TIP3    H228257   4.332   1.674   5.186
 9438TIP3   OH228258   3.168   5.530   4.807
 9438TIP3    H128259   3.203   5.474   4.876
 9438TIP3    H228260   3.092   5.572   4.847
 9439TIP3   OH228261   6.258   2.310   4.385
 9439TIP3    H128262   6.279   2.218   4.395
 9439TIP3    H228263   6.223   2.336   4.471
 9440TIP3   OH228264   0.354   5.247   3.807
 9440TIP3    H128265   0.388   5.165   3.843
 9440TIP3    H228266   0.428   5.285   3.760
 9441TIP3   OH228267   6.755   0.738   0.742
 9441TIP3    H128268   6.807   0.696   0.673
 9441TIP3    H228269   6.781   0.830   0.739
 9442TIP3   OH228270   5.094   7.595   1.342
 9442TIP3    H128271   5.136   7.520   1.384
 9442TIP3    H228272   5.052   7.643   1.413
 9443TIP3   OH228273   7.019   6.499   3.247
 9443TIP3    H128274   7.013   6.448   3.166
 9443TIP3    H228275   7.017   6.591   3.217
 9444TIP3   OH228276   5.794   1.703   1.417
 9444TIP3    H128277   5.865   1.763   1.439
 9444TIP3    H228278   5.719   1.759   1.399
 9445TIP3   OH228279   8.068   6.654   2.190
 9445TIP3    H128280   8.069   6.580   2.250
 9445TIP3    H228281   7.976   6.674   2.178
 9446TIP3   OH228282   3.714   6.166   2.460
 9446TIP3    H128283   3.771   6.103   2.415
 9446TIP3    H228284   3.721   6.246   2.408
 9447TIP3   OH228285   1.549   4.202   3.796
 9447TIP3    H128286   1.475   4.260   3.814
 9447TIP3    H228287   1.605   4.253   3.738
 9448TIP3   OH228288   5.456   5.745   1.324
 9448TIP3    H128289   5.461   5.731   1.419
 9448TIP3    H228290   5.534   5.702   1.289
 9449TIP3   OH228291   6.720   7.035   0.307
 9449TIP3    H128292   6.738   6.941   0.310
 9449TIP3    H228293   6.677   7.049   0.223
 9450TIP3   OH228294   3.330   3.110   2.244
 9450TIP3    H128295   3.403   3.121   2.183
 9450TIP3    H228296   3.344   3.025   2.285
 9451TIP3   OH228297   5.237   3.332   6.519
 9451TIP3    H128298   5.228   3.399   6.586
 9451TIP3    H228299   5.214   3.376   6.437
 9452TIP3   OH228300   6.710   1.191   0.626
 9452TIP3    H128301   6.638   1.135   0.595
 9452TIP3    H228302   6.777   1.129   0.654
 9453TIP3   OH228303   7.466   6.994   4.420
 9453TIP3    H128304   7.450   6.961   4.509
 9453TIP3    H228305   7.473   7.089   4.431
 9454TIP3   OH228306   3.697   4.458   3.235
 9454TIP3    H128307   3.674   4.547   3.209
 9454TIP3    H228308   3.778   4.467   3.284
 9455TIP3   OH228309   4.300   6.638   1.454
 9455TIP3    H128310   4.232   6.701   1.475
 9455TIP3    H228311   4.281   6.562   1.509
 9456TIP3   OH228312   5.029   4.810   0.803
 9456TIP3    H128313   5.077   4.737   0.763
 9456TIP3    H228314   4.948   4.816   0.751
 9457TIP3   OH228315   6.504   7.185   5.476
 9457TIP3    H128316   6.555   7.119   5.523
 9457TIP3    H228317   6.438   7.135   5.429
 9458TIP3   OH228318   0.121   6.368   2.731
 9458TIP3    H128319   0.085   6.286   2.765
 9458TIP3    H228320   0.094   6.434   2.795
 9459TIP3   OH228321   0.395   1.612   3.918
 9459TIP3    H128322   0.480   1.571   3.903
 9459TIP3    H228323   0.375   1.658   3.837
 9460TIP3   OH228324   7.038   0.810   3.576
 9460TIP3    H128325   7.041   0.862   3.496
 9460TIP3    H228326   7.127   0.778   3.587
 9461TIP3   OH228327   7.708   1.942   3.123
 9461TIP3    H128328   7.668   2.026   3.144
 9461TIP3    H228329   7.671   1.918   3.038
 9462TIP3   OH228330   1.376   0.463   0.372
 9462TIP3    H128331   1.404   0.428   0.456
 9462TIP3    H228332   1.457   0.482   0.325
 9463TIP3   OH228333   6.310   1.317   5.665
 9463TIP3    H128334   6.383   1.350   5.612
 9463TIP3    H228335   6.352   1.281   5.744
 9464TIP3   OH228336   6.573   5.620   0.894
 9464TIP3    H128337   6.622   5.572   0.827
 9464TIP3    H228338   6.596   5.712   0.878
 9465TIP3   OH228339   2.943   5.495   3.417
 9465TIP3    H128340   2.965   5.541   3.499
 9465TIP3    H228341   3.022   5.501   3.364
 9466TIP3   OH228342   2.530   2.182   0.534
 9466TIP3    H128343   2.573   2.107   0.576
 9466TIP3    H228344   2.601   2.241   0.513
 9467TIP3   OH228345   5.894   6.211   1.397
 9467TIP3    H128346   5.977   6.187   1.438
 9467TIP3    H228347   5.856   6.128   1.369
 9468TIP3   OH228348   1.762   6.469   3.702
 9468TIP3    H128349   1.775   6.561   3.725
 9468TIP3    H228350   1.710   6.472   3.622
 9469TIP3   OH228351   7.013   5.820   4.515
 9469TIP3    H128352   6.948   5.750   4.529
 9469TIP3    H228353   6.963   5.890   4.473
 9470TIP3   OH228354   6.649   5.467   4.318
 9470TIP3    H128355   6.734   5.425   4.335
 9470TIP3    H228356   6.585   5.407   4.357
 9471TIP3   OH228357   7.030   7.130   0.917
 9471TIP3    H128358   6.993   7.070   0.852
 9471TIP3    H228359   6.971   7.205   0.918
 9472TIP3   OH228360   4.145   4.873   3.502
 9472TIP3    H128361   4.233   4.890   3.534
 9472TIP3    H228362   4.088   4.891   3.576
 9473TIP3   OH228363   4.536   5.991   1.082
 9473TIP3    H128364   4.509   6.082   1.099
 9473TIP3    H228365   4.548   5.987   0.987
 9474TIP3   OH228366   5.586   0.345   3.362
 9474TIP3    H128367   5.671   0.301   3.366
 9474TIP3    H228368   5.557   0.335   3.272
 9475TIP3   OH228369   6.462   2.391   0.560
 9475TIP3    H128370   6.461   2.472   0.509
 9475TIP3    H228371   6.379   2.391   0.606
 9476TIP3   OH228372   1.879   1.699   6.246
 9476TIP3    H128373   1.829   1.686   6.327
 9476TIP3    H228374   1.820   1.670   6.177
 9477TIP3   OH228375   6.416   7.789   6.114
 9477TIP3    H128376   6.414   7.868   6.060
 9477TIP3    H228377   6.448   7.819   6.199
 9478TIP3   OH228378   7.873   1.842   5.459
 9478TIP3    H128379   7.864   1.749   5.435
 9478TIP3    H228380   7.783   1.875   5.457
 9479TIP3   OH228381   0.291   0.150   4.602
 9479TIP3    H128382   0.238   0.204   4.543
 9479TIP3    H228383   0.262   0.175   4.690
 9480TIP3   OH228384   3.532   5.227   2.970
 9480TIP3    H128385   3.468   5.290   3.002
 9480TIP3    H228386   3.609   5.280   2.947
 9481TIP3   OH228387   3.841   4.027   3.617
 9481TIP3    H128388   3.915   3.969   3.635
 9481TIP3    H228389   3.868   4.078   3.540
 9482TIP3   OH228390   2.792   0.572   3.747
 9482TIP3    H128391   2.864   0.542   3.802
 9482TIP3    H228392   2.741   0.629   3.804
 9483TIP3   OH228393   3.248   0.368   3.635
 9483TIP3    H128394   3.261   0.337   3.545
 9483TIP3    H228395   3.274   0.460   3.633
 9484TIP3   OH228396   2.433   0.564   1.013
 9484TIP3    H128397   2.474   0.481   1.038
 9484TIP3    H228398   2.339   0.549   1.028
 9485TIP3   OH228399   2.200   3.651   5.838
 9485TIP3    H128400   2.259   3.687   5.905
 9485TIP3    H228401   2.226   3.559   5.830
 9486TIP3   OH228402   5.634   7.312   6.540
 9486TIP3    H128403   5.602   7.342   6.455
 9486TIP3    H228404   5.568   7.340   6.602
 9487TIP3   OH228405   4.466   5.541   6.122
 9487TIP3    H128406   4.383   5.588   6.112
 9487TIP3    H228407   4.442   5.458   6.162
 9488TIP3   OH228408   5.100   0.044   0.078
 9488TIP3    H128409   5.133   0.006  -0.003
 9488TIP3    H228410   5.052  -0.027   0.121
 9489TIP3   OH228411   4.177   1.704   3.606
 9489TIP3    H128412   4.104   1.766   3.603
 9489TIP3    H228413   4.156   1.646   3.680
 9490TIP3   OH228414   3.923   0.153   4.127
 9490TIP3    H128415   3.907   0.202   4.046
 9490TIP3    H228416   3.836   0.143   4.166
 9491TIP3   OH228417   7.873   2.602   0.776
 9491TIP3    H128418   7.918   2.542   0.836
 9491TIP3    H228419   7.913   2.687   0.793
 9492TIP3   OH228420   2.090   1.440   4.378
 9492TIP3    H128421   2.119   1.477   4.295
 9492TIP3    H228422   2.171   1.406   4.418
 9493TIP3   OH228423   7.197   1.207   1.268
 9493TIP3    H128424   7.180   1.217   1.175
 9493TIP3    H228425   7.291   1.190   1.274
 9494TIP3   OH228426   2.001   0.877   6.478
 9494TIP3    H128427   2.075   0.918   6.433
 9494TIP3    H228428   2.011   0.783   6.460
 9495TIP3   OH228429   3.399   6.916   2.029
 9495TIP3    H128430   3.399   6.907   1.934
 9495TIP3    H228431   3.351   6.839   2.060
 9496TIP3   OH228432   7.191   2.315   5.633
 9496TIP3    H128433   7.167   2.354   5.717
 9496TIP3    H228434   7.218   2.389   5.578
 9497TIP3   OH228435   4.522   7.176   6.479
 9497TIP3    H128436   4.593   7.227   6.438
 9497TIP3    H228437   4.567   7.104   6.522
 9498TIP3   OH228438   0.019   2.509   6.269
 9498TIP3    H128439  -0.059   2.555   6.237
 9498TIP3    H228440   0.038   2.444   6.201
 9499TIP3   OH228441   1.612   1.412   6.036
 9499TIP3    H128442   1.648   1.341   5.983
 9499TIP3    H228443   1.663   1.409   6.117
 9500TIP3   OH228444   0.511   0.421   6.709
 9500TIP3    H128445   0.575   0.435   6.779
 9500TIP3    H228446   0.477   0.508   6.689
 9501TIP3   OH228447   0.938   0.265   4.518
 9501TIP3    H128448   0.927   0.238   4.427
 9501TIP3    H228449   1.022   0.311   4.520
 9502TIP3   OH228450   4.791   4.201   6.583
 9502TIP3    H128451   4.784   4.151   6.664
 9502TIP3    H228452   4.709   4.187   6.537
 9503TIP3   OH228453   4.514   5.205   5.811
 9503TIP3    H128454   4.600   5.200   5.854
 9503TIP3    H228455   4.477   5.117   5.821
 9504TIP3   OH228456   2.193   3.152   5.922
 9504TIP3    H128457   2.285   3.150   5.895
 9504TIP3    H228458   2.165   3.061   5.916
 9505TIP3   OH228459   6.473   7.723   2.307
 9505TIP3    H128460   6.469   7.717   2.402
 9505TIP3    H228461   6.489   7.633   2.277
 9506TIP3   OH228462   5.012   1.077   3.716
 9506TIP3    H128463   5.077   1.016   3.681
 9506TIP3    H228464   4.995   1.045   3.804
 9507TIP3   OH228465   7.123   4.261   6.273
 9507TIP3    H128466   7.139   4.352   6.298
 9507TIP3    H228467   7.075   4.266   6.191
 9508TIP3   OH228468   4.856   1.086   1.277
 9508TIP3    H128469   4.873   1.116   1.366
 9508TIP3    H228470   4.861   0.990   1.282
 9509TIP3   OH228471   3.640   2.542   5.138
 9509TIP3    H128472   3.597   2.502   5.062
 9509TIP3    H228473   3.568   2.561   5.198
 9510TIP3   OH228474   4.435   4.538   4.921
 9510TIP3    H128475   4.359   4.481   4.912
 9510TIP3    H228476   4.411   4.618   4.875
 9511TIP3   OH228477   5.006   4.911   2.905
 9511TIP3    H128478   4.975   5.001   2.917
 9511TIP3    H228479   4.927   4.858   2.902
 9512TIP3   OH228480   2.794   2.698   2.525
 9512TIP3    H128481   2.818   2.657   2.608
 9512TIP3    H228482   2.737   2.634   2.482
 9513TIP3   OH228483   7.332   4.680   4.783
 9513TIP3    H128484   7.269   4.737   4.828
 9513TIP3    H228485   7.334   4.712   4.693
 9514TIP3   OH228486   6.300   2.169   6.569
 9514TIP3    H128487   6.289   2.110   6.644
 9514TIP3    H228488   6.388   2.205   6.580
 9515TIP3   OH228489   0.515   1.445   1.726
 9515TIP3    H128490   0.427   1.437   1.764
 9515TIP3    H228491   0.572   1.400   1.788
 9516TIP3   OH228492   7.545   3.738   1.626
 9516TIP3    H128493   7.550   3.645   1.650
 9516TIP3    H228494   7.492   3.739   1.547
 9517TIP3   OH228495   4.145   0.455   6.297
 9517TIP3    H128496   4.105   0.432   6.381
 9517TIP3    H228497   4.231   0.490   6.320
 9518TIP3   OH228498   4.691   6.456   4.940
 9518TIP3    H128499   4.772   6.505   4.928
 9518TIP3    H228500   4.665   6.473   5.030
 9519TIP3   OH228501   3.863   5.626   5.981
 9519TIP3    H128502   3.913   5.560   6.030
 9519TIP3    H228503   3.793   5.577   5.939
 9520TIP3   OH228504   6.758   5.888   6.299
 9520TIP3    H128505   6.695   5.816   6.298
 9520TIP3    H228506   6.826   5.859   6.359
 9521TIP3   OH228507   7.104   3.898   3.470
 9521TIP3    H128508   7.066   3.863   3.389
 9521TIP3    H228509   7.033   3.949   3.510
 9522TIP3   OH228510   4.007   3.383   3.046
 9522TIP3    H128511   4.035   3.294   3.026
 9522TIP3    H228512   3.938   3.373   3.112
 9523TIP3   OH228513   0.186   0.011   1.279
 9523TIP3    H128514   0.207  -0.068   1.231
 9523TIP3    H228515   0.271   0.049   1.302
 9524TIP3   OH228516   2.688   6.207   1.253
 9524TIP3    H128517   2.696   6.218   1.158
 9524TIP3    H228518   2.776   6.226   1.286
 9525TIP3   OH228519   0.576   7.607   3.921
 9525TIP3    H128520   0.606   7.570   4.004
 9525TIP3    H228521   0.525   7.684   3.946
 9526TIP3   OH228522   8.199   5.094   3.705
 9526TIP3    H128523   8.147   5.113   3.626
 9526TIP3    H228524   8.263   5.028   3.676
 9527TIP3   OH228525   6.638   0.397   6.651
 9527TIP3    H128526   6.618   0.462   6.584
 9527TIP3    H228527   6.723   0.426   6.687
 9528TIP3   OH228528   6.098   1.913   3.980
 9528TIP3    H128529   6.086   2.006   3.997
 9528TIP3    H228530   6.010   1.879   3.967
 9529TIP3   OH228531   4.123   0.701   0.341
 9529TIP3    H128532   4.175   0.760   0.395
 9529TIP3    H228533   4.079   0.758   0.278
 9530TIP3   OH228534   1.570   0.091   6.518
 9530TIP3    H128535   1.647   0.148   6.518
 9530TIP3    H228536   1.509   0.133   6.457
 9531TIP3   OH228537   2.358   2.153   0.815
 9531TIP3    H128538   2.328   2.165   0.724
 9531TIP3    H228539   2.297   2.089   0.852
 9532TIP3   OH228540   7.929   1.215   5.310
 9532TIP3    H128541   8.006   1.218   5.253
 9532TIP3    H228542   7.965   1.203   5.398
 9533TIP3   OH228543   7.752   0.864   0.386
 9533TIP3    H128544   7.813   0.798   0.355
 9533TIP3    H228545   7.797   0.948   0.372
 9534TIP3   OH228546   4.555   1.014   2.717
 9534TIP3    H128547   4.489   0.963   2.764
 9534TIP3    H228548   4.506   1.063   2.651
 9535TIP3   OH228549   2.812   1.187   2.397
 9535TIP3    H128550   2.790   1.100   2.362
 9535TIP3    H228551   2.760   1.248   2.345
 9536TIP3   OH228552   4.696   4.945   3.093
 9536TIP3    H128553   4.769   4.944   3.032
 9536TIP3    H228554   4.666   5.035   3.094
 9537TIP3   OH228555   0.504   6.362   2.233
 9537TIP3    H128556   0.519   6.311   2.153
 9537TIP3    H228557   0.591   6.370   2.273
 9538TIP3   OH228558   3.376   0.024   0.366
 9538TIP3    H128559   3.318  -0.050   0.350
 9538TIP3    H228560   3.345   0.062   0.447
 9539TIP3   OH228561   5.740   5.353   0.177
 9539TIP3    H128562   5.772   5.421   0.237
 9539TIP3    H228563   5.707   5.401   0.101
 9540TIP3   OH228564   6.154   2.410   4.047
 9540TIP3    H128565   6.209   2.433   4.122
 9540TIP3    H228566   6.160   2.485   3.988
 9541TIP3   OH228567   2.957   0.103   4.320
 9541TIP3    H128568   3.016   0.125   4.248
 9541TIP3    H228569   3.012   0.057   4.383
 9542TIP3   OH228570   1.143   5.177   4.833
 9542TIP3    H128571   1.223   5.213   4.795
 9542TIP3    H228572   1.129   5.228   4.913
 9543TIP3   OH228573   0.651   6.484   3.304
 9543TIP3    H128574   0.610   6.401   3.326
 9543TIP3    H228575   0.589   6.551   3.334
 9544TIP3   OH228576   4.619   6.469   5.528
 9544TIP3    H128577   4.543   6.505   5.573
 9544TIP3    H228578   4.694   6.508   5.573
 9545TIP3   OH228579   3.202   2.997   0.020
 9545TIP3    H128580   3.186   3.021   0.111
 9545TIP3    H228581   3.123   3.024  -0.027
 9546TIP3   OH228582   6.216   0.538   2.425
 9546TIP3    H128583   6.308   0.557   2.410
 9546TIP3    H228584   6.186   0.495   2.345
 9547TIP3   OH228585   0.603   5.379   3.649
 9547TIP3    H128586   0.675   5.317   3.658
 9547TIP3    H228587   0.613   5.438   3.724
 9548TIP3   OH228588   4.572   6.049   2.461
 9548TIP3    H128589   4.641   5.983   2.468
 9548TIP3    H228590   4.491   6.002   2.479
 9549TIP3   OH228591   5.498   2.567   0.632
 9549TIP3    H128592   5.549   2.642   0.659
 9549TIP3    H228593   5.546   2.530   0.558
 9550TIP3   OH228594   1.692   3.477   0.357
 9550TIP3    H128595   1.681   3.544   0.289
 9550TIP3    H228596   1.622   3.495   0.420
 9551TIP3   OH228597   3.864   0.922   5.688
 9551TIP3    H128598   3.952   0.944   5.660
 9551TIP3    H228599   3.867   0.829   5.710
 9552TIP3   OH228600   8.091   4.272   0.280
 9552TIP3    H128601   8.119   4.248   0.369
 9552TIP3    H228602   8.142   4.216   0.222
 9553TIP3   OH228603   3.985   2.062   5.421
 9553TIP3    H128604   3.899   2.028   5.398
 9553TIP3    H228605   4.029   2.075   5.336
 9554TIP3   OH228606   4.254   6.744   4.562
 9554TIP3    H128607   4.302   6.757   4.480
 9554TIP3    H228608   4.163   6.736   4.535
 9555TIP3   OH228609   1.578   0.913   2.350
 9555TIP3    H128610   1.500   0.868   2.317
 9555TIP3    H228611   1.651   0.867   2.309
 9556TIP3   OH228612   3.117   3.987   5.074
 9556TIP3    H128613   3.145   3.938   5.151
 9556TIP3    H228614   3.098   3.920   5.009
 9557TIP3   OH228615   4.905   4.066   1.093
 9557TIP3    H128616   4.961   4.126   1.142
 9557TIP3    H228617   4.938   3.978   1.116
 9558TIP3   OH228618   6.873   4.787   1.613
 9558TIP3    H128619   6.838   4.744   1.535
 9558TIP3    H228620   6.854   4.880   1.600
 9559TIP3   OH228621   4.494   1.131   5.501
 9559TIP3    H128622   4.577   1.152   5.542
 9559TIP3    H228623   4.428   1.149   5.568
 9560TIP3   OH228624   5.476   6.745   0.453
 9560TIP3    H128625   5.550   6.686   0.471
 9560TIP3    H228626   5.494   6.822   0.506
 9561TIP3   OH228627   1.385   3.055   4.667
 9561TIP3    H128628   1.469   3.048   4.714
 9561TIP3    H228629   1.389   2.987   4.600
 9562TIP3   OH228630   1.031   0.269   3.159
 9562TIP3    H128631   0.985   0.334   3.105
 9562TIP3    H228632   1.121   0.302   3.163
 9563TIP3   OH228633   3.663   4.489   2.218
 9563TIP3    H128634   3.666   4.549   2.144
 9563TIP3    H228635   3.747   4.499   2.261
 9564TIP3   OH228636   8.115   5.264   4.202
 9564TIP3    H128637   8.145   5.261   4.111
 9564TIP3    H228638   8.025   5.297   4.196
 9565TIP3   OH228639   3.165   6.509   1.893
 9565TIP3    H128640   3.247   6.538   1.853
 9565TIP3    H228641   3.131   6.587   1.937
 9566TIP3   OH228642   7.379   2.804   5.908
 9566TIP3    H128643   7.359   2.825   5.817
 9566TIP3    H228644   7.440   2.730   5.903
 9567TIP3   OH228645   5.542   4.294   4.208
 9567TIP3    H128646   5.560   4.232   4.279
 9567TIP3    H228647   5.534   4.240   4.130
 9568TIP3   OH228648   2.827   4.854   2.883
 9568TIP3    H128649   2.745   4.895   2.856
 9568TIP3    H228650   2.855   4.905   2.960
 9569TIP3   OH228651   4.177   1.597   6.043
 9569TIP3    H128652   4.269   1.572   6.045
 9569TIP3    H228653   4.160   1.621   5.952
 9570TIP3   OH228654   6.491   3.805   5.801
 9570TIP3    H128655   6.520   3.732   5.855
 9570TIP3    H228656   6.530   3.883   5.842
 9571TIP3   OH228657   4.728   1.350   4.778
 9571TIP3    H128658   4.638   1.338   4.809
 9571TIP3    H228659   4.761   1.423   4.830
 9572TIP3   OH228660   4.424   2.124   0.125
 9572TIP3    H128661   4.448   2.046   0.175
 9572TIP3    H228662   4.377   2.179   0.187
 9573TIP3   OH228663   2.583   4.792   4.605
 9573TIP3    H128664   2.567   4.699   4.588
 9573TIP3    H228665   2.675   4.806   4.584
 9574TIP3   OH228666   2.466   6.015   5.687
 9574TIP3    H128667   2.421   6.093   5.720
 9574TIP3    H228668   2.496   6.039   5.599
 9575TIP3   OH228669   7.924   0.639   4.805
 9575TIP3    H128670   7.965   0.725   4.805
 9575TIP3    H228671   7.950   0.599   4.888
 9576TIP3   OH228672   2.901   3.725   6.706
 9576TIP3    H128673   2.989   3.734   6.668
 9576TIP3    H228674   2.887   3.806   6.754
 9577TIP3   OH228675   1.215   5.412   1.058
 9577TIP3    H128676   1.198   5.324   1.025
 9577TIP3    H228677   1.140   5.432   1.114
 9578TIP3   OH228678   4.170   2.515   4.786
 9578TIP3    H128679   4.087   2.541   4.825
 9578TIP3    H228680   4.190   2.430   4.826
 9579TIP3   OH228681   5.193   6.143   6.754
 9579TIP3    H128682   5.247   6.173   6.827
 9579TIP3    H228683   5.120   6.205   6.751
 9580TIP3   OH228684   2.993   6.077   1.060
 9580TIP3    H128685   3.014   6.125   1.140
 9580TIP3    H228686   3.078   6.054   1.023
 9581TIP3   OH228687   2.303   1.079   0.303
 9581TIP3    H128688   2.322   1.168   0.272
 9581TIP3    H228689   2.348   1.073   0.387
 9582TIP3   OH228690   6.675   0.657   1.704
 9582TIP3    H128691   6.587   0.632   1.732
 9582TIP3    H228692   6.669   0.664   1.609
 9583TIP3   OH228693   0.584   5.556   0.631
 9583TIP3    H128694   0.613   5.645   0.649
 9583TIP3    H228695   0.652   5.500   0.668
 9584TIP3   OH228696   2.812   6.609   1.807
 9584TIP3    H128697   2.730   6.582   1.765
 9584TIP3    H228698   2.879   6.588   1.742
 9585TIP3   OH228699   6.564   3.630   2.905
 9585TIP3    H128700   6.550   3.568   2.976
 9585TIP3    H228701   6.479   3.673   2.895
 9586TIP3   OH228702   5.687   1.994   0.061
 9586TIP3    H128703   5.707   2.087   0.054
 9586TIP3    H228704   5.635   1.987   0.141
 9587TIP3   OH228705   0.782   2.841   5.807
 9587TIP3    H128706   0.709   2.816   5.751
 9587TIP3    H228707   0.820   2.758   5.836
 9588TIP3   OH228708   2.819   2.658   1.525
 9588TIP3    H128709   2.839   2.680   1.616
 9588TIP3    H228710   2.830   2.563   1.520
 9589TIP3   OH228711   8.142   6.509   2.404
 9589TIP3    H128712   8.101   6.478   2.485
 9589TIP3    H228713   8.210   6.569   2.433
 9590TIP3   OH228714   5.047   6.215   6.392
 9590TIP3    H128715   5.100   6.147   6.433
 9590TIP3    H228716   5.036   6.185   6.302
 9591TIP3   OH228717   8.152   0.747   6.708
 9591TIP3    H128718   8.137   0.828   6.660
 9591TIP3    H228719   8.143   0.772   6.800
 9592TIP3   OH228720   2.442   5.898   4.213
 9592TIP3    H128721   2.394   5.840   4.153
 9592TIP3    H228722   2.450   5.847   4.294
 9593TIP3   OH228723   3.946   3.921   5.892
 9593TIP3    H128724   3.911   3.994   5.842
 9593TIP3    H228725   3.888   3.913   5.967
 9594TIP3   OH228726   1.553   7.730   4.480
 9594TIP3    H128727   1.550   7.635   4.493
 9594TIP3    H228728   1.504   7.766   4.554
 9595TIP3   OH228729   7.771   5.176   6.636
 9595TIP3    H128730   7.740   5.265   6.649
 9595TIP3    H228731   7.824   5.181   6.556
 9596TIP3   OH228732   2.444   3.994   5.247
 9596TIP3    H128733   2.361   3.968   5.287
 9596TIP3    H228734   2.461   3.925   5.182
 9597TIP3   OH228735   6.839   5.110   0.208
 9597TIP3    H128736   6.810   5.038   0.152
 9597TIP3    H228737   6.904   5.157   0.155
 9598TIP3   OH228738   6.475   4.621   6.521
 9598TIP3    H128739   6.505   4.635   6.611
 9598TIP3    H228740   6.517   4.540   6.493
 9599TIP3   OH228741   4.095   1.836   2.966
 9599TIP3    H128742   4.182   1.813   2.998
 9599TIP3    H228743   4.070   1.763   2.909
 9600TIP3   OH228744   4.965   5.572   1.780
 9600TIP3    H128745   5.031   5.642   1.786
 9600TIP3    H228746   4.924   5.571   1.866
 9601TIP3   OH228747   6.561   3.982   0.247
 9601TIP3    H128748   6.528   3.923   0.314
 9601TIP3    H228749   6.501   4.057   0.249
 9602TIP3   OH228750   7.490   0.292   0.543
 9602TIP3    H128751   7.395   0.281   0.543
 9602TIP3    H228752   7.519   0.246   0.622
 9603TIP3   OH228753   8.285   6.592   5.507
 9603TIP3    H128754   8.239   6.533   5.566
 9603TIP3    H228755   8.240   6.581   5.423
 9604TIP3   OH228756   7.083   3.775   0.809
 9604TIP3    H128757   7.006   3.728   0.779
 9604TIP3    H228758   7.074   3.779   0.904
 9605TIP3   OH228759   1.388   6.387   2.452
 9605TIP3    H128760   1.329   6.462   2.443
 9605TIP3    H228761   1.331   6.311   2.440
 9606TIP3   OH228762   2.183   1.841   6.096
 9606TIP3    H128763   2.196   1.936   6.106
 9606TIP3    H228764   2.106   1.834   6.038
 9607TIP3   OH228765   5.967   1.842   0.489
 9607TIP3    H128766   5.900   1.820   0.553
 9607TIP3    H228767   5.987   1.934   0.505
 9608TIP3   OH228768   6.327   1.574   1.729
 9608TIP3    H128769   6.345   1.487   1.694
 9608TIP3    H228770   6.396   1.629   1.692
 9609TIP3   OH228771   3.213   2.364   1.780
 9609TIP3    H128772   3.205   2.270   1.764
 9609TIP3    H228773   3.196   2.373   1.874
 9610TIP3   OH228774   2.936   0.976   3.676
 9610TIP3    H128775   2.963   1.053   3.626
 9610TIP3    H228776   2.999   0.908   3.651
 9611TIP3   OH228777   4.494   0.015   5.149
 9611TIP3    H128778   4.540  -0.052   5.099
 9611TIP3    H228779   4.532   0.010   5.237
 9612TIP3   OH228780   0.329   1.399   3.091
 9612TIP3    H128781   0.366   1.430   3.009
 9612TIP3    H228782   0.357   1.308   3.097
 9613TIP3   OH228783   2.034   0.508   6.702
 9613TIP3    H128784   2.055   0.563   6.626
 9613TIP3    H228785   2.070   0.422   6.679
 9614TIP3   OH228786   6.619   0.291   0.285
 9614TIP3    H128787   6.699   0.339   0.264
 9614TIP3    H228788   6.629   0.207   0.240
 9615TIP3   OH228789   5.180   2.826   4.965
 9615TIP3    H128790   5.229   2.771   5.026
 9615TIP3    H228791   5.222   2.812   4.880
 9616TIP3   OH228792   0.372   6.667   3.165
 9616TIP3    H128793   0.400   6.711   3.245
 9616TIP3    H228794   0.277   6.666   3.169
 9617TIP3   OH228795   1.448   5.701   2.177
 9617TIP3    H128796   1.475   5.619   2.218
 9617TIP3    H228797   1.352   5.699   2.182
 9618TIP3   OH228798   6.527   7.634   5.350
 9618TIP3    H128799   6.523   7.549   5.305
 9618TIP3    H228800   6.489   7.696   5.287
 9619TIP3   OH228801   7.670   2.045   2.635
 9619TIP3    H128802   7.599   2.049   2.570
 9619TIP3    H228803   7.681   2.135   2.665
 9620TIP3   OH228804   4.511   3.181   3.896
 9620TIP3    H128805   4.573   3.137   3.954
 9620TIP3    H228806   4.515   3.273   3.921
 9621TIP3   OH228807   1.345   1.758   3.137
 9621TIP3    H128808   1.419   1.816   3.160
 9621TIP3    H228809   1.296   1.748   3.219
 9622TIP3   OH228810   5.278   6.087   6.244
 9622TIP3    H128811   5.373   6.092   6.252
 9622TIP3    H228812   5.263   6.016   6.181
 9623TIP3   OH228813   7.558   2.685   4.917
 9623TIP3    H128814   7.541   2.596   4.888
 9623TIP3    H228815   7.641   2.708   4.876
 9624TIP3   OH228816   7.258   7.776   5.546
 9624TIP3    H128817   7.231   7.868   5.552
 9624TIP3    H228818   7.176   7.727   5.539
 9625TIP3   OH228819   1.312   0.756   0.796
 9625TIP3    H128820   1.245   0.818   0.826
 9625TIP3    H228821   1.265   0.697   0.738
 9626TIP3   OH228822   6.299   4.126   1.710
 9626TIP3    H128823   6.209   4.095   1.695
 9626TIP3    H228824   6.353   4.068   1.657
 9627TIP3   OH228825   7.837   4.921   5.816
 9627TIP3    H128826   7.847   4.997   5.874
 9627TIP3    H228827   7.769   4.947   5.754
 9628TIP3   OH228828   7.097   2.292   4.128
 9628TIP3    H128829   7.159   2.248   4.187
 9628TIP3    H228830   7.052   2.221   4.083
 9629TIP3   OH228831   1.085   1.065   3.436
 9629TIP3    H128832   1.083   1.064   3.532
 9629TIP3    H228833   1.129   0.984   3.411
 9630TIP3   OH228834   0.542   1.715   1.706
 9630TIP3    H128835   0.544   1.624   1.736
 9630TIP3    H228836   0.628   1.729   1.667
 9631TIP3   OH228837   7.940   6.858   6.278
 9631TIP3    H128838   7.924   6.785   6.218
 9631TIP3    H228839   8.028   6.889   6.254
 9632TIP3   OH228840   6.542   1.891   1.164
 9632TIP3    H128841   6.475   1.832   1.129
 9632TIP3    H228842   6.622   1.839   1.166
 9633TIP3   OH228843   7.768   1.673   4.067
 9633TIP3    H128844   7.799   1.609   4.003
 9633TIP3    H228845   7.770   1.756   4.020
 9634TIP3   OH228846   2.095   3.210   3.926
 9634TIP3    H128847   2.012   3.257   3.935
 9634TIP3    H228848   2.152   3.248   3.993
 9635TIP3   OH228849   6.427   4.848   3.758
 9635TIP3    H128850   6.454   4.763   3.791
 9635TIP3    H228851   6.389   4.893   3.833
 9636TIP3   OH228852   4.879   4.546   6.623
 9636TIP3    H128853   4.906   4.520   6.535
 9636TIP3    H228854   4.946   4.510   6.681
 9637TIP3   OH228855   5.618   4.227   4.640
 9637TIP3    H128856   5.540   4.281   4.624
 9637TIP3    H228857   5.677   4.284   4.688
 9638TIP3   OH228858   0.764   5.958   1.477
 9638TIP3    H128859   0.741   5.907   1.554
 9638TIP3    H228860   0.692   5.943   1.416
 9639TIP3   OH228861   7.718   6.151   6.595
 9639TIP3    H128862   7.650   6.215   6.575
 9639TIP3    H228863   7.745   6.171   6.685
 9640TIP3   OH228864   3.760   3.100   6.355
 9640TIP3    H128865   3.736   3.022   6.304
 9640TIP3    H228866   3.681   3.154   6.354
 9641TIP3   OH228867   7.322   0.085   4.544
 9641TIP3    H128868   7.354   0.058   4.630
 9641TIP3    H228869   7.282   0.006   4.508
 9642TIP3   OH228870   1.298   1.823   1.446
 9642TIP3    H128871   1.203   1.830   1.448
 9642TIP3    H228872   1.329   1.911   1.471
 9643TIP3   OH228873   5.790   4.878   0.551
 9643TIP3    H128874   5.768   4.818   0.480
 9643TIP3    H228875   5.842   4.947   0.510
 9644TIP3   OH228876   6.527   2.168   0.416
 9644TIP3    H128877   6.525   2.094   0.476
 9644TIP3    H228878   6.525   2.245   0.473
 9645TIP3   OH228879   0.300   7.798   0.693
 9645TIP3    H128880   0.265   7.785   0.605
 9645TIP3    H228881   0.395   7.788   0.684
 9646TIP3   OH228882   4.416   3.682   6.173
 9646TIP3    H128883   4.382   3.752   6.227
 9646TIP3    H228884   4.506   3.708   6.153
 9647TIP3   OH228885   0.061   0.807   2.340
 9647TIP3    H128886  -0.007   0.741   2.356
 9647TIP3    H228887   0.124   0.762   2.284
 9648TIP3   OH228888   7.805   7.437   6.154
 9648TIP3    H128889   7.727   7.484   6.124
 9648TIP3    H228890   7.861   7.432   6.076
 9649TIP3   OH228891   5.858   6.528   5.797
 9649TIP3    H128892   5.950   6.504   5.789
 9649TIP3    H228893   5.810   6.457   5.755
 9650TIP3   OH228894   1.890   7.822   2.404
 9650TIP3    H128895   1.919   7.821   2.312
 9650TIP3    H228896   1.795   7.811   2.399
 9651TIP3   OH228897   2.990   6.708   2.909
 9651TIP3    H128898   2.959   6.680   2.995
 9651TIP3    H228899   3.020   6.627   2.867
 9652TIP3   OH228900   4.731   1.861   5.365
 9652TIP3    H128901   4.657   1.850   5.426
 9652TIP3    H228902   4.734   1.778   5.317
 9653TIP3   OH228903   4.868   2.460   2.216
 9653TIP3    H128904   4.910   2.399   2.155
 9653TIP3    H228905   4.941   2.504   2.259
 9654TIP3   OH228906   0.314   3.430   1.344
 9654TIP3    H128907   0.317   3.400   1.253
 9654TIP3    H228908   0.405   3.453   1.364
 9655TIP3   OH228909   0.043   1.588   5.932
 9655TIP3    H128910  -0.008   1.507   5.929
 9655TIP3    H228911  -0.023   1.658   5.929
 9656TIP3   OH228912   7.264   0.828   0.199
 9656TIP3    H128913   7.242   0.915   0.166
 9656TIP3    H228914   7.359   0.821   0.188
 9657TIP3   OH228915   1.277   5.338   2.127
 9657TIP3    H128916   1.294   5.383   2.044
 9657TIP3    H228917   1.255   5.248   2.101
 9658TIP3   OH228918   5.656   0.994   4.838
 9658TIP3    H128919   5.740   0.950   4.851
 9658TIP3    H228920   5.635   1.031   4.924
 9659TIP3   OH228921   4.512   3.460   4.546
 9659TIP3    H128922   4.436   3.453   4.604
 9659TIP3    H228923   4.512   3.378   4.497
 9660TIP3   OH228924   7.750   1.684   5.022
 9660TIP3    H128925   7.695   1.711   5.096
 9660TIP3    H228926   7.701   1.712   4.945
 9661TIP3   OH228927   2.524   3.131   5.071
 9661TIP3    H128928   2.586   3.165   5.007
 9661TIP3    H228929   2.454   3.093   5.018
 9662TIP3   OH228930   6.050   3.428   0.846
 9662TIP3    H128931   6.035   3.416   0.752
 9662TIP3    H228932   6.100   3.351   0.872
 9663TIP3   OH228933   6.788   3.942   1.525
 9663TIP3    H128934   6.694   3.937   1.506
 9663TIP3    H228935   6.793   3.969   1.616
 9664TIP3   OH228936   8.265   6.203   4.056
 9664TIP3    H128937   8.327   6.131   4.067
 9664TIP3    H228938   8.179   6.160   4.053
 9665TIP3   OH228939   7.352   6.302   1.432
 9665TIP3    H128940   7.444   6.328   1.439
 9665TIP3    H228941   7.343   6.230   1.494
 9666TIP3   OH228942   8.189   7.333   6.408
 9666TIP3    H128943   8.250   7.304   6.475
 9666TIP3    H228944   8.182   7.258   6.348
 9667TIP3   OH228945   6.777   4.328   5.776
 9667TIP3    H128946   6.784   4.261   5.844
 9667TIP3    H228947   6.703   4.300   5.722
 9668TIP3   OH228948   0.408   2.394   3.900
 9668TIP3    H128949   0.318   2.384   3.868
 9668TIP3    H228950   0.418   2.323   3.965
 9669TIP3   OH228951   0.509   7.213   4.982
 9669TIP3    H128952   0.484   7.275   5.050
 9669TIP3    H228953   0.456   7.135   5.000
 9670TIP3   OH228954   5.289   2.169   5.641
 9670TIP3    H128955   5.250   2.237   5.586
 9670TIP3    H228956   5.213   2.126   5.682
 9671TIP3   OH228957   6.422   2.262   3.934
 9671TIP3    H128958   6.343   2.265   3.881
 9671TIP3    H228959   6.418   2.177   3.978
 9672TIP3   OH228960   6.764   4.306   6.567
 9672TIP3    H128961   6.800   4.280   6.652
 9672TIP3    H228962   6.794   4.238   6.506
 9673TIP3   OH228963   5.712   2.463   2.917
 9673TIP3    H128964   5.641   2.440   2.977
 9673TIP3    H228965   5.780   2.499   2.974
 9674TIP3   OH228966   0.148   7.681   6.362
 9674TIP3    H128967   0.065   7.701   6.405
 9674TIP3    H228968   0.144   7.587   6.344
 9675TIP3   OH228969   7.828   0.818   6.710
 9675TIP3    H128970   7.892   0.858   6.652
 9675TIP3    H228971   7.812   0.883   6.778
 9676TIP3   OH228972   3.605   5.860   6.008
 9676TIP3    H128973   3.633   5.795   6.072
 9676TIP3    H228974   3.530   5.903   6.049
 9677TIP3   OH228975   1.918   6.401   1.385
 9677TIP3    H128976   1.964   6.322   1.357
 9677TIP3    H228977   1.890   6.442   1.303
 9678TIP3   OH228978   7.224   3.074   2.807
 9678TIP3    H128979   7.266   2.990   2.789
 9678TIP3    H228980   7.192   3.067   2.897
 9679TIP3   OH228981   2.518   2.720   0.904
 9679TIP3    H128982   2.451   2.786   0.885
 9679TIP3    H228983   2.490   2.643   0.855
 9680TIP3   OH228984   4.552   7.589   5.547
 9680TIP3    H128985   4.495   7.606   5.471
 9680TIP3    H228986   4.503   7.625   5.621
 9681TIP3   OH228987   7.532   5.071   1.325
 9681TIP3    H128988   7.594   5.117   1.268
 9681TIP3    H228989   7.498   5.000   1.271
 9682TIP3   OH228990   7.156   0.766   6.757
 9682TIP3    H128991   7.243   0.753   6.797
 9682TIP3    H228992   7.153   0.703   6.685
 9683TIP3   OH228993   4.988   3.903   3.481
 9683TIP3    H128994   4.945   3.928   3.400
 9683TIP3    H228995   4.953   3.962   3.547
 9684TIP3   OH228996   5.292   1.860   0.370
 9684TIP3    H128997   5.258   1.792   0.311
 9684TIP3    H228998   5.309   1.934   0.312
 9685TIP3   OH228999   7.236   2.572   1.736
 9685TIP3    H129000   7.190   2.634   1.793
 9685TIP3    H229001   7.167   2.536   1.680
 9686TIP3   OH229002   1.469   3.284   3.377
 9686TIP3    H129003   1.548   3.337   3.366
 9686TIP3    H229004   1.398   3.348   3.381
 9687TIP3   OH229005   0.222   0.528   1.002
 9687TIP3    H129006   0.207   0.554   1.093
 9687TIP3    H229007   0.140   0.488   0.975
 9688TIP3   OH229008   0.897   7.337   1.226
 9688TIP3    H129009   0.904   7.432   1.214
 9688TIP3    H229010   0.804   7.318   1.215
 9689TIP3   OH229011   6.754   0.958   4.750
 9689TIP3    H129012   6.703   0.958   4.831
 9689TIP3    H229013   6.810   0.880   4.757
 9690TIP3   OH229014   5.237   0.301   0.109
 9690TIP3    H129015   5.203   0.213   0.092
 9690TIP3    H229016   5.203   0.355   0.037
 9691TIP3   OH229017   3.493   1.888   1.117
 9691TIP3    H129018   3.474   1.806   1.071
 9691TIP3    H229019   3.451   1.878   1.203
 9692TIP3   OH229020   2.407   2.096   3.452
 9692TIP3    H129021   2.401   2.169   3.390
 9692TIP3    H229022   2.452   2.133   3.528
 9693TIP3   OH229023   4.511   2.517   0.266
 9693TIP3    H129024   4.579   2.449   0.268
 9693TIP3    H229025   4.529   2.566   0.186
 9694TIP3   OH229026   2.470   4.443   3.213
 9694TIP3    H129027   2.375   4.453   3.206
 9694TIP3    H229028   2.501   4.531   3.234
 9695TIP3   OH229029   5.418   4.287   0.387
 9695TIP3    H129030   5.377   4.218   0.439
 9695TIP3    H229031   5.405   4.367   0.437
 9696TIP3   OH229032   0.900   0.814   1.414
 9696TIP3    H129033   0.878   0.730   1.373
 9696TIP3    H229034   0.840   0.821   1.488
 9697TIP3   OH229035   2.354   1.986   3.085
 9697TIP3    H129036   2.443   2.008   3.115
 9697TIP3    H229037   2.353   2.017   2.994
 9698TIP3   OH229038   4.231   0.913   5.623
 9698TIP3    H129039   4.216   1.003   5.594
 9698TIP3    H229040   4.311   0.886   5.578
 9699TIP3   OH229041   0.380   2.166   0.320
 9699TIP3    H129042   0.363   2.250   0.278
 9699TIP3    H229043   0.294   2.137   0.351
 9700TIP3   OH229044   3.767   6.918   5.874
 9700TIP3    H129045   3.776   6.859   5.948
 9700TIP3    H229046   3.673   6.935   5.868
 9701TIP3   OH229047   6.779   6.899   1.955
 9701TIP3    H129048   6.765   6.993   1.947
 9701TIP3    H229049   6.808   6.872   1.868
 9702TIP3   OH229050   6.988   7.719   0.650
 9702TIP3    H129051   6.979   7.680   0.563
 9702TIP3    H229052   7.083   7.719   0.666
 9703TIP3   OH229053   4.361   1.860   0.668
 9703TIP3    H129054   4.335   1.887   0.580
 9703TIP3    H229055   4.289   1.805   0.699
 9704TIP3   OH229056   0.101   4.618   4.425
 9704TIP3    H129057   0.019   4.604   4.473
 9704TIP3    H229058   0.075   4.666   4.347
 9705TIP3   OH229059   8.040   3.622   5.769
 9705TIP3    H129060   8.024   3.707   5.811
 9705TIP3    H229061   8.049   3.643   5.676
 9706TIP3   OH229062   7.396   6.729   2.618
 9706TIP3    H129063   7.385   6.821   2.595
 9706TIP3    H229064   7.476   6.702   2.573
 9707TIP3   OH229065   3.443   6.053   2.094
 9707TIP3    H129066   3.474   6.022   2.179
 9707TIP3    H229067   3.517   6.039   2.035
 9708TIP3   OH229068   0.140   6.061   3.794
 9708TIP3    H129069   0.116   6.040   3.884
 9708TIP3    H229070   0.219   6.010   3.777
 9709TIP3   OH229071   5.074   1.279   1.575
 9709TIP3    H129072   4.999   1.336   1.559
 9709TIP3    H229073   5.103   1.301   1.664
 9710TIP3   OH229074   4.018   7.629   2.274
 9710TIP3    H129075   3.943   7.573   2.252
 9710TIP3    H229076   4.088   7.599   2.217
 9711TIP3   OH229077   5.194   4.655   3.203
 9711TIP3    H129078   5.217   4.712   3.129
 9711TIP3    H229079   5.190   4.567   3.164
 9712TIP3   OH229080   3.488   4.417   5.551
 9712TIP3    H129081   3.445   4.408   5.636
 9712TIP3    H229082   3.581   4.406   5.570
 9713TIP3   OH229083   7.539   7.639   2.270
 9713TIP3    H129084   7.453   7.600   2.282
 9713TIP3    H229085   7.566   7.665   2.358
 9714TIP3   OH229086   3.168   3.304   6.640
 9714TIP3    H129087   3.240   3.287   6.700
 9714TIP3    H229088   3.102   3.347   6.694
 9715TIP3   OH229089   5.541   5.181   3.320
 9715TIP3    H129090   5.515   5.193   3.229
 9715TIP3    H229091   5.625   5.137   3.315
 9716TIP3   OH229092   3.175   5.816   1.146
 9716TIP3    H129093   3.189   5.740   1.203
 9716TIP3    H229094   3.213   5.789   1.062
 9717TIP3   OH229095   2.563   4.122   2.648
 9717TIP3    H129096   2.509   4.198   2.625
 9717TIP3    H229097   2.502   4.060   2.687
 9718TIP3   OH229098   2.376   5.395   0.017
 9718TIP3    H129099   2.335   5.332   0.076
 9718TIP3    H229100   2.463   5.410   0.054
 9719TIP3   OH229101   7.981   4.593   1.377
 9719TIP3    H129102   8.069   4.623   1.355
 9719TIP3    H229103   7.942   4.667   1.425
 9720TIP3   OH229104   4.223   4.865   0.426
 9720TIP3    H129105   4.289   4.797   0.439
 9720TIP3    H229106   4.201   4.859   0.333
 9721TIP3   OH229107   7.119   7.439   2.929
 9721TIP3    H129108   7.087   7.524   2.960
 9721TIP3    H229109   7.214   7.445   2.939
 9722TIP3   OH229110   5.210   5.808   2.316
 9722TIP3    H129111   5.171   5.892   2.290
 9722TIP3    H229112   5.204   5.807   2.412
 9723TIP3   OH229113   5.190   4.542   1.767
 9723TIP3    H129114   5.214   4.526   1.858
 9723TIP3    H229115   5.265   4.588   1.730
 9724TIP3   OH229116   2.779   0.344   0.485
 9724TIP3    H129117   2.813   0.323   0.572
 9724TIP3    H229118   2.708   0.281   0.472
 9725TIP3   OH229119   7.519   7.000   0.299
 9725TIP3    H129120   7.431   6.963   0.297
 9725TIP3    H229121   7.517   7.064   0.370
 9726TIP3   OH229122   1.669   0.560   6.628
 9726TIP3    H129123   1.653   0.532   6.538
 9726TIP3    H229124   1.703   0.649   6.619
 9727TIP3   OH229125   5.189   7.281   5.733
 9727TIP3    H129126   5.172   7.372   5.758
 9727TIP3    H229127   5.126   7.262   5.664
 9728TIP3   OH229128   5.297   5.119   2.109
 9728TIP3    H129129   5.383   5.149   2.081
 9728TIP3    H229130   5.239   5.139   2.036
 9729TIP3   OH229131   8.045   6.563   4.408
 9729TIP3    H129132   8.106   6.558   4.334
 9729TIP3    H229133   7.970   6.612   4.374
 9730TIP3   OH229134   5.847   4.177   3.628
 9730TIP3    H129135   5.855   4.090   3.666
 9730TIP3    H229136   5.777   4.219   3.678
 9731TIP3   OH229137   6.337   7.012   3.771
 9731TIP3    H129138   6.388   7.029   3.692
 9731TIP3    H229139   6.400   7.018   3.843
 9732TIP3   OH229140   2.291   4.605   1.953
 9732TIP3    H129141   2.222   4.596   2.019
 9732TIP3    H229142   2.245   4.631   1.873
 9733TIP3   OH229143   6.625   7.661   5.940
 9733TIP3    H129144   6.589   7.680   5.854
 9733TIP3    H229145   6.568   7.709   6.001
 9734TIP3   OH229146   0.839   1.210   1.588
 9734TIP3    H129147   0.837   1.265   1.666
 9734TIP3    H229148   0.873   1.267   1.519
 9735TIP3   OH229149   3.339   6.584   1.292
 9735TIP3    H129150   3.269   6.601   1.229
 9735TIP3    H229151   3.356   6.668   1.334
 9736TIP3   OH229152   0.609   3.064   1.972
 9736TIP3    H129153   0.538   3.062   2.036
 9736TIP3    H229154   0.651   3.149   1.985
 9737TIP3   OH229155   3.759   0.633   4.300
 9737TIP3    H129156   3.738   0.593   4.216
 9737TIP3    H229157   3.771   0.726   4.279
 9738TIP3   OH229158   7.383   4.185   2.884
 9738TIP3    H129159   7.353   4.224   2.966
 9738TIP3    H229160   7.371   4.091   2.896
 9739TIP3   OH229161   8.176   5.820   2.333
 9739TIP3    H129162   8.155   5.771   2.413
 9739TIP3    H229163   8.100   5.875   2.317
 9740TIP3   OH229164   6.103   7.755   0.647
 9740TIP3    H129165   6.071   7.679   0.695
 9740TIP3    H229166   6.116   7.723   0.558
 9741TIP3   OH229167   3.727   2.454   3.271
 9741TIP3    H129168   3.722   2.540   3.312
 9741TIP3    H229169   3.657   2.404   3.314
 9742TIP3   OH229170   3.175   1.703   1.857
 9742TIP3    H129171   3.189   1.622   1.907
 9742TIP3    H229172   3.140   1.765   1.921
 9743TIP3   OH229173   0.279   0.282   3.405
 9743TIP3    H129174   0.204   0.317   3.356
 9743TIP3    H229175   0.255   0.295   3.497
 9744TIP3   OH229176   0.987   6.262   0.554
 9744TIP3    H129177   0.936   6.227   0.482
 9744TIP3    H229178   1.012   6.185   0.605
 9745TIP3   OH229179   7.655   5.569   4.610
 9745TIP3    H129180   7.662   5.595   4.518
 9745TIP3    H229181   7.703   5.486   4.615
 9746TIP3   OH229182   1.138   4.129   3.316
 9746TIP3    H129183   1.124   4.095   3.228
 9746TIP3    H229184   1.231   4.112   3.334
 9747TIP3   OH229185   5.987   2.696   6.575
 9747TIP3    H129186   6.024   2.608   6.568
 9747TIP3    H229187   5.892   2.683   6.570
 9748TIP3   OH229188   4.721   3.632   3.165
 9748TIP3    H129189   4.658   3.652   3.097
 9748TIP3    H229190   4.672   3.642   3.247
 9749TIP3   OH229191   4.159   5.726   2.172
 9749TIP3    H129192   4.221   5.800   2.174
 9749TIP3    H229193   4.107   5.741   2.093
 9750TIP3   OH229194   6.350   4.537   4.427
 9750TIP3    H129195   6.355   4.562   4.334
 9750TIP3    H229196   6.407   4.600   4.472
 9751TIP3   OH229197   5.930   6.167   3.781
 9751TIP3    H129198   5.903   6.202   3.867
 9751TIP3    H229199   5.869   6.208   3.719
 9752TIP3   OH229200   2.934   7.179   6.605
 9752TIP3    H129201   3.024   7.207   6.620
 9752TIP3    H229202   2.931   7.155   6.513
 9753TIP3   OH229203   2.159   4.312   3.365
 9753TIP3    H129204   2.142   4.218   3.365
 9753TIP3    H229205   2.169   4.335   3.273
 9754TIP3   OH229206   1.928   0.030   3.382
 9754TIP3    H129207   1.995   0.093   3.355
 9754TIP3    H229208   1.944   0.018   3.476
 9755TIP3   OH229209   1.760   6.234   5.548
 9755TIP3    H129210   1.847   6.272   5.550
 9755TIP3    H229211   1.710   6.286   5.612
 9756TIP3   OH229212   4.080   0.260   0.118
 9756TIP3    H129213   4.147   0.328   0.127
 9756TIP3    H229214   4.010   0.287   0.177
 9757TIP3   OH229215   5.394   6.514   4.115
 9757TIP3    H129216   5.344   6.584   4.074
 9757TIP3    H229217   5.328   6.453   4.148
 9758TIP3   OH229218   7.498   3.165   0.747
 9758TIP3    H129219   7.518   3.213   0.667
 9758TIP3    H229220   7.404   3.153   0.745
 9759TIP3   OH229221   5.166   4.934   5.546
 9759TIP3    H129222   5.074   4.939   5.573
 9759TIP3    H229223   5.207   4.876   5.610
 9760TIP3   OH229224   0.943   5.980   2.318
 9760TIP3    H129225   0.937   5.894   2.360
 9760TIP3    H229226   0.874   6.031   2.360
 9761TIP3   OH229227   6.402   0.609   4.103
 9761TIP3    H129228   6.442   0.538   4.153
 9761TIP3    H229229   6.308   0.597   4.115
 9762TIP3   OH229230   7.141   1.727   1.874
 9762TIP3    H129231   7.198   1.795   1.910
 9762TIP3    H229232   7.137   1.746   1.780
 9763TIP3   OH229233   3.795   0.801   2.286
 9763TIP3    H129234   3.793   0.830   2.377
 9763TIP3    H229235   3.881   0.828   2.254
 9764TIP3   OH229236   5.459   2.836   0.950
 9764TIP3    H129237   5.511   2.775   1.004
 9764TIP3    H229238   5.376   2.791   0.936
 9765TIP3   OH229239   0.580   3.674   4.934
 9765TIP3    H129240   0.557   3.632   4.852
 9765TIP3    H229241   0.646   3.740   4.910
 9766TIP3   OH229242   0.165   5.601   2.094
 9766TIP3    H129243   0.207   5.673   2.142
 9766TIP3    H229244   0.172   5.627   2.002
 9767TIP3   OH229245   3.174   6.912   3.656
 9767TIP3    H129246   3.237   6.866   3.712
 9767TIP3    H229247   3.225   6.981   3.615
 9768TIP3   OH229248   3.358   6.288   5.229
 9768TIP3    H129249   3.424   6.219   5.221
 9768TIP3    H229250   3.329   6.283   5.320
 9769TIP3   OH229251   3.552   5.652   2.833
 9769TIP3    H129252   3.515   5.736   2.806
 9769TIP3    H229253   3.636   5.674   2.873
 9770TIP3   OH229254   4.529   2.187   3.172
 9770TIP3    H129255   4.468   2.180   3.099
 9770TIP3    H229256   4.597   2.123   3.152
 9771TIP3   OH229257   5.555   1.914   3.119
 9771TIP3    H129258   5.614   1.983   3.088
 9771TIP3    H229259   5.550   1.852   3.047
 9772TIP3   OH229260   3.204   2.294   0.860
 9772TIP3    H129261   3.208   2.334   0.774
 9772TIP3    H229262   3.270   2.224   0.858
 9773TIP3   OH229263   5.135   5.634   3.933
 9773TIP3    H129264   5.091   5.624   3.848
 9773TIP3    H229265   5.098   5.715   3.968
 9774TIP3   OH229266   1.218   7.438   1.987
 9774TIP3    H129267   1.283   7.493   1.944
 9774TIP3    H229268   1.188   7.490   2.062
 9775TIP3   OH229269   0.421   6.909   3.313
 9775TIP3    H129270   0.358   6.948   3.254
 9775TIP3    H229271   0.383   6.920   3.400
 9776TIP3   OH229272   2.301   5.576   3.023
 9776TIP3    H129273   2.222   5.590   3.076
 9776TIP3    H229274   2.369   5.555   3.087
 9777TIP3   OH229275   7.367   1.537   4.683
 9777TIP3    H129276   7.455   1.525   4.647
 9777TIP3    H229277   7.308   1.515   4.611
 9778TIP3   OH229278   3.252   0.836   1.735
 9778TIP3    H129279   3.215   0.749   1.745
 9778TIP3    H229280   3.216   0.868   1.652
 9779TIP3   OH229281   0.673   7.545   2.159
 9779TIP3    H129282   0.644   7.522   2.071
 9779TIP3    H229283   0.682   7.461   2.204
 9780TIP3   OH229284   1.367   6.484   0.347
 9780TIP3    H129285   1.421   6.559   0.372
 9780TIP3    H229286   1.428   6.424   0.303
 9781TIP3   OH229287   3.675   5.824   3.646
 9781TIP3    H129288   3.602   5.816   3.585
 9781TIP3    H229289   3.726   5.744   3.633
 9782TIP3   OH229290   1.769   7.620   4.166
 9782TIP3    H129291   1.749   7.681   4.237
 9782TIP3    H229292   1.695   7.626   4.107
 9783TIP3   OH229293   3.386   6.150   3.947
 9783TIP3    H129294   3.379   6.056   3.934
 9783TIP3    H229295   3.362   6.164   4.039
 9784TIP3   OH229296   6.442   2.755   1.466
 9784TIP3    H129297   6.490   2.747   1.383
 9784TIP3    H229298   6.452   2.669   1.507
 9785TIP3   OH229299   6.374   3.767   6.734
 9785TIP3    H129300   6.347   3.793   6.822
 9785TIP3    H229301   6.326   3.686   6.717
 9786TIP3   OH229302   3.815   0.936   5.291
 9786TIP3    H129303   3.805   1.007   5.228
 9786TIP3    H229304   3.800   0.977   5.376
 9787TIP3   OH229305   7.345   2.021   6.069
 9787TIP3    H129306   7.434   1.997   6.093
 9787TIP3    H229307   7.349   2.045   5.977
 9788TIP3   OH229308   6.782   7.344   5.117
 9788TIP3    H129309   6.830   7.267   5.087
 9788TIP3    H229310   6.835   7.418   5.088
 9789TIP3   OH229311   2.682   6.002   3.739
 9789TIP3    H129312   2.716   6.087   3.766
 9789TIP3    H229313   2.733   5.979   3.661
 9790TIP3   OH229314   2.764   2.300   1.896
 9790TIP3    H129315   2.730   2.247   1.968
 9790TIP3    H229316   2.716   2.383   1.902
 9791TIP3   OH229317   1.240   7.403   6.038
 9791TIP3    H129318   1.171   7.372   5.979
 9791TIP3    H229319   1.318   7.355   6.011
 9792TIP3   OH229320   3.212   6.592   0.527
 9792TIP3    H129321   3.210   6.624   0.617
 9792TIP3    H229322   3.186   6.668   0.474
 9793TIP3   OH229323   3.202   4.177   4.498
 9793TIP3    H129324   3.190   4.116   4.426
 9793TIP3    H229325   3.115   4.212   4.515
 9794TIP3   OH229326   7.801   7.662   5.845
 9794TIP3    H129327   7.837   7.740   5.886
 9794TIP3    H229328   7.828   7.668   5.753
 9795TIP3   OH229329   7.885   2.589   4.248
 9795TIP3    H129330   7.931   2.506   4.258
 9795TIP3    H229331   7.803   2.566   4.204
 9796TIP3   OH229332   3.187   3.862   6.706
 9796TIP3    H129333   3.217   3.858   6.797
 9796TIP3    H229334   3.135   3.942   6.702
 9797TIP3   OH229335   6.623   5.393   5.107
 9797TIP3    H129336   6.638   5.298   5.105
 9797TIP3    H229337   6.703   5.429   5.145
 9798TIP3   OH229338   4.777   6.377   6.356
 9798TIP3    H129339   4.849   6.321   6.385
 9798TIP3    H229340   4.755   6.344   6.269
 9799TIP3   OH229341   3.348   0.627   3.535
 9799TIP3    H129342   3.389   0.704   3.575
 9799TIP3    H229343   3.389   0.620   3.448
 9800TIP3   OH229344   0.616   6.808   5.261
 9800TIP3    H129345   0.547   6.797   5.195
 9800TIP3    H229346   0.674   6.875   5.224
 9801TIP3   OH229347   6.098   4.723   1.260
 9801TIP3    H129348   6.182   4.759   1.289
 9801TIP3    H229349   6.057   4.794   1.210
 9802TIP3   OH229350   4.250   4.346   0.348
 9802TIP3    H129351   4.279   4.419   0.402
 9802TIP3    H229352   4.276   4.370   0.259
 9803TIP3   OH229353   7.211   3.160   0.087
 9803TIP3    H129354   7.148   3.098   0.124
 9803TIP3    H229355   7.219   3.228   0.154
 9804TIP3   OH229356   7.861   5.480   6.407
 9804TIP3    H129357   7.805   5.475   6.330
 9804TIP3    H229358   7.800   5.493   6.480
 9805TIP3   OH229359   5.445   4.786   6.113
 9805TIP3    H129360   5.423   4.774   6.205
 9805TIP3    H229361   5.362   4.774   6.067
 9806TIP3   OH229362   3.663   1.626   3.309
 9806TIP3    H129363   3.592   1.689   3.299
 9806TIP3    H229364   3.691   1.636   3.401
 9807TIP3   OH229365   2.091   2.681   1.415
 9807TIP3    H129366   2.040   2.682   1.333
 9807TIP3    H229367   2.119   2.772   1.427
 9808TIP3   OH229368   3.637   0.321   1.285
 9808TIP3    H129369   3.659   0.291   1.374
 9808TIP3    H229370   3.693   0.397   1.271
 9809TIP3   OH229371   0.843   4.528   1.813
 9809TIP3    H129372   0.916   4.479   1.852
 9809TIP3    H229373   0.883   4.576   1.740
 9810TIP3   OH229374   3.913   3.546   5.492
 9810TIP3    H129375   3.923   3.572   5.400
 9810TIP3    H229376   3.870   3.622   5.533
 9811TIP3   OH229377   7.513   1.933   3.465
 9811TIP3    H129378   7.490   1.970   3.550
 9811TIP3    H229379   7.438   1.953   3.408
 9812TIP3   OH229380   6.219   1.690   0.630
 9812TIP3    H129381   6.223   1.773   0.677
 9812TIP3    H229382   6.260   1.709   0.546
 9813TIP3   OH229383   1.778   3.009   6.779
 9813TIP3    H129384   1.838   2.989   6.706
 9813TIP3    H229385   1.710   3.063   6.739
 9814TIP3   OH229386   5.701   4.338   5.648
 9814TIP3    H129387   5.655   4.380   5.576
 9814TIP3    H229388   5.694   4.244   5.630
 9815TIP3   OH229389   6.683   1.270   1.777
 9815TIP3    H129390   6.600   1.225   1.795
 9815TIP3    H229391   6.705   1.313   1.860
 9816TIP3   OH229392   4.369   1.222   5.749
 9816TIP3    H129393   4.285   1.245   5.790
 9816TIP3    H229394   4.431   1.219   5.821
 9817TIP3   OH229395   0.396   1.275   6.067
 9817TIP3    H129396   0.377   1.358   6.024
 9817TIP3    H229397   0.319   1.220   6.048
 9818TIP3   OH229398   4.352   4.321   2.172
 9818TIP3    H129399   4.436   4.362   2.194
 9818TIP3    H229400   4.366   4.228   2.188
 9819TIP3   OH229401   1.714   3.626   1.714
 9819TIP3    H129402   1.766   3.571   1.656
 9819TIP3    H229403   1.768   3.637   1.792
 9820TIP3   OH229404   2.980   7.754   3.569
 9820TIP3    H129405   3.041   7.807   3.620
 9820TIP3    H229406   2.896   7.799   3.577
 9821TIP3   OH229407   6.556   7.486   3.217
 9821TIP3    H129408   6.511   7.537   3.285
 9821TIP3    H229409   6.645   7.520   3.217
 9822TIP3   OH229410   3.371   3.066   6.546
 9822TIP3    H129411   3.466   3.059   6.531
 9822TIP3    H229412   3.335   3.085   6.460
 9823TIP3   OH229413   6.305   5.388   6.312
 9823TIP3    H129414   6.334   5.456   6.251
 9823TIP3    H229415   6.366   5.395   6.386
 9824TIP3   OH229416   5.691   2.421   5.444
 9824TIP3    H129417   5.602   2.452   5.463
 9824TIP3    H229418   5.703   2.346   5.502
 9825TIP3   OH229419   3.887   5.725   0.229
 9825TIP3    H129420   3.957   5.789   0.215
 9825TIP3    H229421   3.822   5.771   0.282
 9826TIP3   OH229422   6.630   4.924   5.569
 9826TIP3    H129423   6.723   4.931   5.589
 9826TIP3    H229424   6.625   4.857   5.501
 9827TIP3   OH229425   2.729   5.285   5.921
 9827TIP3    H129426   2.696   5.259   5.835
 9827TIP3    H229427   2.821   5.304   5.908
 9828TIP3   OH229428   1.753   5.023   3.180
 9828TIP3    H129429   1.818   4.954   3.174
 9828TIP3    H229430   1.787   5.094   3.126
 9829TIP3   OH229431   3.679   1.333   0.875
 9829TIP3    H129432   3.711   1.378   0.953
 9829TIP3    H229433   3.644   1.403   0.820
 9830TIP3   OH229434   7.754   3.306   1.849
 9830TIP3    H129435   7.730   3.383   1.902
 9830TIP3    H229436   7.811   3.255   1.906
 9831TIP3   OH229437   6.787   4.696   6.417
 9831TIP3    H129438   6.733   4.763   6.375
 9831TIP3    H229439   6.797   4.628   6.350
 9832TIP3   OH229440   4.904   7.097   0.903
 9832TIP3    H129441   4.899   7.090   0.999
 9832TIP3    H229442   4.864   7.181   0.883
 9833TIP3   OH229443   4.785   2.454   0.525
 9833TIP3    H129444   4.738   2.405   0.593
 9833TIP3    H229445   4.816   2.388   0.464
 9834TIP3   OH229446   6.997   1.176   2.918
 9834TIP3    H129447   6.908   1.204   2.940
 9834TIP3    H229448   7.051   1.207   2.990
 9835TIP3   OH229449   5.287   0.111   4.576
 9835TIP3    H129450   5.268   0.192   4.530
 9835TIP3    H229451   5.359   0.071   4.527
 9836TIP3   OH229452   7.253   6.240   0.177
 9836TIP3    H129453   7.249   6.198   0.263
 9836TIP3    H229454   7.190   6.192   0.124
 9837TIP3   OH229455   8.066   5.693   0.566
 9837TIP3    H129456   8.124   5.701   0.641
 9837TIP3    H229457   8.012   5.772   0.567
 9838TIP3   OH229458   6.413   1.529   5.925
 9838TIP3    H129459   6.337   1.499   5.974
 9838TIP3    H229460   6.486   1.523   5.987
 9839TIP3   OH229461   3.053   0.059   5.386
 9839TIP3    H129462   2.960   0.077   5.373
 9839TIP3    H229463   3.098   0.137   5.352
 9840TIP3   OH229464   8.083   2.704   0.085
 9840TIP3    H129465   7.993   2.709   0.053
 9840TIP3    H229466   8.136   2.737   0.012
 9841TIP3   OH229467   6.017   4.742   5.560
 9841TIP3    H129468   6.094   4.764   5.508
 9841TIP3    H229469   6.045   4.754   5.650
 9842TIP3   OH229470   4.005   0.400   6.543
 9842TIP3    H129471   4.059   0.468   6.582
 9842TIP3    H229472   3.915   0.428   6.562
 9843TIP3   OH229473   6.902   6.481   1.575
 9843TIP3    H129474   6.885   6.458   1.484
 9843TIP3    H229475   6.830   6.540   1.598
 9844TIP3   OH229476   5.661   6.768   5.653
 9844TIP3    H129477   5.696   6.824   5.722
 9844TIP3    H229478   5.700   6.682   5.669
 9845TIP3   OH229479   7.264   6.181   4.362
 9845TIP3    H129480   7.319   6.260   4.361
 9845TIP3    H229481   7.327   6.109   4.354
 9846TIP3   OH229482   3.635   2.819   5.037
 9846TIP3    H129483   3.701   2.766   4.991
 9846TIP3    H229484   3.631   2.780   5.124
 9847TIP3   OH229485   8.151   3.531   0.490
 9847TIP3    H129486   8.166   3.620   0.523
 9847TIP3    H229487   8.056   3.520   0.494
 9848TIP3   OH229488   5.219   2.838   6.065
 9848TIP3    H129489   5.297   2.869   6.018
 9848TIP3    H229490   5.219   2.743   6.052
 9849TIP3   OH229491   1.031   0.101   5.900
 9849TIP3    H129492   1.024   0.191   5.933
 9849TIP3    H229493   0.957   0.091   5.840
 9850TIP3   OH229494   5.064   4.897   4.517
 9850TIP3    H129495   5.126   4.965   4.492
 9850TIP3    H229496   4.982   4.944   4.534
 9851TIP3   OH229497   1.913   2.814   4.423
 9851TIP3    H129498   1.983   2.806   4.358
 9851TIP3    H229499   1.943   2.885   4.481
 9852TIP3   OH229500   1.354   2.413   6.744
 9852TIP3    H129501   1.330   2.321   6.754
 9852TIP3    H229502   1.321   2.455   6.823
 9853TIP3   OH229503   3.734   3.645   6.699
 9853TIP3    H129504   3.663   3.587   6.726
 9853TIP3    H229505   3.731   3.717   6.762
 9854TIP3   OH229506   7.232   4.194   4.771
 9854TIP3    H129507   7.213   4.281   4.807
 9854TIP3    H229508   7.198   4.197   4.681
 9855TIP3   OH229509   4.335   1.825   3.116
 9855TIP3    H129510   4.309   1.888   3.184
 9855TIP3    H229511   4.379   1.755   3.164
 9856TIP3   OH229512   2.129   5.594   5.937
 9856TIP3    H129513   2.136   5.689   5.925
 9856TIP3    H229514   2.218   5.561   5.923
 9857TIP3   OH229515   6.156   3.128   0.813
 9857TIP3    H129516   6.138   3.105   0.721
 9857TIP3    H229517   6.251   3.131   0.819
 9858TIP3   OH229518   6.663   5.641   6.262
 9858TIP3    H129519   6.606   5.674   6.192
 9858TIP3    H229520   6.604   5.619   6.333
 9859TIP3   OH229521   2.898   7.605   6.672
 9859TIP3    H129522   2.985   7.617   6.634
 9859TIP3    H229523   2.913   7.550   6.749
 9860TIP3   OH229524   3.015   2.362   2.627
 9860TIP3    H129525   3.051   2.283   2.588
 9860TIP3    H229526   3.081   2.429   2.611
 9861TIP3   OH229527   1.929   2.338   5.348
 9861TIP3    H129528   1.840   2.349   5.384
 9861TIP3    H229529   1.974   2.418   5.373
 9862TIP3   OH229530   6.276   0.141   2.586
 9862TIP3    H129531   6.205   0.200   2.562
 9862TIP3    H229532   6.351   0.172   2.534
 9863TIP3   OH229533   4.060   0.993   1.513
 9863TIP3    H129534   4.116   1.006   1.435
 9863TIP3    H229535   4.122   0.991   1.586
 9864TIP3   OH229536   2.510   2.574   1.177
 9864TIP3    H129537   2.505   2.624   1.096
 9864TIP3    H229538   2.599   2.538   1.177
 9865TIP3   OH229539   0.134   0.476   0.737
 9865TIP3    H129540   0.081   0.548   0.772
 9865TIP3    H229541   0.222   0.513   0.728
 9866TIP3   OH229542   5.459   3.225   1.298
 9866TIP3    H129543   5.471   3.306   1.250
 9866TIP3    H229544   5.547   3.201   1.327
 9867TIP3   OH229545   2.692   3.932   2.273
 9867TIP3    H129546   2.783   3.948   2.298
 9867TIP3    H229547   2.663   4.016   2.236
 9868TIP3   OH229548   7.472   6.187   0.900
 9868TIP3    H129549   7.553   6.175   0.950
 9868TIP3    H229550   7.406   6.209   0.966
 9869TIP3   OH229551   7.122   0.637   1.758
 9869TIP3    H129552   7.152   0.589   1.681
 9869TIP3    H229553   7.172   0.718   1.757
 9870TIP3   OH229554   2.259   5.723   2.768
 9870TIP3    H129555   2.201   5.775   2.824
 9870TIP3    H229556   2.347   5.743   2.801
 9871TIP3   OH229557   4.348   2.657   4.105
 9871TIP3    H129558   4.379   2.617   4.186
 9871TIP3    H229559   4.260   2.689   4.126
 9872TIP3   OH229560   0.277   4.556   0.878
 9872TIP3    H129561   0.187   4.552   0.846
 9872TIP3    H229562   0.324   4.606   0.811
 9873TIP3   OH229563   3.806   1.655   0.379
 9873TIP3    H129564   3.739   1.596   0.345
 9873TIP3    H229565   3.791   1.737   0.333
 9874TIP3   OH229566   3.761   3.079   3.082
 9874TIP3    H129567   3.818   3.003   3.074
 9874TIP3    H229568   3.787   3.119   3.166
 9875TIP3   OH229569   5.826   3.914   1.566
 9875TIP3    H129570   5.857   3.889   1.479
 9875TIP3    H229571   5.803   3.831   1.608
 9876TIP3   OH229572   6.056   1.424   5.270
 9876TIP3    H129573   6.092   1.391   5.187
 9876TIP3    H229574   6.124   1.406   5.335
 9877TIP3   OH229575   8.165   4.633   4.579
 9877TIP3    H129576   8.159   4.675   4.665
 9877TIP3    H229577   8.121   4.549   4.590
 9878TIP3   OH229578   6.791   6.437   2.366
 9878TIP3    H129579   6.754   6.479   2.289
 9878TIP3    H229580   6.859   6.378   2.331
 9879TIP3   OH229581   1.549   1.065   5.680
 9879TIP3    H129582   1.533   1.100   5.768
 9879TIP3    H229583   1.462   1.037   5.650
 9880TIP3   OH229584   3.434   4.520   5.295
 9880TIP3    H129585   3.353   4.567   5.313
 9880TIP3    H229586   3.435   4.448   5.357
 9881TIP3   OH229587   7.211   6.562   5.448
 9881TIP3    H129588   7.284   6.508   5.418
 9881TIP3    H229589   7.206   6.634   5.386
 9882TIP3   OH229590   0.072   4.788   4.215
 9882TIP3    H129591   0.156   4.819   4.247
 9882TIP3    H229592   0.036   4.861   4.165
 9883TIP3   OH229593   0.805   6.333   3.660
 9883TIP3    H129594   0.724   6.285   3.673
 9883TIP3    H229595   0.864   6.302   3.729
 9884TIP3   OH229596   5.142   7.402   2.034
 9884TIP3    H129597   5.088   7.324   2.047
 9884TIP3    H229598   5.174   7.394   1.944
 9885TIP3   OH229599   4.222   2.245   6.067
 9885TIP3    H129600   4.197   2.262   5.976
 9885TIP3    H229601   4.185   2.158   6.086
 9886TIP3   OH229602   1.366   0.126   6.725
 9886TIP3    H129603   1.430   0.096   6.661
 9886TIP3    H229604   1.369   0.061   6.795
 9887TIP3   OH229605   6.755   2.469   4.592
 9887TIP3    H129606   6.757   2.373   4.597
 9887TIP3    H229607   6.786   2.489   4.504
 9888TIP3   OH229608   7.633   2.084   5.085
 9888TIP3    H129609   7.586   2.159   5.121
 9888TIP3    H229610   7.606   2.081   4.993
 9889TIP3   OH229611   2.243   6.202   4.763
 9889TIP3    H129612   2.312   6.240   4.709
 9889TIP3    H229613   2.287   6.134   4.814
 9890TIP3   OH229614   4.250   6.814   2.418
 9890TIP3    H129615   4.315   6.865   2.370
 9890TIP3    H229616   4.295   6.732   2.439
 9891TIP3   OH229617   4.710   1.422   4.012
 9891TIP3    H129618   4.805   1.406   4.017
 9891TIP3    H229619   4.689   1.464   4.095
 9892TIP3   OH229620   5.175   5.148   4.486
 9892TIP3    H129621   5.203   5.145   4.578
 9892TIP3    H229622   5.134   5.234   4.477
 9893TIP3   OH229623   3.311   4.475   1.309
 9893TIP3    H129624   3.334   4.383   1.320
 9893TIP3    H229625   3.223   4.473   1.270
 9894TIP3   OH229626   4.547   5.236   1.030
 9894TIP3    H129627   4.538   5.255   1.123
 9894TIP3    H229628   4.460   5.208   1.002
 9895TIP3   OH229629   2.371   6.482   5.617
 9895TIP3    H129630   2.278   6.465   5.599
 9895TIP3    H229631   2.371   6.558   5.675
 9896TIP3   OH229632   4.687   6.104   3.838
 9896TIP3    H129633   4.740   6.026   3.858
 9896TIP3    H229634   4.750   6.167   3.803
 9897TIP3   OH229635   4.580   7.517   4.294
 9897TIP3    H129636   4.673   7.529   4.275
 9897TIP3    H229637   4.575   7.434   4.340
 9898TIP3   OH229638   0.455   6.545   4.560
 9898TIP3    H129639   0.438   6.590   4.642
 9898TIP3    H229640   0.386   6.575   4.501
 9899TIP3   OH229641   6.161   3.089   0.538
 9899TIP3    H129642   6.106   3.037   0.479
 9899TIP3    H229643   6.250   3.077   0.503
 9900TIP3   OH229644   4.807   2.196   5.220
 9900TIP3    H129645   4.726   2.195   5.168
 9900TIP3    H229646   4.848   2.111   5.201
 9901TIP3   OH229647   3.045   1.060   1.117
 9901TIP3    H129648   3.030   1.149   1.148
 9901TIP3    H229649   3.109   1.070   1.046
 9902TIP3   OH229650   7.346   7.013   4.990
 9902TIP3    H129651   7.409   6.949   5.024
 9902TIP3    H229652   7.261   6.976   5.011
 9903TIP3   OH229653   1.161   5.801   1.859
 9903TIP3    H129654   1.144   5.860   1.785
 9903TIP3    H229655   1.152   5.856   1.937
 9904TIP3   OH229656   5.822   1.937   2.204
 9904TIP3    H129657   5.874   1.916   2.282
 9904TIP3    H229658   5.784   2.023   2.222
 9905TIP3   OH229659   6.432   6.815   4.379
 9905TIP3    H129660   6.462   6.731   4.344
 9905TIP3    H229661   6.501   6.842   4.439
 9906TIP3   OH229662   6.229   6.360   0.835
 9906TIP3    H129663   6.300   6.423   0.834
 9906TIP3    H229664   6.149   6.414   0.841
 9907TIP3   OH229665   1.636   6.344   1.945
 9907TIP3    H129666   1.673   6.426   1.977
 9907TIP3    H229667   1.572   6.319   2.012
 9908TIP3   OH229668   1.691   6.396   0.965
 9908TIP3    H129669   1.786   6.406   0.977
 9908TIP3    H229670   1.680   6.387   0.871
 9909TIP3   OH229671   2.217   4.409   6.270
 9909TIP3    H129672   2.159   4.457   6.329
 9909TIP3    H229673   2.268   4.476   6.226
 9910TIP3   OH229674   1.024   7.024   5.181
 9910TIP3    H129675   1.103   7.068   5.149
 9910TIP3    H229676   1.047   6.997   5.271
 9911TIP3   OH229677   7.263   0.270   5.284
 9911TIP3    H129678   7.271   0.336   5.215
 9911TIP3    H229679   7.283   0.187   5.240
 9912TIP3   OH229680   3.748   6.504   5.713
 9912TIP3    H129681   3.728   6.537   5.800
 9912TIP3    H229682   3.762   6.410   5.726
 9913TIP3   OH229683   7.860   0.542   4.534
 9913TIP3    H129684   7.773   0.504   4.548
 9913TIP3    H229685   7.886   0.576   4.620
 9914TIP3   OH229686   7.164   5.326   5.057
 9914TIP3    H129687   7.249   5.343   5.015
 9914TIP3    H229688   7.162   5.231   5.069
 9915TIP3   OH229689   4.549   1.946   5.090
 9915TIP3    H129690   4.564   2.025   5.142
 9915TIP3    H229691   4.524   1.979   5.004
 9916TIP3   OH229692   7.607   0.998   4.926
 9916TIP3    H129693   7.695   1.032   4.910
 9916TIP3    H229694   7.581   0.956   4.844
 9917TIP3   OH229695   6.202   2.116   3.322
 9917TIP3    H129696   6.239   2.059   3.390
 9917TIP3    H229697   6.161   2.055   3.260
 9918TIP3   OH229698   0.895   4.157   0.901
 9918TIP3    H129699   0.903   4.234   0.957
 9918TIP3    H229700   0.859   4.089   0.958
 9919TIP3   OH229701   2.386   4.497   2.401
 9919TIP3    H129702   2.412   4.587   2.423
 9919TIP3    H229703   2.417   4.485   2.311
 9920TIP3   OH229704   7.023   6.412   5.573
 9920TIP3    H129705   6.929   6.431   5.576
 9920TIP3    H229706   7.063   6.492   5.539
 9921TIP3   OH229707   2.174   1.585   6.470
 9921TIP3    H129708   2.148   1.643   6.542
 9921TIP3    H229709   2.134   1.501   6.492
 9922TIP3   OH229710   3.929   3.598   6.077
 9922TIP3    H129711   4.010   3.581   6.125
 9922TIP3    H229712   3.955   3.592   5.985
 9923TIP3   OH229713   1.409   4.101   3.316
 9923TIP3    H129714   1.425   4.017   3.273
 9923TIP3    H229715   1.442   4.088   3.405
 9924TIP3   OH229716   4.715   3.933   0.187
 9924TIP3    H129717   4.634   3.936   0.136
 9924TIP3    H229718   4.725   3.841   0.210
 9925TIP3   OH229719   0.726   3.944   2.926
 9925TIP3    H129720   0.776   3.863   2.933
 9925TIP3    H229721   0.746   3.991   3.007
 9926TIP3   OH229722   3.686   3.418   3.811
 9926TIP3    H129723   3.695   3.402   3.905
 9926TIP3    H229724   3.592   3.413   3.794
 9927TIP3   OH229725   6.084   4.994   6.436
 9927TIP3    H129726   6.030   4.964   6.363
 9927TIP3    H229727   6.116   4.913   6.476
 9928TIP3   OH229728   2.472   7.509   2.569
 9928TIP3    H129729   2.471   7.498   2.664
 9928TIP3    H229730   2.454   7.602   2.555
 9929TIP3   OH229731   5.232   1.530   2.993
 9929TIP3    H129732   5.194   1.448   2.960
 9929TIP3    H229733   5.160   1.594   2.986
 9930TIP3   OH229734   0.008   5.087   1.749
 9930TIP3    H129735  -0.073   5.125   1.717
 9930TIP3    H229736   0.066   5.085   1.673
 9931TIP3   OH229737   7.262   6.025   5.506
 9931TIP3    H129738   7.322   5.991   5.440
 9931TIP3    H229739   7.206   6.086   5.458
 9932TIP3   OH229740   1.639   3.623   5.373
 9932TIP3    H129741   1.605   3.712   5.371
 9932TIP3    H229742   1.721   3.627   5.324
 9933TIP3   OH229743   4.445   0.480   6.625
 9933TIP3    H129744   4.470   0.388   6.635
 9933TIP3    H229745   4.511   0.529   6.673
 9934TIP3   OH229746   0.680   4.855   1.661
 9934TIP3    H129747   0.662   4.812   1.744
 9934TIP3    H229748   0.772   4.835   1.643
 9935TIP3   OH229749   6.010   7.043   6.442
 9935TIP3    H129750   5.935   7.013   6.493
 9935TIP3    H229751   6.023   7.134   6.468
 9936TIP3   OH229752   6.699   6.395   3.951
 9936TIP3    H129753   6.766   6.332   3.976
 9936TIP3    H229754   6.742   6.480   3.957
 9937TIP3   OH229755   4.793   5.016   1.287
 9937TIP3    H129756   4.797   4.932   1.332
 9937TIP3    H229757   4.851   5.073   1.338
 9938TIP3   OH229758   3.901   1.554   4.311
 9938TIP3    H129759   3.860   1.593   4.388
 9938TIP3    H229760   3.880   1.461   4.318
 9939TIP3   OH229761   6.363   4.780   5.903
 9939TIP3    H129762   6.432   4.846   5.912
 9939TIP3    H229763   6.293   4.824   5.857
 9940TIP3   OH229764   2.677   5.643   6.031
 9940TIP3    H129765   2.634   5.693   5.962
 9940TIP3    H229766   2.748   5.596   5.986
 9941TIP3   OH229767   2.379   2.425   5.090
 9941TIP3    H129768   2.385   2.404   5.184
 9941TIP3    H229769   2.312   2.493   5.085
 9942TIP3   OH229770   5.362   4.932   1.508
 9942TIP3    H129771   5.410   4.863   1.555
 9942TIP3    H229772   5.401   4.933   1.420
 9943TIP3   OH229773   8.039   3.573   4.864
 9943TIP3    H129774   8.120   3.532   4.834
 9943TIP3    H229775   8.024   3.535   4.951
 9944TIP3   OH229776   3.504   4.999   6.637
 9944TIP3    H129777   3.483   5.068   6.700
 9944TIP3    H229778   3.545   4.930   6.689
 9945TIP3   OH229779   1.478   1.202   5.921
 9945TIP3    H129780   1.391   1.213   5.881
 9945TIP3    H229781   1.475   1.254   6.001
 9946TIP3   OH229782   4.862   1.929   2.196
 9946TIP3    H129783   4.808   1.985   2.141
 9946TIP3    H229784   4.943   1.918   2.146
 9947TIP3   OH229785   6.670   0.066   3.936
 9947TIP3    H129786   6.647   0.159   3.928
 9947TIP3    H229787   6.592   0.026   3.974
 9948TIP3   OH229788   0.873   5.146   6.522
 9948TIP3    H129789   0.930   5.069   6.516
 9948TIP3    H229790   0.884   5.178   6.612
 9949TIP3   OH229791   2.243   3.566   2.493
 9949TIP3    H129792   2.262   3.599   2.405
 9949TIP3    H229793   2.154   3.594   2.511
 9950TIP3   OH229794   4.569   3.056   1.417
 9950TIP3    H129795   4.660   3.031   1.397
 9950TIP3    H229796   4.522   3.043   1.334
 9951TIP3   OH229797   7.251   3.202   5.623
 9951TIP3    H129798   7.156   3.195   5.629
 9951TIP3    H229799   7.269   3.294   5.642
 9952TIP3   OH229800   3.028   3.590   4.683
 9952TIP3    H129801   3.115   3.551   4.693
 9952TIP3    H229802   3.016   3.645   4.760
 9953TIP3   OH229803   1.086   4.671   3.078
 9953TIP3    H129804   1.054   4.760   3.067
 9953TIP3    H229805   1.181   4.679   3.078
 9954TIP3   OH229806   0.853   1.520   0.467
 9954TIP3    H129807   0.933   1.515   0.519
 9954TIP3    H229808   0.868   1.458   0.396
 9955TIP3   OH229809   4.934   1.871   5.647
 9955TIP3    H129810   4.896   1.942   5.596
 9955TIP3    H229811   5.018   1.854   5.606
 9956TIP3   OH229812   1.421   2.574   5.187
 9956TIP3    H129813   1.339   2.574   5.237
 9956TIP3    H229814   1.486   2.610   5.248
 9957TIP3   OH229815   6.649   4.961   4.400
 9957TIP3    H129816   6.720   4.903   4.373
 9957TIP3    H229817   6.662   5.040   4.349
 9958TIP3   OH229818   3.323   5.102   1.200
 9958TIP3    H129819   3.291   5.122   1.288
 9958TIP3    H229820   3.418   5.105   1.208
 9959TIP3   OH229821   0.308   2.452   1.850
 9959TIP3    H129822   0.212   2.449   1.849
 9959TIP3    H229823   0.333   2.384   1.913
 9960TIP3   OH229824   6.537   6.282   3.719
 9960TIP3    H129825   6.446   6.268   3.742
 9960TIP3    H229826   6.572   6.337   3.788
 9961TIP3   OH229827   5.880   3.382   5.548
 9961TIP3    H129828   5.903   3.466   5.590
 9961TIP3    H229829   5.963   3.349   5.514
 9962TIP3   OH229830   8.208   3.845   5.662
 9962TIP3    H129831   8.143   3.882   5.603
 9962TIP3    H229832   8.287   3.837   5.609
 9963TIP3   OH229833   5.739   5.848   0.087
 9963TIP3    H129834   5.804   5.824   0.153
 9963TIP3    H229835   5.671   5.781   0.095
 9964TIP3   OH229836   3.502   2.338   0.937
 9964TIP3    H129837   3.485   2.376   0.851
 9964TIP3    H229838   3.585   2.292   0.927
 9965TIP3   OH229839   6.306   0.463   5.691
 9965TIP3    H129840   6.299   0.435   5.782
 9965TIP3    H229841   6.399   0.456   5.671
 9966TIP3   OH229842   5.104   1.993   3.290
 9966TIP3    H129843   5.188   1.964   3.256
 9966TIP3    H229844   5.056   1.911   3.308
 9967TIP3   OH229845   8.273   5.168   5.894
 9967TIP3    H129846   8.363   5.202   5.898
 9967TIP3    H229847   8.268   5.125   5.809
 9968TIP3   OH229848   4.698   5.923   1.336
 9968TIP3    H129849   4.693   5.855   1.270
 9968TIP3    H229850   4.732   5.879   1.414
 9969TIP3   OH229851   4.770   6.324   2.403
 9969TIP3    H129852   4.775   6.377   2.483
 9969TIP3    H229853   4.860   6.321   2.371
 9970TIP3   OH229854   0.749   2.325   5.609
 9970TIP3    H129855   0.837   2.343   5.642
 9970TIP3    H229856   0.691   2.372   5.669
 9971TIP3   OH229857   0.434   0.648   0.777
 9971TIP3    H129858   0.413   0.686   0.863
 9971TIP3    H229859   0.499   0.581   0.796
 9972TIP3   OH229860   1.454   2.102   1.418
 9972TIP3    H129861   1.434   2.181   1.468
 9972TIP3    H229862   1.448   2.129   1.327
 9973TIP3   OH229863   5.638   7.322   2.260
 9973TIP3    H129864   5.638   7.410   2.223
 9973TIP3    H229865   5.633   7.335   2.355
 9974TIP3   OH229866   7.594   2.129   4.528
 9974TIP3    H129867   7.509   2.105   4.491
 9974TIP3    H229868   7.603   2.222   4.509
 9975TIP3   OH229869   7.078   1.825   5.523
 9975TIP3    H129870   7.047   1.909   5.556
 9975TIP3    H229871   7.073   1.766   5.598
 9976TIP3   OH229872   6.383   1.558   3.353
 9976TIP3    H129873   6.397   1.464   3.361
 9976TIP3    H229874   6.349   1.585   3.439
 9977TIP3   OH229875   2.209   5.888   3.330
 9977TIP3    H129876   2.175   5.975   3.311
 9977TIP3    H229877   2.227   5.889   3.425
 9978TIP3   OH229878   6.360   1.921   6.722
 9978TIP3    H129879   6.291   1.862   6.754
 9978TIP3    H229880   6.436   1.864   6.711
 9979TIP3   OH229881   3.344   2.552   5.520
 9979TIP3    H129882   3.267   2.608   5.510
 9979TIP3    H229883   3.330   2.481   5.457
 9980TIP3   OH229884   5.809   1.322   3.111
 9980TIP3    H129885   5.755   1.260   3.161
 9980TIP3    H229886   5.822   1.395   3.172
 9981TIP3   OH229887   8.277   0.480   5.272
 9981TIP3    H129888   8.238   0.552   5.322
 9981TIP3    H229889   8.221   0.405   5.291
 9982TIP3   OH229890   3.515   1.176   3.277
 9982TIP3    H129891   3.449   1.196   3.343
 9982TIP3    H229892   3.599   1.191   3.321
 9983TIP3   OH229893   0.666   2.310   2.086
 9983TIP3    H129894   0.678   2.216   2.099
 9983TIP3    H229895   0.685   2.325   1.994
 9984TIP3   OH229896   0.979   7.585   1.852
 9984TIP3    H129897   0.942   7.672   1.866
 9984TIP3    H229898   1.062   7.601   1.807
 9985TIP3   OH229899   6.405   7.232   2.616
 9985TIP3    H129900   6.476   7.263   2.672
 9985TIP3    H229901   6.446   7.224   2.530
 9986TIP3   OH229902   1.514   0.218   0.074
 9986TIP3    H129903   1.444   0.275   0.042
 9986TIP3    H229904   1.549   0.176  -0.005
 9987TIP3   OH229905   5.605   6.285   0.859
 9987TIP3    H129906   5.530   6.268   0.915
 9987TIP3    H229907   5.671   6.221   0.886
 9988TIP3   OH229908   0.542   1.155   5.263
 9988TIP3    H129909   0.504   1.070   5.287
 9988TIP3    H229910   0.466   1.210   5.244
 9989TIP3   OH229911   8.199   2.523   0.348
 9989TIP3    H129912   8.121   2.479   0.313
 9989TIP3    H229913   8.220   2.590   0.282
 9990TIP3   OH229914   4.480   0.828   5.569
 9990TIP3    H129915   4.568   0.861   5.581
 9990TIP3    H229916   4.487   0.734   5.586
 9991TIP3   OH229917   2.145   0.387   1.277
 9991TIP3    H129918   2.145   0.473   1.319
 9991TIP3    H229919   2.234   0.354   1.290
 9992TIP3   OH229920   2.607   6.552   4.139
 9992TIP3    H129921   2.611   6.638   4.180
 9992TIP3    H229922   2.526   6.552   4.088
 9993TIP3   OH229923   7.374   3.067   4.273
 9993TIP3    H129924   7.425   3.051   4.194
 9993TIP3    H229925   7.383   2.986   4.324
 9994TIP3   OH229926   1.470   4.241   2.713
 9994TIP3    H129927   1.407   4.169   2.719
 9994TIP3    H229928   1.547   4.210   2.761
 9995TIP3   OH229929   5.560   1.323   1.818
 9995TIP3    H129930   5.490   1.294   1.760
 9995TIP3    H229931   5.536   1.413   1.841
 9996TIP3   OH229932   1.618   7.107   1.102
 9996TIP3    H129933   1.632   7.013   1.115
 9996TIP3    H229934   1.582   7.138   1.185
 9997TIP3   OH229935   4.937   4.630   2.728
 9997TIP3    H129936   4.901   4.644   2.816
 9997TIP3    H229937   4.973   4.541   2.730
 9998TIP3   OH229938   5.803   6.797   0.581
 9998TIP3    H129939   5.734   6.813   0.645
 9998TIP3    H229940   5.769   6.727   0.525
 9999TIP3   OH229941   3.218   3.527   0.164
 9999TIP3    H129942   3.158   3.595   0.132
 9999TIP3    H229943   3.193   3.516   0.256
10000TIP3   OH229944   4.112   7.121   2.822
10000TIP3    H129945   4.092   7.028   2.829
10000TIP3    H229946   4.111   7.139   2.728
10001TIP3   OH229947   8.225   2.128   2.240
10001TIP3    H129948   8.203   2.102   2.329
10001TIP3    H229949   8.174   2.207   2.224
10002TIP3   OH229950   8.136   5.168   6.139
10002TIP3    H129951   8.176   5.163   6.052
10002TIP3    H229952   8.061   5.226   6.128
10003TIP3   OH229953   6.592   2.569   3.765
10003TIP3    H129954   6.519   2.577   3.826
10003TIP3    H229955   6.600   2.475   3.749
10004TIP3   OH229956   7.213   4.521   3.227
10004TIP3    H129957   7.294   4.553   3.267
10004TIP3    H229958   7.145   4.539   3.291
10005TIP3   OH229959   0.552   2.417   0.902
10005TIP3    H129960   0.584   2.359   0.833
10005TIP3    H229961   0.598   2.500   0.886
10006TIP3   OH229962   1.324   3.514   6.221
10006TIP3    H129963   1.256   3.520   6.153
10006TIP3    H229964   1.386   3.583   6.199
10007TIP3   OH229965   5.788   3.876   6.117
10007TIP3    H129966   5.808   3.893   6.026
10007TIP3    H229967   5.822   3.788   6.133
10008TIP3   OH229968   6.101   5.155   0.111
10008TIP3    H129969   6.047   5.098   0.056
10008TIP3    H229970   6.156   5.203   0.048
10009TIP3   OH229971   4.066   6.751   3.188
10009TIP3    H129972   4.065   6.658   3.213
10009TIP3    H229973   4.099   6.796   3.265
10010TIP3   OH229974   4.539   2.211   5.156
10010TIP3    H129975   4.565   2.300   5.178
10010TIP3    H229976   4.461   2.222   5.100
10011TIP3   OH229977   4.585   5.205   0.499
10011TIP3    H129978   4.535   5.139   0.548
10011TIP3    H229979   4.557   5.194   0.408
10012TIP3   OH229980   3.305   4.192   5.240
10012TIP3    H129981   3.210   4.183   5.232
10012TIP3    H229982   3.321   4.190   5.335
10013TIP3   OH229983   1.737   1.334   2.915
10013TIP3    H129984   1.745   1.427   2.934
10013TIP3    H229985   1.814   1.313   2.862
10014TIP3   OH229986   4.048   6.502   5.121
10014TIP3    H129987   4.031   6.412   5.092
10014TIP3    H229988   4.117   6.533   5.062
10015TIP3   OH229989   0.454   6.842   5.736
10015TIP3    H129990   0.366   6.804   5.738
10015TIP3    H229991   0.492   6.810   5.655
10016TIP3   OH229992   6.328   3.027   2.171
10016TIP3    H129993   6.311   3.062   2.084
10016TIP3    H229994   6.403   2.969   2.160
10017TIP3   OH229995   6.312   3.786   2.843
10017TIP3    H129996   6.250   3.739   2.787
10017TIP3    H229997   6.336   3.864   2.792
10018TIP3   OH229998   5.957   7.146   4.815
10018TIP3    H129999   6.017   7.186   4.878
10018TIP3    H230000   5.955   7.208   4.742
10019TIP3   OH230001   0.182   6.892   2.879
10019TIP3    H130002   0.182   6.798   2.862
10019TIP3    H230003   0.248   6.927   2.819
10020TIP3   OH230004   0.902   0.161   2.650
10020TIP3    H130005   0.853   0.079   2.641
10020TIP3    H230006   0.989   0.134   2.680
10021TIP3   OH230007   4.769   5.327   1.244
10021TIP3    H130008   4.798   5.417   1.265
10021TIP3    H230009   4.674   5.330   1.250
10022TIP3   OH230010   4.739   2.620   2.502
10022TIP3    H130011   4.758   2.687   2.568
10022TIP3    H230012   4.824   2.600   2.463
10023TIP3   OH230013   0.653   3.469   5.643
10023TIP3    H130014   0.573   3.433   5.683
10023TIP3    H230015   0.707   3.495   5.717
10024TIP3   OH230016   1.755   1.059   0.675
10024TIP3    H130017   1.790   0.994   0.614
10024TIP3    H230018   1.664   1.072   0.647
10025TIP3   OH230019   5.501   7.106   3.285
10025TIP3    H130020   5.572   7.157   3.246
10025TIP3    H230021   5.445   7.082   3.212
10026TIP3   OH230022   2.701   3.950   3.131
10026TIP3    H130023   2.659   3.892   3.195
10026TIP3    H230024   2.667   4.037   3.152
10027TIP3   OH230025   7.186   2.467   3.404
10027TIP3    H130026   7.163   2.503   3.490
10027TIP3    H230027   7.108   2.419   3.377
10028TIP3   OH230028   3.836   1.677   0.896
10028TIP3    H130029   3.855   1.648   0.807
10028TIP3    H230030   3.786   1.758   0.885
10029TIP3   OH230031   3.284   1.855   6.718
10029TIP3    H130032   3.202   1.899   6.694
10029TIP3    H230033   3.308   1.804   6.640
10030TIP3   OH230034   4.467   6.619   1.802
10030TIP3    H130035   4.406   6.680   1.760
10030TIP3    H230036   4.448   6.626   1.895
10031TIP3   OH230037   2.677   5.957   5.018
10031TIP3    H130038   2.586   5.986   5.015
10031TIP3    H230039   2.728   6.037   5.028
10032TIP3   OH230040   4.482   6.578   5.156
10032TIP3    H130041   4.412   6.548   5.098
10032TIP3    H230042   4.438   6.637   5.217
10033TIP3   OH230043   6.981   2.502   1.602
10033TIP3    H130044   6.925   2.575   1.630
10033TIP3    H230045   6.959   2.489   1.510
10034TIP3   OH230046   7.315   1.445   6.100
10034TIP3    H130047   7.310   1.539   6.120
10034TIP3    H230048   7.337   1.441   6.007
10035TIP3   OH230049   7.765   7.096   4.515
10035TIP3    H130050   7.728   7.109   4.428
10035TIP3    H230051   7.840   7.038   4.501
10036TIP3   OH230052   0.347   2.051   3.221
10036TIP3    H130053   0.327   2.109   3.295
10036TIP3    H230054   0.342   1.962   3.258
10037TIP3   OH230055   0.051   1.720   1.121
10037TIP3    H130056   0.110   1.672   1.063
10037TIP3    H230057   0.104   1.738   1.199
10038TIP3   OH230058   2.272   0.117   1.948
10038TIP3    H130059   2.228   0.034   1.929
10038TIP3    H230060   2.245   0.139   2.037
10039TIP3   OH230061   2.708   6.189   2.764
10039TIP3    H130062   2.728   6.121   2.699
10039TIP3    H230063   2.718   6.271   2.716
10040TIP3   OH230064   1.572   4.664   3.098
10040TIP3    H130065   1.649   4.688   3.150
10040TIP3    H230066   1.553   4.743   3.047
10041TIP3   OH230067   3.150   5.257   3.410
10041TIP3    H130068   3.246   5.256   3.411
10041TIP3    H230069   3.127   5.348   3.429
10042TIP3   OH230070   7.136   1.075   4.624
10042TIP3    H130071   7.139   0.980   4.633
10042TIP3    H230072   7.223   1.098   4.589
10043TIP3   OH230073   6.424   0.432   1.616
10043TIP3    H130074   6.420   0.473   1.702
10043TIP3    H230075   6.384   0.346   1.628
10044TIP3   OH230076   5.390   5.436   2.376
10044TIP3    H130077   5.420   5.351   2.408
10044TIP3    H230078   5.299   5.442   2.404
10045TIP3   OH230079   0.507   6.843   3.882
10045TIP3    H130080   0.554   6.909   3.934
10045TIP3    H230081   0.544   6.852   3.794
10046TIP3   OH230082   0.714   5.839   1.066
10046TIP3    H130083   0.729   5.919   1.117
10046TIP3    H230084   0.735   5.864   0.976
10047TIP3   OH230085   6.747   1.847   5.425
10047TIP3    H130086   6.825   1.863   5.371
10047TIP3    H230087   6.780   1.835   5.513
10048TIP3   OH230088   1.143   3.870   0.646
10048TIP3    H130089   1.222   3.866   0.700
10048TIP3    H230090   1.174   3.900   0.561
10049TIP3   OH230091   4.482   5.339   1.269
10049TIP3    H130092   4.455   5.426   1.241
10049TIP3    H230093   4.473   5.340   1.364
10050TIP3   OH230094   1.477   2.358   2.909
10050TIP3    H130095   1.449   2.435   2.959
10050TIP3    H230096   1.495   2.392   2.821
10051TIP3   OH230097   5.452   6.830   6.569
10051TIP3    H130098   5.464   6.809   6.661
10051TIP3    H230099   5.418   6.919   6.569
10052TIP3   OH230100   3.797   1.928   0.619
10052TIP3    H130101   3.730   1.895   0.678
10052TIP3    H230102   3.752   1.992   0.564
10053TIP3   OH230103   4.820   7.317   6.076
10053TIP3    H130104   4.801   7.293   5.985
10053TIP3    H230105   4.888   7.383   6.070
10054TIP3   OH230106   5.198   6.756   0.532
10054TIP3    H130107   5.279   6.757   0.482
10054TIP3    H230108   5.133   6.793   0.473
10055TIP3   OH230109   1.804   1.568   4.186
10055TIP3    H130110   1.737   1.614   4.237
10055TIP3    H230111   1.795   1.476   4.211
10056TIP3   OH230112   7.026   7.307   6.395
10056TIP3    H130113   7.110   7.279   6.430
10056TIP3    H230114   7.036   7.303   6.300
10057TIP3   OH230115   4.743   6.875   5.925
10057TIP3    H130116   4.701   6.806   5.873
10057TIP3    H230117   4.742   6.841   6.014
10058TIP3   OH230118   5.920   4.228   1.553
10058TIP3    H130119   5.997   4.208   1.499
10058TIP3    H230120   5.845   4.206   1.497
10059TIP3   OH230121   7.937   3.113   2.683
10059TIP3    H130122   7.921   3.160   2.765
10059TIP3    H230123   7.870   3.044   2.681
10060TIP3   OH230124   7.753   1.367   1.412
10060TIP3    H130125   7.789   1.281   1.391
10060TIP3    H230126   7.667   1.348   1.449
10061TIP3   OH230127   7.932   1.168   6.482
10061TIP3    H130128   7.872   1.103   6.447
10061TIP3    H230129   7.882   1.250   6.481
10062TIP3   OH230130   1.130   0.942   0.345
10062TIP3    H130131   1.186   0.875   0.384
10062TIP3    H230132   1.081   0.896   0.277
10063TIP3   OH230133   7.705   4.809   2.604
10063TIP3    H130134   7.701   4.869   2.679
10063TIP3    H230135   7.614   4.786   2.587
10064TIP3   OH230136   3.113   2.048   5.948
10064TIP3    H130137   3.083   1.977   6.003
10064TIP3    H230138   3.181   2.009   5.893
10065TIP3   OH230139   6.882   3.492   3.650
10065TIP3    H130140   6.829   3.536   3.716
10065TIP3    H230141   6.961   3.466   3.697
10066TIP3   OH230142   0.891   2.544   2.866
10066TIP3    H130143   0.865   2.611   2.803
10066TIP3    H230144   0.889   2.462   2.816
10067TIP3   OH230145   3.280   3.114   6.191
10067TIP3    H130146   3.268   3.111   6.096
10067TIP3    H230147   3.325   3.197   6.207
10068TIP3   OH230148   7.952   6.072   5.252
10068TIP3    H130149   8.040   6.072   5.290
10068TIP3    H230150   7.940   5.983   5.219
10069TIP3   OH230151   6.884   0.045   3.348
10069TIP3    H130152   6.917   0.028   3.260
10069TIP3    H230153   6.840   0.130   3.341
10070TIP3   OH230154   5.705   5.121   6.108
10070TIP3    H130155   5.758   5.194   6.079
10070TIP3    H230156   5.614   5.151   6.097
10071TIP3   OH230157   3.830   0.135   4.686
10071TIP3    H130158   3.778   0.067   4.644
10071TIP3    H230159   3.841   0.106   4.776
10072TIP3   OH230160   4.534   0.972   5.848
10072TIP3    H130161   4.471   1.005   5.913
10072TIP3    H230162   4.488   0.901   5.803
10073TIP3   OH230163   7.734   7.262   0.683
10073TIP3    H130164   7.812   7.229   0.727
10073TIP3    H230165   7.663   7.247   0.746
10074TIP3   OH230166   0.620   3.250   2.909
10074TIP3    H130167   0.658   3.308   2.842
10074TIP3    H230168   0.665   3.276   2.990
10075TIP3   OH230169   1.242   0.893   2.030
10075TIP3    H130170   1.288   0.879   1.947
10075TIP3    H230171   1.239   0.988   2.041
10076TIP3   OH230172   1.547   0.992   3.271
10076TIP3    H130173   1.493   1.062   3.235
10076TIP3    H230174   1.561   0.932   3.198
10077TIP3   OH230175   1.654   1.847   2.819
10077TIP3    H130176   1.666   1.897   2.900
10077TIP3    H230177   1.571   1.801   2.831
10078TIP3   OH230178   7.744   7.137   5.604
10078TIP3    H130179   7.739   7.180   5.519
10078TIP3    H230180   7.820   7.177   5.647
10079TIP3   OH230181   0.833   7.720   3.411
10079TIP3    H130182   0.780   7.722   3.490
10079TIP3    H230183   0.853   7.627   3.398
10080TIP3   OH230184   5.162   2.184   1.290
10080TIP3    H130185   5.123   2.110   1.336
10080TIP3    H230186   5.246   2.152   1.258
10081TIP3   OH230187   5.923   1.159   2.258
10081TIP3    H130188   5.930   1.247   2.295
10081TIP3    H230189   5.873   1.171   2.177
10082TIP3   OH230190   6.581   2.047   2.688
10082TIP3    H130191   6.573   2.012   2.777
10082TIP3    H230192   6.603   2.140   2.701
10083TIP3   OH230193   7.464   7.793   5.352
10083TIP3    H130194   7.386   7.774   5.405
10083TIP3    H230195   7.524   7.720   5.372
10084TIP3   OH230196   7.664   0.742   5.023
10084TIP3    H130197   7.628   0.823   4.986
10084TIP3    H230198   7.622   0.672   4.973
10085TIP3   OH230199   1.416   4.039   0.093
10085TIP3    H130200   1.338   4.076   0.052
10085TIP3    H230201   1.487   4.096   0.064
10086TIP3   OH230202   0.443   3.286   6.178
10086TIP3    H130203   0.357   3.326   6.191
10086TIP3    H230204   0.439   3.203   6.227
10087TIP3   OH230205   5.748   2.810   4.416
10087TIP3    H130206   5.703   2.800   4.500
10087TIP3    H230207   5.678   2.837   4.356
10088TIP3   OH230208   7.363   1.203   4.562
10088TIP3    H130209   7.422   1.221   4.635
10088TIP3    H230210   7.413   1.230   4.484
10089TIP3   OH230211   4.594   6.016   0.809
10089TIP3    H130212   4.551   6.064   0.739
10089TIP3    H230213   4.584   5.924   0.785
10090TIP3   OH230214   0.743   1.830   3.864
10090TIP3    H130215   0.701   1.914   3.845
10090TIP3    H230216   0.747   1.786   3.779
10091TIP3   OH230217   2.692   1.669   6.043
10091TIP3    H130218   2.603   1.658   6.009
10091TIP3    H230219   2.735   1.586   6.025
10092TIP3   OH230220   8.252   7.807   1.460
10092TIP3    H130221   8.287   7.890   1.428
10092TIP3    H230222   8.168   7.798   1.415
10093TIP3   OH230223   4.732   2.783   5.436
10093TIP3    H130224   4.737   2.847   5.507
10093TIP3    H230225   4.701   2.703   5.478
10094TIP3   OH230226   5.528   6.701   1.880
10094TIP3    H130227   5.477   6.706   1.799
10094TIP3    H230228   5.464   6.675   1.947
10095TIP3   OH230229   4.116   2.987   1.296
10095TIP3    H130230   4.157   2.964   1.212
10095TIP3    H230231   4.169   3.060   1.329
10096TIP3   OH230232   3.134   0.155   4.106
10096TIP3    H130233   3.148   0.211   4.030
10096TIP3    H230234   3.182   0.199   4.177
10097TIP3   OH230235   1.573   1.883   5.409
10097TIP3    H130236   1.582   1.789   5.394
10097TIP3    H230237   1.490   1.892   5.456
10098TIP3   OH230238   7.442   0.728   4.465
10098TIP3    H130239   7.392   0.668   4.409
10098TIP3    H230240   7.494   0.779   4.404
10099TIP3   OH230241   1.711   4.367   5.012
10099TIP3    H130242   1.655   4.291   4.996
10099TIP3    H230243   1.696   4.425   4.937
10100TIP3   OH230244   4.249   5.118   3.723
10100TIP3    H130245   4.314   5.169   3.673
10100TIP3    H230246   4.288   5.031   3.732
10101TIP3   OH230247   1.967   1.697   5.724
10101TIP3    H130248   1.887   1.699   5.670
10101TIP3    H230249   2.014   1.776   5.698
10102TIP3   OH230250   4.817   7.144   5.072
10102TIP3    H130251   4.846   7.236   5.065
10102TIP3    H230252   4.821   7.112   4.982
10103TIP3   OH230253   0.491   3.311   4.147
10103TIP3    H130254   0.446   3.227   4.159
10103TIP3    H230255   0.575   3.300   4.192
10104TIP3   OH230256   6.922   5.822   4.174
10104TIP3    H130257   6.866   5.861   4.107
10104TIP3    H230258   6.989   5.889   4.190
10105TIP3   OH230259   0.110   3.877   3.886
10105TIP3    H130260   0.192   3.888   3.839
10105TIP3    H230261   0.045   3.858   3.818
10106TIP3   OH230262   0.383   7.353   1.793
10106TIP3    H130263   0.368   7.358   1.699
10106TIP3    H230264   0.363   7.262   1.816
10107TIP3   OH230265   3.474   4.715   2.058
10107TIP3    H130266   3.470   4.619   2.058
10107TIP3    H230267   3.395   4.743   2.013
10108TIP3   OH230268   5.886   1.463   4.254
10108TIP3    H130269   5.907   1.423   4.338
10108TIP3    H230270   5.927   1.406   4.189
10109TIP3   OH230271   3.559   5.004   3.551
10109TIP3    H130272   3.565   4.985   3.645
10109TIP3    H230273   3.642   5.045   3.530
10110TIP3   OH230274   6.418   5.314   4.264
10110TIP3    H130275   6.342   5.275   4.307
10110TIP3    H230276   6.383   5.389   4.216
10111TIP3   OH230277   6.182   0.976   0.056
10111TIP3    H130278   6.102   0.941   0.096
10111TIP3    H230279   6.244   0.982   0.129
10112TIP3   OH230280   6.324   2.411   3.553
10112TIP3    H130281   6.405   2.361   3.564
10112TIP3    H230282   6.353   2.498   3.528
10113TIP3   OH230283   2.303   3.198   5.302
10113TIP3    H130284   2.296   3.292   5.320
10113TIP3    H230285   2.378   3.170   5.355
10114TIP3   OH230286   7.359   3.467   1.627
10114TIP3    H130287   7.313   3.463   1.543
10114TIP3    H230288   7.296   3.509   1.686
10115TIP3   OH230289   7.361   3.887   3.942
10115TIP3    H130290   7.404   3.865   4.025
10115TIP3    H230291   7.291   3.822   3.933
10116TIP3   OH230292   2.584   5.258   5.687
10116TIP3    H130293   2.531   5.179   5.694
10116TIP3    H230294   2.537   5.313   5.624
10117TIP3   OH230295   5.189   5.574   6.140
10117TIP3    H130296   5.119   5.585   6.076
10117TIP3    H230297   5.160   5.503   6.197
10118TIP3   OH230298   4.223   6.042   2.059
10118TIP3    H130299   4.216   6.128   2.018
10118TIP3    H230300   4.304   6.046   2.111
10119TIP3   OH230301   6.804   5.471   4.037
10119TIP3    H130302   6.774   5.534   3.972
10119TIP3    H230303   6.808   5.521   4.119
10120TIP3   OH230304   3.824   5.534   0.974
10120TIP3    H130305   3.777   5.458   0.942
10120TIP3    H230306   3.831   5.520   1.069
10121TIP3   OH230307   4.251   4.833   6.433
10121TIP3    H130308   4.157   4.815   6.433
10121TIP3    H230309   4.270   4.860   6.523
10122TIP3   OH230310   2.189   0.280   5.542
10122TIP3    H130311   2.169   0.250   5.453
10122TIP3    H230312   2.117   0.340   5.564
10123TIP3   OH230313   1.213   2.730   6.715
10123TIP3    H130314   1.280   2.697   6.775
10123TIP3    H230315   1.143   2.761   6.773
10124TIP3   OH230316   1.694   6.976   6.078
10124TIP3    H130317   1.759   7.019   6.022
10124TIP3    H230318   1.679   7.038   6.149
10125TIP3   OH230319   3.172   2.400   1.498
10125TIP3    H130320   3.157   2.480   1.448
10125TIP3    H230321   3.199   2.431   1.584
10126TIP3   OH230322   2.085   6.983   2.036
10126TIP3    H130323   2.157   6.924   2.060
10126TIP3    H230324   2.006   6.935   2.058
10127TIP3   OH230325   6.710   1.878   6.396
10127TIP3    H130326   6.630   1.902   6.444
10127TIP3    H230327   6.747   1.961   6.368
10128TIP3   OH230328   6.982   0.507   5.604
10128TIP3    H130329   6.930   0.564   5.661
10128TIP3    H230330   6.991   0.556   5.523
10129TIP3   OH230331   5.672   4.977   1.867
10129TIP3    H130332   5.651   5.038   1.938
10129TIP3    H230333   5.720   5.029   1.803
10130TIP3   OH230334   6.882   1.269   1.102
10130TIP3    H130335   6.883   1.272   1.198
10130TIP3    H230336   6.798   1.228   1.080
10131TIP3   OH230337   1.205   2.114   1.611
10131TIP3    H130338   1.147   2.097   1.537
10131TIP3    H230339   1.206   2.209   1.620
10132TIP3   OH230340   6.804   2.981   4.949
10132TIP3    H130341   6.862   2.984   4.873
10132TIP3    H230342   6.731   3.038   4.927
10133TIP3   OH230343   0.781   6.106   1.810
10133TIP3    H130344   0.770   6.073   1.899
10133TIP3    H230345   0.827   6.036   1.764
10134TIP3   OH230346   2.186   0.570   2.448
10134TIP3    H130347   2.174   0.617   2.365
10134TIP3    H230348   2.217   0.637   2.509
10135TIP3   OH230349   5.500   1.112   4.640
10135TIP3    H130350   5.410   1.103   4.671
10135TIP3    H230351   5.554   1.103   4.719
10136TIP3   OH230352   6.034   0.236   0.661
10136TIP3    H130353   6.015   0.318   0.707
10136TIP3    H230354   5.948   0.201   0.638
10137TIP3   OH230355   3.656   6.947   1.645
10137TIP3    H130356   3.719   6.883   1.611
10137TIP3    H230357   3.669   6.945   1.740
10138TIP3   OH230358   1.934   2.183   1.776
10138TIP3    H130359   1.943   2.089   1.789
10138TIP3    H230360   1.981   2.222   1.850
10139TIP3   OH230361   2.981   6.002   6.464
10139TIP3    H130362   2.888   5.991   6.443
10139TIP3    H230363   3.002   5.926   6.518
10140TIP3   OH230364   6.649   6.894   6.530
10140TIP3    H130365   6.713   6.846   6.583
10140TIP3    H230366   6.624   6.832   6.461
10141TIP3   OH230367   2.619   5.079   6.324
10141TIP3    H130368   2.657   4.999   6.288
10141TIP3    H230369   2.668   5.094   6.405
10142TIP3   OH230370   6.565   3.169   2.081
10142TIP3    H130371   6.527   3.227   2.148
10142TIP3    H230372   6.604   3.229   2.018
10143TIP3   OH230373   0.102   7.516   5.589
10143TIP3    H130374   0.050   7.466   5.651
10143TIP3    H230375   0.074   7.607   5.601
10144TIP3   OH230376   3.030   3.718   3.380
10144TIP3    H130377   2.942   3.710   3.416
10144TIP3    H230378   3.064   3.799   3.418
10145TIP3   OH230379   1.612   7.601   2.075
10145TIP3    H130380   1.558   7.612   1.998
10145TIP3    H230381   1.550   7.584   2.146
10146TIP3   OH230382   4.875   7.014   5.330
10146TIP3    H130383   4.888   7.070   5.253
10146TIP3    H230384   4.795   7.047   5.370
10147TIP3   OH230385   1.194   1.932   5.251
10147TIP3    H130386   1.273   1.973   5.286
10147TIP3    H230387   1.155   1.997   5.193
10148TIP3   OH230388   4.627   7.696   0.347
10148TIP3    H130389   4.552   7.754   0.358
10148TIP3    H230390   4.693   7.732   0.407
10149TIP3   OH230391   5.718   3.114   6.723
10149TIP3    H130392   5.786   3.179   6.739
10149TIP3    H230393   5.646   3.140   6.780
10150TIP3   OH230394   2.534   2.618   4.615
10150TIP3    H130395   2.550   2.551   4.548
10150TIP3    H230396   2.463   2.581   4.668
10151TIP3   OH230397   0.838   6.901   1.508
10151TIP3    H130398   0.793   6.862   1.582
10151TIP3    H230399   0.896   6.832   1.475
10152TIP3   OH230400   3.423   5.730   2.426
10152TIP3    H130401   3.404   5.638   2.406
10152TIP3    H230402   3.340   5.776   2.413
10153TIP3   OH230403   6.349   7.601   5.077
10153TIP3    H130404   6.342   7.598   4.982
10153TIP3    H230405   6.428   7.551   5.098
10154TIP3   OH230406   5.002   4.203   0.328
10154TIP3    H130407   4.960   4.127   0.369
10154TIP3    H230408   4.982   4.276   0.387
10155TIP3   OH230409   5.891   1.528   3.379
10155TIP3    H130410   5.800   1.530   3.410
10155TIP3    H230411   5.943   1.529   3.459
10156TIP3   OH230412   3.658   5.514   0.314
10156TIP3    H130413   3.682   5.606   0.323
10156TIP3    H230414   3.735   5.466   0.345
10157TIP3   OH230415   6.003   1.212   3.480
10157TIP3    H130416   5.909   1.230   3.471
10157TIP3    H230417   6.041   1.298   3.501
10158TIP3   OH230418   7.164   1.811   0.699
10158TIP3    H130419   7.256   1.786   0.689
10158TIP3    H230420   7.122   1.733   0.736
10159TIP3   OH230421   5.882   2.652   0.763
10159TIP3    H130422   5.894   2.642   0.668
10159TIP3    H230423   5.794   2.690   0.772
10160TIP3   OH230424   0.978   5.300   1.545
10160TIP3    H130425   0.984   5.280   1.451
10160TIP3    H230426   1.038   5.374   1.557
10161TIP3   OH230427   4.490   6.619   6.164
10161TIP3    H130428   4.475   6.527   6.182
10161TIP3    H230429   4.407   6.650   6.127
10162TIP3   OH230430   6.073   1.237   1.851
10162TIP3    H130431   6.077   1.143   1.873
10162TIP3    H230432   6.000   1.244   1.790
10163TIP3   OH230433   2.904   6.937   0.701
10163TIP3    H130434   2.888   7.015   0.754
10163TIP3    H230435   2.999   6.932   0.693
10164TIP3   OH230436   6.673   4.271   1.745
10164TIP3    H130437   6.606   4.336   1.767
10164TIP3    H230438   6.731   4.316   1.684
10165TIP3   OH230439   5.407   3.543   5.187
10165TIP3    H130440   5.406   3.635   5.162
10165TIP3    H230441   5.314   3.518   5.190
10166TIP3   OH230442   5.562   6.257   5.336
10166TIP3    H130443   5.518   6.333   5.375
10166TIP3    H230444   5.490   6.199   5.310
10167TIP3   OH230445   1.980   1.469   6.672
10167TIP3    H130446   1.970   1.398   6.735
10167TIP3    H230447   2.003   1.545   6.726
10168TIP3   OH230448   4.656   0.568   4.726
10168TIP3    H130449   4.655   0.611   4.811
10168TIP3    H230450   4.592   0.497   4.734
10169TIP3   OH230451   1.385   1.438   6.341
10169TIP3    H130452   1.330   1.464   6.415
10169TIP3    H230453   1.334   1.464   6.264
10170TIP3   OH230454   0.080   0.865   5.145
10170TIP3    H130455   0.127   0.875   5.228
10170TIP3    H230456  -0.013   0.873   5.169
10171TIP3   OH230457   0.751   5.464   1.727
10171TIP3    H130458   0.806   5.535   1.763
10171TIP3    H230459   0.664   5.481   1.762
10172TIP3   OH230460   4.552   6.739   0.235
10172TIP3    H130461   4.612   6.726   0.162
10172TIP3    H230462   4.606   6.774   0.305
10173TIP3   OH230463   0.220   3.029   1.205
10173TIP3    H130464   0.143   3.047   1.259
10173TIP3    H230465   0.207   2.940   1.173
10174TIP3   OH230466   3.005   2.466   1.221
10174TIP3    H130467   3.026   2.534   1.284
10174TIP3    H230468   3.078   2.405   1.226
10175TIP3   OH230469   5.618   4.767   1.011
10175TIP3    H130470   5.569   4.841   1.046
10175TIP3    H230471   5.634   4.790   0.919
10176TIP3   OH230472   0.336   2.932   3.029
10176TIP3    H130473   0.317   2.865   2.963
10176TIP3    H230474   0.300   2.897   3.110
10177TIP3   OH230475   5.162   0.059   4.197
10177TIP3    H130476   5.209   0.123   4.250
10177TIP3    H230477   5.086   0.106   4.163
10178TIP3   OH230478   4.493   0.679   2.630
10178TIP3    H130479   4.576   0.641   2.659
10178TIP3    H230480   4.440   0.603   2.603
10179TIP3   OH230481   4.667   4.917   2.795
10179TIP3    H130482   4.592   4.864   2.822
10179TIP3    H230483   4.653   5.002   2.837
10180TIP3   OH230484   6.460   3.209   3.496
10180TIP3    H130485   6.511   3.277   3.451
10180TIP3    H230486   6.394   3.183   3.432
10181TIP3   OH230487   4.492   2.638   1.414
10181TIP3    H130488   4.414   2.663   1.365
10181TIP3    H230489   4.562   2.640   1.349
10182TIP3   OH230490   5.965   7.151   1.865
10182TIP3    H130491   6.061   7.145   1.868
10182TIP3    H230492   5.939   7.090   1.796
10183TIP3   OH230493   0.598   2.165   1.807
10183TIP3    H130494   0.659   2.154   1.734
10183TIP3    H230495   0.603   2.258   1.829
10184TIP3   OH230496   5.808   0.232   1.679
10184TIP3    H130497   5.807   0.327   1.668
10184TIP3    H230498   5.895   0.214   1.716
10185TIP3   OH230499   7.059   2.991   0.261
10185TIP3    H130500   7.074   3.041   0.342
10185TIP3    H230501   7.013   2.912   0.290
10186TIP3   OH230502   4.238   2.116   1.416
10186TIP3    H130503   4.183   2.187   1.449
10186TIP3    H230504   4.316   2.159   1.382
10187TIP3   OH230505   3.537   5.638   0.097
10187TIP3    H130506   3.485   5.705   0.142
10187TIP3    H230507   3.551   5.570   0.164
10188TIP3   OH230508   7.672   6.264   0.732
10188TIP3    H130509   7.601   6.258   0.796
10188TIP3    H230510   7.733   6.328   0.769
10189TIP3   OH230511   7.271   4.459   0.554
10189TIP3    H130512   7.348   4.411   0.527
10189TIP3    H230513   7.286   4.480   0.646
10190TIP3   OH230514   0.571   2.463   5.738
10190TIP3    H130515   0.481   2.430   5.733
10190TIP3    H230516   0.570   2.525   5.811
10191TIP3   OH230517   4.873   1.580   2.253
10191TIP3    H130518   4.787   1.617   2.235
10191TIP3    H230519   4.925   1.655   2.282
10192TIP3   OH230520   1.953   6.867   3.039
10192TIP3    H130521   1.864   6.852   3.069
10192TIP3    H230522   1.980   6.948   3.082
10193TIP3   OH230523   8.178   6.201   0.948
10193TIP3    H130524   8.218   6.128   0.902
10193TIP3    H230525   8.102   6.164   0.992
10194TIP3   OH230526   0.105   1.041   6.344
10194TIP3    H130527   0.172   1.043   6.413
10194TIP3    H230528   0.041   0.977   6.375
10195TIP3   OH230529   6.258   2.794   3.162
10195TIP3    H130530   6.263   2.715   3.107
10195TIP3    H230531   6.179   2.782   3.214
10196TIP3   OH230532   0.714   7.094   2.534
10196TIP3    H130533   0.703   7.021   2.596
10196TIP3    H230534   0.730   7.051   2.450
10197TIP3   OH230535   2.930   0.499   0.306
10197TIP3    H130536   3.009   0.445   0.300
10197TIP3    H230537   2.881   0.461   0.380
10198TIP3   OH230538   2.874   1.458   5.708
10198TIP3    H130539   2.793   1.480   5.661
10198TIP3    H230540   2.852   1.470   5.800
10199TIP3   OH230541   1.580   2.530   4.578
10199TIP3    H130542   1.549   2.563   4.662
10199TIP3    H230543   1.621   2.606   4.535
10200TIP3   OH230544   8.210   4.011   6.664
10200TIP3    H130545   8.248   3.923   6.663
10200TIP3    H230546   8.258   4.057   6.732
10201TIP3   OH230547   1.575   1.805   0.955
10201TIP3    H130548   1.656   1.754   0.955
10201TIP3    H230549   1.533   1.785   0.871
10202TIP3   OH230550   6.207   4.378   3.340
10202TIP3    H130551   6.185   4.371   3.247
10202TIP3    H230552   6.298   4.351   3.345
10203TIP3   OH230553   3.815   4.118   5.760
10203TIP3    H130554   3.719   4.121   5.767
10203TIP3    H230555   3.838   4.199   5.715
10204TIP3   OH230556   2.570   1.511   5.599
10204TIP3    H130557   2.486   1.513   5.554
10204TIP3    H230558   2.551   1.473   5.685
10205TIP3   OH230559   7.115   7.094   1.620
10205TIP3    H130560   7.060   7.166   1.591
10205TIP3    H230561   7.058   7.041   1.676
10206TIP3   OH230562   7.291   6.514   4.272
10206TIP3    H130563   7.352   6.484   4.339
10206TIP3    H230564   7.206   6.479   4.300
10207TIP3   OH230565   2.379   1.761   5.469
10207TIP3    H130566   2.374   1.667   5.451
10207TIP3    H230567   2.406   1.767   5.560
10208TIP3   OH230568   1.765   7.125   3.760
10208TIP3    H130569   1.730   7.150   3.845
10208TIP3    H230570   1.693   7.078   3.717
10209TIP3   OH230571   2.822   6.452   4.311
10209TIP3    H130572   2.822   6.358   4.331
10209TIP3    H230573   2.745   6.464   4.255
10210TIP3   OH230574   1.825   0.239   2.343
10210TIP3    H130575   1.732   0.261   2.348
10210TIP3    H230576   1.831   0.178   2.269
10211TIP3   OH230577   5.681   0.444   4.725
10211TIP3    H130578   5.610   0.465   4.664
10211TIP3    H230579   5.753   0.415   4.670
10212TIP3   OH230580   2.272   6.536   4.096
10212TIP3    H130581   2.327   6.523   4.018
10212TIP3    H230582   2.183   6.518   4.065
10213TIP3   OH230583   3.021   1.835   2.592
10213TIP3    H130584   3.077   1.759   2.578
10213TIP3    H230585   3.042   1.866   2.680
10214TIP3   OH230586   6.131   2.757   5.504
10214TIP3    H130587   6.138   2.672   5.461
10214TIP3    H230588   6.047   2.792   5.475
10215TIP3   OH230589   6.112   3.388   0.560
10215TIP3    H130590   6.085   3.328   0.491
10215TIP3    H230591   6.186   3.344   0.602
10216TIP3   OH230592   6.596   1.229   5.432
10216TIP3    H130593   6.532   1.297   5.455
10216TIP3    H230594   6.635   1.204   5.516
10217TIP3   OH230595   6.708   1.153   3.880
10217TIP3    H130596   6.697   1.247   3.890
10217TIP3    H230597   6.732   1.142   3.788
10218TIP3   OH230598   1.210   2.436   0.495
10218TIP3    H130599   1.305   2.438   0.493
10218TIP3    H230600   1.186   2.361   0.441
10219TIP3   OH230601   0.399   6.307   5.531
10219TIP3    H130602   0.457   6.344   5.598
10219TIP3    H230603   0.351   6.383   5.497
10220TIP3   OH230604   5.545   6.356   0.595
10220TIP3    H130605   5.530   6.287   0.530
10220TIP3    H230606   5.574   6.310   0.673
10221TIP3   OH230607   8.079   5.261   5.356
10221TIP3    H130608   8.164   5.253   5.401
10221TIP3    H230609   8.062   5.174   5.321
10222TIP3   OH230610   4.078   7.222   1.220
10222TIP3    H130611   3.987   7.250   1.218
10222TIP3    H230612   4.099   7.200   1.130
10223TIP3   OH230613   6.385   0.949   4.447
10223TIP3    H130614   6.477   0.964   4.469
10223TIP3    H230615   6.363   0.868   4.494
10224TIP3   OH230616   5.132   2.848   6.771
10224TIP3    H130617   5.058   2.888   6.818
10224TIP3    H230618   5.175   2.922   6.728
10225TIP3   OH230619   7.354   7.110   3.871
10225TIP3    H130620   7.288   7.087   3.806
10225TIP3    H230621   7.387   7.026   3.903
10226TIP3   OH230622   8.086   7.238   1.408
10226TIP3    H130623   8.064   7.279   1.492
10226TIP3    H230624   8.003   7.236   1.360
10227TIP3   OH230625   5.298   4.737   6.383
10227TIP3    H130626   5.208   4.754   6.357
10227TIP3    H230627   5.315   4.799   6.455
10228TIP3   OH230628   7.201   1.189   3.537
10228TIP3    H130629   7.209   1.190   3.633
10228TIP3    H230630   7.243   1.270   3.509
10229TIP3   OH230631   1.425   5.480   3.416
10229TIP3    H130632   1.493   5.524   3.467
10229TIP3    H230633   1.447   5.499   3.325
10230TIP3   OH230634   3.139   1.452   1.365
10230TIP3    H130635   3.116   1.411   1.448
10230TIP3    H230636   3.224   1.415   1.341
10231TIP3   OH230637   3.841   3.304   4.039
10231TIP3    H130638   3.837   3.269   4.128
10231TIP3    H230639   3.818   3.231   3.982
10232TIP3   OH230640   1.489   2.106   0.420
10232TIP3    H130641   1.460   2.191   0.387
10232TIP3    H230642   1.517   2.122   0.510
10233TIP3   OH230643   2.732   6.003   2.583
10233TIP3    H130644   2.764   5.988   2.494
10233TIP3    H230645   2.741   5.918   2.627
10234TIP3   OH230646   0.036   7.178   1.093
10234TIP3    H130647   0.088   7.255   1.072
10234TIP3    H230648   0.077   7.142   1.171
10235TIP3   OH230649   1.387   6.980   6.698
10235TIP3    H130650   1.304   7.003   6.657
10235TIP3    H230651   1.404   6.891   6.670
10236TIP3   OH230652   6.833   7.637   2.820
10236TIP3    H130653   6.853   7.691   2.743
10236TIP3    H230654   6.875   7.683   2.892
10237TIP3   OH230655   6.470   1.482   1.368
10237TIP3    H130656   6.385   1.438   1.374
10237TIP3    H230657   6.504   1.459   1.282
10238TIP3   OH230658   4.765   7.397   2.888
10238TIP3    H130659   4.767   7.423   2.980
10238TIP3    H230660   4.783   7.303   2.890
10239TIP3   OH230661   4.243   4.597   2.322
10239TIP3    H130662   4.201   4.632   2.244
10239TIP3    H230663   4.291   4.521   2.292
10240TIP3   OH230664   7.409   5.689   5.329
10240TIP3    H130665   7.390   5.600   5.360
10240TIP3    H230666   7.402   5.744   5.407
10241TIP3   OH230667   0.620   3.898   3.580
10241TIP3    H130668   0.669   3.923   3.659
10241TIP3    H230669   0.640   3.805   3.568
10242TIP3   OH230670   3.467   1.622   1.040
10242TIP3    H130671   3.411   1.562   0.991
10242TIP3    H230672   3.548   1.573   1.054
10243TIP3   OH230673   6.103   0.624   2.657
10243TIP3    H130674   6.104   0.710   2.614
10243TIP3    H230675   6.149   0.566   2.597
10244TIP3   OH230676   2.236   3.730   6.451
10244TIP3    H130677   2.202   3.668   6.387
10244TIP3    H230678   2.328   3.741   6.428
10245TIP3   OH230679   6.574   2.003   3.489
10245TIP3    H130680   6.506   1.971   3.549
10245TIP3    H230681   6.528   2.066   3.433
10246TIP3   OH230682   5.560   2.472   4.544
10246TIP3    H130683   5.481   2.426   4.572
10246TIP3    H230684   5.593   2.515   4.623
10247TIP3   OH230685   4.231   2.641   1.311
10247TIP3    H130686   4.208   2.560   1.266
10247TIP3    H230687   4.146   2.676   1.339
10248TIP3   OH230688   2.162   5.664   5.531
10248TIP3    H130689   2.202   5.711   5.605
10248TIP3    H230690   2.178   5.571   5.551
10249TIP3   OH230691   4.776   0.251   6.774
10249TIP3    H130692   4.751   0.343   6.781
10249TIP3    H230693   4.713   0.214   6.711
10250TIP3   OH230694   2.273   3.369   3.588
10250TIP3    H130695   2.306   3.313   3.658
10250TIP3    H230696   2.185   3.392   3.616
10251TIP3   OH230697   1.018   0.276   0.107
10251TIP3    H130698   0.927   0.266   0.135
10251TIP3    H230699   1.013   0.323   0.024
10252TIP3   OH230700   5.378   5.196   3.558
10252TIP3    H130701   5.428   5.203   3.476
10252TIP3    H230702   5.373   5.102   3.574
10253TIP3   OH230703   2.689   2.034   3.282
10253TIP3    H130704   2.634   1.965   3.321
10253TIP3    H230705   2.760   2.046   3.345
10254TIP3   OH230706   1.189   0.241   1.156
10254TIP3    H130707   1.276   0.272   1.129
10254TIP3    H230708   1.205   0.195   1.238
10255TIP3   OH230709   2.825   1.073   4.074
10255TIP3    H130710   2.744   1.104   4.031
10255TIP3    H230711   2.797   0.998   4.127
10256TIP3   OH230712   3.531   3.250   6.318
10256TIP3    H130713   3.463   3.305   6.355
10256TIP3    H230714   3.549   3.287   6.232
10257TIP3   OH230715   4.034   3.963   4.726
10257TIP3    H130716   4.030   4.002   4.639
10257TIP3    H230717   3.958   3.904   4.730
10258TIP3   OH230718   0.739   5.426   6.398
10258TIP3    H130719   0.697   5.407   6.482
10258TIP3    H230720   0.761   5.519   6.402
10259TIP3   OH230721   7.886   3.350   3.512
10259TIP3    H130722   7.854   3.272   3.466
10259TIP3    H230723   7.892   3.417   3.444
10260TIP3   OH230724   6.867   6.185   4.029
10260TIP3    H130725   6.929   6.167   4.100
10260TIP3    H230726   6.920   6.178   3.949
10261TIP3   OH230727   4.769   6.118   1.569
10261TIP3    H130728   4.725   6.114   1.484
10261TIP3    H230729   4.698   6.114   1.633
10262TIP3   OH230730   3.366   4.736   3.870
10262TIP3    H130731   3.415   4.788   3.934
10262TIP3    H230732   3.359   4.649   3.910
10263TIP3   OH230733   8.186   3.029   3.151
10263TIP3    H130734   8.269   3.062   3.116
10263TIP3    H230735   8.201   2.935   3.163
10264TIP3   OH230736   0.470   2.867   5.211
10264TIP3    H130737   0.398   2.904   5.158
10264TIP3    H230738   0.507   2.943   5.256
10265TIP3   OH230739   7.723   1.929   4.385
10265TIP3    H130740   7.814   1.921   4.415
10265TIP3    H230741   7.685   1.997   4.442
10266TIP3   OH230742   8.272   5.088   0.501
10266TIP3    H130743   8.198   5.027   0.503
10266TIP3    H230744   8.236   5.168   0.463
10267TIP3   OH230745   2.462   3.987   2.838
10267TIP3    H130746   2.461   4.033   2.922
10267TIP3    H230747   2.488   3.897   2.861
10268TIP3   OH230748   1.680   6.162   1.177
10268TIP3    H130749   1.715   6.251   1.180
10268TIP3    H230750   1.648   6.152   1.087
10269TIP3   OH230751   3.553   7.347   0.147
10269TIP3    H130752   3.602   7.288   0.204
10269TIP3    H230753   3.616   7.376   0.081
10270TIP3   OH230754   5.893   1.245   4.080
10270TIP3    H130755   5.852   1.161   4.102
10270TIP3    H230756   5.837   1.281   4.012
10271TIP3   OH230757   3.206   0.961   5.746
10271TIP3    H130758   3.155   1.026   5.698
10271TIP3    H230759   3.236   0.900   5.678
10272TIP3   OH230760   1.037   7.708   0.669
10272TIP3    H130761   1.058   7.664   0.587
10272TIP3    H230762   0.947   7.739   0.656
10273TIP3   OH230763   6.397   2.836   0.989
10273TIP3    H130764   6.322   2.867   1.039
10273TIP3    H230765   6.442   2.916   0.960
10274TIP3   OH230766   5.104   1.937   2.080
10274TIP3    H130767   5.172   1.913   2.017
10274TIP3    H230768   5.150   1.948   2.163
10275TIP3   OH230769   7.129   0.399   2.724
10275TIP3    H130770   7.120   0.462   2.796
10275TIP3    H230771   7.156   0.452   2.649
10276TIP3   OH230772   5.977   4.962   3.692
10276TIP3    H130773   5.928   5.037   3.725
10276TIP3    H230774   5.916   4.919   3.632
10277TIP3   OH230775   6.800   7.177   3.256
10277TIP3    H130776   6.811   7.186   3.351
10277TIP3    H230777   6.877   7.220   3.219
10278TIP3   OH230778   5.524   2.972   3.407
10278TIP3    H130779   5.524   2.983   3.312
10278TIP3    H230780   5.521   3.062   3.441
10279TIP3   OH230781   2.048   1.486   2.954
10279TIP3    H130782   2.137   1.451   2.956
10279TIP3    H230783   2.057   1.575   2.920
10280TIP3   OH230784   2.883   0.595   1.385
10280TIP3    H130785   2.811   0.583   1.447
10280TIP3    H230786   2.845   0.645   1.313
10281TIP3   OH230787   6.063   6.521   0.329
10281TIP3    H130788   6.008   6.456   0.285
10281TIP3    H230789   6.099   6.574   0.258
10282TIP3   OH230790   2.968   0.983   6.033
10282TIP3    H130791   2.974   0.926   5.957
10282TIP3    H230792   3.040   0.955   6.090
10283TIP3   OH230793   7.673   6.262   5.012
10283TIP3    H130794   7.663   6.170   5.034
10283TIP3    H230795   7.764   6.271   4.985
10284TIP3   OH230796   7.833   2.999   1.877
10284TIP3    H130797   7.872   3.070   1.928
10284TIP3    H230798   7.905   2.965   1.823
10285TIP3   OH230799   4.278   4.094   6.084
10285TIP3    H130800   4.220   4.019   6.072
10285TIP3    H230801   4.221   4.164   6.117
10286TIP3   OH230802   1.896   1.527   0.182
10286TIP3    H130803   1.887   1.552   0.090
10286TIP3    H230804   1.940   1.601   0.223
10287TIP3   OH230805   6.288   5.696   0.164
10287TIP3    H130806   6.204   5.653   0.149
10287TIP3    H230807   6.276   5.784   0.130
10288TIP3   OH230808   2.809   0.140   3.558
10288TIP3    H130809   2.864   0.211   3.591
10288TIP3    H230810   2.720   0.176   3.560
10289TIP3   OH230811   1.950   3.201   2.517
10289TIP3    H130812   1.893   3.139   2.471
10289TIP3    H230813   2.039   3.175   2.490
10290TIP3   OH230814   0.188   4.260   1.860
10290TIP3    H130815   0.202   4.350   1.830
10290TIP3    H230816   0.274   4.219   1.853
10291TIP3   OH230817   5.794   7.280   5.928
10291TIP3    H130818   5.844   7.295   6.008
10291TIP3    H230819   5.848   7.220   5.877
10292TIP3   OH230820   3.902   0.278   3.275
10292TIP3    H130821   3.937   0.215   3.212
10292TIP3    H230822   3.873   0.224   3.349
10293TIP3   OH230823   3.544   5.757   3.409
10293TIP3    H130824   3.498   5.820   3.353
10293TIP3    H230825   3.635   5.763   3.382
10294TIP3   OH230826   0.891   5.654   6.417
10294TIP3    H130827   0.856   5.742   6.411
10294TIP3    H230828   0.960   5.660   6.484
10295TIP3   OH230829   4.472   3.081   4.674
10295TIP3    H130830   4.490   3.137   4.598
10295TIP3    H230831   4.512   3.128   4.748
10296TIP3   OH230832   1.378   7.580   2.223
10296TIP3    H130833   1.415   7.566   2.310
10296TIP3    H230834   1.283   7.577   2.237
10297TIP3   OH230835   4.422   0.145   0.027
10297TIP3    H130836   4.471   0.100   0.096
10297TIP3    H230837   4.480   0.144  -0.049
10298TIP3   OH230838   7.623   4.759   4.407
10298TIP3    H130839   7.642   4.793   4.495
10298TIP3    H230840   7.630   4.664   4.416
10299TIP3   OH230841   5.478   1.419   0.752
10299TIP3    H130842   5.571   1.403   0.768
10299TIP3    H230843   5.465   1.394   0.660
10300TIP3   OH230844   2.281   2.551   6.200
10300TIP3    H130845   2.273   2.568   6.294
10300TIP3    H230846   2.239   2.466   6.188
10301TIP3   OH230847   6.363   0.613   5.294
10301TIP3    H130848   6.302   0.636   5.223
10301TIP3    H230849   6.338   0.524   5.319
10302TIP3   OH230850   3.819   1.773   4.568
10302TIP3    H130851   3.889   1.802   4.509
10302TIP3    H230852   3.765   1.850   4.582
10303TIP3   OH230853   1.023   1.848   4.512
10303TIP3    H130854   1.055   1.767   4.553
10303TIP3    H230855   0.942   1.868   4.559
10304TIP3   OH230856   2.038   4.956   3.101
10304TIP3    H130857   2.111   4.947   3.039
10304TIP3    H230858   2.018   5.050   3.100
10305TIP3   OH230859   5.450   5.148   0.654
10305TIP3    H130860   5.383   5.101   0.604
10305TIP3    H230861   5.431   5.240   0.637
10306TIP3   OH230862   1.446   1.822   0.367
10306TIP3    H130863   1.473   1.897   0.420
10306TIP3    H230864   1.518   1.810   0.305
10307TIP3   OH230865   7.542   2.289   6.036
10307TIP3    H130866   7.596   2.348   6.088
10307TIP3    H230867   7.519   2.218   6.095
10308TIP3   OH230868   5.648   6.758   1.481
10308TIP3    H130869   5.553   6.758   1.470
10308TIP3    H230870   5.662   6.712   1.564
10309TIP3   OH230871   4.917   2.057   0.971
10309TIP3    H130872   4.844   2.111   0.940
10309TIP3    H230873   4.898   1.970   0.938
10310TIP3   OH230874   1.680   7.583   5.300
10310TIP3    H130875   1.685   7.536   5.216
10310TIP3    H230876   1.599   7.552   5.340
10311TIP3   OH230877   1.847   7.781   4.550
10311TIP3    H130878   1.806   7.695   4.538
10311TIP3    H230879   1.848   7.793   4.645
10312TIP3   OH230880   0.413   1.193   0.030
10312TIP3    H130881   0.335   1.226   0.074
10312TIP3    H230882   0.423   1.248  -0.048
10313TIP3   OH230883   0.690   2.968   2.879
10313TIP3    H130884   0.679   3.062   2.867
10313TIP3    H230885   0.769   2.946   2.830
10314TIP3   OH230886   1.288   5.632   1.203
10314TIP3    H130887   1.365   5.660   1.153
10314TIP3    H230888   1.251   5.561   1.150
10315TIP3   OH230889   3.404   0.572   5.172
10315TIP3    H130890   3.491   0.611   5.186
10315TIP3    H230891   3.350   0.609   5.242
10316TIP3   OH230892   0.601   3.339   3.374
10316TIP3    H130893   0.637   3.404   3.433
10316TIP3    H230894   0.653   3.260   3.389
10317TIP3   OH230895   3.180   6.189   3.548
10317TIP3    H130896   3.100   6.214   3.502
10317TIP3    H230897   3.249   6.200   3.482
10318TIP3   OH230898   2.609   4.517   5.947
10318TIP3    H130899   2.631   4.560   6.029
10318TIP3    H230900   2.583   4.589   5.889
10319TIP3   OH230901   5.401   5.291   0.159
10319TIP3    H130902   5.343   5.216   0.147
10319TIP3    H230903   5.391   5.342   0.078
10320TIP3   OH230904   4.043   7.644   0.677
10320TIP3    H130905   3.970   7.649   0.740
10320TIP3    H230906   4.108   7.704   0.712
10321TIP3   OH230907   4.670   6.040   0.457
10321TIP3    H130908   4.635   6.020   0.370
10321TIP3    H230909   4.593   6.059   0.510
10322TIP3   OH230910   6.173   3.855   3.791
10322TIP3    H130911   6.210   3.899   3.714
10322TIP3    H230912   6.212   3.768   3.790
10323TIP3   OH230913   3.080   2.211   2.881
10323TIP3    H130914   3.067   2.229   2.787
10323TIP3    H230915   3.058   2.294   2.924
10324TIP3   OH230916   6.443   6.967   3.357
10324TIP3    H130917   6.476   6.943   3.444
10324TIP3    H230918   6.520   6.963   3.300
10325TIP3   OH230919   4.227   6.132   4.204
10325TIP3    H130920   4.228   6.046   4.162
10325TIP3    H230921   4.243   6.112   4.297
10326TIP3   OH230922   8.246   3.857   0.923
10326TIP3    H130923   8.313   3.828   0.861
10326TIP3    H230924   8.236   3.783   0.983
10327TIP3   OH230925   0.286   1.443   1.480
10327TIP3    H130926   0.197   1.432   1.448
10327TIP3    H230927   0.279   1.433   1.575
10328TIP3   OH230928   2.429   7.661   1.315
10328TIP3    H130929   2.392   7.576   1.290
10328TIP3    H230930   2.521   7.656   1.288
10329TIP3   OH230931   7.479   2.623   1.859
10329TIP3    H130932   7.412   2.562   1.831
10329TIP3    H230933   7.456   2.706   1.817
10330TIP3   OH230934   5.279   0.374   1.492
10330TIP3    H130935   5.299   0.293   1.539
10330TIP3    H230936   5.185   0.369   1.475
10331TIP3   OH230937   4.684   1.860   3.289
10331TIP3    H130938   4.621   1.825   3.351
10331TIP3    H230939   4.746   1.788   3.274
10332TIP3   OH230940   4.735   4.542   5.270
10332TIP3    H130941   4.689   4.488   5.207
10332TIP3    H230942   4.827   4.534   5.246
10333TIP3   OH230943   1.971   0.092   1.022
10333TIP3    H130944   1.920   0.085   0.942
10333TIP3    H230945   1.975   0.186   1.039
10334TIP3   OH230946   2.535   5.236   5.293
10334TIP3    H130947   2.568   5.325   5.282
10334TIP3    H230948   2.507   5.210   5.205
10335TIP3   OH230949   1.120   4.865   1.744
10335TIP3    H130950   1.052   4.867   1.677
10335TIP3    H230951   1.078   4.826   1.821
10336TIP3   OH230952   1.310   2.130   5.754
10336TIP3    H130953   1.278   2.192   5.820
10336TIP3    H230954   1.369   2.072   5.802
10337TIP3   OH230955   7.615   7.674   1.590
10337TIP3    H130956   7.610   7.585   1.626
10337TIP3    H230957   7.566   7.669   1.508
10338TIP3   OH230958   3.555   2.716   4.576
10338TIP3    H130959   3.645   2.689   4.559
10338TIP3    H230960   3.536   2.684   4.664
10339TIP3   OH230961   4.117   6.794   1.137
10339TIP3    H130962   4.192   6.777   1.195
10339TIP3    H230963   4.133   6.740   1.060
10340TIP3   OH230964   1.066   1.992   5.499
10340TIP3    H130965   1.085   2.067   5.442
10340TIP3    H230966   1.016   1.932   5.443
10341TIP3   OH230967   0.864   6.009   5.451
10341TIP3    H130968   0.902   5.921   5.440
10341TIP3    H230969   0.874   6.050   5.365
10342TIP3   OH230970   6.092   4.352   2.733
10342TIP3    H130971   6.142   4.333   2.654
10342TIP3    H230972   6.096   4.271   2.784
10343TIP3   OH230973   3.454   4.109   1.838
10343TIP3    H130974   3.508   4.132   1.762
10343TIP3    H230975   3.364   4.121   1.808
10344TIP3   OH230976   7.636   7.341   1.281
10344TIP3    H130977   7.602   7.265   1.234
10344TIP3    H230978   7.723   7.315   1.311
10345TIP3   OH230979   1.961   6.323   2.399
10345TIP3    H130980   1.932   6.239   2.363
10345TIP3    H230981   1.907   6.336   2.476
10346TIP3   OH230982   0.292   5.926   5.155
10346TIP3    H130983   0.311   5.988   5.225
10346TIP3    H230984   0.302   5.840   5.196
10347TIP3   OH230985   8.265   1.466   1.983
10347TIP3    H130986   8.231   1.378   1.992
10347TIP3    H230987   8.276   1.478   1.889
10348TIP3   OH230988   6.251   7.368   1.540
10348TIP3    H130989   6.237   7.309   1.467
10348TIP3    H230990   6.344   7.358   1.560
10349TIP3   OH230991   0.871   1.104   3.683
10349TIP3    H130992   0.827   1.169   3.628
10349TIP3    H230993   0.890   1.150   3.765
10350TIP3   OH230994   7.232   5.525   0.109
10350TIP3    H130995   7.165   5.575   0.063
10350TIP3    H230996   7.218   5.545   0.202
10351TIP3   OH230997   0.404   4.254   0.399
10351TIP3    H130998   0.357   4.173   0.419
10351TIP3    H230999   0.490   4.226   0.370
10352TIP3   OH231000   6.255   5.271   3.858
10352TIP3    H131001   6.224   5.286   3.768
10352TIP3    H231002   6.219   5.345   3.908
10353TIP3   OH231003   1.101   1.786   2.713
10353TIP3    H131004   1.132   1.860   2.659
10353TIP3    H231005   1.012   1.811   2.738
10354TIP3   OH231006   3.449   2.678   1.958
10354TIP3    H131007   3.440   2.623   1.881
10354TIP3    H231008   3.362   2.678   1.998
10355TIP3   OH231009   5.909   3.983   5.588
10355TIP3    H131010   5.874   4.025   5.509
10355TIP3    H231011   5.952   3.904   5.556
10356TIP3   OH231012   3.522   2.346   5.576
10356TIP3    H131013   3.573   2.377   5.651
10356TIP3    H231014   3.456   2.413   5.563
10357TIP3   OH231015   5.168   4.472   5.813
10357TIP3    H131016   5.081   4.434   5.828
10357TIP3    H231017   5.209   4.414   5.748
10358TIP3   OH231018   6.532   0.703   2.945
10358TIP3    H131019   6.567   0.792   2.935
10358TIP3    H231020   6.582   0.666   3.018
10359TIP3   OH231021   2.556   3.023   6.194
10359TIP3    H131022   2.543   3.108   6.153
10359TIP3    H231023   2.615   2.976   6.134
10360TIP3   OH231024   6.465   2.675   6.133
10360TIP3    H131025   6.407   2.736   6.178
10360TIP3    H231026   6.441   2.589   6.167
10361TIP3   OH231027   1.338   4.284   1.257
10361TIP3    H131028   1.357   4.248   1.343
10361TIP3    H231029   1.375   4.220   1.196
10362TIP3   OH231030   4.455   0.828   6.293
10362TIP3    H131031   4.418   0.831   6.205
10362TIP3    H231032   4.404   0.891   6.343
10363TIP3   OH231033   1.881   0.314   3.572
10363TIP3    H131034   1.953   0.371   3.597
10363TIP3    H231035   1.855   0.270   3.653
10364TIP3   OH231036   3.428   5.647   6.332
10364TIP3    H131037   3.516   5.656   6.296
10364TIP3    H231038   3.388   5.578   6.280
10365TIP3   OH231039   3.348   7.329   4.986
10365TIP3    H131040   3.300   7.250   5.011
10365TIP3    H231041   3.285   7.400   4.999
10366TIP3   OH231042   1.592   0.615   1.791
10366TIP3    H131043   1.589   0.542   1.729
10366TIP3    H231044   1.678   0.654   1.778
10367TIP3   OH231045   5.619   1.465   3.639
10367TIP3    H131046   5.658   1.422   3.562
10367TIP3    H231047   5.628   1.558   3.621
10368TIP3   OH231048   6.043   0.175   5.509
10368TIP3    H131049   6.003   0.163   5.423
10368TIP3    H231050   6.135   0.152   5.496
10369TIP3   OH231051   6.637   0.706   1.441
10369TIP3    H131052   6.723   0.666   1.432
10369TIP3    H231053   6.592   0.685   1.360
10370TIP3   OH231054   1.044   1.731   2.092
10370TIP3    H131055   1.039   1.685   2.175
10370TIP3    H231056   0.953   1.748   2.068
10371TIP3   OH231057   4.620   4.599   1.389
10371TIP3    H131058   4.629   4.608   1.484
10371TIP3    H231059   4.623   4.504   1.374
10372TIP3   OH231060   4.808   0.207   6.498
10372TIP3    H131061   4.714   0.199   6.484
10372TIP3    H231062   4.842   0.119   6.480
10373TIP3   OH231063   3.104   3.564   1.886
10373TIP3    H131064   3.105   3.659   1.883
10373TIP3    H231065   3.013   3.540   1.868
10374TIP3   OH231066   5.716   2.226   5.666
10374TIP3    H131067   5.647   2.162   5.682
10374TIP3    H231068   5.792   2.191   5.712
10375TIP3   OH231069   2.188   7.578   4.046
10375TIP3    H131070   2.178   7.542   4.134
10375TIP3    H231071   2.138   7.659   4.046
10376TIP3   OH231072   7.382   4.999   2.835
10376TIP3    H131073   7.307   5.014   2.777
10376TIP3    H231074   7.353   4.930   2.894
10377TIP3   OH231075   1.122   2.350   1.937
10377TIP3    H131076   1.108   2.369   2.030
10377TIP3    H231077   1.205   2.303   1.934
10378TIP3   OH231078   4.013   0.081   6.286
10378TIP3    H131079   4.096   0.122   6.263
10378TIP3    H231080   4.005   0.006   6.226
10379TIP3   OH231081   2.052   0.065   0.455
10379TIP3    H131082   2.092   0.117   0.525
10379TIP3    H231083   2.104   0.087   0.377
10380TIP3   OH231084   5.622   6.819   2.736
10380TIP3    H131085   5.576   6.897   2.703
10380TIP3    H231086   5.559   6.748   2.725
10381TIP3   OH231087   5.011   5.441   1.554
10381TIP3    H131088   5.029   5.350   1.577
10381TIP3    H231089   5.003   5.486   1.638
10382TIP3   OH231090   1.115   7.384   3.634
10382TIP3    H131091   1.133   7.290   3.630
10382TIP3    H231092   1.023   7.390   3.661
10383TIP3   OH231093   5.885   3.465   3.472
10383TIP3    H131094   5.948   3.524   3.430
10383TIP3    H231095   5.910   3.463   3.564
10384TIP3   OH231096   1.154   4.936   2.483
10384TIP3    H131097   1.186   5.024   2.503
10384TIP3    H231098   1.102   4.947   2.404
10385TIP3   OH231099   2.589   5.039   1.643
10385TIP3    H131100   2.650   5.092   1.593
10385TIP3    H231101   2.516   5.022   1.583
10386TIP3   OH231102   4.353   5.866   1.240
10386TIP3    H131103   4.433   5.908   1.208
10386TIP3    H231104   4.285   5.896   1.179
10387TIP3   OH231105   3.326   4.940   0.614
10387TIP3    H131106   3.296   5.016   0.665
10387TIP3    H231107   3.418   4.960   0.595
10388TIP3   OH231108   7.282   0.274   3.576
10388TIP3    H131109   7.355   0.216   3.560
10388TIP3    H231110   7.229   0.269   3.496
10389TIP3   OH231111   4.307   6.559   4.744
10389TIP3    H131112   4.395   6.527   4.723
10389TIP3    H231113   4.287   6.622   4.676
10390TIP3   OH231114   3.904   2.292   5.226
10390TIP3    H131115   3.908   2.387   5.219
10390TIP3    H231116   3.824   2.275   5.275
10391TIP3   OH231117   6.811   2.378   4.330
10391TIP3    H131118   6.730   2.380   4.281
10391TIP3    H231119   6.846   2.290   4.317
10392TIP3   OH231120   2.003   6.591   1.574
10392TIP3    H131121   2.091   6.600   1.536
10392TIP3    H231122   1.954   6.541   1.509
10393TIP3   OH231123   3.907   4.203   3.400
10393TIP3    H131124   3.895   4.284   3.449
10393TIP3    H231125   3.977   4.223   3.338
10394TIP3   OH231126   5.928   7.059   3.198
10394TIP3    H131127   5.987   7.109   3.142
10394TIP3    H231128   5.916   7.114   3.276
10395TIP3   OH231129   2.022   7.383   3.812
10395TIP3    H131130   1.988   7.472   3.823
10395TIP3    H231131   2.110   7.395   3.776
10396TIP3   OH231132   7.274   4.362   5.901
10396TIP3    H131133   7.198   4.348   5.959
10396TIP3    H231134   7.341   4.399   5.958
10397TIP3   OH231135   7.561   3.971   4.692
10397TIP3    H131136   7.644   3.973   4.644
10397TIP3    H231137   7.566   4.046   4.751
10398TIP3   OH231138   7.830   1.670   0.148
10398TIP3    H131139   7.834   1.761   0.175
10398TIP3    H231140   7.902   1.660   0.085
10399TIP3   OH231141   1.366   5.099   3.240
10399TIP3    H131142   1.348   5.006   3.251
10399TIP3    H231143   1.340   5.119   3.150
10400TIP3   OH231144   2.665   4.080   5.432
10400TIP3    H131145   2.625   4.031   5.504
10400TIP3    H231146   2.613   4.058   5.355
10401TIP3   OH231147   6.059   5.530   6.384
10401TIP3    H131148   6.125   5.460   6.385
10401TIP3    H231149   6.007   5.514   6.463
10402TIP3   OH231150   1.098   5.638   6.610
10402TIP3    H131151   1.119   5.568   6.549
10402TIP3    H231152   1.180   5.654   6.657
10403TIP3   OH231153   5.564   7.027   5.197
10403TIP3    H131154   5.517   7.066   5.272
10403TIP3    H231155   5.557   6.933   5.211
10404TIP3   OH231156   6.475   2.094   2.312
10404TIP3    H131157   6.399   2.131   2.267
10404TIP3    H231158   6.451   2.003   2.329
10405TIP3   OH231159   5.305   2.659   0.803
10405TIP3    H131160   5.322   2.593   0.870
10405TIP3    H231161   5.386   2.663   0.752
10406TIP3   OH231162   3.315   1.009   3.486
10406TIP3    H131163   3.326   0.936   3.547
10406TIP3    H231164   3.317   1.087   3.542
10407TIP3   OH231165   2.835   6.642   3.134
10407TIP3    H131166   2.761   6.585   3.111
10407TIP3    H231167   2.795   6.726   3.156
10408TIP3   OH231168   5.259   6.061   4.854
10408TIP3    H131169   5.259   6.142   4.803
10408TIP3    H231170   5.349   6.054   4.887
10409TIP3   OH231171   7.812   3.637   3.546
10409TIP3    H131172   7.769   3.723   3.549
10409TIP3    H231173   7.905   3.657   3.547
10410TIP3   OH231174   0.169   5.882   5.747
10410TIP3    H131175   0.153   5.927   5.664
10410TIP3    H231176   0.254   5.840   5.736
10411TIP3   OH231177   7.338   7.618   4.086
10411TIP3    H131178   7.393   7.693   4.064
10411TIP3    H231179   7.381   7.578   4.162
10412TIP3   OH231180   1.215   7.104   3.650
10412TIP3    H131181   1.308   7.080   3.656
10412TIP3    H231182   1.169   7.031   3.690
10413TIP3   OH231183   4.274   3.700   1.381
10413TIP3    H131184   4.221   3.658   1.313
10413TIP3    H231185   4.237   3.788   1.390
10414TIP3   OH231186   1.315   4.227   0.783
10414TIP3    H131187   1.234   4.235   0.733
10414TIP3    H231188   1.360   4.311   0.769
10415TIP3   OH231189   6.199   6.122   6.537
10415TIP3    H131190   6.224   6.159   6.452
10415TIP3    H231191   6.160   6.196   6.584
10416TIP3   OH231192   0.949   2.687   3.173
10416TIP3    H131193   0.909   2.617   3.121
10416TIP3    H231194   0.944   2.765   3.117
10417TIP3   OH231195   0.526   2.214   2.626
10417TIP3    H131196   0.526   2.207   2.721
10417TIP3    H231197   0.565   2.299   2.607
10418TIP3   OH231198   5.129   0.666   6.279
10418TIP3    H131199   5.103   0.576   6.297
10418TIP3    H231200   5.065   0.697   6.214
10419TIP3   OH231201   0.722   5.430   1.402
10419TIP3    H131202   0.686   5.371   1.335
10419TIP3    H231203   0.708   5.518   1.366
10420TIP3   OH231204   0.412   2.133   2.367
10420TIP3    H131205   0.435   2.116   2.459
10420TIP3    H231206   0.464   2.068   2.318
10421TIP3   OH231207   4.852   6.513   0.250
10421TIP3    H131208   4.827   6.598   0.213
10421TIP3    H231209   4.810   6.511   0.336
10422TIP3   OH231210   5.746   1.536   6.490
10422TIP3    H131211   5.811   1.558   6.557
10422TIP3    H231212   5.675   1.599   6.504
10423TIP3   OH231213   4.726   7.426   5.109
10423TIP3    H131214   4.664   7.487   5.068
10423TIP3    H231215   4.812   7.463   5.090
10424TIP3   OH231216   1.254   1.177   0.056
10424TIP3    H131217   1.202   1.101   0.031
10424TIP3    H231218   1.273   1.220  -0.028
10425TIP3   OH231219   5.515   4.535   4.810
10425TIP3    H131220   5.453   4.556   4.740
10425TIP3    H231221   5.467   4.557   4.891
10426TIP3   OH231222   5.200   2.586   6.731
10426TIP3    H131223   5.288   2.573   6.693
10426TIP3    H231224   5.193   2.681   6.742
10427TIP3   OH231225   6.851   3.611   5.630
10427TIP3    H131226   6.879   3.702   5.623
10427TIP3    H231227   6.919   3.561   5.585
10428TIP3   OH231228   1.788   6.742   6.572
10428TIP3    H131229   1.793   6.837   6.577
10428TIP3    H231230   1.874   6.711   6.599
10429TIP3   OH231231   2.615   6.487   3.081
10429TIP3    H131232   2.573   6.491   2.996
10429TIP3    H231233   2.543   6.492   3.144
10430TIP3   OH231234   4.738   1.551   0.423
10430TIP3    H131235   4.670   1.506   0.373
10430TIP3    H231236   4.811   1.561   0.361
10431TIP3   OH231237   0.275   6.463   0.711
10431TIP3    H131238   0.258   6.508   0.628
10431TIP3    H231239   0.187   6.446   0.746
10432TIP3   OH231240   5.556   6.506   3.174
10432TIP3    H131241   5.534   6.486   3.265
10432TIP3    H231242   5.549   6.422   3.129
10433TIP3   OH231243   4.932   0.759   4.688
10433TIP3    H131244   4.925   0.825   4.619
10433TIP3    H231245   4.855   0.773   4.743
10434TIP3   OH231246   7.467   0.425   2.816
10434TIP3    H131247   7.434   0.337   2.799
10434TIP3    H231248   7.410   0.460   2.884
10435TIP3   OH231249   4.116   7.625   4.384
10435TIP3    H131250   4.066   7.604   4.305
10435TIP3    H231251   4.051   7.623   4.454
10436TIP3   OH231252   6.369   6.110   4.721
10436TIP3    H131253   6.280   6.092   4.688
10436TIP3    H231254   6.359   6.189   4.773
10437TIP3   OH231255   4.500   6.114   4.028
10437TIP3    H131256   4.450   6.038   3.998
10437TIP3    H231257   4.565   6.128   3.958
10438TIP3   OH231258   3.364   6.619   2.848
10438TIP3    H131259   3.422   6.604   2.923
10438TIP3    H231260   3.418   6.597   2.771
10439TIP3   OH231261   2.495   4.162   4.976
10439TIP3    H131262   2.411   4.208   4.985
10439TIP3    H231263   2.501   4.108   5.056
10440TIP3   OH231264   7.323   4.557   3.517
10440TIP3    H131265   7.283   4.635   3.555
10440TIP3    H231266   7.387   4.592   3.454
10441TIP3   OH231267   6.653   3.752   6.673
10441TIP3    H131268   6.559   3.751   6.689
10441TIP3    H231269   6.692   3.769   6.759
10442TIP3   OH231270   0.603   4.467   2.675
10442TIP3    H131271   0.513   4.491   2.652
10442TIP3    H231272   0.617   4.383   2.630
10443TIP3   OH231273   0.906   6.873   3.475
10443TIP3    H131274   0.927   6.780   3.484
10443TIP3    H231275   0.990   6.918   3.486
10444TIP3   OH231276   3.305   3.057   4.080
10444TIP3    H131277   3.308   3.039   3.986
10444TIP3    H231278   3.281   3.150   4.085
10445TIP3   OH231279   6.867   1.608   4.280
10445TIP3    H131280   6.900   1.640   4.196
10445TIP3    H231281   6.898   1.672   4.344
10446TIP3   OH231282   6.922   2.161   4.931
10446TIP3    H131283   6.854   2.229   4.928
10446TIP3    H231284   6.907   2.116   5.014
10447TIP3   OH231285   5.350   3.849   5.060
10447TIP3    H131286   5.436   3.885   5.035
10447TIP3    H231287   5.306   3.833   4.976
10448TIP3   OH231288   7.927   0.993   2.211
10448TIP3    H131289   7.930   0.972   2.118
10448TIP3    H231290   7.997   0.941   2.250
10449TIP3   OH231291   0.139   4.414   2.772
10449TIP3    H131292   0.064   4.417   2.713
10449TIP3    H231293   0.102   4.384   2.855
10450TIP3   OH231294   1.430   3.125   4.255
10450TIP3    H131295   1.369   3.152   4.187
10450TIP3    H231296   1.418   3.030   4.263
10451TIP3   OH231297   7.762   4.385   5.707
10451TIP3    H131298   7.773   4.475   5.675
10451TIP3    H231299   7.690   4.350   5.655
10452TIP3   OH231300   5.419   1.586   4.111
10452TIP3    H131301   5.488   1.582   4.177
10452TIP3    H231302   5.413   1.497   4.077
10453TIP3   OH231303   4.114   1.165   5.606
10453TIP3    H131304   4.157   1.230   5.551
10453TIP3    H231305   4.021   1.190   5.605
10454TIP3   OH231306   2.486   1.855   4.320
10454TIP3    H131307   2.577   1.883   4.332
10454TIP3    H231308   2.488   1.802   4.240
10455TIP3   OH231309   0.079   2.128   4.939
10455TIP3    H131310   0.028   2.078   5.002
10455TIP3    H231311   0.165   2.139   4.980
10456TIP3   OH231312   2.005   6.905   2.636
10456TIP3    H131313   2.099   6.920   2.633
10456TIP3    H231314   1.969   6.989   2.665
10457TIP3   OH231315   7.072   3.427   0.794
10457TIP3    H131316   6.980   3.402   0.805
10457TIP3    H231317   7.100   3.453   0.882
10458TIP3   OH231318   2.301   7.287   4.257
10458TIP3    H131319   2.208   7.275   4.274
10458TIP3    H231320   2.309   7.289   4.162
10459TIP3   OH231321   0.805   2.393   3.077
10459TIP3    H131322   0.855   2.430   3.005
10459TIP3    H231323   0.742   2.334   3.035
10460TIP3   OH231324   3.556   6.629   1.525
10460TIP3    H131325   3.625   6.653   1.463
10460TIP3    H231326   3.480   6.679   1.495
10461TIP3   OH231327   7.080   5.516   1.893
10461TIP3    H131328   7.013   5.581   1.871
10461TIP3    H231329   7.117   5.490   1.809
10462TIP3   OH231330   6.253   6.969   6.534
10462TIP3    H131331   6.264   6.875   6.544
10462TIP3    H231332   6.160   6.980   6.512
10463TIP3   OH231333   4.293   3.319   2.432
10463TIP3    H131334   4.224   3.346   2.492
10463TIP3    H231335   4.373   3.359   2.467
10464TIP3   OH231336   1.825   6.367   2.985
10464TIP3    H131337   1.799   6.460   2.980
10464TIP3    H231338   1.763   6.329   3.048
10465TIP3   OH231339   7.816   3.789   6.312
10465TIP3    H131340   7.854   3.773   6.226
10465TIP3    H231341   7.807   3.884   6.317
10466TIP3   OH231342   6.024   3.168   2.234
10466TIP3    H131343   5.948   3.218   2.262
10466TIP3    H231344   6.009   3.150   2.141
10467TIP3   OH231345   3.396   1.335   3.812
10467TIP3    H131346   3.323   1.335   3.874
10467TIP3    H231347   3.473   1.350   3.866
10468TIP3   OH231348   2.951   2.815   4.622
10468TIP3    H131349   3.004   2.890   4.596
10468TIP3    H231350   2.963   2.751   4.552
10469TIP3   OH231351   5.960   6.768   2.473
10469TIP3    H131352   6.031   6.799   2.416
10469TIP3    H231353   5.971   6.817   2.554
10470TIP3   OH231354   4.213   6.465   6.656
10470TIP3    H131355   4.192   6.558   6.663
10470TIP3    H231356   4.305   6.464   6.627
10471TIP3   OH231357   4.375   6.865   4.817
10471TIP3    H131358   4.396   6.798   4.881
10471TIP3    H231359   4.312   6.823   4.758
10472TIP3   OH231360   0.638   2.051   3.748
10472TIP3    H131361   0.583   1.993   3.695
10472TIP3    H231362   0.723   2.050   3.703
10473TIP3   OH231363   0.499   7.613   6.280
10473TIP3    H131364   0.514   7.519   6.278
10473TIP3    H231365   0.485   7.637   6.188
10474TIP3   OH231366   4.742   5.621   5.540
10474TIP3    H131367   4.748   5.534   5.500
10474TIP3    H231368   4.788   5.679   5.480
10475TIP3   OH231369   3.821   1.681   2.322
10475TIP3    H131370   3.730   1.687   2.350
10475TIP3    H231371   3.832   1.590   2.294
10476TIP3   OH231372   0.833   2.679   1.642
10476TIP3    H131373   0.792   2.665   1.557
10476TIP3    H231374   0.789   2.757   1.677
10477TIP3   OH231375   1.749   6.982   0.550
10477TIP3    H131376   1.754   7.044   0.477
10477TIP3    H231377   1.732   7.037   0.627
10478TIP3   OH231378   1.685   3.454   0.918
10478TIP3    H131379   1.633   3.478   0.841
10478TIP3    H231380   1.657   3.365   0.938
10479TIP3   OH231381   1.414   7.273   6.231
10479TIP3    H131382   1.462   7.288   6.149
10479TIP3    H231383   1.468   7.315   6.298
10480TIP3   OH231384   7.618   6.656   2.517
10480TIP3    H131385   7.648   6.647   2.426
10480TIP3    H231386   7.628   6.568   2.554
10481TIP3   OH231387   6.946   7.729   3.663
10481TIP3    H131388   6.875   7.665   3.657
10481TIP3    H231389   6.921   7.798   3.601
10482TIP3   OH231390   1.619   2.390   3.406
10482TIP3    H131391   1.595   2.367   3.316
10482TIP3    H231392   1.591   2.316   3.458
10483TIP3   OH231393   3.683   5.782   0.378
10483TIP3    H131394   3.679   5.797   0.472
10483TIP3    H231395   3.592   5.783   0.349
10484TIP3   OH231396   0.783   6.597   3.108
10484TIP3    H131397   0.771   6.548   3.027
10484TIP3    H231398   0.730   6.549   3.172
10485TIP3   OH231399   7.866   6.619   0.496
10485TIP3    H131400   7.879   6.583   0.408
10485TIP3    H231401   7.946   6.669   0.514
10486TIP3   OH231402   4.046   1.637   2.783
10486TIP3    H131403   3.999   1.591   2.713
10486TIP3    H231404   4.135   1.604   2.778
10487TIP3   OH231405   2.739   0.607   4.075
10487TIP3    H131406   2.696   0.523   4.092
10487TIP3    H231407   2.725   0.658   4.154
10488TIP3   OH231408   3.982   1.972   6.448
10488TIP3    H131409   4.048   2.037   6.473
10488TIP3    H231410   4.033   1.900   6.410
10489TIP3   OH231411   0.745   6.401   2.343
10489TIP3    H131412   0.685   6.467   2.378
10489TIP3    H231413   0.825   6.411   2.396
10490TIP3   OH231414   1.354   4.552   5.082
10490TIP3    H131415   1.259   4.555   5.071
10490TIP3    H231416   1.372   4.460   5.106
10491TIP3   OH231417   7.787   7.363   2.246
10491TIP3    H131418   7.716   7.309   2.282
10491TIP3    H231419   7.810   7.321   2.164
10492TIP3   OH231420   2.940   6.407   3.464
10492TIP3    H131421   2.935   6.447   3.551
10492TIP3    H231422   2.856   6.430   3.423
10493TIP3   OH231423   6.319   4.486   5.559
10493TIP3    H131424   6.224   4.474   5.561
10493TIP3    H231425   6.333   4.570   5.516
10494TIP3   OH231426   5.565   4.908   1.312
10494TIP3    H131427   5.538   4.951   1.230
10494TIP3    H231428   5.658   4.928   1.319
10495TIP3   OH231429   7.578   0.323   1.966
10495TIP3    H131430   7.663   0.347   2.005
10495TIP3    H231431   7.565   0.232   1.992
10496TIP3   OH231432   2.134   3.535   6.251
10496TIP3    H131433   2.142   3.494   6.166
10496TIP3    H231434   2.099   3.467   6.308
10497TIP3   OH231435   2.714   3.953   0.256
10497TIP3    H131436   2.666   3.935   0.175
10497TIP3    H231437   2.647   3.981   0.318
10498TIP3   OH231438   7.347   2.139   4.410
10498TIP3    H131439   7.267   2.088   4.424
10498TIP3    H231440   7.346   2.160   4.317
10499TIP3   OH231441   3.721   6.025   1.430
10499TIP3    H131442   3.652   5.992   1.373
10499TIP3    H231443   3.689   6.111   1.459
10500TIP3   OH231444   7.177   7.577   1.316
10500TIP3    H131445   7.248   7.514   1.307
10500TIP3    H231446   7.197   7.645   1.252
10501TIP3   OH231447   7.329   2.412   1.345
10501TIP3    H131448   7.407   2.358   1.336
10501TIP3    H231449   7.354   2.479   1.408
10502TIP3   OH231450   0.884   7.071   0.333
10502TIP3    H131451   0.900   7.150   0.282
10502TIP3    H231452   0.808   7.092   0.387
10503TIP3   OH231453   7.550   4.998   1.923
10503TIP3    H131454   7.552   5.087   1.887
10503TIP3    H231455   7.487   5.004   1.995
10504TIP3   OH231456   6.482   6.780   5.977
10504TIP3    H131457   6.474   6.874   5.995
10504TIP3    H231458   6.406   6.741   6.019
10505TIP3   OH231459   1.954   2.758   6.362
10505TIP3    H131460   1.877   2.703   6.350
10505TIP3    H231461   1.987   2.773   6.273
10506TIP3   OH231462   4.113   2.326   2.186
10506TIP3    H131463   4.102   2.243   2.233
10506TIP3    H231464   4.053   2.319   2.111
10507TIP3   OH231465   5.305   0.628   4.950
10507TIP3    H131466   5.362   0.552   4.966
10507TIP3    H231467   5.351   0.678   4.883
10508TIP3   OH231468   1.922   0.673   5.603
10508TIP3    H131469   1.861   0.743   5.626
10508TIP3    H231470   1.961   0.646   5.686
10509TIP3   OH231471   1.666   6.338   0.704
10509TIP3    H131472   1.681   6.269   0.639
10509TIP3    H231473   1.589   6.384   0.671
10510TIP3   OH231474   4.492   0.737   2.023
10510TIP3    H131475   4.577   0.759   2.060
10510TIP3    H231476   4.440   0.817   2.032
10511TIP3   OH231477   4.706   0.052   1.419
10511TIP3    H131478   4.633   0.085   1.472
10511TIP3    H231479   4.681  -0.038   1.396
10512TIP3   OH231480   6.858   4.023   5.936
10512TIP3    H131481   6.861   3.932   5.906
10512TIP3    H231482   6.834   4.017   6.028
10513TIP3   OH231483   1.265   2.258   2.638
10513TIP3    H131484   1.253   2.202   2.715
10513TIP3    H231485   1.288   2.198   2.568
10514TIP3   OH231486   4.490   0.197   4.488
10514TIP3    H131487   4.498   0.102   4.478
10514TIP3    H231488   4.398   0.212   4.507
10515TIP3   OH231489   0.266   2.032   0.787
10515TIP3    H131490   0.262   1.936   0.784
10515TIP3    H231491   0.176   2.060   0.770
10516TIP3   OH231492   2.932   2.313   6.408
10516TIP3    H131493   2.902   2.390   6.457
10516TIP3    H231494   2.879   2.241   6.442
10517TIP3   OH231495   1.308   2.692   1.008
10517TIP3    H131496   1.257   2.624   1.052
10517TIP3    H231497   1.395   2.685   1.047
10518TIP3   OH231498   2.048   4.496   0.633
10518TIP3    H131499   2.119   4.438   0.661
10518TIP3    H231500   1.992   4.504   0.711
10519TIP3   OH231501   0.331   6.563   4.813
10519TIP3    H131502   0.250   6.605   4.785
10519TIP3    H231503   0.372   6.626   4.873
10520TIP3   OH231504   0.952   5.012   1.552
10520TIP3    H131505   1.023   5.076   1.554
10520TIP3    H231506   0.884   5.053   1.498
10521TIP3   OH231507   0.534   6.684   5.497
10521TIP3    H131508   0.536   6.706   5.404
10521TIP3    H231509   0.575   6.598   5.502
10522TIP3   OH231510   7.553   0.822   4.709
10522TIP3    H131511   7.485   0.808   4.644
10522TIP3    H231512   7.581   0.735   4.735
10523TIP3   OH231513   1.704   5.149   6.103
10523TIP3    H131514   1.744   5.234   6.082
10523TIP3    H231515   1.729   5.133   6.194
10524TIP3   OH231516   3.518   6.850   3.726
10524TIP3    H131517   3.445   6.885   3.778
10524TIP3    H231518   3.562   6.788   3.785
10525TIP3   OH231519   2.369   0.173   0.926
10525TIP3    H131520   2.311   0.099   0.940
10525TIP3    H231521   2.448   0.152   0.976
10526TIP3   OH231522   5.425   3.765   4.588
10526TIP3    H131523   5.385   3.848   4.562
10526TIP3    H231524   5.433   3.771   4.684
10527TIP3   OH231525   6.145   1.717   2.142
10527TIP3    H131526   6.193   1.740   2.062
10527TIP3    H231527   6.092   1.641   2.117
10528TIP3   OH231528   2.905   2.111   3.457
10528TIP3    H131529   2.899   2.196   3.501
10528TIP3    H231530   2.983   2.118   3.402
10529TIP3   OH231531   3.091   2.640   6.669
10529TIP3    H131532   3.157   2.581   6.631
10529TIP3    H231533   3.132   2.726   6.668
10530TIP3   OH231534   0.951   3.049   6.050
10530TIP3    H131535   0.881   3.104   6.016
10530TIP3    H231536   1.031   3.099   6.034
10531TIP3   OH231537   4.904   2.425   5.314
10531TIP3    H131538   4.928   2.455   5.226
10531TIP3    H231539   4.861   2.341   5.299
10532TIP3   OH231540   7.932   6.373   5.446
10532TIP3    H131541   7.947   6.299   5.505
10532TIP3    H231542   7.907   6.445   5.504
10533TIP3   OH231543   7.945   7.034   2.184
10533TIP3    H131544   7.963   6.994   2.269
10533TIP3    H231545   8.032   7.057   2.150
10534TIP3   OH231546   5.883   0.479   4.120
10534TIP3    H131547   5.878   0.433   4.036
10534TIP3    H231548   5.798   0.464   4.161
10535TIP3   OH231549   8.296   6.987   5.798
10535TIP3    H131550   8.243   6.971   5.720
10535TIP3    H231551   8.277   6.913   5.855
10536TIP3   OH231552   7.304   3.821   6.079
10536TIP3    H131553   7.328   3.808   6.171
10536TIP3    H231554   7.302   3.916   6.067
10537TIP3   OH231555   5.181   6.249   1.332
10537TIP3    H131556   5.110   6.300   1.370
10537TIP3    H231557   5.147   6.220   1.247
10538TIP3   OH231558   3.755   0.890   6.713
10538TIP3    H131559   3.813   0.859   6.783
10538TIP3    H231560   3.799   0.864   6.632
10539TIP3   OH231561   7.401   5.353   4.925
10539TIP3    H131562   7.404   5.297   4.847
10539TIP3    H231563   7.446   5.433   4.898
10540TIP3   OH231564   4.053   1.870   1.469
10540TIP3    H131565   3.999   1.948   1.474
10540TIP3    H231566   4.111   1.885   1.394
10541TIP3   OH231567   1.286   0.728   0.401
10541TIP3    H131568   1.301   0.646   0.355
10541TIP3    H231569   1.250   0.702   0.486
10542TIP3   OH231570   4.198   1.819   4.765
10542TIP3    H131571   4.229   1.862   4.685
10542TIP3    H231572   4.258   1.745   4.777
10543TIP3   OH231573   4.615   0.179   0.331
10543TIP3    H131574   4.632   0.257   0.384
10543TIP3    H231575   4.700   0.156   0.294
10544TIP3   OH231576   1.490   4.809   4.104
10544TIP3    H131577   1.435   4.787   4.028
10544TIP3    H231578   1.512   4.725   4.144
10545TIP3   OH231579   5.440   3.239   5.162
10545TIP3    H131580   5.422   3.309   5.224
10545TIP3    H231581   5.442   3.282   5.077
10546TIP3   OH231582   1.130   4.476   4.951
10546TIP3    H131583   1.170   4.392   4.933
10546TIP3    H231584   1.065   4.488   4.882
10547TIP3   OH231585   5.850   0.495   1.795
10547TIP3    H131586   5.791   0.445   1.851
10547TIP3    H231587   5.793   0.555   1.747
10548TIP3   OH231588   8.287   3.091   5.750
10548TIP3    H131589   8.234   3.093   5.671
10548TIP3    H231590   8.226   3.066   5.820
10549TIP3   OH231591   8.086   6.740   5.829
10549TIP3    H131592   8.045   6.764   5.745
10549TIP3    H231593   8.017   6.697   5.878
10550TIP3   OH231594   7.932   0.271   6.647
10550TIP3    H131595   7.936   0.280   6.552
10550TIP3    H231596   7.938   0.361   6.680
10551TIP3   OH231597   3.067   4.719   6.153
10551TIP3    H131598   3.061   4.787   6.221
10551TIP3    H231599   3.160   4.700   6.147
10552TIP3   OH231600   6.948   1.865   5.893
10552TIP3    H131601   6.974   1.781   5.932
10552TIP3    H231602   6.893   1.841   5.819
10553TIP3   OH231603   6.019   3.687   0.433
10553TIP3    H131604   6.012   3.646   0.519
10553TIP3    H231605   5.931   3.683   0.397
10554TIP3   OH231606   3.848   2.031   2.869
10554TIP3    H131607   3.884   2.078   2.944
10554TIP3    H231608   3.756   2.056   2.867
10555TIP3   OH231609   4.900   7.581   2.716
10555TIP3    H131610   4.917   7.667   2.754
10555TIP3    H231611   4.850   7.535   2.783
10556TIP3   OH231612   6.738   4.282   6.093
10556TIP3    H131613   6.664   4.335   6.061
10556TIP3    H231614   6.698   4.214   6.147
10557TIP3   OH231615   4.465   7.550   2.349
10557TIP3    H131616   4.550   7.537   2.307
10557TIP3    H231617   4.479   7.620   2.413
10558TIP3   OH231618   5.549   0.275   0.712
10558TIP3    H131619   5.611   0.344   0.734
10558TIP3    H231620   5.602   0.207   0.671
10559TIP3   OH231621   0.098   6.905   0.589
10559TIP3    H131622   0.046   6.873   0.663
10559TIP3    H231623   0.171   6.952   0.630
10560TIP3   OH231624   1.221   3.277   3.573
10560TIP3    H131625   1.144   3.327   3.545
10560TIP3    H231626   1.202   3.187   3.546
10561TIP3   OH231627   4.308   0.530   4.543
10561TIP3    H131628   4.334   0.564   4.629
10561TIP3    H231629   4.310   0.435   4.553
10562TIP3   OH231630   1.741   6.325   3.965
10562TIP3    H131631   1.776   6.374   3.891
10562TIP3    H231632   1.676   6.266   3.927
10563TIP3   OH231633   3.935   1.060   3.766
10563TIP3    H131634   3.981   1.138   3.796
10563TIP3    H231635   4.004   1.003   3.731
10564TIP3   OH231636   1.223   5.601   0.512
10564TIP3    H131637   1.158   5.668   0.493
10564TIP3    H231638   1.231   5.551   0.431
10565TIP3   OH231639   1.640   1.609   5.353
10565TIP3    H131640   1.617   1.526   5.393
10565TIP3    H231641   1.705   1.647   5.412
10566TIP3   OH231642   6.652   0.382   2.412
10566TIP3    H131643   6.729   0.327   2.400
10566TIP3    H231644   6.680   0.449   2.474
10567TIP3   OH231645   6.746   6.128   5.559
10567TIP3    H131646   6.824   6.174   5.592
10567TIP3    H231647   6.757   6.038   5.590
10568TIP3   OH231648   1.831   5.503   5.780
10568TIP3    H131649   1.880   5.445   5.837
10568TIP3    H231650   1.868   5.590   5.797
10569TIP3   OH231651   2.833   5.941   3.530
10569TIP3    H131652   2.796   5.924   3.443
10569TIP3    H231653   2.927   5.952   3.514
10570TIP3   OH231654   5.943   3.927   1.310
10570TIP3    H131655   5.861   3.935   1.261
10570TIP3    H231656   5.987   4.011   1.296
10571TIP3   OH231657   1.632   4.156   0.880
10571TIP3    H131658   1.667   4.201   0.803
10571TIP3    H231659   1.692   4.083   0.895
10572TIP3   OH231660   7.843   5.633   3.439
10572TIP3    H131661   7.807   5.703   3.493
10572TIP3    H231662   7.908   5.676   3.383
10573TIP3   OH231663   0.235   7.649   0.888
10573TIP3    H131664   0.245   7.686   0.976
10573TIP3    H231665   0.275   7.715   0.831
10574TIP3   OH231666   2.290   5.426   2.517
10574TIP3    H131667   2.331   5.409   2.602
10574TIP3    H231668   2.211   5.372   2.517
10575TIP3   OH231669   7.698   3.080   4.466
10575TIP3    H131670   7.741   3.097   4.550
10575TIP3    H231671   7.728   2.993   4.441
10576TIP3   OH231672   1.464   7.274   5.952
10576TIP3    H131673   1.518   7.206   5.911
10576TIP3    H231674   1.516   7.354   5.942
10577TIP3   OH231675   1.395   7.536   1.150
10577TIP3    H131676   1.395   7.495   1.237
10577TIP3    H231677   1.316   7.503   1.108
10578TIP3   OH231678   7.999   7.624   4.212
10578TIP3    H131679   8.056   7.687   4.167
10578TIP3    H231680   7.918   7.626   4.161
10579TIP3   OH231681   4.258   3.888   6.291
10579TIP3    H131682   4.163   3.889   6.303
10579TIP3    H231683   4.283   3.980   6.285
10580TIP3   OH231684   8.278   1.045   2.251
10580TIP3    H131685   8.341   1.056   2.179
10580TIP3    H231686   8.320   0.984   2.311
10581TIP3   OH231687   7.291   7.081   0.721
10581TIP3    H131688   7.219   7.124   0.676
10581TIP3    H231689   7.283   6.988   0.696
10582TIP3   OH231690   7.039   6.755   5.085
10582TIP3    H131691   7.109   6.810   5.121
10582TIP3    H231692   7.048   6.672   5.132
10583TIP3   OH231693   4.181   4.132   0.476
10583TIP3    H131694   4.207   4.201   0.416
10583TIP3    H231695   4.088   4.148   0.492
10584TIP3   OH231696   3.363   7.349   6.085
10584TIP3    H131697   3.440   7.348   6.141
10584TIP3    H231698   3.290   7.364   6.145
10585TIP3   OH231699   1.981   5.033   1.442
10585TIP3    H131700   1.991   4.940   1.421
10585TIP3    H231701   1.886   5.046   1.444
10586TIP3   OH231702   7.732   6.586   0.743
10586TIP3    H131703   7.771   6.617   0.661
10586TIP3    H231704   7.800   6.531   0.782
10587TIP3   OH231705   2.992   6.122   4.887
10587TIP3    H131706   2.968   6.051   4.828
10587TIP3    H231707   2.987   6.083   4.974
10588TIP3   OH231708   3.169   0.584   1.755
10588TIP3    H131709   3.078   0.565   1.735
10588TIP3    H231710   3.219   0.532   1.692
10589TIP3   OH231711   6.244   1.126   0.765
10589TIP3    H131712   6.327   1.112   0.811
10589TIP3    H231713   6.259   1.203   0.710
10590TIP3   OH231714   7.452   4.110   0.467
10590TIP3    H131715   7.479   4.047   0.399
10590TIP3    H231716   7.368   4.075   0.499
10591TIP3   OH231717   1.525   6.686   1.563
10591TIP3    H131718   1.580   6.610   1.545
10591TIP3    H231719   1.549   6.712   1.652
10592TIP3   OH231720   8.273   4.401   1.203
10592TIP3    H131721   8.205   4.361   1.149
10592TIP3    H231722   8.252   4.494   1.203
10593TIP3   OH231723  -0.005   3.536   1.957
10593TIP3    H131724   0.086   3.555   1.937
10593TIP3    H231725  -0.005   3.508   2.048
10594TIP3   OH231726   5.050   5.329   1.216
10594TIP3    H131727   4.967   5.299   1.253
10594TIP3    H231728   5.027   5.410   1.170
10595TIP3   OH231729   7.015   3.718   1.092
10595TIP3    H131730   7.017   3.622   1.098
10595TIP3    H231731   6.977   3.747   1.174
10596TIP3   OH231732   4.374   5.081   4.717
10596TIP3    H131733   4.420   5.075   4.801
10596TIP3    H231734   4.318   5.158   4.725
10597TIP3   OH231735   7.136   7.248   1.195
10597TIP3    H131736   7.197   7.179   1.168
10597TIP3    H231737   7.191   7.311   1.242
10598TIP3   OH231738   1.892   7.708   1.154
10598TIP3    H131739   1.913   7.790   1.108
10598TIP3    H231740   1.796   7.701   1.146
10599TIP3   OH231741   7.142   4.312   0.344
10599TIP3    H131742   7.152   4.402   0.312
10599TIP3    H231743   7.197   4.308   0.422
10600TIP3   OH231744   2.936   0.616   3.144
10600TIP3    H131745   2.936   0.678   3.216
10600TIP3    H231746   2.860   0.641   3.091
10601TIP3   OH231747   0.409   3.991   0.007
10601TIP3    H131748   0.366   3.964  -0.074
10601TIP3    H231749   0.502   3.979  -0.010
10602TIP3   OH231750   2.501   5.819   2.915
10602TIP3    H131751   2.548   5.751   2.963
10602TIP3    H231752   2.458   5.871   2.984
10603TIP3   OH231753   4.636   5.769   6.099
10603TIP3    H131754   4.629   5.773   6.004
10603TIP3    H231755   4.592   5.687   6.123
10604TIP3   OH231756   6.660   0.426   6.095
10604TIP3    H131757   6.640   0.374   6.017
10604TIP3    H231758   6.716   0.368   6.148
10605TIP3   OH231759   0.090   3.270   5.317
10605TIP3    H131760   0.104   3.177   5.297
10605TIP3    H231761  -0.005   3.281   5.311
10606TIP3   OH231762   2.298   5.448   3.629
10606TIP3    H131763   2.323   5.402   3.709
10606TIP3    H231764   2.363   5.517   3.620
10607TIP3   OH231765   4.448   3.973   1.116
10607TIP3    H131766   4.451   3.951   1.023
10607TIP3    H231767   4.355   3.972   1.138
10608TIP3   OH231768   1.429   7.435   5.489
10608TIP3    H131769   1.455   7.392   5.408
10608TIP3    H231770   1.361   7.497   5.462
10609TIP3   OH231771   6.462   2.412   6.305
10609TIP3    H131772   6.479   2.323   6.275
10609TIP3    H231773   6.457   2.405   6.401
10610TIP3   OH231774   7.907   6.164   6.353
10610TIP3    H131775   7.843   6.170   6.282
10610TIP3    H231776   7.860   6.119   6.423
10611TIP3   OH231777   1.503   5.529   0.541
10611TIP3    H131778   1.414   5.562   0.550
10611TIP3    H231779   1.528   5.550   0.451
10612TIP3   OH231780   2.579   6.079   4.663
10612TIP3    H131781   2.495   6.044   4.634
10612TIP3    H231782   2.557   6.144   4.729
10613TIP3   OH231783   6.311   7.153   0.296
10613TIP3    H131784   6.274   7.148   0.208
10613TIP3    H231785   6.398   7.191   0.284
10614TIP3   OH231786   4.618   3.100   5.404
10614TIP3    H131787   4.667   3.053   5.337
10614TIP3    H231788   4.677   3.101   5.480
10615TIP3   OH231789   2.315   1.489   5.493
10615TIP3    H131790   2.224   1.512   5.512
10615TIP3    H231791   2.309   1.429   5.419
10616TIP3   OH231792   7.319   0.124   1.111
10616TIP3    H131793   7.350   0.109   1.021
10616TIP3    H231794   7.236   0.170   1.100
10617TIP3   OH231795   0.492   5.264   2.801
10617TIP3    H131796   0.508   5.236   2.891
10617TIP3    H231797   0.502   5.359   2.803
10618TIP3   OH231798   7.993   1.897   0.995
10618TIP3    H131799   7.933   1.970   0.981
10618TIP3    H231800   7.967   1.861   1.080
10619TIP3   OH231801   3.054   4.456   1.790
10619TIP3    H131802   3.138   4.482   1.754
10619TIP3    H231803   3.021   4.534   1.836
10620TIP3   OH231804   1.998   0.532   1.552
10620TIP3    H131805   2.044   0.457   1.589
10620TIP3    H231806   2.056   0.562   1.481
10621TIP3   OH231807   5.238   5.090   0.116
10621TIP3    H131808   5.160   5.095   0.062
10621TIP3    H231809   5.220   5.018   0.177
10622TIP3   OH231810   2.723   4.581   1.811
10622TIP3    H131811   2.739   4.649   1.746
10622TIP3    H231812   2.759   4.617   1.893
10623TIP3   OH231813   1.054   3.209   5.107
10623TIP3    H131814   1.022   3.198   5.017
10623TIP3    H231815   1.147   3.189   5.102
10624TIP3   OH231816   7.155   7.036   2.256
10624TIP3    H131817   7.174   6.956   2.306
10624TIP3    H231818   7.103   7.090   2.316
10625TIP3   OH231819   0.458   0.339   1.522
10625TIP3    H131820   0.534   0.398   1.526
10625TIP3    H231821   0.390   0.391   1.480
10626TIP3   OH231822   2.091   4.897   3.362
10626TIP3    H131823   2.103   4.897   3.267
10626TIP3    H231824   2.026   4.966   3.378
10627TIP3   OH231825   3.851   4.010   1.704
10627TIP3    H131826   3.871   3.924   1.668
10627TIP3    H231827   3.823   3.992   1.794
10628TIP3   OH231828   6.772   4.380   3.696
10628TIP3    H131829   6.836   4.373   3.767
10628TIP3    H231830   6.796   4.461   3.650
10629TIP3   OH231831   6.340   5.352   4.698
10629TIP3    H131832   6.357   5.338   4.791
10629TIP3    H231833   6.421   5.324   4.654
10630TIP3   OH231834   2.851   0.800   6.696
10630TIP3    H131835   2.780   0.743   6.668
10630TIP3    H231836   2.912   0.801   6.623
10631TIP3   OH231837   0.996   7.398   1.623
10631TIP3    H131838   0.948   7.413   1.705
10631TIP3    H231839   0.986   7.305   1.606
10632TIP3   OH231840   2.374   3.025   4.580
10632TIP3    H131841   2.451   3.080   4.598
10632TIP3    H231842   2.318   3.080   4.525
10633TIP3   OH231843   3.908   7.729   2.489
10633TIP3    H131844   3.906   7.651   2.544
10633TIP3    H231845   3.963   7.705   2.415
10634TIP3   OH231846   5.492   0.660   5.676
10634TIP3    H131847   5.512   0.753   5.663
10634TIP3    H231848   5.399   0.659   5.698
10635TIP3   OH231849   7.556   4.310   5.080
10635TIP3    H131850   7.650   4.317   5.098
10635TIP3    H231851   7.526   4.401   5.073
10636TIP3   OH231852   7.205   5.558   5.912
10636TIP3    H131853   7.194   5.471   5.876
10636TIP3    H231854   7.145   5.613   5.862
10637TIP3   OH231855   0.425   0.940   2.055
10637TIP3    H131856   0.494   1.004   2.041
10637TIP3    H231857   0.456   0.861   2.011
10638TIP3   OH231858   8.126   4.127   3.969
10638TIP3    H131859   8.133   4.035   3.943
10638TIP3    H231860   8.215   4.162   3.957
10639TIP3   OH231861   8.009   5.992   2.181
10639TIP3    H131862   8.017   6.082   2.213
10639TIP3    H231863   8.066   5.989   2.105
10640TIP3   OH231864   2.848   6.050   0.034
10640TIP3    H131865   2.900   6.000   0.096
10640TIP3    H231866   2.790   6.104   0.088
10641TIP3   OH231867   8.307   2.295   1.352
10641TIP3    H131868   8.244   2.223   1.347
10641TIP3    H231869   8.297   2.342   1.269
10642TIP3   OH231870   3.871   7.634   1.263
10642TIP3    H131871   3.777   7.627   1.244
10642TIP3    H231872   3.874   7.670   1.351
10643TIP3   OH231873   5.354   4.784   0.005
10643TIP3    H131874   5.267   4.782   0.044
10643TIP3    H231875   5.342   4.749  -0.083
10644TIP3   OH231876   2.966   0.629   2.438
10644TIP3    H131877   3.000   0.545   2.407
10644TIP3    H231878   3.012   0.645   2.520
10645TIP3   OH231879   0.172   7.421   1.121
10645TIP3    H131880   0.254   7.419   1.171
10645TIP3    H231881   0.103   7.421   1.188
10646TIP3   OH231882   6.624   0.083   0.110
10646TIP3    H131883   6.709   0.054   0.078
10646TIP3    H231884   6.577   0.002   0.131
10647TIP3   OH231885   2.795   3.647   5.835
10647TIP3    H131886   2.827   3.633   5.924
10647TIP3    H231887   2.839   3.579   5.783
10648TIP3   OH231888   5.588   2.552   1.131
10648TIP3    H131889   5.642   2.630   1.122
10648TIP3    H231890   5.611   2.517   1.217
10649TIP3   OH231891   6.977   0.644   5.090
10649TIP3    H131892   7.022   0.627   5.173
10649TIP3    H231893   6.993   0.565   5.038
10650TIP3   OH231894   1.709   1.879   5.727
10650TIP3    H131895   1.701   1.960   5.676
10650TIP3    H231896   1.775   1.899   5.793
10651TIP3   OH231897   0.909   4.301   5.488
10651TIP3    H131898   0.868   4.348   5.561
10651TIP3    H231899   1.003   4.311   5.503
10652TIP3   OH231900   5.493   6.533   5.100
10652TIP3    H131901   5.425   6.597   5.121
10652TIP3    H231902   5.446   6.449   5.097
10653TIP3   OH231903   5.316   3.462   5.521
10653TIP3    H131904   5.262   3.385   5.541
10653TIP3    H231905   5.406   3.432   5.531
10654TIP3   OH231906   7.606   2.982   2.015
10654TIP3    H131907   7.673   2.971   1.947
10654TIP3    H231908   7.631   2.919   2.083
10655TIP3   OH231909   5.418   0.646   0.915
10655TIP3    H131910   5.381   0.702   0.847
10655TIP3    H231911   5.341   0.613   0.962
10656TIP3   OH231912   5.938   5.866   3.374
10656TIP3    H131913   5.977   5.889   3.459
10656TIP3    H231914   5.880   5.939   3.354
10657TIP3   OH231915   3.770   7.640   0.153
10657TIP3    H131916   3.805   7.570   0.099
10657TIP3    H231917   3.752   7.600   0.238
10658TIP3   OH231918   2.523   5.223   6.091
10658TIP3    H131919   2.604   5.235   6.041
10658TIP3    H231920   2.544   5.156   6.155
10659TIP3   OH231921   1.970   6.390   5.448
10659TIP3    H131922   2.048   6.366   5.498
10659TIP3    H231923   1.974   6.335   5.370
10660TIP3   OH231924   5.881   6.193   0.678
10660TIP3    H131925   5.808   6.153   0.630
10660TIP3    H231926   5.953   6.132   0.668
10661TIP3   OH231927   6.332   3.808   4.826
10661TIP3    H131928   6.380   3.761   4.758
10661TIP3    H231929   6.353   3.900   4.810
10662TIP3   OH231930   5.671   6.518   6.640
10662TIP3    H131931   5.710   6.442   6.596
10662TIP3    H231932   5.666   6.585   6.571
10663TIP3   OH231933   7.275   7.268   2.111
10663TIP3    H131934   7.242   7.183   2.142
10663TIP3    H231935   7.269   7.262   2.016
10664TIP3   OH231936   3.463   4.360   3.912
10664TIP3    H131937   3.463   4.412   3.832
10664TIP3    H231938   3.494   4.273   3.883
10665TIP3   OH231939   1.589   3.900   1.255
10665TIP3    H131940   1.536   3.891   1.335
10665TIP3    H231941   1.672   3.937   1.285
10666TIP3   OH231942   0.225   3.427   5.545
10666TIP3    H131943   0.142   3.417   5.592
10666TIP3    H231944   0.222   3.360   5.477
10667TIP3   OH231945   3.926   4.025   3.006
10667TIP3    H131946   3.990   4.007   3.075
10667TIP3    H231947   3.970   4.089   2.950
10668TIP3   OH231948   4.372   4.722   2.571
10668TIP3    H131949   4.351   4.690   2.483
10668TIP3    H231950   4.430   4.655   2.608
10669TIP3   OH231951   1.821   1.285   6.516
10669TIP3    H131952   1.897   1.290   6.458
10669TIP3    H231953   1.837   1.353   6.582
10670TIP3   OH231954   5.149   6.857   6.160
10670TIP3    H131955   5.116   6.855   6.071
10670TIP3    H231956   5.243   6.839   6.152
10671TIP3   OH231957   6.804   6.506   0.248
10671TIP3    H131958   6.868   6.560   0.293
10671TIP3    H231959   6.845   6.487   0.163
10672TIP3   OH231960   3.764   4.829   1.092
10672TIP3    H131961   3.825   4.825   1.019
10672TIP3    H231962   3.752   4.922   1.109
10673TIP3   OH231963   8.022   7.619   2.656
10673TIP3    H131964   7.964   7.613   2.580
10673TIP3    H231965   8.085   7.548   2.644
10674TIP3   OH231966   2.742   6.904   4.343
10674TIP3    H131967   2.694   6.918   4.261
10674TIP3    H231968   2.830   6.936   4.325
10675TIP3   OH231969   2.009   6.650   2.844
10675TIP3    H131970   1.982   6.695   2.924
10675TIP3    H231971   1.962   6.695   2.774
10676TIP3   OH231972   0.198   1.926   2.979
10676TIP3    H131973   0.240   1.952   3.061
10676TIP3    H231974   0.123   1.986   2.971
10677TIP3   OH231975   6.128   4.149   5.166
10677TIP3    H131976   6.177   4.207   5.109
10677TIP3    H231977   6.160   4.168   5.254
10678TIP3   OH231978   0.353   6.935   5.150
10678TIP3    H131979   0.272   6.978   5.122
10678TIP3    H231980   0.328   6.888   5.230
10679TIP3   OH231981   4.577   6.477   2.976
10679TIP3    H131982   4.499   6.521   3.011
10679TIP3    H231983   4.641   6.546   2.965
10680TIP3   OH231984   7.403   6.319   4.692
10680TIP3    H131985   7.470   6.261   4.728
10680TIP3    H231986   7.347   6.260   4.641
10681TIP3   OH231987   1.937   4.092   0.681
10681TIP3    H131988   1.935   4.093   0.777
10681TIP3    H231989   1.987   4.170   0.657
10682TIP3   OH231990   2.941   0.503   5.278
10682TIP3    H131991   2.948   0.472   5.369
10682TIP3    H231992   2.863   0.559   5.278
10683TIP3   OH231993   6.851   5.052   1.494
10683TIP3    H131994   6.900   5.042   1.412
10683TIP3    H231995   6.862   5.144   1.517
10684TIP3   OH231996   4.540   0.178   6.359
10684TIP3    H131997   4.559   0.107   6.298
10684TIP3    H231998   4.445   0.190   6.354
10685TIP3   OH231999   4.611   4.104   2.394
10685TIP3    H132000   4.631   4.012   2.411
10685TIP3    H232001   4.697   4.144   2.376
10686TIP3   OH232002   1.206   3.560   2.591
10686TIP3    H132003   1.274   3.495   2.574
10686TIP3    H232004   1.144   3.516   2.649
10687TIP3   OH232005   5.351   2.559   6.351
10687TIP3    H132006   5.269   2.589   6.391
10687TIP3    H232007   5.409   2.636   6.354
10688TIP3   OH232008   1.248   5.666   0.767
10688TIP3    H132009   1.322   5.615   0.799
10688TIP3    H232010   1.250   5.656   0.672
10689TIP3   OH232011   0.012   2.178   3.302
10689TIP3    H132012   0.083   2.237   3.279
10689TIP3    H232013   0.016   2.171   3.398
10690TIP3   OH232014   5.013   5.993   4.656
10690TIP3    H132015   4.954   6.066   4.672
10690TIP3    H232016   5.080   6.001   4.723
10691TIP3   OH232017   4.925  -0.004   0.838
10691TIP3    H132018   4.966   0.041   0.764
10691TIP3    H232019   4.972   0.028   0.915
10692TIP3   OH232020   8.172   0.663   4.600
10692TIP3    H132021   8.082   0.669   4.566
10692TIP3    H232022   8.173   0.581   4.650
10693TIP3   OH232023   4.854   3.876   5.330
10693TIP3    H132024   4.831   3.939   5.262
10693TIP3    H232025   4.873   3.796   5.283
10694TIP3   OH232026   2.688   5.462   0.359
10694TIP3    H132027   2.633   5.451   0.281
10694TIP3    H232028   2.686   5.556   0.377
10695TIP3   OH232029   8.215   7.744   5.104
10695TIP3    H132030   8.180   7.832   5.088
10695TIP3    H232031   8.206   7.698   5.021
10696TIP3   OH232032   0.292   6.048   3.523
10696TIP3    H132033   0.240   6.008   3.453
10696TIP3    H232034   0.284   6.142   3.508
10697TIP3   OH232035   1.715   0.885   0.889
10697TIP3    H132036   1.689   0.938   0.964
10697TIP3    H232037   1.736   0.949   0.821
10698TIP3   OH232038   0.672   7.386   3.147
10698TIP3    H132039   0.723   7.430   3.079
10698TIP3    H232040   0.583   7.419   3.136
10699TIP3   OH232041   6.085   5.615   2.613
10699TIP3    H132042   6.040   5.700   2.611
10699TIP3    H232043   6.014   5.551   2.610
10700TIP3   OH232044   1.337   6.879   1.447
10700TIP3    H132045   1.376   6.812   1.502
10700TIP3    H232046   1.392   6.881   1.368
10701TIP3   OH232047   4.952   0.500   3.011
10701TIP3    H132048   4.882   0.565   3.002
10701TIP3    H232049   5.033   0.549   2.996
10702TIP3   OH232050   6.939   1.836   4.439
10702TIP3    H132051   7.024   1.878   4.427
10702TIP3    H232052   6.948   1.785   4.520
10703TIP3   OH232053   2.713   0.632   2.353
10703TIP3    H132054   2.790   0.629   2.409
10703TIP3    H232055   2.743   0.674   2.273
10704TIP3   OH232056   7.327   1.459   1.938
10704TIP3    H132057   7.267   1.395   1.976
10704TIP3    H232058   7.274   1.506   1.874
10705TIP3   OH232059   1.756   1.864   4.734
10705TIP3    H132060   1.753   1.774   4.700
10705TIP3    H232061   1.774   1.854   4.827
10706TIP3   OH232062   2.639   1.942   3.776
10706TIP3    H132063   2.559   1.896   3.753
10706TIP3    H232064   2.666   1.904   3.859
10707TIP3   OH232065   7.235   4.362   3.946
10707TIP3    H132066   7.198   4.330   4.028
10707TIP3    H232067   7.243   4.283   3.892
10708TIP3   OH232068   0.458   1.872   3.579
10708TIP3    H132069   0.516   1.839   3.510
10708TIP3    H232070   0.423   1.794   3.620
10709TIP3   OH232071   3.444   6.341   2.178
10709TIP3    H132072   3.442   6.271   2.112
10709TIP3    H232073   3.427   6.296   2.261
10710TIP3   OH232074   7.679   5.371  -0.002
10710TIP3    H132075   7.763   5.382   0.042
10710TIP3    H232076   7.614   5.393   0.064
10711TIP3   OH232077   6.162   3.504   4.444
10711TIP3    H132078   6.184   3.594   4.467
10711TIP3    H232079   6.090   3.511   4.381
10712TIP3   OH232080   0.377   3.606   6.018
10712TIP3    H132081   0.363   3.701   6.014
10712TIP3    H232082   0.356   3.574   5.931
10713TIP3   OH232083   4.361   5.278   2.374
10713TIP3    H132084   4.360   5.185   2.398
10713TIP3    H232085   4.306   5.284   2.296
10714TIP3   OH232086   6.470   4.325   3.310
10714TIP3    H132087   6.503   4.275   3.384
10714TIP3    H232088   6.518   4.293   3.234
10715TIP3   OH232089   0.143   5.369   2.246
10715TIP3    H132090   0.163   5.446   2.193
10715TIP3    H232091   0.107   5.306   2.184
10716TIP3   OH232092   4.536   4.360   4.202
10716TIP3    H132093   4.620   4.393   4.172
10716TIP3    H232094   4.475   4.432   4.188
10717TIP3   OH232095   6.452   6.828   5.125
10717TIP3    H132096   6.385   6.834   5.056
10717TIP3    H232097   6.533   6.852   5.081
10718TIP3   OH232098   3.393   2.446   4.284
10718TIP3    H132099   3.349   2.518   4.238
10718TIP3    H232100   3.340   2.369   4.263
10719TIP3   OH232101   7.154   4.075   5.925
10719TIP3    H132102   7.063   4.088   5.953
10719TIP3    H232103   7.206   4.121   5.991
10720TIP3   OH232104   3.993   7.157   1.668
10720TIP3    H132105   3.987   7.239   1.619
10720TIP3    H232106   3.970   7.089   1.603
10721TIP3   OH232107   2.036   6.386   3.645
10721TIP3    H132108   1.942   6.383   3.666
10721TIP3    H232109   2.070   6.459   3.698
10722TIP3   OH232110   4.899   5.170   1.472
10722TIP3    H132111   4.855   5.223   1.539
10722TIP3    H232112   4.961   5.116   1.521
10723TIP3   OH232113   1.794   5.079   6.385
10723TIP3    H132114   1.801   5.149   6.450
10723TIP3    H232115   1.706   5.043   6.398
10724TIP3   OH232116   6.981   6.164   2.400
10724TIP3    H132117   6.934   6.152   2.483
10724TIP3    H232118   6.920   6.132   2.333
10725TIP3   OH232119   1.833   2.292   2.793
10725TIP3    H132120   1.848   2.198   2.788
10725TIP3    H232121   1.915   2.328   2.825
10726TIP3   OH232122   1.593   3.197   6.693
10726TIP3    H132123   1.547   3.222   6.773
10726TIP3    H232124   1.530   3.212   6.623
10727TIP3   OH232125   0.420   1.955   4.138
10727TIP3    H132126   0.368   1.892   4.187
10727TIP3    H232127   0.503   1.910   4.121
10728TIP3   OH232128   8.165   6.528   3.124
10728TIP3    H132129   8.139   6.494   3.039
10728TIP3    H232130   8.084   6.561   3.163
10729TIP3   OH232131   0.548   7.825   4.536
10729TIP3    H132132   0.556   7.849   4.628
10729TIP3    H232133   0.593   7.741   4.529
10730TIP3   OH232134   3.731   5.047   4.932
10730TIP3    H132135   3.716   5.142   4.937
10730TIP3    H232136   3.751   5.022   5.022
10731TIP3   OH232137   2.851   4.537   4.350
10731TIP3    H132138   2.914   4.466   4.342
10731TIP3    H232139   2.822   4.554   4.261
10732TIP3   OH232140   1.401   0.654   4.207
10732TIP3    H132141   1.314   0.658   4.166
10732TIP3    H232142   1.436   0.569   4.179
10733TIP3   OH232143   3.394   0.134   4.799
10733TIP3    H132144   3.438   0.120   4.882
10733TIP3    H232145   3.458   0.180   4.745
10734TIP3   OH232146   5.834   6.568   3.111
10734TIP3    H132147   5.793   6.482   3.105
10734TIP3    H232148   5.771   6.628   3.072
10735TIP3   OH232149   6.191   5.947   0.076
10735TIP3    H132150   6.157   6.035   0.086
10735TIP3    H232151   6.134   5.907   0.009
10736TIP3   OH232152   1.282   6.737   4.451
10736TIP3    H132153   1.250   6.805   4.392
10736TIP3    H232154   1.256   6.766   4.538
10737TIP3   OH232155   6.332   3.313   4.520
10737TIP3    H132156   6.395   3.363   4.572
10737TIP3    H232157   6.281   3.380   4.473
10738TIP3   OH232158   6.099   3.595   2.890
10738TIP3    H132159   6.023   3.594   2.832
10738TIP3    H232160   6.123   3.503   2.900
10739TIP3   OH232161   7.299   6.804   0.648
10739TIP3    H132162   7.329   6.729   0.596
10739TIP3    H232163   7.279   6.767   0.733
10740TIP3   OH232164   6.292   4.439   0.424
10740TIP3    H132165   6.246   4.523   0.418
10740TIP3    H232166   6.377   4.461   0.464
10741TIP3   OH232167   1.622   2.845   3.172
10741TIP3    H132168   1.713   2.818   3.177
10741TIP3    H232169   1.606   2.894   3.253
10742TIP3   OH232170   0.386   4.715   5.568
10742TIP3    H132171   0.302   4.693   5.608
10742TIP3    H232172   0.451   4.670   5.622
10743TIP3   OH232173   0.418   1.329   0.999
10743TIP3    H132174   0.466   1.362   1.075
10743TIP3    H232175   0.482   1.276   0.952
10744TIP3   OH232176   2.093   4.682   4.542
10744TIP3    H132177   2.161   4.675   4.608
10744TIP3    H232178   2.140   4.701   4.460
10745TIP3   OH232179   5.546   5.837   2.187
10745TIP3    H132180   5.510   5.874   2.107
10745TIP3    H232181   5.547   5.911   2.249
10746TIP3   OH232182   6.017   1.518   0.663
10746TIP3    H132183   6.052   1.480   0.582
10746TIP3    H232184   6.056   1.606   0.667
10747TIP3   OH232185   5.853   5.742   4.055
10747TIP3    H132186   5.825   5.820   4.104
10747TIP3    H232187   5.902   5.691   4.119
10748TIP3   OH232188   0.050   3.116   4.871
10748TIP3    H132189   0.011   3.050   4.927
10748TIP3    H232190   0.089   3.066   4.799
10749TIP3   OH232191   7.668   2.049   4.146
10749TIP3    H132192   7.655   1.979   4.082
10749TIP3    H232193   7.701   2.004   4.224
10750TIP3   OH232194   7.539   5.790   3.010
10750TIP3    H132195   7.490   5.856   2.961
10750TIP3    H232196   7.627   5.827   3.018
10751TIP3   OH232197   2.070   3.261   0.389
10751TIP3    H132198   2.015   3.263   0.311
10751TIP3    H232199   2.117   3.344   0.388
10752TIP3   OH232200   2.235   0.199   6.249
10752TIP3    H132201   2.179   0.134   6.293
10752TIP3    H232202   2.206   0.198   6.158
10753TIP3   OH232203   7.447   2.740   3.299
10753TIP3    H132204   7.543   2.743   3.293
10753TIP3    H232205   7.430   2.720   3.391
10754TIP3   OH232206   2.799   6.783   6.006
10754TIP3    H132207   2.741   6.740   5.943
10754TIP3    H232208   2.763   6.871   6.016
10755TIP3   OH232209   4.684   5.145   5.071
10755TIP3    H132210   4.707   5.054   5.052
10755TIP3    H232211   4.597   5.156   5.034
10756TIP3   OH232212   5.591   4.073   1.474
10756TIP3    H132213   5.589   4.065   1.569
10756TIP3    H232214   5.684   4.080   1.453
10757TIP3   OH232215   6.267   4.683   2.359
10757TIP3    H132216   6.181   4.653   2.327
10757TIP3    H232217   6.272   4.774   2.331
10758TIP3   OH232218   3.715   6.617   1.888
10758TIP3    H132219   3.685   6.543   1.836
10758TIP3    H232220   3.731   6.687   1.825
10759TIP3   OH232221   1.197   4.128   6.141
10759TIP3    H132222   1.219   4.182   6.217
10759TIP3    H232223   1.280   4.115   6.096
10760TIP3   OH232224   4.988   7.108   0.513
10760TIP3    H132225   5.063   7.076   0.563
10760TIP3    H232226   5.026   7.140   0.431
10761TIP3   OH232227   2.166   4.342   6.678
10761TIP3    H132228   2.242   4.349   6.620
10761TIP3    H232229   2.091   4.362   6.622
10762TIP3   OH232230   3.210   5.587   6.651
10762TIP3    H132231   3.183   5.603   6.741
10762TIP3    H232232   3.305   5.594   6.652
10763TIP3   OH232233   6.813   3.480   0.447
10763TIP3    H132234   6.727   3.440   0.462
10763TIP3    H232235   6.866   3.409   0.408
10764TIP3   OH232236   4.156   7.247   3.043
10764TIP3    H132237   4.066   7.231   3.072
10764TIP3    H232238   4.162   7.205   2.957
10765TIP3   OH232239   7.946   0.275   5.903
10765TIP3    H132240   8.038   0.296   5.894
10765TIP3    H232241   7.900   0.357   5.886
10766TIP3   OH232242   0.933   6.389   6.207
10766TIP3    H132243   0.893   6.465   6.250
10766TIP3    H232244   0.985   6.426   6.135
10767TIP3   OH232245   6.350   5.592   2.837
10767TIP3    H132246   6.317   5.565   2.923
10767TIP3    H232247   6.426   5.536   2.822
10768TIP3   OH232248   5.694   2.708   4.978
10768TIP3    H132249   5.705   2.648   5.051
10768TIP3    H232250   5.747   2.784   5.000
10769TIP3   OH232251   1.734   1.509   3.485
10769TIP3    H132252   1.779   1.427   3.461
10769TIP3    H232253   1.804   1.571   3.501
10770TIP3   OH232254   2.153   3.297   6.761
10770TIP3    H132255   2.164   3.202   6.756
10770TIP3    H232256   2.243   3.331   6.761
10771TIP3   OH232257   0.389   5.824   6.743
10771TIP3    H132258   0.433   5.905   6.719
10771TIP3    H232259   0.302   5.851   6.773
10772TIP3   OH232260   1.665   5.081   2.913
10772TIP3    H132261   1.610   5.102   2.838
10772TIP3    H232262   1.755   5.084   2.879
10773TIP3   OH232263   2.181   1.511   0.834
10773TIP3    H132264   2.229   1.484   0.912
10773TIP3    H232265   2.092   1.479   0.849
10774TIP3   OH232266   5.662   4.134   0.076
10774TIP3    H132267   5.617   4.213   0.104
10774TIP3    H232268   5.644   4.070   0.146
10775TIP3   OH232269   2.871   7.540   0.587
10775TIP3    H132270   2.807   7.510   0.651
10775TIP3    H232271   2.890   7.463   0.534
10776TIP3   OH232272   0.372   7.439   0.668
10776TIP3    H132273   0.417   7.374   0.615
10776TIP3    H232274   0.297   7.467   0.615
10777TIP3   OH232275   5.420   2.265   2.176
10777TIP3    H132276   5.371   2.233   2.251
10777TIP3    H232277   5.354   2.284   2.109
10778TIP3   OH232278   5.412   1.634   0.874
10778TIP3    H132279   5.436   1.560   0.818
10778TIP3    H232280   5.449   1.612   0.960
10779TIP3   OH232281   1.901   1.067   4.833
10779TIP3    H132282   1.942   0.987   4.800
10779TIP3    H232283   1.970   1.133   4.827
10780TIP3   OH232284   7.973   1.869   4.458
10780TIP3    H132285   7.963   1.785   4.414
10780TIP3    H232286   8.062   1.897   4.438
10781TIP3   OH232287   3.653   1.884   0.861
10781TIP3    H132288   3.611   1.918   0.940
10781TIP3    H232289   3.586   1.829   0.820
10782TIP3   OH232290   0.514   4.504   4.092
10782TIP3    H132291   0.480   4.491   4.180
10782TIP3    H232292   0.605   4.477   4.096
10783TIP3   OH232293   0.662   3.808   5.949
10783TIP3    H132294   0.626   3.755   6.020
10783TIP3    H232295   0.584   3.839   5.902
10784TIP3   OH232296   5.028   4.349   5.462
10784TIP3    H132297   5.122   4.335   5.461
10784TIP3    H232298   4.991   4.260   5.470
10785TIP3   OH232299   3.632   7.070   4.256
10785TIP3    H132300   3.590   7.042   4.338
10785TIP3    H232301   3.664   7.158   4.276
10786TIP3   OH232302   2.802   2.673   1.211
10786TIP3    H132303   2.828   2.584   1.234
10786TIP3    H232304   2.860   2.729   1.263
10787TIP3   OH232305   6.539   7.769   3.076
10787TIP3    H132306   6.631   7.790   3.062
10787TIP3    H232307   6.525   7.784   3.170
10788TIP3   OH232308   3.186   0.354   2.120
10788TIP3    H132309   3.277   0.326   2.121
10788TIP3    H232310   3.187   0.437   2.073
10789TIP3   OH232311   6.383   1.192   1.483
10789TIP3    H132312   6.406   1.131   1.413
10789TIP3    H232313   6.312   1.244   1.446
10790TIP3   OH232314   2.122   5.441   2.806
10790TIP3    H132315   2.126   5.516   2.747
10790TIP3    H232316   2.208   5.439   2.849
10791TIP3   OH232317   4.721   5.716   1.164
10791TIP3    H132318   4.774   5.654   1.213
10791TIP3    H232319   4.703   5.671   1.081
10792TIP3   OH232320   2.665   4.635   1.135
10792TIP3    H132321   2.746   4.685   1.147
10792TIP3    H232322   2.599   4.701   1.118
10793TIP3   OH232323   1.990   6.728   4.155
10793TIP3    H132324   2.055   6.664   4.127
10793TIP3    H232325   2.037   6.811   4.158
10794TIP3   OH232326   4.559   3.253   4.882
10794TIP3    H132327   4.490   3.312   4.912
10794TIP3    H232328   4.620   3.309   4.834
10795TIP3   OH232329   5.103   4.097   4.773
10795TIP3    H132330   5.014   4.124   4.793
10795TIP3    H232331   5.158   4.171   4.798
10796TIP3   OH232332   3.234   1.755   1.589
10796TIP3    H132333   3.150   1.787   1.555
10796TIP3    H232334   3.225   1.762   1.684
10797TIP3   OH232335   0.990   6.539   2.530
10797TIP3    H132336   1.051   6.558   2.601
10797TIP3    H232337   1.042   6.546   2.450
10798TIP3   OH232338   6.440   6.936   0.567
10798TIP3    H132339   6.438   7.031   0.577
10798TIP3    H232340   6.427   6.902   0.656
10799TIP3   OH232341   0.364   4.694   0.012
10799TIP3    H132342   0.371   4.782   0.048
10799TIP3    H232343   0.384   4.636   0.085
10800TIP3   OH232344   0.459   6.985   5.981
10800TIP3    H132345   0.434   6.944   5.898
10800TIP3    H232346   0.474   6.911   6.040
10801TIP3   OH232347   7.327   7.765   0.386
10801TIP3    H132348   7.287   7.746   0.471
10801TIP3    H232349   7.390   7.835   0.405
10802TIP3   OH232350   4.821   7.659   0.557
10802TIP3    H132351   4.899   7.659   0.500
10802TIP3    H232352   4.837   7.730   0.619
10803TIP3   OH232353   6.205   2.229   3.800
10803TIP3    H132354   6.139   2.232   3.869
10803TIP3    H232355   6.155   2.235   3.718
10804TIP3   OH232356   0.007   2.599   3.720
10804TIP3    H132357   0.012   2.692   3.743
10804TIP3    H232358  -0.078   2.571   3.753
10805TIP3   OH232359   4.559   0.048   0.588
10805TIP3    H132360   4.527   0.091   0.509
10805TIP3    H232361   4.586   0.120   0.645
10806TIP3   OH232362   4.238   0.655   4.191
10806TIP3    H132363   4.250   0.578   4.135
10806TIP3    H232364   4.166   0.630   4.249
10807TIP3   OH232365   5.292   0.220   3.694
10807TIP3    H132366   5.324   0.157   3.758
10807TIP3    H232367   5.236   0.279   3.744
10808TIP3   OH232368   7.501   1.318   2.283
10808TIP3    H132369   7.527   1.353   2.198
10808TIP3    H232370   7.563   1.248   2.301
10809TIP3   OH232371   7.935   4.824   4.202
10809TIP3    H132372   7.960   4.769   4.276
10809TIP3    H232373   7.854   4.867   4.230
10810TIP3   OH232374   6.944   5.961   3.114
10810TIP3    H132375   6.922   5.870   3.094
10810TIP3    H232376   6.972   5.960   3.206
10811TIP3   OH232377   7.943   6.776   0.811
10811TIP3    H132378   7.872   6.736   0.861
10811TIP3    H232379   7.996   6.702   0.780
10812TIP3   OH232380   5.595   3.336   0.719
10812TIP3    H132381   5.644   3.336   0.637
10812TIP3    H232382   5.537   3.260   0.713
10813TIP3   OH232383   1.564   5.906   3.993
10813TIP3    H132384   1.556   5.932   4.084
10813TIP3    H232385   1.481   5.863   3.972
10814TIP3   OH232386   1.096   1.246   4.619
10814TIP3    H132387   1.158   1.183   4.655
10814TIP3    H232388   1.072   1.301   4.694
10815TIP3   OH232389   1.830   2.088   5.509
10815TIP3    H132390   1.893   2.155   5.535
10815TIP3    H232391   1.834   2.087   5.414
10816TIP3   OH232392   6.876   1.838   0.673
10816TIP3    H132393   6.905   1.768   0.614
10816TIP3    H232394   6.877   1.917   0.619
10817TIP3   OH232395   2.633   2.254   3.953
10817TIP3    H132396   2.689   2.320   3.992
10817TIP3    H232397   2.617   2.191   4.023
10818TIP3   OH232398   4.745   2.661   0.361
10818TIP3    H132399   4.662   2.629   0.327
10818TIP3    H232400   4.783   2.587   0.409
10819TIP3   OH232401   6.311   0.375   0.824
10819TIP3    H132402   6.349   0.346   0.907
10819TIP3    H232403   6.356   0.457   0.804
10820TIP3   OH232404   2.740   3.263   6.437
10820TIP3    H132405   2.812   3.215   6.477
10820TIP3    H232406   2.736   3.346   6.485
10821TIP3   OH232407   4.962   5.981   2.405
10821TIP3    H132408   5.024   6.044   2.370
10821TIP3    H232409   4.903   5.962   2.332
10822TIP3   OH232410   7.929   7.556   4.477
10822TIP3    H132411   7.910   7.487   4.413
10822TIP3    H232412   7.967   7.627   4.425
10823TIP3   OH232413   0.208   4.330   5.820
10823TIP3    H132414   0.222   4.300   5.910
10823TIP3    H232415   0.137   4.275   5.787
10824TIP3   OH232416   7.589   1.257   4.038
10824TIP3    H132417   7.530   1.222   3.971
10824TIP3    H232418   7.552   1.342   4.061
10825TIP3   OH232419   7.471   4.755   2.323
10825TIP3    H132420   7.457   4.735   2.416
10825TIP3    H232421   7.448   4.847   2.315
10826TIP3   OH232422   0.203   2.047   5.585
10826TIP3    H132423   0.164   2.070   5.501
10826TIP3    H232424   0.172   1.958   5.601
10827TIP3   OH232425   7.496   6.987   2.193
10827TIP3    H132426   7.444   6.996   2.114
10827TIP3    H232427   7.508   6.892   2.204
10828TIP3   OH232428   7.737   2.036   5.651
10828TIP3    H132429   7.720   2.126   5.680
10828TIP3    H232430   7.777   2.045   5.565
10829TIP3   OH232431   6.897   6.998   1.460
10829TIP3    H132432   6.987   7.017   1.433
10829TIP3    H232433   6.853   6.969   1.380
10830TIP3   OH232434   4.478   3.365   2.189
10830TIP3    H132435   4.456   3.294   2.250
10830TIP3    H232436   4.393   3.403   2.166
10831TIP3   OH232437   0.501   1.855   6.427
10831TIP3    H132438   0.519   1.856   6.521
10831TIP3    H232439   0.583   1.825   6.387
10832TIP3   OH232440   1.332   6.228   2.155
10832TIP3    H132441   1.333   6.164   2.225
10832TIP3    H232442   1.409   6.282   2.170
10833TIP3   OH232443   6.208   6.257   3.772
10833TIP3    H132444   6.241   6.294   3.854
10833TIP3    H232445   6.117   6.233   3.791
10834TIP3   OH232446   6.699   1.801   6.059
10834TIP3    H132447   6.769   1.813   6.123
10834TIP3    H232448   6.711   1.871   5.995
10835TIP3   OH232449   4.285   6.729   5.975
10835TIP3    H132450   4.214   6.757   6.034
10835TIP3    H232451   4.240   6.693   5.899
10836TIP3   OH232452   2.902   5.727   3.173
10836TIP3    H132453   2.955   5.651   3.195
10836TIP3    H232454   2.867   5.707   3.086
10837TIP3   OH232455   3.903   4.375   1.321
10837TIP3    H132456   3.885   4.343   1.410
10837TIP3    H232457   3.817   4.381   1.280
10838TIP3   OH232458   6.974   2.455   1.333
10838TIP3    H132459   7.058   2.498   1.318
10838TIP3    H232460   6.928   2.462   1.250
10839TIP3   OH232461   3.814   7.443   2.215
10839TIP3    H132462   3.865   7.365   2.194
10839TIP3    H232463   3.794   7.434   2.308
10840TIP3   OH232464   4.921   3.608   1.337
10840TIP3    H132465   4.997   3.599   1.280
10840TIP3    H232466   4.942   3.682   1.394
10841TIP3   OH232467   5.170   2.253   1.564
10841TIP3    H132468   5.148   2.270   1.473
10841TIP3    H232469   5.234   2.321   1.587
10842TIP3   OH232470   4.273   5.505   3.160
10842TIP3    H132471   4.223   5.425   3.147
10842TIP3    H232472   4.345   5.499   3.097
10843TIP3   OH232473   4.698   5.068   4.406
10843TIP3    H132474   4.753   5.084   4.483
10843TIP3    H232475   4.616   5.113   4.424
10844TIP3   OH232476   2.231   5.528   1.262
10844TIP3    H132477   2.158   5.482   1.304
10844TIP3    H232478   2.204   5.536   1.170
10845TIP3   OH232479   0.471   2.977   0.377
10845TIP3    H132480   0.457   3.064   0.414
10845TIP3    H232481   0.541   2.939   0.429
10846TIP3   OH232482   7.580   6.751   1.604
10846TIP3    H132483   7.499   6.714   1.640
10846TIP3    H232484   7.649   6.719   1.661
10847TIP3   OH232485   4.008   2.004   4.641
10847TIP3    H132486   3.976   1.965   4.722
10847TIP3    H232487   4.051   1.931   4.596
10848TIP3   OH232488   7.895   1.464   0.343
10848TIP3    H132489   7.892   1.547   0.297
10848TIP3    H232490   7.842   1.478   0.421
10849TIP3   OH232491   0.292   5.769   4.935
10849TIP3    H132492   0.309   5.828   5.008
10849TIP3    H232493   0.361   5.790   4.872
10850TIP3   OH232494   2.967   5.238   5.279
10850TIP3    H132495   2.923   5.235   5.194
10850TIP3    H232496   3.015   5.156   5.284
10851TIP3   OH232497   0.221   1.184   4.624
10851TIP3    H132498   0.277   1.261   4.614
10851TIP3    H232499   0.192   1.188   4.715
10852TIP3   OH232500   2.224   4.694   1.631
10852TIP3    H132501   2.133   4.676   1.658
10852TIP3    H232502   2.218   4.775   1.581
10853TIP3   OH232503   6.147   0.354   6.274
10853TIP3    H132504   6.232   0.392   6.253
10853TIP3    H232505   6.166   0.288   6.341
10854TIP3   OH232506   3.134   5.939   5.787
10854TIP3    H132507   3.218   5.896   5.772
10854TIP3    H232508   3.149   5.996   5.863
10855TIP3   OH232509   0.836   3.205   6.311
10855TIP3    H132510   0.823   3.299   6.301
10855TIP3    H232511   0.814   3.169   6.225
10856TIP3   OH232512   6.628   1.451   2.438
10856TIP3    H132513   6.575   1.375   2.412
10856TIP3    H232514   6.572   1.500   2.498
10857TIP3   OH232515   7.669   4.098   5.380
10857TIP3    H132516   7.762   4.095   5.357
10857TIP3    H232517   7.623   4.092   5.296
10858TIP3   OH232518   1.296   7.137   5.185
10858TIP3    H132519   1.317   7.230   5.195
10858TIP3    H232520   1.335   7.095   5.262
10859TIP3   OH232521   2.244   2.892   2.808
10859TIP3    H132522   2.260   2.961   2.744
10859TIP3    H232523   2.148   2.885   2.812
10860TIP3   OH232524   3.274   1.603   3.676
10860TIP3    H132525   3.298   1.562   3.593
10860TIP3    H232526   3.272   1.697   3.656
10861TIP3   OH232527   6.876   7.338   1.256
10861TIP3    H132528   6.970   7.323   1.262
10861TIP3    H232529   6.863   7.377   1.170
10862TIP3   OH232530   8.017   2.353   1.645
10862TIP3    H132531   7.943   2.334   1.703
10862TIP3    H232532   8.048   2.267   1.617
10863TIP3   OH232533   4.905   3.365   0.901
10863TIP3    H132534   4.959   3.440   0.925
10863TIP3    H232535   4.965   3.307   0.853
10864TIP3   OH232536   0.568   3.964   0.800
10864TIP3    H132537   0.498   3.900   0.809
10864TIP3    H232538   0.636   3.935   0.861
10865TIP3   OH232539   5.069   2.294   0.056
10865TIP3    H132540   5.163   2.287   0.036
10865TIP3    H232541   5.043   2.380   0.023
10866TIP3   OH232542   7.751   4.100   6.276
10866TIP3    H132543   7.706   4.174   6.316
10866TIP3    H232544   7.835   4.095   6.322
10867TIP3   OH232545   3.900   3.271   4.891
10867TIP3    H132546   3.930   3.268   4.800
10867TIP3    H232547   3.835   3.201   4.898
10868TIP3   OH232548   6.623   4.905   5.854
10868TIP3    H132549   6.613   4.940   5.766
10868TIP3    H232550   6.639   4.811   5.841
10869TIP3   OH232551   2.590   0.416   4.952
10869TIP3    H132552   2.500   0.389   4.932
10869TIP3    H232553   2.641   0.335   4.948
10870TIP3   OH232554   0.106   0.162   5.660
10870TIP3    H132555   0.146   0.235   5.613
10870TIP3    H232556   0.172   0.134   5.723
10871TIP3   OH232557   4.441   2.851   1.582
10871TIP3    H132558   4.469   2.782   1.522
10871TIP3    H232559   4.479   2.931   1.545
10872TIP3   OH232560   8.111   0.318   4.475
10872TIP3    H132561   8.149   0.357   4.554
10872TIP3    H232562   8.022   0.293   4.501
10873TIP3   OH232563   4.044   4.813   5.909
10873TIP3    H132564   4.127   4.787   5.949
10873TIP3    H232565   4.018   4.738   5.855
10874TIP3   OH232566   7.121   2.441   5.863
10874TIP3    H132567   7.148   2.403   5.946
10874TIP3    H232568   7.027   2.457   5.873
10875TIP3   OH232569   3.393   4.849   3.415
10875TIP3    H132570   3.451   4.908   3.463
10875TIP3    H232571   3.378   4.893   3.331
10876TIP3   OH232572   5.723   7.697   1.026
10876TIP3    H132573   5.685   7.611   1.006
10876TIP3    H232574   5.771   7.722   0.947
10877TIP3   OH232575   3.483   3.972   1.260
10877TIP3    H132576   3.527   3.961   1.344
10877TIP3    H232577   3.420   3.900   1.257
10878TIP3   OH232578   5.449   0.770   2.569
10878TIP3    H132579   5.531   0.810   2.540
10878TIP3    H232580   5.473   0.719   2.646
10879TIP3   OH232581   3.028   2.352   4.571
10879TIP3    H132582   3.033   2.407   4.492
10879TIP3    H232583   2.936   2.355   4.596
10880TIP3   OH232584   7.661   4.915   4.626
10880TIP3    H132585   7.624   4.912   4.714
10880TIP3    H232586   7.733   4.978   4.632
10881TIP3   OH232587   0.847   7.748   4.714
10881TIP3    H132588   0.777   7.736   4.650
10881TIP3    H232589   0.802   7.758   4.798
10882TIP3   OH232590   2.840   5.943   2.348
10882TIP3    H132591   2.873   5.853   2.352
10882TIP3    H232592   2.828   5.959   2.254
10883TIP3   OH232593   0.729   6.169   3.315
10883TIP3    H132594   0.770   6.169   3.401
10883TIP3    H232595   0.648   6.119   3.328
10884TIP3   OH232596   6.655   5.946   0.378
10884TIP3    H132597   6.599   6.004   0.327
10884TIP3    H232598   6.624   5.956   0.468
10885TIP3   OH232599   6.535   4.071   5.017
10885TIP3    H132600   6.533   4.131   5.092
10885TIP3    H232601   6.508   3.986   5.054
10886TIP3   OH232602   5.767   7.042   6.575
10886TIP3    H132603   5.688   7.029   6.521
10886TIP3    H232604   5.771   7.137   6.589
10887TIP3   OH232605   2.847   7.325   3.782
10887TIP3    H132606   2.888   7.308   3.866
10887TIP3    H232607   2.912   7.374   3.732
10888TIP3   OH232608   3.360   1.133   4.790
10888TIP3    H132609   3.268   1.157   4.799
10888TIP3    H232610   3.385   1.097   4.875
10889TIP3   OH232611   7.529   0.237   1.482
10889TIP3    H132612   7.576   0.219   1.564
10889TIP3    H232613   7.589   0.292   1.432
10890TIP3   OH232614   0.487   2.037   2.119
10890TIP3    H132615   0.487   1.994   2.034
10890TIP3    H232616   0.403   2.084   2.122
10891TIP3   OH232617   2.776   0.502   2.117
10891TIP3    H132618   2.831   0.426   2.100
10891TIP3    H232619   2.789   0.559   2.041
10892TIP3   OH232620   1.282   6.369   4.017
10892TIP3    H132621   1.210   6.406   4.070
10892TIP3    H232622   1.348   6.438   4.017
10893TIP3   OH232623   1.155   5.617   3.517
10893TIP3    H132624   1.230   5.558   3.516
10893TIP3    H232625   1.134   5.631   3.424
10894TIP3   OH232626   1.920   0.412   3.131
10894TIP3    H132627   1.887   0.487   3.180
10894TIP3    H232628   2.014   0.427   3.123
10895TIP3   OH232629   2.766   4.330   5.496
10895TIP3    H132630   2.750   4.236   5.497
10895TIP3    H232631   2.759   4.355   5.404
10896TIP3   OH232632   0.142   7.386   0.837
10896TIP3    H132633   0.219   7.435   0.809
10896TIP3    H232634   0.131   7.408   0.930
10897TIP3   OH232635   5.599   0.681   1.838
10897TIP3    H132636   5.611   0.670   1.744
10897TIP3    H232637   5.610   0.774   1.854
10898TIP3   OH232638   7.824   3.683   2.770
10898TIP3    H132639   7.911   3.696   2.731
10898TIP3    H232640   7.834   3.714   2.860
10899TIP3   OH232641   7.851   2.322   1.880
10899TIP3    H132642   7.844   2.307   1.975
10899TIP3    H232643   7.818   2.411   1.868
10900TIP3   OH232644   6.198   3.545   0.290
10900TIP3    H132645   6.122   3.575   0.340
10900TIP3    H232646   6.169   3.462   0.251
10901TIP3   OH232647   0.734   1.044   2.966
10901TIP3    H132648   0.710   1.038   3.058
10901TIP3    H232649   0.819   1.000   2.960
10902TIP3   OH232650   6.677   4.809   0.174
10902TIP3    H132651   6.753   4.751   0.184
10902TIP3    H232652   6.626   4.796   0.254
10903TIP3   OH232653   3.623   4.029   2.998
10903TIP3    H132654   3.651   3.970   2.928
10903TIP3    H232655   3.705   4.062   3.035
10904TIP3   OH232656   5.732   1.448   0.664
10904TIP3    H132657   5.826   1.435   0.647
10904TIP3    H232658   5.729   1.507   0.739
10905TIP3   OH232659   7.710   3.811   4.968
10905TIP3    H132660   7.773   3.835   4.900
10905TIP3    H232661   7.692   3.893   5.013
10906TIP3   OH232662   7.613   1.524   5.410
10906TIP3    H132663   7.672   1.508   5.484
10906TIP3    H232664   7.636   1.457   5.346
10907TIP3   OH232665   4.682   5.326   0.817
10907TIP3    H132666   4.633   5.309   0.897
10907TIP3    H232667   4.678   5.243   0.769
10908TIP3   OH232668   7.865   2.185   0.966
10908TIP3    H132669   7.814   2.247   0.913
10908TIP3    H232670   7.800   2.139   1.019
10909TIP3   OH232671   6.440   7.513   3.682
10909TIP3    H132672   6.365   7.455   3.694
10909TIP3    H232673   6.463   7.541   3.771
10910TIP3   OH232674   0.805   3.018   6.783
10910TIP3    H132675   0.786   3.095   6.728
10910TIP3    H232676   0.753   2.948   6.744
10911TIP3   OH232677   0.594   7.302   0.753
10911TIP3    H132678   0.661   7.362   0.786
10911TIP3    H232679   0.517   7.357   0.739
10912TIP3   OH232680   7.550   5.826   6.772
10912TIP3    H132681   7.608   5.874   6.831
10912TIP3    H232682   7.468   5.819   6.820
10913TIP3   OH232683   5.742   0.017   0.049
10913TIP3    H132684   5.656   0.058   0.052
10913TIP3    H232685   5.726  -0.070   0.013
10914TIP3   OH232686   4.258   0.438   4.023
10914TIP3    H132687   4.327   0.383   3.986
10914TIP3    H232688   4.206   0.465   3.947
10915TIP3   OH232689   0.413   3.934   2.854
10915TIP3    H132690   0.376   3.944   2.942
10915TIP3    H232691   0.502   3.900   2.869
10916TIP3   OH232692   2.477   2.895   4.364
10916TIP3    H132693   2.474   2.911   4.458
10916TIP3    H232694   2.408   2.830   4.348
10917TIP3   OH232695   0.779   4.650   5.935
10917TIP3    H132696   0.815   4.656   5.847
10917TIP3    H232697   0.825   4.577   5.975
10918TIP3   OH232698   6.049   5.936   3.652
10918TIP3    H132699   6.083   5.903   3.735
10918TIP3    H232700   6.012   6.021   3.674
10919TIP3   OH232701   3.738   7.590   1.527
10919TIP3    H132702   3.652   7.632   1.531
10919TIP3    H232703   3.722   7.508   1.480
10920TIP3   OH232704   2.371   3.213   3.800
10920TIP3    H132705   2.331   3.228   3.885
10920TIP3    H232706   2.416   3.129   3.809
10921TIP3   OH232707   7.183   0.820   3.075
10921TIP3    H132708   7.180   0.855   2.986
10921TIP3    H232709   7.275   0.798   3.089
10922TIP3   OH232710   4.489   0.976   1.679
10922TIP3    H132711   4.519   0.952   1.767
10922TIP3    H232712   4.394   0.972   1.685
10923TIP3   OH232713   4.584   1.461   2.483
10923TIP3    H132714   4.632   1.544   2.490
10923TIP3    H232715   4.570   1.449   2.389
10924TIP3   OH232716   3.862   0.831   1.230
10924TIP3    H132717   3.843   0.740   1.251
10924TIP3    H232718   3.868   0.833   1.135
10925TIP3   OH232719   8.148   7.175   6.209
10925TIP3    H132720   8.172   7.086   6.235
10925TIP3    H232721   8.067   7.166   6.160
10926TIP3   OH232722   6.197   7.673   1.880
10926TIP3    H132723   6.205   7.741   1.947
10926TIP3    H232724   6.248   7.600   1.914
10927TIP3   OH232725   4.739   3.955   0.926
10927TIP3    H132726   4.727   3.876   0.978
10927TIP3    H232727   4.798   4.009   0.978
10928TIP3   OH232728   0.138   5.475   6.044
10928TIP3    H132729   0.224   5.512   6.023
10928TIP3    H232730   0.085   5.551   6.070
10929TIP3   OH232731   3.792   2.905   0.471
10929TIP3    H132732   3.807   2.810   0.469
10929TIP3    H232733   3.730   2.920   0.399
10930TIP3   OH232734   5.886   0.784   3.215
10930TIP3    H132735   5.963   0.838   3.232
10930TIP3    H232736   5.896   0.710   3.275
10931TIP3   OH232737   4.082   3.465   3.963
10931TIP3    H132738   4.053   3.502   3.879
10931TIP3    H232739   4.007   3.416   3.996
10932TIP3   OH232740   4.822   4.489   0.208
10932TIP3    H132741   4.789   4.575   0.234
10932TIP3    H232742   4.876   4.460   0.281
10933TIP3   OH232743   5.780   4.131   5.377
10933TIP3    H132744   5.730   4.079   5.314
10933TIP3    H232745   5.732   4.121   5.459
10934TIP3   OH232746   7.801   1.398   6.548
10934TIP3    H132747   7.810   1.469   6.485
10934TIP3    H232748   7.820   1.439   6.633
10935TIP3   OH232749   4.999   0.282   1.617
10935TIP3    H132750   5.082   0.235   1.611
10935TIP3    H232751   4.990   0.325   1.532
10936TIP3   OH232752   0.382   2.566   1.285
10936TIP3    H132753   0.416   2.489   1.240
10936TIP3    H232754   0.371   2.539   1.376
10937TIP3   OH232755   3.392   1.019   1.311
10937TIP3    H132756   3.388   0.924   1.321
10937TIP3    H232757   3.366   1.053   1.396
10938TIP3   OH232758   7.491   3.955   2.698
10938TIP3    H132759   7.405   3.927   2.666
10938TIP3    H232760   7.551   3.889   2.664
10939TIP3   OH232761   5.753   4.235   1.306
10939TIP3    H132762   5.748   4.311   1.249
10939TIP3    H232763   5.721   4.162   1.252
10940TIP3   OH232764   8.129   4.652   0.229
10940TIP3    H132765   8.119   4.666   0.135
10940TIP3    H232766   8.194   4.583   0.236
10941TIP3   OH232767   2.661   7.419   1.719
10941TIP3    H132768   2.630   7.343   1.671
10941TIP3    H232769   2.581   7.466   1.743
10942TIP3   OH232770   2.650   4.466   3.853
10942TIP3    H132771   2.639   4.387   3.800
10942TIP3    H232772   2.744   4.471   3.869
10943TIP3   OH232773   3.507   7.307   3.514
10943TIP3    H132774   3.602   7.292   3.513
10943TIP3    H232775   3.490   7.358   3.435
10944TIP3   OH232776   3.106   3.233   5.334
10944TIP3    H132777   3.100   3.150   5.286
10944TIP3    H232778   3.024   3.278   5.314
10945TIP3   OH232779   3.860   6.456   4.364
10945TIP3    H132780   3.773   6.443   4.327
10945TIP3    H232781   3.916   6.395   4.316
10946TIP3   OH232782   7.138   3.851   5.376
10946TIP3    H132783   7.058   3.798   5.381
10946TIP3    H232784   7.156   3.856   5.282
10947TIP3   OH232785   5.868   1.044   4.428
10947TIP3    H132786   5.905   1.130   4.446
10947TIP3    H232787   5.944   0.988   4.412
10948TIP3   OH232788   3.175   2.637   3.072
10948TIP3    H132789   3.207   2.709   3.126
10948TIP3    H232790   3.147   2.570   3.135
10949TIP3   OH232791   6.707   7.028   6.769
10949TIP3    H132792   6.690   7.108   6.820
10949TIP3    H232793   6.624   6.980   6.771
10950TIP3   OH232794   4.978   0.162   4.913
10950TIP3    H132795   4.967   0.072   4.884
10950TIP3    H232796   4.947   0.216   4.840
10951TIP3   OH232797   6.101   0.040   3.023
10951TIP3    H132798   6.066   0.076   2.942
10951TIP3    H232799   6.024   0.027   3.079
10952TIP3   OH232800   1.167   2.101   3.820
10952TIP3    H132801   1.234   2.089   3.888
10952TIP3    H232802   1.087   2.122   3.867
10953TIP3   OH232803   6.888   5.772   6.516
10953TIP3    H132804   6.819   5.706   6.517
10953TIP3    H232805   6.969   5.723   6.530
10954TIP3   OH232806   5.521   4.257   5.311
10954TIP3    H132807   5.541   4.333   5.257
10954TIP3    H232808   5.601   4.205   5.310
10955TIP3   OH232809   6.302   0.639   3.532
10955TIP3    H132810   6.366   0.671   3.468
10955TIP3    H232811   6.241   0.711   3.544
10956TIP3   OH232812   2.710   5.117   1.124
10956TIP3    H132813   2.797   5.084   1.149
10956TIP3    H232814   2.655   5.100   1.200
10957TIP3   OH232815   6.741   1.235   4.349
10957TIP3    H132816   6.693   1.164   4.390
10957TIP3    H232817   6.715   1.232   4.257
10958TIP3   OH232818   7.949   4.184   2.982
10958TIP3    H132819   8.004   4.260   2.964
10958TIP3    H232820   7.881   4.217   3.041
10959TIP3   OH232821   4.739   0.313   5.813
10959TIP3    H132822   4.759   0.389   5.758
10959TIP3    H232823   4.709   0.246   5.751
10960TIP3   OH232824   3.344   0.772   1.352
10960TIP3    H132825   3.267   0.726   1.316
10960TIP3    H232826   3.377   0.714   1.421
10961TIP3   OH232827   1.169   6.532   2.317
10961TIP3    H132828   1.129   6.466   2.261
10961TIP3    H232829   1.220   6.586   2.257
10962TIP3   OH232830   6.734   2.791   0.191
10962TIP3    H132831   6.651   2.769   0.150
10962TIP3    H232832   6.738   2.886   0.189
10963TIP3   OH232833   6.818   3.319   0.776
10963TIP3    H132834   6.738   3.345   0.730
10963TIP3    H232835   6.797   3.234   0.815
10964TIP3   OH232836   3.610   3.783   0.238
10964TIP3    H132837   3.571   3.867   0.263
10964TIP3    H232838   3.606   3.730   0.317
10965TIP3   OH232839   8.234   3.509   3.362
10965TIP3    H132840   8.255   3.443   3.428
10965TIP3    H232841   8.176   3.464   3.301
10966TIP3   OH232842   7.383   7.638   0.877
10966TIP3    H132843   7.301   7.630   0.926
10966TIP3    H232844   7.436   7.565   0.909
10967TIP3   OH232845   5.329   7.363   1.308
10967TIP3    H132846   5.337   7.360   1.403
10967TIP3    H232847   5.390   7.432   1.280
10968TIP3   OH232848   4.725   5.726   3.737
10968TIP3    H132849   4.661   5.747   3.669
10968TIP3    H232850   4.789   5.671   3.693
10969TIP3   OH232851   5.287   1.582   3.730
10969TIP3    H132852   5.289   1.614   3.640
10969TIP3    H232853   5.289   1.662   3.783
10970TIP3   OH232854   1.580   0.239   5.034
10970TIP3    H132855   1.585   0.170   5.101
10970TIP3    H232856   1.670   0.249   5.003
10971TIP3   OH232857   0.021   7.037   4.195
10971TIP3    H132858  -0.017   6.966   4.248
10971TIP3    H232859  -0.020   7.027   4.109
10972TIP3   OH232860   4.746   6.606   4.490
10972TIP3    H132861   4.686   6.567   4.555
10972TIP3    H232862   4.819   6.639   4.542
10973TIP3   OH232863   7.349   2.839   2.375
10973TIP3    H132864   7.337   2.916   2.320
10973TIP3    H232865   7.415   2.866   2.439
10974TIP3   OH232866   3.173   4.066   2.577
10974TIP3    H132867   3.170   4.156   2.546
10974TIP3    H232868   3.239   4.067   2.646
10975TIP3   OH232869   0.756   3.948   3.302
10975TIP3    H132870   0.711   3.917   3.380
10975TIP3    H232871   0.695   4.009   3.261
10976TIP3   OH232872   0.186   1.254   3.686
10976TIP3    H132873   0.136   1.323   3.642
10976TIP3    H232874   0.180   1.276   3.779
10977TIP3   OH232875   0.752   4.631   3.430
10977TIP3    H132876   0.837   4.639   3.388
10977TIP3    H232877   0.689   4.639   3.358
10978TIP3   OH232878   5.044   2.257   1.809
10978TIP3    H132879   4.982   2.328   1.792
10978TIP3    H232880   5.080   2.236   1.723
10979TIP3   OH232881   4.986   1.695   2.944
10979TIP3    H132882   4.974   1.684   2.849
10979TIP3    H232883   4.931   1.627   2.983
10980TIP3   OH232884   1.230   2.094   3.308
10980TIP3    H132885   1.219   2.167   3.247
10980TIP3    H232886   1.289   2.033   3.263
10981TIP3   OH232887   4.243   2.770   2.791
10981TIP3    H132888   4.335   2.798   2.788
10981TIP3    H232889   4.241   2.702   2.859
10982TIP3   OH232890   0.429   3.849   5.103
10982TIP3    H132891   0.340   3.826   5.075
10982TIP3    H232892   0.486   3.797   5.046
10983TIP3   OH232893   5.885   5.051   5.839
10983TIP3    H132894   5.855   5.121   5.897
10983TIP3    H232895   5.865   5.083   5.751
10984TIP3   OH232896   4.023   3.234   5.463
10984TIP3    H132897   4.102   3.182   5.470
10984TIP3    H232898   4.036   3.307   5.523
10985TIP3   OH232899   3.320   3.422   5.381
10985TIP3    H132900   3.268   3.478   5.323
10985TIP3    H232901   3.264   3.346   5.397
10986TIP3   OH232902   2.171   5.511   4.503
10986TIP3    H132903   2.124   5.437   4.540
10986TIP3    H232904   2.151   5.584   4.561
10987TIP3   OH232905   5.263   2.588   4.349
10987TIP3    H132906   5.293   2.672   4.382
10987TIP3    H232907   5.173   2.604   4.321
10988TIP3   OH232908   7.476   4.570   5.055
10988TIP3    H132909   7.474   4.598   5.146
10988TIP3    H232910   7.384   4.575   5.026
10989TIP3   OH232911   7.687   3.982   0.655
10989TIP3    H132912   7.688   4.028   0.572
10989TIP3    H232913   7.709   4.049   0.720
10990TIP3   OH232914   4.923   4.514   4.991
10990TIP3    H132915   4.991   4.546   4.932
10990TIP3    H232916   4.849   4.494   4.934
10991TIP3   OH232917   4.071   7.430   6.515
10991TIP3    H132918   4.012   7.355   6.523
10991TIP3    H232919   4.096   7.432   6.423
10992TIP3   OH232920   7.525   7.271   3.684
10992TIP3    H132921   7.509   7.201   3.747
10992TIP3    H232922   7.438   7.289   3.647
10993TIP3   OH232923   6.305   7.435   6.754
10993TIP3    H132924   6.280   7.389   6.834
10993TIP3    H232925   6.300   7.369   6.685
10994TIP3   OH232926   2.669   0.942   2.565
10994TIP3    H132927   2.668   0.847   2.572
10994TIP3    H232928   2.734   0.962   2.498
10995TIP3   OH232929   3.638   2.513   4.056
10995TIP3    H132930   3.665   2.422   4.067
10995TIP3    H232931   3.709   2.553   4.007
10996TIP3   OH232932   4.945   1.596   0.220
10996TIP3    H132933   5.037   1.570   0.219
10996TIP3    H232934   4.945   1.684   0.182
10997TIP3   OH232935   7.798   5.962   6.062
10997TIP3    H132936   7.850   5.926   5.990
10997TIP3    H232937   7.709   5.928   6.045
10998TIP3   OH232938   4.781   6.907   1.665
10998TIP3    H132939   4.690   6.936   1.661
10998TIP3    H232940   4.777   6.812   1.653
10999TIP3   OH232941   5.469   0.093   5.174
10999TIP3    H132942   5.462   0.142   5.256
10999TIP3    H232943   5.550   0.042   5.184
11000TIP3   OH232944   2.199   6.635   0.629
11000TIP3    H132945   2.157   6.592   0.703
11000TIP3    H232946   2.245   6.710   0.667
11001TIP3   OH232947   1.161   6.738   5.189
11001TIP3    H132948   1.128   6.783   5.267
11001TIP3    H232949   1.176   6.648   5.219
11002TIP3   OH232950   1.962   3.590   2.551
11002TIP3    H132951   1.928   3.506   2.583
11002TIP3    H232952   1.888   3.650   2.560
11003TIP3   OH232953   5.866   0.193   4.211
11003TIP3    H132954   5.908   0.182   4.125
11003TIP3    H232955   5.926   0.250   4.260
11004TIP3   OH232956   7.507   5.150   2.445
11004TIP3    H132957   7.431   5.110   2.403
11004TIP3    H232958   7.572   5.080   2.451
11005TIP3   OH232959   3.810   1.251   6.607
11005TIP3    H132960   3.764   1.190   6.665
11005TIP3    H232961   3.884   1.282   6.659
11006TIP3   OH232962   5.103   6.950   3.953
11006TIP3    H132963   5.075   7.013   3.886
11006TIP3    H232964   5.199   6.956   3.951
11007TIP3   OH232965   4.382   3.072   0.913
11007TIP3    H132966   4.450   3.016   0.876
11007TIP3    H232967   4.403   3.160   0.881
11008TIP3   OH232968   5.436   2.727   5.156
11008TIP3    H132969   5.498   2.800   5.159
11008TIP3    H232970   5.442   2.694   5.067
11009TIP3   OH232971   4.900   3.367   3.122
11009TIP3    H132972   4.831   3.328   3.176
11009TIP3    H232973   4.914   3.303   3.052
11010TIP3   OH232974   7.161   5.232   1.919
11010TIP3    H132975   7.201   5.318   1.929
11010TIP3    H232976   7.074   5.250   1.883
11011TIP3   OH232977   7.879   4.281   1.765
11011TIP3    H132978   7.955   4.316   1.813
11011TIP3    H232979   7.885   4.187   1.776
11012TIP3   OH232980   1.716   7.159   5.827
11012TIP3    H132981   1.800   7.203   5.839
11012TIP3    H232982   1.653   7.230   5.810
11013TIP3   OH232983   1.876   7.008   3.502
11013TIP3    H132984   1.878   7.036   3.411
11013TIP3    H232985   1.860   7.089   3.551
11014TIP3   OH232986   3.578   1.022   1.122
11014TIP3    H132987   3.538   0.962   1.059
11014TIP3    H232988   3.510   1.036   1.189
11015TIP3   OH232989   7.798   7.405   6.453
11015TIP3    H132990   7.797   7.419   6.358
11015TIP3    H232991   7.820   7.491   6.490
11016TIP3   OH232992   8.222   5.532   6.371
11016TIP3    H132993   8.306   5.576   6.358
11016TIP3    H232994   8.219   5.465   6.303
11017TIP3   OH232995   1.302   4.857   3.367
11017TIP3    H132996   1.298   4.779   3.311
11017TIP3    H232997   1.342   4.826   3.448
11018TIP3   OH232998   3.405   6.182   2.428
11018TIP3    H132999   3.366   6.167   2.514
11018TIP3    H233000   3.492   6.141   2.433
11019TIP3   OH233001   0.232   4.386   1.110
11019TIP3    H133002   0.249   4.480   1.100
11019TIP3    H233003   0.152   4.382   1.162
11020TIP3   OH233004   6.592   7.238   1.640
11020TIP3    H133005   6.568   7.312   1.695
11020TIP3    H233006   6.551   7.256   1.555
11021TIP3   OH233007   1.967   2.491   1.541
11021TIP3    H133008   1.998   2.561   1.484
11021TIP3    H233009   1.898   2.448   1.491
11022TIP3   OH233010   5.905   1.311   5.473
11022TIP3    H133011   5.871   1.223   5.457
11022TIP3    H233012   5.939   1.340   5.388
11023TIP3   OH233013   3.970   4.389   0.644
11023TIP3    H133014   3.918   4.312   0.620
11023TIP3    H233015   3.929   4.421   0.724
11024TIP3   OH233016   3.056   7.205   5.822
11024TIP3    H133017   3.091   7.116   5.829
11024TIP3    H233018   3.095   7.240   5.741
11025TIP3   OH233019   2.013   2.400   3.918
11025TIP3    H133020   1.947   2.331   3.922
11025TIP3    H233021   2.068   2.377   3.843
11026TIP3   OH233022   6.702   3.106   6.232
11026TIP3    H133023   6.732   3.137   6.147
11026TIP3    H233024   6.654   3.180   6.269
11027TIP3   OH233025   7.902   2.919   2.994
11027TIP3    H133026   7.980   2.910   2.940
11027TIP3    H233027   7.880   3.013   2.990
11028TIP3   OH233028   1.959   0.407   2.527
11028TIP3    H133029   2.013   0.470   2.479
11028TIP3    H233030   1.941   0.338   2.462
11029TIP3   OH233031   6.290   6.009   3.214
11029TIP3    H133032   6.366   5.957   3.189
11029TIP3    H233033   6.319   6.059   3.291
11030TIP3   OH233034   0.130   0.453   1.541
11030TIP3    H133035   0.091   0.490   1.620
11030TIP3    H233036   0.084   0.369   1.529
11031TIP3   OH233037   6.924   0.725   4.782
11031TIP3    H133038   7.003   0.734   4.729
11031TIP3    H233039   6.954   0.680   4.861
11032TIP3   OH233040   6.757   6.797   5.886
11032TIP3    H133041   6.781   6.818   5.976
11032TIP3    H233042   6.662   6.792   5.887
11033TIP3   OH233043   5.106   5.786   0.426
11033TIP3    H133044   5.171   5.854   0.410
11033TIP3    H233045   5.046   5.824   0.489
11034TIP3   OH233046   6.914   4.621   5.957
11034TIP3    H133047   6.994   4.665   5.986
11034TIP3    H233048   6.908   4.642   5.863
11035TIP3   OH233049   2.034   1.536   3.484
11035TIP3    H133050   2.022   1.493   3.399
11035TIP3    H233051   1.997   1.623   3.472
11036TIP3   OH233052   2.175   3.474   0.652
11036TIP3    H133053   2.190   3.495   0.560
11036TIP3    H233054   2.089   3.512   0.672
11037TIP3   OH233055   2.753   7.026   3.378
11037TIP3    H133056   2.819   7.040   3.446
11037TIP3    H233057   2.736   6.932   3.379
11038TIP3   OH233058   3.214   7.692   4.540
11038TIP3    H133059   3.126   7.731   4.533
11038TIP3    H233060   3.266   7.740   4.476
11039TIP3   OH233061   5.015   0.425   4.380
11039TIP3    H133062   4.945   0.486   4.403
11039TIP3    H233063   5.083   0.440   4.446
11040TIP3   OH233064   7.674   7.026   3.302
11040TIP3    H133065   7.604   7.076   3.343
11040TIP3    H233066   7.709   7.085   3.235
11041TIP3   OH233067   3.917   0.723   6.555
11041TIP3    H133068   4.008   0.702   6.575
11041TIP3    H233069   3.866   0.660   6.606
11042TIP3   OH233070   3.279   3.295   0.797
11042TIP3    H133071   3.212   3.228   0.784
11042TIP3    H233072   3.236   3.361   0.851
11043TIP3   OH233073   2.725   2.220   4.706
11043TIP3    H133074   2.640   2.262   4.717
11043TIP3    H233075   2.704   2.130   4.683
11044TIP3   OH233076   4.497   5.509   2.665
11044TIP3    H133077   4.465   5.422   2.639
11044TIP3    H233078   4.494   5.561   2.585
11045TIP3   OH233079   2.987   4.251   1.531
11045TIP3    H133080   3.083   4.254   1.538
11045TIP3    H233081   2.961   4.341   1.512
11046TIP3   OH233082   0.559   1.482   0.134
11046TIP3    H133083   0.506   1.413   0.174
11046TIP3    H233084   0.574   1.545   0.205
11047TIP3   OH233085   6.176   7.300   3.795
11047TIP3    H133086   6.133   7.281   3.878
11047TIP3    H233087   6.170   7.219   3.745
11048TIP3   OH233088   2.333   1.158   2.526
11048TIP3    H133089   2.262   1.097   2.507
11048TIP3    H233090   2.324   1.177   2.619
11049TIP3   OH233091   1.654   0.059   5.239
11049TIP3    H133092   1.638  -0.017   5.183
11049TIP3    H233093   1.592   0.049   5.311
11050TIP3   OH233094   2.536   2.180   3.669
11050TIP3    H133095   2.535   2.214   3.759
11050TIP3    H233096   2.588   2.100   3.675
11051TIP3   OH233097   5.055   2.174   2.870
11051TIP3    H133098   4.970   2.212   2.891
11051TIP3    H233099   5.116   2.219   2.928
11052TIP3   OH233100   2.200   2.364   2.549
11052TIP3    H133101   2.158   2.301   2.607
11052TIP3    H233102   2.284   2.383   2.590
11053TIP3   OH233103   5.937   0.134   6.173
11053TIP3    H133104   6.020   0.181   6.174
11053TIP3    H233105   5.888   0.170   6.247
11054TIP3   OH233106   0.124   5.801   0.008
11054TIP3    H133107   0.186   5.832  -0.058
11054TIP3    H233108   0.090   5.880   0.049
11055TIP3   OH233109   6.967   5.074   0.446
11055TIP3    H133110   6.910   5.083   0.369
11055TIP3    H233111   7.004   4.986   0.438
11056TIP3   OH233112   8.259   1.979   1.041
11056TIP3    H133113   8.292   1.892   1.065
11056TIP3    H233114   8.174   1.962   1.001
11057TIP3   OH233115   0.522   1.250   2.374
11057TIP3    H133116   0.464   1.206   2.312
11057TIP3    H233117   0.596   1.280   2.321
11058TIP3   OH233118   2.979   5.594   5.971
11058TIP3    H133119   2.972   5.680   5.929
11058TIP3    H233120   3.007   5.613   6.061
11059TIP3   OH233121   1.704   3.362   3.705
11059TIP3    H133122   1.729   3.447   3.668
11059TIP3    H233123   1.724   3.299   3.635
11060TIP3   OH233124   4.961   2.483   4.049
11060TIP3    H133125   4.868   2.489   4.070
11060TIP3    H233126   4.965   2.495   3.954
11061TIP3   OH233127   6.709   5.589   0.647
11061TIP3    H133128   6.770   5.523   0.681
11061TIP3    H233129   6.764   5.661   0.617
11062TIP3   OH233130   0.704   7.358   2.721
11062TIP3    H133131   0.643   7.320   2.657
11062TIP3    H233132   0.726   7.285   2.779
11063TIP3   OH233133   6.892   6.760   5.530
11063TIP3    H133134   6.821   6.701   5.507
11063TIP3    H233135   6.939   6.776   5.448
11064TIP3   OH233136   1.629   6.108   0.895
11064TIP3    H133137   1.725   6.106   0.893
11064TIP3    H233138   1.605   6.164   0.821
11065TIP3   OH233139   6.615   6.629   3.337
11065TIP3    H133140   6.526   6.610   3.367
11065TIP3    H233141   6.670   6.564   3.381
11066TIP3   OH233142   0.253   6.708   1.473
11066TIP3    H133143   0.241   6.618   1.504
11066TIP3    H233144   0.214   6.708   1.386
11067TIP3   OH233145   2.809   7.046   4.845
11067TIP3    H133146   2.770   6.960   4.828
11067TIP3    H233147   2.736   7.101   4.872
11068TIP3   OH233148   1.829   3.923   6.199
11068TIP3    H133149   1.797   3.883   6.280
11068TIP3    H233150   1.913   3.879   6.183
11069TIP3   OH233151   7.597   2.920   0.368
11069TIP3    H133152   7.509   2.890   0.391
11069TIP3    H233153   7.604   2.902   0.274
11070TIP3   OH233154   7.041   6.006   6.375
11070TIP3    H133155   6.976   6.021   6.306
11070TIP3    H233156   7.082   5.923   6.351
11071TIP3   OH233157   0.339   1.753   2.785
11071TIP3    H133158   0.268   1.760   2.722
11071TIP3    H233159   0.319   1.818   2.852
11072TIP3   OH233160   5.853   3.120   3.171
11072TIP3    H133161   5.876   3.071   3.250
11072TIP3    H233162   5.829   3.207   3.202
11073TIP3   OH233163   2.579   4.053   3.489
11073TIP3    H133164   2.674   4.038   3.486
11073TIP3    H233165   2.567   4.136   3.442
11074TIP3   OH233166   2.594   2.640   5.557
11074TIP3    H133167   2.621   2.676   5.642
11074TIP3    H233168   2.619   2.707   5.494
11075TIP3   OH233169   1.111   7.213   2.178
11075TIP3    H133170   1.060   7.238   2.101
11075TIP3    H233171   1.087   7.122   2.195
11076TIP3   OH233172   8.302   3.320   0.600
11076TIP3    H133173   8.264   3.276   0.676
11076TIP3    H233174   8.232   3.378   0.569
11077TIP3   OH233175   1.007   1.254   2.130
11077TIP3    H133176   1.096   1.286   2.137
11077TIP3    H233177   1.014   1.160   2.146
11078TIP3   OH233178   6.713   5.163   4.230
11078TIP3    H133179   6.747   5.247   4.198
11078TIP3    H233180   6.645   5.139   4.168
11079TIP3   OH233181   2.750   5.308   4.280
11079TIP3    H133182   2.826   5.287   4.226
11079TIP3    H233183   2.720   5.393   4.247
11080TIP3   OH233184   1.427   6.495   5.613
11080TIP3    H133185   1.460   6.530   5.530
11080TIP3    H233186   1.408   6.403   5.595
11081TIP3   OH233187   0.681   3.900   4.769
11081TIP3    H133188   0.762   3.881   4.817
11081TIP3    H233189   0.707   3.900   4.677
11082TIP3   OH233190   0.901   5.417   3.908
11082TIP3    H133191   0.879   5.431   3.816
11082TIP3    H233192   0.997   5.419   3.909
11083TIP3   OH233193   6.071   3.018   0.254
11083TIP3    H133194   6.155   2.971   0.255
11083TIP3    H233195   6.010   2.959   0.299
11084TIP3   OH233196   4.067   5.549   5.115
11084TIP3    H133197   4.107   5.463   5.106
11084TIP3    H233198   4.056   5.562   5.209
11085TIP3   OH233199   4.479   3.038   1.165
11085TIP3    H133200   4.568   3.062   1.139
11085TIP3    H233201   4.427   3.046   1.086
11086TIP3   OH233202   4.966   1.796   4.317
11086TIP3    H133203   4.935   1.885   4.328
11086TIP3    H233204   5.028   1.801   4.244
11087TIP3   OH233205   0.549   5.573   4.239
11087TIP3    H133206   0.632   5.541   4.273
11087TIP3    H233207   0.485   5.549   4.307
11088TIP3   OH233208   2.439   0.995   3.175
11088TIP3    H133209   2.519   1.039   3.147
11088TIP3    H233210   2.390   1.063   3.222
11089TIP3   OH233211   5.572   4.569   2.490
11089TIP3    H133212   5.666   4.570   2.474
11089TIP3    H233213   5.543   4.658   2.470
11090TIP3   OH233214   7.433   5.080   3.656
11090TIP3    H133215   7.497   5.058   3.588
11090TIP3    H233216   7.411   4.996   3.696
11091TIP3   OH233217   7.878   7.139   0.318
11091TIP3    H133218   7.862   7.228   0.288
11091TIP3    H233219   7.940   7.103   0.255
11092TIP3   OH233220   1.484   0.952   6.645
11092TIP3    H133221   1.417   1.020   6.642
11092TIP3    H233222   1.490   0.929   6.738
11093TIP3   OH233223   2.462   6.604   3.531
11093TIP3    H133224   2.489   6.513   3.518
11093TIP3    H233225   2.530   6.655   3.486
11094TIP3   OH233226   5.396   5.517   5.703
11094TIP3    H133227   5.343   5.560   5.636
11094TIP3    H233228   5.348   5.437   5.724
11095TIP3   OH233229   3.791   6.662   5.103
11095TIP3    H133230   3.811   6.732   5.165
11095TIP3    H233231   3.871   6.610   5.098
11096TIP3   OH233232   1.454   3.396   5.444
11096TIP3    H133233   1.529   3.454   5.435
11096TIP3    H233234   1.391   3.428   5.379
11097TIP3   OH233235   8.236   3.621   6.102
11097TIP3    H133236   8.297   3.593   6.034
11097TIP3    H233237   8.184   3.690   6.062
11098TIP3   OH233238   7.310   4.779   0.592
11098TIP3    H133239   7.306   4.751   0.684
11098TIP3    H233240   7.351   4.706   0.547
11099TIP3   OH233241   2.178   2.493   4.501
11099TIP3    H133242   2.249   2.463   4.557
11099TIP3    H233243   2.172   2.428   4.431
11100TIP3   OH233244   6.075   1.733   1.033
11100TIP3    H133245   6.028   1.679   1.096
11100TIP3    H233246   6.165   1.702   1.036
11101TIP3   OH233247   4.502   6.438   0.882
11101TIP3    H133248   4.572   6.440   0.817
11101TIP3    H233249   4.504   6.525   0.923
11102TIP3   OH233250   4.205   7.066   2.533
11102TIP3    H133251   4.130   7.087   2.476
11102TIP3    H233252   4.227   6.975   2.510
11103TIP3   OH233253   4.976   0.864   2.013
11103TIP3    H133254   5.008   0.818   1.935
11103TIP3    H233255   5.047   0.857   2.076
11104TIP3   OH233256   2.426   5.550   1.456
11104TIP3    H133257   2.388   5.543   1.368
11104TIP3    H233258   2.400   5.469   1.500
11105TIP3   OH233259   4.630   7.224   0.535
11105TIP3    H133260   4.652   7.316   0.547
11105TIP3    H233261   4.712   7.178   0.548
11106TIP3   OH233262   2.033   3.897   1.634
11106TIP3    H133263   2.044   3.989   1.658
11106TIP3    H233264   1.954   3.896   1.580
11107TIP3   OH233265   4.256   3.042   2.389
11107TIP3    H133266   4.246   3.026   2.295
11107TIP3    H233267   4.275   3.136   2.395
11108TIP3   OH233268   3.006   3.718   2.711
11108TIP3    H133269   3.049   3.684   2.789
11108TIP3    H233270   2.913   3.722   2.734
11109TIP3   OH233271   4.301   6.370   6.177
11109TIP3    H133272   4.256   6.383   6.260
11109TIP3    H233273   4.334   6.281   6.182
11110TIP3   OH233274   7.790   3.064   6.444
11110TIP3    H133275   7.734   3.141   6.445
11110TIP3    H233276   7.733   2.994   6.411
11111TIP3   OH233277   7.988   5.043   3.974
11111TIP3    H133278   7.972   5.137   3.975
11111TIP3    H233279   7.974   5.015   4.065
11112TIP3   OH233280   2.126   2.118   3.415
11112TIP3    H133281   2.219   2.122   3.436
11112TIP3    H233282   2.087   2.191   3.464
11113TIP3   OH233283   3.807   5.069   4.661
11113TIP3    H133284   3.782   5.044   4.750
11113TIP3    H233285   3.724   5.076   4.613
11114TIP3   OH233286   5.021   3.777   1.631
11114TIP3    H133287   4.962   3.713   1.671
11114TIP3    H233288   4.980   3.861   1.647
11115TIP3   OH233289   7.857   0.270   4.519
11115TIP3    H133290   7.790   0.236   4.459
11115TIP3    H233291   7.856   0.365   4.504
11116TIP3   OH233292   0.368   4.457   0.580
11116TIP3    H133293   0.387   4.393   0.511
11116TIP3    H233294   0.453   4.493   0.603
11117TIP3   OH233295   0.036   0.457   5.650
11117TIP3    H133296   0.110   0.437   5.591
11117TIP3    H233297   0.064   0.535   5.697
11118TIP3   OH233298   3.467   0.649   3.278
11118TIP3    H133299   3.447   0.556   3.288
11118TIP3    H233300   3.469   0.663   3.183
11119TIP3   OH233301   7.722   0.428   1.467
11119TIP3    H133302   7.754   0.443   1.556
11119TIP3    H233303   7.757   0.500   1.415
11120TIP3   OH233304   0.198   4.925   2.384
11120TIP3    H133305   0.180   4.879   2.466
11120TIP3    H233306   0.123   4.983   2.371
11121TIP3   OH233307   1.556   0.385   1.640
11121TIP3    H133308   1.607   0.338   1.574
11121TIP3    H233309   1.467   0.389   1.604
11122TIP3   OH233310   6.570   1.940   4.543
11122TIP3    H133311   6.622   1.973   4.616
11122TIP3    H233312   6.601   1.850   4.530
11123TIP3   OH233313   7.701   1.355   1.776
11123TIP3    H133314   7.655   1.440   1.777
11123TIP3    H233315   7.639   1.296   1.733
11124TIP3   OH233316   0.397   5.705   5.696
11124TIP3    H133317   0.454   5.709   5.619
11124TIP3    H233318   0.454   5.732   5.768
11125TIP3   OH233319   6.546   0.164   6.340
11125TIP3    H133320   6.504   0.201   6.418
11125TIP3    H233321   6.490   0.193   6.267
11126TIP3   OH233322   7.260   0.914   3.949
11126TIP3    H133323   7.345   0.870   3.947
11126TIP3    H233324   7.274   0.997   3.904
11127TIP3   OH233325   4.891   6.832   3.516
11127TIP3    H133326   4.980   6.813   3.488
11127TIP3    H233327   4.853   6.746   3.535
11128TIP3   OH233328   1.108   5.806   3.709
11128TIP3    H133329   1.195   5.842   3.695
11128TIP3    H233330   1.098   5.738   3.642
11129TIP3   OH233331   3.208   7.568   5.613
11129TIP3    H133332   3.267   7.497   5.636
11129TIP3    H233333   3.229   7.588   5.522
11130TIP3   OH233334   7.806   4.578   0.563
11130TIP3    H133335   7.749   4.628   0.622
11130TIP3    H233336   7.793   4.619   0.477
11131TIP3   OH233337   4.284   2.652   6.225
11131TIP3    H133338   4.313   2.561   6.221
11131TIP3    H233339   4.190   2.647   6.243
11132TIP3   OH233340   0.119   0.455   2.695
11132TIP3    H133341   0.152   0.428   2.609
11132TIP3    H233342   0.061   0.384   2.722
11133TIP3   OH233343   4.788   5.198   4.149
11133TIP3    H133344   4.806   5.105   4.135
11133TIP3    H233345   4.746   5.202   4.235
11134TIP3   OH233346   1.667   2.007   2.071
11134TIP3    H133347   1.663   2.007   2.167
11134TIP3    H233348   1.602   1.943   2.044
11135TIP3   OH233349   7.795   1.048   3.035
11135TIP3    H133350   7.843   1.027   2.955
11135TIP3    H233351   7.715   1.091   3.004
11136TIP3   OH233352   7.660   0.285   6.278
11136TIP3    H133353   7.692   0.198   6.303
11136TIP3    H233354   7.584   0.268   6.223
11137TIP3   OH233355   3.699   2.674   3.438
11137TIP3    H133356   3.611   2.703   3.415
11137TIP3    H233357   3.696   2.662   3.533
11138TIP3   OH233358   1.401   3.198   2.391
11138TIP3    H133359   1.394   3.284   2.350
11138TIP3    H233360   1.391   3.216   2.485
11139TIP3   OH233361   6.023   1.956   6.693
11139TIP3    H133362   6.081   1.904   6.748
11139TIP3    H233363   5.978   1.892   6.638
11140TIP3   OH233364   3.614   1.235   4.472
11140TIP3    H133365   3.615   1.151   4.519
11140TIP3    H233366   3.564   1.294   4.529
11141TIP3   OH233367   1.094   3.071   2.786
11141TIP3    H133368   1.164   3.124   2.747
11141TIP3    H233369   1.016   3.094   2.736
11142TIP3   OH233370   3.326   2.399   5.140
11142TIP3    H133371   3.322   2.324   5.081
11142TIP3    H233372   3.318   2.362   5.228
11143TIP3   OH233373   6.218   7.346   1.235
11143TIP3    H133374   6.300   7.321   1.192
11143TIP3    H233375   6.242   7.422   1.288
11144TIP3   OH233376   3.276   3.695   5.896
11144TIP3    H133377   3.204   3.750   5.863
11144TIP3    H233378   3.352   3.721   5.844
11145TIP3   OH233379   3.407   2.710   2.777
11145TIP3    H133380   3.367   2.793   2.803
11145TIP3    H233381   3.486   2.704   2.831
11146TIP3   OH233382   4.639   2.233   0.629
11146TIP3    H133383   4.619   2.172   0.559
11146TIP3    H233384   4.628   2.182   0.709
11147TIP3   OH233385   1.655   6.048   4.975
11147TIP3    H133386   1.606   5.977   5.018
11147TIP3    H233387   1.721   6.003   4.923
11148TIP3   OH233388   4.406   6.695   2.064
11148TIP3    H133389   4.327   6.739   2.094
11148TIP3    H233390   4.477   6.758   2.082
11149TIP3   OH233391   4.493   5.695   2.484
11149TIP3    H133392   4.585   5.720   2.488
11149TIP3    H233393   4.451   5.764   2.433
11150TIP3   OH233394   0.710   6.509   3.878
11150TIP3    H133395   0.624   6.470   3.892
11150TIP3    H233396   0.733   6.486   3.788
11151TIP3   OH233397   6.770   5.116   5.967
11151TIP3    H133398   6.708   5.184   5.992
11151TIP3    H233399   6.717   5.049   5.924
11152TIP3   OH233400   2.532   5.159   0.210
11152TIP3    H133401   2.442   5.191   0.213
11152TIP3    H233402   2.537   5.097   0.282
11153TIP3   OH233403   4.907   7.091   5.758
11153TIP3    H133404   4.949   7.066   5.677
11153TIP3    H233405   4.856   7.014   5.784
11154TIP3   OH233406   6.272   1.899   3.535
11154TIP3    H133407   6.310   1.944   3.609
11154TIP3    H233408   6.241   1.815   3.571
11155TIP3   OH233409   6.668   7.480   6.377
11155TIP3    H133410   6.706   7.430   6.449
11155TIP3    H233411   6.573   7.471   6.389
11156TIP3   OH233412   4.242   3.719   2.834
11156TIP3    H133413   4.317   3.742   2.888
11156TIP3    H233414   4.169   3.710   2.896
11157TIP3   OH233415   3.563   0.430   2.338
11157TIP3    H133416   3.486   0.412   2.284
11157TIP3    H233417   3.614   0.492   2.287
11158TIP3   OH233418   3.557   2.809   0.636
11158TIP3    H133419   3.599   2.883   0.592
11158TIP3    H233420   3.540   2.839   0.725
11159TIP3   OH233421   4.856   6.914   0.680
11159TIP3    H133422   4.896   6.981   0.626
11159TIP3    H233423   4.856   6.951   0.769
11160TIP3   OH233424   2.439   3.496   6.017
11160TIP3    H133425   2.464   3.528   5.930
11160TIP3    H233426   2.506   3.531   6.075
11161TIP3   OH233427   2.854   2.062   6.564
11161TIP3    H133428   2.810   1.981   6.538
11161TIP3    H233429   2.796   2.101   6.630
11162TIP3   OH233430   4.215   7.380   4.557
11162TIP3    H133431   4.163   7.414   4.484
11162TIP3    H233432   4.168   7.303   4.587
11163TIP3   OH233433   2.249   4.135   1.843
11163TIP3    H133434   2.237   4.210   1.786
11163TIP3    H233435   2.337   4.146   1.879
11164TIP3   OH233436   2.336   6.102   1.399
11164TIP3    H133437   2.266   6.053   1.441
11164TIP3    H233438   2.394   6.036   1.363
11165TIP3   OH233439   5.144   5.307   2.865
11165TIP3    H133440   5.216   5.276   2.920
11165TIP3    H233441   5.127   5.396   2.895
11166TIP3   OH233442   0.989   6.079   4.094
11166TIP3    H133443   1.080   6.062   4.117
11166TIP3    H233444   0.954   5.993   4.071
11167TIP3   OH233445   2.317   5.789   1.275
11167TIP3    H133446   2.302   5.827   1.362
11167TIP3    H233447   2.292   5.697   1.285
11168TIP3   OH233448   0.968   2.979   6.480
11168TIP3    H133449   1.042   3.017   6.527
11168TIP3    H233450   0.892   3.027   6.512
11169TIP3   OH233451   2.451   7.162   4.852
11169TIP3    H133452   2.416   7.109   4.781
11169TIP3    H233453   2.393   7.238   4.857
11170TIP3   OH233454   6.556   0.324   3.943
11170TIP3    H133455   6.509   0.380   3.881
11170TIP3    H233456   6.551   0.371   4.027
11171TIP3   OH233457   2.283   0.952   4.339
11171TIP3    H133458   2.253   1.038   4.310
11171TIP3    H233459   2.308   0.964   4.431
11172TIP3   OH233460   7.938   2.560   4.917
11172TIP3    H133461   7.910   2.495   4.852
11172TIP3    H233462   8.026   2.532   4.943
11173TIP3   OH233463   1.039   0.171   0.671
11173TIP3    H133464   0.967   0.189   0.609
11173TIP3    H233465   0.999   0.180   0.757
11174TIP3   OH233466   3.467   3.384   0.217
11174TIP3    H133467   3.518   3.369   0.296
11174TIP3    H233468   3.391   3.434   0.247
11175TIP3   OH233469   6.448   5.996   2.502
11175TIP3    H133470   6.470   6.035   2.586
11175TIP3    H233471   6.385   6.058   2.463
11176TIP3   OH233472   1.346   6.044   1.118
11176TIP3    H133473   1.438   6.058   1.136
11176TIP3    H233474   1.341   5.953   1.088
11177TIP3   OH233475   5.681   2.438   3.428
11177TIP3    H133476   5.679   2.416   3.521
11177TIP3    H233477   5.609   2.500   3.416
11178TIP3   OH233478   4.611   6.781   5.036
11178TIP3    H133479   4.585   6.726   5.111
11178TIP3    H233480   4.592   6.870   5.064
11179TIP3   OH233481   6.780   0.115   4.235
11179TIP3    H133482   6.765   0.064   4.315
11179TIP3    H233483   6.724   0.074   4.169
11180TIP3   OH233484   3.764   3.321   4.547
11180TIP3    H133485   3.839   3.313   4.606
11180TIP3    H233486   3.691   3.344   4.604
11181TIP3   OH233487   1.726   5.234   0.992
11181TIP3    H133488   1.730   5.300   1.062
11181TIP3    H233489   1.802   5.253   0.938
11182TIP3   OH233490   3.267   6.697   3.856
11182TIP3    H133491   3.329   6.628   3.878
11182TIP3    H233492   3.183   6.652   3.848
11183TIP3   OH233493   6.955   1.884   2.119
11183TIP3    H133494   6.957   1.923   2.031
11183TIP3    H233495   7.010   1.806   2.112
11184TIP3   OH233496   6.522   5.917   3.112
11184TIP3    H133497   6.519   5.877   3.024
11184TIP3    H233498   6.562   6.002   3.098
11185TIP3   OH233499   2.638   2.879   3.057
11185TIP3    H133500   2.617   2.786   3.062
11185TIP3    H233501   2.726   2.883   3.020
11186TIP3   OH233502   4.814   2.873   3.195
11186TIP3    H133503   4.746   2.844   3.134
11186TIP3    H233504   4.781   2.955   3.231
11187TIP3   OH233505   0.648   6.107   2.718
11187TIP3    H133506   0.705   6.152   2.655
11187TIP3    H233507   0.590   6.175   2.751
11188TIP3   OH233508   1.333   2.149   6.161
11188TIP3    H133509   1.309   2.213   6.093
11188TIP3    H233510   1.250   2.103   6.180
11189TIP3   OH233511   3.189   0.426   0.379
11189TIP3    H133512   3.254   0.369   0.337
11189TIP3    H233513   3.238   0.504   0.404
11190TIP3   OH233514   7.209   4.590   1.796
11190TIP3    H133515   7.248   4.514   1.752
11190TIP3    H233516   7.203   4.657   1.727
11191TIP3   OH233517   6.790   7.252   0.887
11191TIP3    H133518   6.796   7.322   0.953
11191TIP3    H233519   6.784   7.298   0.803
11192TIP3   OH233520   4.327   4.190   2.489
11192TIP3    H133521   4.338   4.096   2.502
11192TIP3    H233522   4.373   4.210   2.408
11193TIP3   OH233523   7.574   6.960   3.603
11193TIP3    H133524   7.665   6.941   3.582
11193TIP3    H233525   7.578   7.039   3.657
11194TIP3   OH233526   6.900   1.383   5.553
11194TIP3    H133527   6.872   1.296   5.524
11194TIP3    H233528   6.835   1.443   5.517
11195TIP3   OH233529   7.121   0.945   0.597
11195TIP3    H133530   7.188   1.002   0.559
11195TIP3    H233531   7.170   0.885   0.653
11196TIP3   OH233532   6.930   2.133   1.592
11196TIP3    H133533   7.019   2.097   1.598
11196TIP3    H233534   6.881   2.069   1.541
11197TIP3   OH233535   1.100   5.833   1.223
11197TIP3    H133536   1.092   5.845   1.129
11197TIP3    H233537   1.175   5.774   1.234
11198TIP3   OH233538   2.582   6.450   1.341
11198TIP3    H133539   2.496   6.438   1.379
11198TIP3    H233540   2.608   6.363   1.309
11199TIP3   OH233541   1.561   3.181   5.616
11199TIP3    H133542   1.650   3.212   5.631
11199TIP3    H233543   1.522   3.245   5.557
11200TIP3   OH233544   7.330   0.455   3.778
11200TIP3    H133545   7.293   0.412   3.700
11200TIP3    H233546   7.412   0.407   3.794
11201TIP3   OH233547   7.822   1.241   5.809
11201TIP3    H133548   7.894   1.226   5.871
11201TIP3    H233549   7.780   1.156   5.800
11202TIP3   OH233550   4.982   3.434   4.174
11202TIP3    H133551   4.911   3.484   4.134
11202TIP3    H233552   4.976   3.348   4.133
11203TIP3   OH233553   3.147   5.451   5.336
11203TIP3    H133554   3.093   5.527   5.359
11203TIP3    H233555   3.087   5.376   5.343
11204TIP3   OH233556   6.748   1.264   5.847
11204TIP3    H133557   6.659   1.268   5.882
11204TIP3    H233558   6.801   1.229   5.919
11205TIP3   OH233559   7.479   6.363   4.393
11205TIP3    H133560   7.571   6.359   4.365
11205TIP3    H233561   7.482   6.343   4.487
11206TIP3   OH233562   5.799   6.472   3.799
11206TIP3    H133563   5.895   6.472   3.809
11206TIP3    H233564   5.782   6.530   3.725
11207TIP3   OH233565   0.940   6.387   5.005
11207TIP3    H133566   0.889   6.396   4.924
11207TIP3    H233567   0.917   6.464   5.056
11208TIP3   OH233568   3.627   0.236   0.390
11208TIP3    H133569   3.653   0.327   0.406
11208TIP3    H233570   3.618   0.198   0.477
11209TIP3   OH233571   2.011   4.101   6.075
11209TIP3    H133572   2.053   4.113   6.161
11209TIP3    H233573   1.924   4.066   6.096
11210TIP3   OH233574   3.542   2.916   3.963
11210TIP3    H133575   3.510   2.826   3.973
11210TIP3    H233576   3.526   2.937   3.871
11211TIP3   OH233577   3.707   7.301   5.878
11211TIP3    H133578   3.639   7.234   5.871
11211TIP3    H233579   3.671   7.365   5.939
11212TIP3   OH233580   6.339   0.957   3.434
11212TIP3    H133581   6.370   0.956   3.525
11212TIP3    H233582   6.416   0.981   3.382
11213TIP3   OH233583   6.952   1.186   1.703
11213TIP3    H133584   6.961   1.135   1.623
11213TIP3    H233585   6.860   1.212   1.705
11214TIP3   OH233586   0.123   0.695   3.458
11214TIP3    H133587   0.170   0.667   3.536
11214TIP3    H233588   0.117   0.616   3.403
11215TIP3   OH233589   4.838   7.643   5.543
11215TIP3    H133590   4.888   7.696   5.481
11215TIP3    H233591   4.748   7.645   5.509
11216TIP3   OH233592   0.561   0.279   3.363
11216TIP3    H133593   0.469   0.301   3.378
11216TIP3    H233594   0.567   0.264   3.268
11217TIP3   OH233595   2.113   1.861   5.365
11217TIP3    H133596   2.112   1.953   5.339
11217TIP3    H233597   2.200   1.848   5.402
11218TIP3   OH233598   6.141   5.237   3.291
11218TIP3    H133599   6.079   5.182   3.244
11218TIP3    H233600   6.105   5.326   3.283
11219TIP3   OH233601   8.299   1.860   3.307
11219TIP3    H133602   8.207   1.841   3.288
11219TIP3    H233603   8.307   1.955   3.293
11220TIP3   OH233604   3.998   3.782   3.568
11220TIP3    H133605   3.964   3.728   3.497
11220TIP3    H233606   4.006   3.723   3.643
11221TIP3   OH233607   4.686   3.457   6.139
11221TIP3    H133608   4.658   3.518   6.071
11221TIP3    H233609   4.686   3.372   6.096
11222TIP3   OH233610   5.396   2.583   4.946
11222TIP3    H133611   5.390   2.644   4.872
11222TIP3    H233612   5.436   2.505   4.909
11223TIP3   OH233613   0.437   5.834   6.371
11223TIP3    H133614   0.362   5.817   6.428
11223TIP3    H233615   0.510   5.791   6.415
11224TIP3   OH233616   4.850   6.931   4.306
11224TIP3    H133617   4.944   6.927   4.287
11224TIP3    H233618   4.812   6.972   4.228
11225TIP3   OH233619   0.095   1.811   2.027
11225TIP3    H133620   0.064   1.897   1.999
11225TIP3    H233621   0.037   1.749   1.982
11226TIP3   OH233622   8.016   4.639   0.935
11226TIP3    H133623   8.025   4.547   0.962
11226TIP3    H233624   8.047   4.640   0.845
11227TIP3   OH233625   1.845   5.135   2.712
11227TIP3    H133626   1.840   5.220   2.755
11227TIP3    H233627   1.936   5.127   2.684
11228TIP3   OH233628   2.878   0.930   2.743
11228TIP3    H133629   2.934   0.998   2.782
11228TIP3    H233630   2.798   0.976   2.718
11229TIP3   OH233631   4.118   3.713   4.385
11229TIP3    H133632   4.056   3.785   4.382
11229TIP3    H233633   4.068   3.637   4.356
11230TIP3   OH233634   1.804   4.927   0.645
11230TIP3    H133635   1.875   4.991   0.633
11230TIP3    H233636   1.825   4.855   0.586
11231TIP3   OH233637   3.576   4.137   0.121
11231TIP3    H133638   3.533   4.161   0.204
11231TIP3    H233639   3.505   4.138   0.057
11232TIP3   OH233640   4.287   3.191   1.305
11232TIP3    H133641   4.276   3.281   1.275
11232TIP3    H233642   4.373   3.164   1.273
11233TIP3   OH233643   6.754   4.663   1.876
11233TIP3    H133644   6.750   4.574   1.911
11233TIP3    H233645   6.841   4.694   1.899
11234TIP3   OH233646   5.478   0.300   2.615
11234TIP3    H133647   5.393   0.330   2.582
11234TIP3    H233648   5.465   0.206   2.631
11235TIP3   OH233649   5.456   2.714   1.707
11235TIP3    H133650   5.484   2.667   1.785
11235TIP3    H233651   5.396   2.782   1.740
11236TIP3   OH233652   1.380   6.689   4.140
11236TIP3    H133653   1.390   6.689   4.045
11236TIP3    H233654   1.447   6.628   4.171
11237TIP3   OH233655   5.209   1.751   4.170
11237TIP3    H133656   5.260   1.672   4.151
11237TIP3    H233657   5.272   1.811   4.210
11238TIP3   OH233658   8.131   5.449   4.525
11238TIP3    H133659   8.145   5.530   4.574
11238TIP3    H233660   8.040   5.426   4.542
11239TIP3   OH233661   7.656   0.748   6.518
11239TIP3    H133662   7.694   0.661   6.504
11239TIP3    H233663   7.702   0.781   6.596
11240TIP3   OH233664   5.688   5.607   4.330
11240TIP3    H133665   5.625   5.600   4.258
11240TIP3    H233666   5.702   5.701   4.342
11241TIP3   OH233667   1.371   1.784   6.438
11241TIP3    H133668   1.460   1.814   6.419
11241TIP3    H233669   1.320   1.808   6.361
11242TIP3   OH233670   3.299   5.488   6.151
11242TIP3    H133671   3.290   5.515   6.060
11242TIP3    H233672   3.209   5.470   6.179
11243TIP3   OH233673   2.354   3.601   5.141
11243TIP3    H133674   2.311   3.527   5.098
11243TIP3    H233675   2.426   3.561   5.191
11244TIP3   OH233676   5.880   1.896   2.902
11244TIP3    H133677   5.835   1.819   2.938
11244TIP3    H233678   5.848   1.969   2.955
11245TIP3   OH233679   6.625   6.316   5.322
11245TIP3    H133680   6.628   6.391   5.382
11245TIP3    H233681   6.699   6.261   5.347
11246TIP3   OH233682   0.483   4.405   4.810
11246TIP3    H133683   0.527   4.372   4.889
11246TIP3    H233684   0.438   4.485   4.840
11247TIP3   OH233685   4.581   1.259   6.694
11247TIP3    H133686   4.616   1.170   6.691
11247TIP3    H233687   4.569   1.277   6.787
11248TIP3   OH233688   5.399   6.939   3.113
11248TIP3    H133689   5.323   6.881   3.107
11248TIP3    H233690   5.430   6.947   3.023
11249TIP3   OH233691   6.284   2.521   1.111
11249TIP3    H133692   6.347   2.476   1.168
11249TIP3    H233693   6.231   2.574   1.170
11250TIP3   OH233694   4.948   1.142   5.336
11250TIP3    H133695   4.916   1.171   5.421
11250TIP3    H233696   4.879   1.166   5.274
11251TIP3   OH233697   8.139   4.610   3.650
11251TIP3    H133698   8.061   4.575   3.607
11251TIP3    H233699   8.108   4.692   3.691
11252TIP3   OH233700   4.568   0.994   2.317
11252TIP3    H133701   4.575   1.032   2.230
11252TIP3    H233702   4.603   1.061   2.376
11253TIP3   OH233703   6.658   0.515   0.918
11253TIP3    H133704   6.691   0.586   0.863
11253TIP3    H233705   6.563   0.526   0.918
11254TIP3   OH233706   4.941   7.773   1.505
11254TIP3    H133707   4.921   7.769   1.598
11254TIP3    H233708   4.988   7.855   1.493
11255TIP3   OH233709   2.473   4.826   1.079
11255TIP3    H133710   2.422   4.877   1.016
11255TIP3    H233711   2.473   4.879   1.158
11256TIP3   OH233712   1.048   3.239   5.385
11256TIP3    H133713   1.018   3.219   5.474
11256TIP3    H233714   1.131   3.193   5.377
11257TIP3   OH233715   4.674   6.414   5.285
11257TIP3    H133716   4.657   6.431   5.378
11257TIP3    H233717   4.598   6.450   5.240
11258TIP3   OH233718   3.687   3.070   1.740
11258TIP3    H133719   3.686   3.003   1.808
11258TIP3    H233720   3.758   3.129   1.765
11259TIP3   OH233721   3.993   3.544   5.815
11259TIP3    H133722   4.017   3.620   5.763
11259TIP3    H233723   4.029   3.469   5.767
11260TIP3   OH233724   2.043   0.212   4.362
11260TIP3    H133725   2.050   0.284   4.299
11260TIP3    H233726   2.003   0.252   4.439
11261TIP3   OH233727   7.269   0.677   5.465
11261TIP3    H133728   7.292   0.755   5.515
11261TIP3    H233729   7.313   0.606   5.511
11262TIP3   OH233730   4.861   6.709   3.960
11262TIP3    H133731   4.860   6.805   3.964
11262TIP3    H233732   4.843   6.681   4.050
11263TIP3   OH233733   3.159   5.854   2.335
11263TIP3    H133734   3.176   5.924   2.271
11263TIP3    H233735   3.082   5.809   2.302
11264TIP3   OH233736   1.266   6.113   0.752
11264TIP3    H133737   1.178   6.089   0.723
11264TIP3    H233738   1.252   6.182   0.817
11265TIP3   OH233739   0.374   0.655   4.891
11265TIP3    H133740   0.408   0.584   4.836
11265TIP3    H233741   0.279   0.644   4.888
11266TIP3   OH233742   5.032   4.251   1.227
11266TIP3    H133743   5.066   4.193   1.295
11266TIP3    H233744   5.050   4.339   1.259
11267TIP3   OH233745   1.114   6.563   1.683
11267TIP3    H133746   1.081   6.549   1.772
11267TIP3    H233747   1.036   6.579   1.630
11268TIP3   OH233748   1.303   4.383   4.058
11268TIP3    H133749   1.395   4.393   4.082
11268TIP3    H233750   1.304   4.367   3.964
11269TIP3   OH233751   4.741   1.378   0.686
11269TIP3    H133752   4.806   1.415   0.745
11269TIP3    H233753   4.772   1.403   0.598
11270TIP3   OH233754   4.549   1.552   3.546
11270TIP3    H133755   4.631   1.503   3.541
11270TIP3    H233756   4.524   1.548   3.639
11271TIP3   OH233757   3.507   1.939   2.106
11271TIP3    H133758   3.578   1.884   2.074
11271TIP3    H233759   3.507   2.015   2.048
11272TIP3   OH233760   0.116   4.300   0.290
11272TIP3    H133761   0.195   4.346   0.315
11272TIP3    H233762   0.066   4.290   0.371
11273TIP3   OH233763   1.063   7.713   3.132
11273TIP3    H133764   1.031   7.691   3.220
11273TIP3    H233765   1.126   7.784   3.147
11274TIP3   OH233766   6.181   6.175   3.506
11274TIP3    H133767   6.201   6.202   3.596
11274TIP3    H233768   6.203   6.252   3.453
11275TIP3   OH233769   2.467   1.065   4.107
11275TIP3    H133770   2.522   1.102   4.038
11275TIP3    H233771   2.384   1.112   4.099
11276TIP3   OH233772   1.291   4.445   1.708
11276TIP3    H133773   1.349   4.371   1.723
11276TIP3    H233774   1.349   4.517   1.685
11277TIP3   OH233775   6.206   7.010   4.736
11277TIP3    H133776   6.118   7.032   4.766
11277TIP3    H233777   6.210   7.041   4.646
11278TIP3   OH233778   4.788   1.414   3.450
11278TIP3    H133779   4.849   1.401   3.522
11278TIP3    H233780   4.720   1.348   3.463
11279TIP3   OH233781   4.913   5.762   5.345
11279TIP3    H133782   4.984   5.816   5.310
11279TIP3    H233783   4.889   5.705   5.272
11280TIP3   OH233784   2.925   4.616   0.764
11280TIP3    H133785   2.954   4.704   0.739
11280TIP3    H233786   2.949   4.561   0.690
11281TIP3   OH233787   3.596   0.376   5.007
11281TIP3    H133788   3.538   0.394   4.932
11281TIP3    H233789   3.573   0.287   5.034
11282TIP3   OH233790   5.457   4.313   1.404
11282TIP3    H133791   5.530   4.254   1.424
11282TIP3    H233792   5.496   4.382   1.350
11283TIP3   OH233793   1.549   5.014   3.463
11283TIP3    H133794   1.575   4.923   3.478
11283TIP3    H233795   1.463   5.008   3.421
11284TIP3   OH233796   0.991   7.194   4.175
11284TIP3    H133797   1.012   7.101   4.184
11284TIP3    H233798   1.043   7.224   4.100
11285TIP3   OH233799   1.907   2.118   4.719
11285TIP3    H133800   1.925   2.146   4.809
11285TIP3    H233801   1.863   2.033   4.728
11286TIP3   OH233802   0.975   5.961   3.224
11286TIP3    H133803   0.935   5.941   3.139
11286TIP3    H233804   1.040   6.029   3.204
11287TIP3   OH233805   4.745   6.196   1.294
11287TIP3    H133806   4.708   6.108   1.293
11287TIP3    H233807   4.731   6.229   1.205
11288TIP3   OH233808   4.617   1.797   0.541
11288TIP3    H133809   4.529   1.782   0.574
11288TIP3    H233810   4.659   1.711   0.541
11289TIP3   OH233811   6.367   6.841   1.224
11289TIP3    H133812   6.437   6.794   1.179
11289TIP3    H233813   6.407   6.924   1.252
11290TIP3   OH233814   7.241   4.568   4.250
11290TIP3    H133815   7.240   4.649   4.302
11290TIP3    H233816   7.332   4.559   4.222
11291TIP3   OH233817   5.672   3.027   3.947
11291TIP3    H133818   5.586   2.986   3.955
11291TIP3    H233819   5.687   3.069   4.032
11292TIP3   OH233820   1.845   3.701   1.967
11292TIP3    H133821   1.906   3.703   2.040
11292TIP3    H233822   1.857   3.785   1.923
11293TIP3   OH233823   6.951   2.339   1.008
11293TIP3    H133824   6.990   2.363   0.924
11293TIP3    H233825   7.026   2.313   1.062
11294TIP3   OH233826   6.016   1.684   3.180
11294TIP3    H133827   5.975   1.642   3.256
11294TIP3    H233828   5.953   1.672   3.110
11295TIP3   OH233829   2.985   6.165   2.468
11295TIP3    H133830   2.910   6.113   2.437
11295TIP3    H233831   3.050   6.158   2.399
11296TIP3   OH233832   5.979   5.065   4.880
11296TIP3    H133833   6.005   5.070   4.972
11296TIP3    H233834   6.060   5.076   4.831
11297TIP3   OH233835   7.307   1.651   5.135
11297TIP3    H133836   7.323   1.699   5.053
11297TIP3    H233837   7.376   1.680   5.194
11298TIP3   OH233838   2.129   7.517   1.492
11298TIP3    H133839   2.116   7.441   1.549
11298TIP3    H233840   2.119   7.593   1.550
11299TIP3   OH233841   0.324   3.014   4.182
11299TIP3    H133842   0.283   2.971   4.107
11299TIP3    H233843   0.257   3.073   4.216
11300TIP3   OH233844   6.088   5.857   3.913
11300TIP3    H133845   6.101   5.854   4.007
11300TIP3    H233846   5.993   5.865   3.902
11301TIP3   OH233847   2.646   0.811   4.533
11301TIP3    H133848   2.648   0.720   4.564
11301TIP3    H233849   2.711   0.856   4.587
11302TIP3   OH233850   2.619   3.153   5.311
11302TIP3    H133851   2.556   3.125   5.244
11302TIP3    H233852   2.691   3.090   5.303
11303TIP3   OH233853   6.989   2.263   0.486
11303TIP3    H133854   7.001   2.292   0.395
11303TIP3    H233855   7.038   2.181   0.491
11304TIP3   OH233856   4.979   5.792   2.954
11304TIP3    H133857   5.049   5.732   2.979
11304TIP3    H233858   4.968   5.779   2.860
11305TIP3   OH233859   5.157   2.523   2.524
11305TIP3    H133860   5.129   2.545   2.435
11305TIP3    H233861   5.095   2.456   2.552
11306TIP3   OH233862   4.369   0.137   2.711
11306TIP3    H133863   4.324   0.194   2.648
11306TIP3    H233864   4.429   0.196   2.757
11307TIP3   OH233865   0.272   4.315   5.291
11307TIP3    H133866   0.249   4.279   5.206
11307TIP3    H233867   0.339   4.256   5.325
11308TIP3   OH233868   5.604   1.597   5.516
11308TIP3    H133869   5.594   1.524   5.455
11308TIP3    H233870   5.514   1.625   5.534
11309TIP3   OH233871   7.301   3.707   0.621
11309TIP3    H133872   7.259   3.786   0.656
11309TIP3    H233873   7.309   3.725   0.527
11310TIP3   OH233874   2.521   2.995   3.905
11310TIP3    H133875   2.477   2.984   3.990
11310TIP3    H233876   2.512   2.910   3.863
11311TIP3   OH233877   3.398   0.815   1.009
11311TIP3    H133878   3.391   0.799   0.915
11311TIP3    H233879   3.318   0.777   1.046
11312TIP3   OH233880   2.147   3.861   2.769
11312TIP3    H133881   2.190   3.944   2.786
11312TIP3    H233882   2.119   3.867   2.677
11313TIP3   OH233883   3.416   4.018   2.723
11313TIP3    H133884   3.468   4.003   2.644
11313TIP3    H233885   3.386   3.930   2.748
11314TIP3   OH233886   4.124   0.880   5.867
11314TIP3    H133887   4.128   0.786   5.883
11314TIP3    H233888   4.175   0.893   5.787
11315TIP3   OH233889   3.799   0.951   6.108
11315TIP3    H133890   3.729   0.999   6.064
11315TIP3    H233891   3.879   0.979   6.062
11316TIP3   OH233892   4.525   5.221   5.499
11316TIP3    H133893   4.579   5.148   5.469
11316TIP3    H233894   4.519   5.209   5.594
11317TIP3   OH233895   2.358   2.253   2.915
11317TIP3    H133896   2.414   2.198   2.860
11317TIP3    H233897   2.415   2.282   2.985
11318TIP3   OH233898   7.805   6.252   0.024
11318TIP3    H133899   7.808   6.176  -0.035
11318TIP3    H233900   7.846   6.322  -0.026
11319TIP3   OH233901   7.450   3.870   5.838
11319TIP3    H133902   7.467   3.964   5.835
11319TIP3    H233903   7.420   3.854   5.927
11320TIP3   OH233904   2.262   5.258   3.420
11320TIP3    H133905   2.274   5.339   3.470
11320TIP3    H233906   2.203   5.206   3.475
11321TIP3   OH233907   6.782   4.757   5.091
11321TIP3    H133908   6.830   4.780   5.011
11321TIP3    H233909   6.788   4.661   5.095
11322TIP3   OH233910   3.225   1.166   2.078
11322TIP3    H133911   3.269   1.082   2.069
11322TIP3    H233912   3.179   1.160   2.162
11323TIP3   OH233913   2.019   3.879   2.443
11323TIP3    H133914   2.048   3.937   2.373
11323TIP3    H233915   2.087   3.811   2.446
11324TIP3   OH233916   1.292   1.361   4.437
11324TIP3    H133917   1.380   1.328   4.457
11324TIP3    H233918   1.240   1.339   4.514
11325TIP3   OH233919   7.425   2.587   3.512
11325TIP3    H133920   7.421   2.580   3.607
11325TIP3    H233921   7.347   2.540   3.481
11326TIP3   OH233922   0.014   3.479   2.235
11326TIP3    H133923  -0.040   3.463   2.313
11326TIP3    H233924   0.075   3.406   2.232
11327TIP3   OH233925   7.811   7.501   0.887
11327TIP3    H133926   7.767   7.542   0.812
11327TIP3    H233927   7.821   7.410   0.861
11328TIP3   OH233928   3.561   7.472   3.174
11328TIP3    H133929   3.488   7.509   3.126
11328TIP3    H233930   3.613   7.547   3.202
11329TIP3   OH233931   1.391   0.363   1.016
11329TIP3    H133932   1.450   0.342   0.944
11329TIP3    H233933   1.407   0.456   1.034
11330TIP3   OH233934   0.463   2.619   6.354
11330TIP3    H133935   0.502   2.535   6.331
11330TIP3    H233936   0.512   2.683   6.301
11331TIP3   OH233937   4.263   0.228   6.169
11331TIP3    H133938   4.248   0.320   6.191
11331TIP3    H233939   4.287   0.230   6.076
11332TIP3   OH233940   7.972   1.947   6.066
11332TIP3    H133941   7.948   1.859   6.096
11332TIP3    H233942   7.910   1.966   5.996
11333TIP3   OH233943   4.580   0.567   0.334
11333TIP3    H133944   4.535   0.649   0.316
11333TIP3    H233945   4.673   0.588   0.329
11334TIP3   OH233946   8.036   5.786   3.289
11334TIP3    H133947   8.107   5.722   3.286
11334TIP3    H233948   8.058   5.842   3.364
11335TIP3   OH233949   1.047   3.337   1.383
11335TIP3    H133950   1.116   3.353   1.320
11335TIP3    H233951   1.020   3.246   1.367
11336TIP3   OH233952   5.298   1.934   6.449
11336TIP3    H133953   5.300   1.936   6.545
11336TIP3    H233954   5.262   1.848   6.427
11337TIP3   OH233955   2.797   4.919   6.207
11337TIP3    H133956   2.803   4.884   6.118
11337TIP3    H233957   2.828   4.847   6.263
11338TIP3   OH233958   2.421   4.488   1.037
11338TIP3    H133959   2.493   4.541   1.074
11338TIP3    H233960   2.409   4.523   0.949
11339TIP3   OH233961   6.657   3.357   5.751
11339TIP3    H133962   6.635   3.266   5.771
11339TIP3    H233963   6.700   3.353   5.665
11340TIP3   OH233964   3.945   1.431   2.591
11340TIP3    H133965   3.991   1.348   2.580
11340TIP3    H233966   3.949   1.473   2.505
11341TIP3   OH233967   6.463   1.779   5.773
11341TIP3    H133968   6.386   1.834   5.765
11341TIP3    H233969   6.430   1.695   5.805
11342TIP3   OH233970   2.044   4.839   3.702
11342TIP3    H133971   1.954   4.855   3.730
11342TIP3    H233972   2.077   4.774   3.764
11343TIP3   OH233973   5.575   6.207   2.642
11343TIP3    H133974   5.580   6.144   2.715
11343TIP3    H233975   5.651   6.264   2.655
11344TIP3   OH233976   8.279   2.262   6.600
11344TIP3    H133977   8.197   2.295   6.636
11344TIP3    H233978   8.321   2.218   6.674
11345TIP3   OH233979   6.117   2.387   3.367
11345TIP3    H133980   6.172   2.402   3.444
11345TIP3    H233981   6.155   2.310   3.325
11346TIP3   OH233982   4.286   7.757   6.347
11346TIP3    H133983   4.213   7.751   6.285
11346TIP3    H233984   4.245   7.776   6.431
11347TIP3   OH233985   2.452   2.489   2.680
11347TIP3    H133986   2.491   2.570   2.647
11347TIP3    H233987   2.527   2.431   2.695
11348TIP3   OH233988   5.774   4.824   5.444
11348TIP3    H133989   5.846   4.800   5.503
11348TIP3    H233990   5.807   4.901   5.396
11349TIP3   OH233991   5.316   7.827   1.213
11349TIP3    H133992   5.255   7.837   1.286
11349TIP3    H233993   5.372   7.753   1.237
11350TIP3   OH233994   1.693   6.592   3.036
11350TIP3    H133995   1.617   6.564   2.984
11350TIP3    H233996   1.688   6.687   3.036
11351TIP3   OH233997   7.200   7.476   0.481
11351TIP3    H133998   7.294   7.488   0.493
11351TIP3    H233999   7.188   7.470   0.386
11352TIP3   OH234000   0.707   4.746   3.020
11352TIP3    H134001   0.772   4.678   3.001
11352TIP3    H234002   0.647   4.742   2.945
11353TIP3   OH234003   3.866   7.238   1.929
11353TIP3    H134004   3.789   7.287   1.900
11353TIP3    H234005   3.877   7.170   1.862
11354TIP3   OH234006   5.490   3.127   2.155
11354TIP3    H134007   5.449   3.210   2.132
11354TIP3    H234008   5.432   3.061   2.116
11355TIP3   OH234009   1.325   2.170   4.552
11355TIP3    H134010   1.249   2.207   4.506
11355TIP3    H234011   1.378   2.130   4.483
11356TIP3   OH234012   4.395   0.571   6.357
11356TIP3    H134013   4.409   0.664   6.344
11356TIP3    H234014   4.422   0.555   6.447
11357TIP3   OH234015   5.283   6.443   1.164
11357TIP3    H134016   5.208   6.442   1.105
11357TIP3    H234017   5.245   6.431   1.251
11358TIP3   OH234018   6.644   6.195   2.993
11358TIP3    H134019   6.572   6.193   2.929
11358TIP3    H234020   6.608   6.241   3.068
11359TIP3   OH234021   0.308   3.265   4.399
11359TIP3    H134022   0.236   3.243   4.340
11359TIP3    H234023   0.328   3.183   4.443
11360TIP3   OH234024   5.776   7.214   0.842
11360TIP3    H134025   5.745   7.302   0.820
11360TIP3    H234026   5.697   7.165   0.862
11361TIP3   OH234027   8.092   3.052   4.928
11361TIP3    H134028   8.017   3.046   4.988
11361TIP3    H234029   8.094   3.144   4.903
11362TIP3   OH234030   7.219   7.676   5.064
11362TIP3    H134031   7.315   7.685   5.070
11362TIP3    H234032   7.199   7.700   4.973
11363TIP3   OH234033   0.904   0.942   5.136
11363TIP3    H134034   0.873   0.852   5.142
11363TIP3    H234035   0.860   0.988   5.207
11364TIP3   OH234036   5.668   2.737   6.638
11364TIP3    H134037   5.641   2.810   6.582
11364TIP3    H234038   5.689   2.667   6.576
11365TIP3   OH234039   3.634   2.187   1.500
11365TIP3    H134040   3.544   2.163   1.477
11365TIP3    H234041   3.677   2.201   1.416
11366TIP3   OH234042   4.445   4.148   0.584
11366TIP3    H134043   4.366   4.106   0.550
11366TIP3    H234044   4.511   4.136   0.515
11367TIP3   OH234045   0.484   7.346   6.301
11367TIP3    H134046   0.392   7.321   6.293
11367TIP3    H234047   0.532   7.272   6.264
11368TIP3   OH234048   6.679   6.627   5.032
11368TIP3    H134049   6.758   6.575   5.017
11368TIP3    H234050   6.703   6.687   5.103
11369TIP3   OH234051   2.610   3.270   3.258
11369TIP3    H134052   2.551   3.264   3.333
11369TIP3    H234053   2.562   3.227   3.187
11370TIP3   OH234054   4.670   4.959   5.865
11370TIP3    H134055   4.694   4.875   5.827
11370TIP3    H234056   4.744   5.017   5.846
11371TIP3   OH234057   3.854   4.793   0.365
11371TIP3    H134058   3.928   4.741   0.334
11371TIP3    H234059   3.795   4.730   0.405
11372TIP3   OH234060   7.380   0.379   6.460
11372TIP3    H134061   7.334   0.331   6.391
11372TIP3    H234062   7.428   0.312   6.508
11373TIP3   OH234063   3.845   6.281   1.220
11373TIP3    H134064   3.851   6.306   1.312
11373TIP3    H234065   3.751   6.285   1.200
11374TIP3   OH234066   0.763   5.690   3.342
11374TIP3    H134067   0.812   5.697   3.260
11374TIP3    H234068   0.753   5.596   3.356
11375TIP3   OH234069   2.467   0.500   2.917
11375TIP3    H134070   2.448   0.580   2.966
11375TIP3    H234071   2.412   0.433   2.957
11376TIP3   OH234072   3.486   6.831   6.695
11376TIP3    H134073   3.485   6.751   6.641
11376TIP3    H234074   3.578   6.856   6.698
11377TIP3   OH234075   2.233   2.207   2.216
11377TIP3    H134076   2.198   2.241   2.299
11377TIP3    H234077   2.156   2.201   2.159
11378TIP3   OH234078   0.793   0.961   0.113
11378TIP3    H134079   0.816   0.904   0.185
11378TIP3    H234080   0.714   1.007   0.142
11379TIP3   OH234081   7.359   6.259   3.788
11379TIP3    H134082   7.334   6.243   3.879
11379TIP3    H234083   7.454   6.245   3.787
11380TIP3   OH234084   7.056   4.562   3.823
11380TIP3    H134085   7.130   4.511   3.856
11380TIP3    H234086   6.992   4.560   3.895
11381TIP3   OH234087   3.191   7.114   5.057
11381TIP3    H134088   3.235   7.082   5.136
11381TIP3    H234089   3.140   7.040   5.027
11382TIP3   OH234090   2.309   3.828   4.064
11382TIP3    H134091   2.343   3.796   3.980
11382TIP3    H234092   2.308   3.751   4.120
11383TIP3   OH234093   6.333   3.203   5.729
11383TIP3    H134094   6.416   3.224   5.687
11383TIP3    H234095   6.323   3.109   5.715
11384TIP3   OH234096   6.952   1.615   1.331
11384TIP3    H134097   6.901   1.690   1.301
11384TIP3    H234098   6.991   1.580   1.251
11385TIP3   OH234099   5.551   0.108   1.406
11385TIP3    H134100   5.588   0.194   1.427
11385TIP3    H234101   5.524   0.116   1.314
11386TIP3   OH234102   7.629   1.973   5.348
11386TIP3    H134103   7.632   2.050   5.290
11386TIP3    H234104   7.555   1.990   5.406
11387TIP3   OH234105   6.876   6.258   0.373
11387TIP3    H134106   6.813   6.318   0.332
11387TIP3    H234107   6.952   6.313   0.391
11388TIP3   OH234108   5.343   1.895   1.679
11388TIP3    H134109   5.407   1.963   1.657
11388TIP3    H234110   5.366   1.822   1.621
11389TIP3   OH234111   7.231   4.415   1.278
11389TIP3    H134112   7.194   4.499   1.307
11389TIP3    H234113   7.322   4.435   1.257
11390TIP3   OH234114   7.696   0.842   2.869
11390TIP3    H134115   7.617   0.895   2.882
11390TIP3    H234116   7.665   0.752   2.871
11391TIP3   OH234117   8.067   2.241   4.808
11391TIP3    H134118   8.135   2.308   4.822
11391TIP3    H234119   7.996   2.289   4.766
11392TIP3   OH234120   2.902   1.871   2.198
11392TIP3    H134121   2.904   1.789   2.247
11392TIP3    H234122   2.870   1.846   2.111
11393TIP3   OH234123   8.168   0.422   2.966
11393TIP3    H134124   8.175   0.335   2.926
11393TIP3    H234125   8.254   0.437   3.006
11394TIP3   OH234126   0.810   4.276   3.109
11394TIP3    H134127   0.773   4.292   3.022
11394TIP3    H234128   0.739   4.237   3.159
11395TIP3   OH234129   6.167   7.116   2.686
11395TIP3    H134130   6.168   7.107   2.781
11395TIP3    H234131   6.253   7.152   2.664
11396TIP3   OH234132   0.021   5.702   0.755
11396TIP3    H134133   0.041   5.632   0.816
11396TIP3    H234134   0.106   5.732   0.723
11397TIP3   OH234135   2.775   0.949   6.257
11397TIP3    H134136   2.844   1.015   6.255
11397TIP3    H234137   2.821   0.866   6.243
11398TIP3   OH234138   1.290   5.262   3.477
11398TIP3    H134139   1.306   5.207   3.401
11398TIP3    H234140   1.321   5.349   3.451
11399TIP3   OH234141   5.813   7.540   2.555
11399TIP3    H134142   5.729   7.495   2.565
11399TIP3    H234143   5.796   7.629   2.584
11400TIP3   OH234144   2.305   6.383   5.230
11400TIP3    H134145   2.240   6.316   5.249
11400TIP3    H234146   2.386   6.334   5.215
11401TIP3   OH234147   3.098   3.203   2.056
11401TIP3    H134148   3.164   3.159   2.111
11401TIP3    H234149   3.019   3.204   2.110
11402TIP3   OH234150   3.276   2.585   4.814
11402TIP3    H134151   3.243   2.644   4.746
11402TIP3    H234152   3.283   2.640   4.892
11403TIP3   OH234153   4.597   6.476   1.604
11403TIP3    H134154   4.544   6.525   1.667
11403TIP3    H234155   4.566   6.386   1.611
11404TIP3   OH234156   1.302   3.693   0.900
11404TIP3    H134157   1.312   3.786   0.878
11404TIP3    H234158   1.377   3.650   0.859
11405TIP3   OH234159   3.526   6.869   2.929
11405TIP3    H134160   3.444   6.834   2.963
11405TIP3    H234161   3.575   6.896   3.007
11406TIP3   OH234162   2.258   4.791   5.095
11406TIP3    H134163   2.193   4.770   5.028
11406TIP3    H234164   2.336   4.742   5.069
11407TIP3   OH234165   2.742   0.595   5.605
11407TIP3    H134166   2.807   0.527   5.585
11407TIP3    H234167   2.685   0.555   5.670
11408TIP3   OH234168   3.465   5.265   2.123
11408TIP3    H134169   3.456   5.309   2.208
11408TIP3    H234170   3.497   5.177   2.145
11409TIP3   OH234171   6.064   4.483   2.015
11409TIP3    H134172   6.015   4.524   2.086
11409TIP3    H234173   6.009   4.410   1.987
11410TIP3   OH234174   7.648   6.386   2.587
11410TIP3    H134175   7.619   6.379   2.678
11410TIP3    H234176   7.738   6.352   2.588
11411TIP3   OH234177   4.713   7.407   6.303
11411TIP3    H134178   4.757   7.370   6.226
11411TIP3    H234179   4.650   7.469   6.268
11412TIP3   OH234180   2.078   1.274   4.927
11412TIP3    H134181   2.068   1.247   5.018
11412TIP3    H234182   2.165   1.312   4.922
11413TIP3   OH234183   6.676   4.579   5.460
11413TIP3    H134184   6.654   4.549   5.549
11413TIP3    H234185   6.709   4.500   5.416
11414TIP3   OH234186   5.463   7.610   4.702
11414TIP3    H134187   5.464   7.703   4.680
11414TIP3    H234188   5.488   7.607   4.794
11415TIP3   OH234189   6.217   6.949   2.150
11415TIP3    H134190   6.207   6.919   2.241
11415TIP3    H234191   6.128   6.945   2.114
11416TIP3   OH234192   4.938   1.465   5.108
11416TIP3    H134193   4.907   1.509   5.029
11416TIP3    H234194   5.029   1.442   5.089
11417TIP3   OH234195   3.359   5.939   6.659
11417TIP3    H134196   3.439   5.914   6.611
11417TIP3    H234197   3.365   5.891   6.741
11418TIP3   OH234198   4.615   6.141   4.899
11418TIP3    H134199   4.608   6.236   4.912
11418TIP3    H234200   4.585   6.103   4.981
11419TIP3   OH234201   6.747   6.909   6.127
11419TIP3    H134202   6.738   6.994   6.171
11419TIP3    H234203   6.727   6.844   6.194
11420TIP3   OH234204   0.272   7.825   3.309
11420TIP3    H134205   0.179   7.837   3.328
11420TIP3    H234206   0.301   7.759   3.371
11421TIP3   OH234207   6.394   3.449   3.107
11421TIP3    H134208   6.325   3.488   3.052
11421TIP3    H234209   6.387   3.355   3.092
11422TIP3   OH234210   8.104   0.896   5.228
11422TIP3    H134211   8.052   0.899   5.148
11422TIP3    H234212   8.041   0.911   5.298
11423TIP3   OH234213   5.731   5.319   4.907
11423TIP3    H134214   5.724   5.414   4.903
11423TIP3    H234215   5.745   5.291   4.817
11424TIP3   OH234216   3.392   4.686   5.053
11424TIP3    H134217   3.347   4.698   5.137
11424TIP3    H234218   3.325   4.652   4.994
11425TIP3   OH234219   4.948   1.393   0.898
11425TIP3    H134220   4.904   1.459   0.953
11425TIP3    H234221   4.915   1.309   0.930
11426TIP3   OH234222   1.044   7.276   4.789
11426TIP3    H134223   1.097   7.200   4.768
11426TIP3    H234224   0.972   7.242   4.841
11427TIP3   OH234225   4.830   3.281   2.716
11427TIP3    H134226   4.863   3.266   2.804
11427TIP3    H234227   4.735   3.287   2.726
11428TIP3   OH234228   1.340   2.216   5.307
11428TIP3    H134229   1.385   2.189   5.228
11428TIP3    H234230   1.256   2.252   5.276
11429TIP3   OH234231   4.818   1.415   1.420
11429TIP3    H134232   4.745   1.382   1.366
11429TIP3    H234233   4.793   1.506   1.440
11430TIP3   OH234234   5.010   0.077   3.317
11430TIP3    H134235   5.105   0.086   3.309
11430TIP3    H234236   4.975   0.150   3.267
11431TIP3   OH234237   1.199   2.190   4.164
11431TIP3    H134238   1.259   2.123   4.132
11431TIP3    H234239   1.207   2.186   4.260
11432TIP3   OH234240   6.013   5.481   3.298
11432TIP3    H134241   5.929   5.519   3.322
11432TIP3    H234242   6.070   5.557   3.282
11433TIP3   OH234243   0.908   4.226   4.475
11433TIP3    H134244   0.869   4.286   4.411
11433TIP3    H234245   1.000   4.252   4.480
11434TIP3   OH234246   5.053   7.752   3.908
11434TIP3    H134247   5.130   7.762   3.852
11434TIP3    H234248   5.080   7.688   3.974
11435TIP3   OH234249   1.788   2.379   1.390
11435TIP3    H134250   1.776   2.295   1.345
11435TIP3    H234251   1.743   2.443   1.334
11436TIP3   OH234252   5.430   6.626   1.028
11436TIP3    H134253   5.406   6.618   0.936
11436TIP3    H234254   5.383   6.554   1.071
11437TIP3   OH234255   6.720   0.652   4.632
11437TIP3    H134256   6.678   0.659   4.718
11437TIP3    H234257   6.809   0.682   4.647
11438TIP3   OH234258   5.556   7.768   0.678
11438TIP3    H134259   5.534   7.717   0.600
11438TIP3    H234260   5.635   7.816   0.653
11439TIP3   OH234261   5.583   5.868   0.336
11439TIP3    H134262   5.662   5.813   0.329
11439TIP3    H234263   5.568   5.901   0.248
11440TIP3   OH234264   6.242   5.167   1.546
11440TIP3    H134265   6.155   5.189   1.578
11440TIP3    H234266   6.232   5.162   1.451
11441TIP3   OH234267   3.810   5.574   5.010
11441TIP3    H134268   3.805   5.660   4.968
11441TIP3    H234269   3.900   5.568   5.042
11442TIP3   OH234270   3.024   6.528   1.140
11442TIP3    H134271   2.933   6.556   1.123
11442TIP3    H234272   3.072   6.610   1.154
11443TIP3   OH234273   4.929   2.427   3.777
11443TIP3    H134274   4.962   2.344   3.743
11443TIP3    H234275   4.841   2.435   3.739
11444TIP3   OH234276   5.354   2.145   4.639
11444TIP3    H134277   5.335   2.230   4.679
11444TIP3    H234278   5.320   2.152   4.550
11445TIP3   OH234279   2.266   2.910   6.550
11445TIP3    H134280   2.301   2.831   6.510
11445TIP3    H234281   2.309   2.982   6.503
11446TIP3   OH234282   5.317   7.825   3.782
11446TIP3    H134283   5.339   7.904   3.733
11446TIP3    H234284   5.392   7.767   3.768
11447TIP3   OH234285   5.183   1.229   1.833
11447TIP3    H134286   5.246   1.171   1.875
11447TIP3    H234287   5.167   1.298   1.897
11448TIP3   OH234288   8.140   3.677   5.423
11448TIP3    H134289   8.085   3.751   5.450
11448TIP3    H234290   8.225   3.716   5.402
11449TIP3   OH234291   3.179   2.442   3.513
11449TIP3    H134292   3.254   2.425   3.569
11449TIP3    H234293   3.183   2.535   3.493
11450TIP3   OH234294   2.855   2.894   1.373
11450TIP3    H134295   2.852   2.815   1.427
11450TIP3    H234296   2.938   2.937   1.397
11451TIP3   OH234297   7.680   1.204   0.367
11451TIP3    H134298   7.709   1.138   0.430
11451TIP3    H234299   7.683   1.286   0.414
11452TIP3   OH234300   7.600   6.950   2.603
11452TIP3    H134301   7.549   7.012   2.551
11452TIP3    H234302   7.640   6.892   2.539
11453TIP3   OH234303   7.521   1.062   5.171
11453TIP3    H134304   7.551   1.030   5.086
11453TIP3    H234305   7.427   1.076   5.160
11454TIP3   OH234306   0.236   0.983   3.069
11454TIP3    H134307   0.197   1.053   3.017
11454TIP3    H234308   0.315   0.959   3.021
11455TIP3   OH234309   0.813   4.074   6.663
11455TIP3    H134310   0.812   3.984   6.694
11455TIP3    H234311   0.735   4.114   6.703
11456TIP3   OH234312   5.513   5.160   4.966
11456TIP3    H134313   5.569   5.232   4.937
11456TIP3    H234314   5.426   5.199   4.974
11457TIP3   OH234315   1.361   6.724   0.854
11457TIP3    H134316   1.400   6.680   0.929
11457TIP3    H234317   1.351   6.655   0.788
11458TIP3   OH234318   0.121   2.551   6.745
11458TIP3    H134319   0.134   2.520   6.656
11458TIP3    H234320   0.100   2.644   6.736
11459TIP3   OH234321   4.098   4.116   1.820
11459TIP3    H134322   4.070   4.073   1.740
11459TIP3    H234323   4.176   4.068   1.847
11460TIP3   OH234324   0.029   4.444   0.082
11460TIP3    H134325  -0.018   4.369   0.046
11460TIP3    H234326   0.060   4.414   0.168
11461TIP3   OH234327   1.578   7.397   6.439
11461TIP3    H134328   1.555   7.332   6.505
11461TIP3    H234329   1.565   7.481   6.483
11462TIP3   OH234330   5.343   1.873   5.039
11462TIP3    H134331   5.350   1.862   4.944
11462TIP3    H234332   5.268   1.819   5.065
11463TIP3   OH234333   5.860   0.099   2.048
11463TIP3    H134334   5.924   0.158   2.009
11463TIP3    H234335   5.811   0.154   2.109
11464TIP3   OH234336   7.376   1.236   5.431
11464TIP3    H134337   7.454   1.261   5.382
11464TIP3    H234338   7.410   1.209   5.517
11465TIP3   OH234339   1.065   2.681   0.590
11465TIP3    H134340   1.079   2.591   0.619
11465TIP3    H234341   1.153   2.719   0.587
11466TIP3   OH234342   5.978   0.884   6.162
11466TIP3    H134343   6.039   0.855   6.230
11466TIP3    H234344   5.983   0.816   6.095
11467TIP3   OH234345   5.478   3.812   3.822
11467TIP3    H134346   5.421   3.751   3.776
11467TIP3    H234347   5.447   3.810   3.913
11468TIP3   OH234348   5.146   5.624   3.117
11468TIP3    H134349   5.231   5.631   3.073
11468TIP3    H234350   5.167   5.587   3.203
11469TIP3   OH234351   2.620   2.226   2.120
11469TIP3    H134352   2.556   2.295   2.102
11469TIP3    H234353   2.567   2.149   2.141
11470TIP3   OH234354   2.388   1.641   0.704
11470TIP3    H134355   2.396   1.578   0.632
11470TIP3    H234356   2.327   1.600   0.766
11471TIP3   OH234357   3.245   2.712   4.210
11471TIP3    H134358   3.164   2.703   4.259
11471TIP3    H234359   3.302   2.766   4.266
11472TIP3   OH234360   4.557   3.375   2.867
11472TIP3    H134361   4.518   3.298   2.908
11472TIP3    H234362   4.520   3.449   2.917
11473TIP3   OH234363   0.008   3.760   6.693
11473TIP3    H134364   0.023   3.683   6.638
11473TIP3    H234365  -0.028   3.725   6.774
11474TIP3   OH234366   7.407   2.609   2.175
11474TIP3    H134367   7.361   2.626   2.257
11474TIP3    H234368   7.379   2.681   2.117
11475TIP3   OH234369   1.690   0.023   2.753
11475TIP3    H134370   1.752  -0.036   2.709
11475TIP3    H234371   1.743   0.097   2.782
11476TIP3   OH234372   0.319   5.606   0.707
11476TIP3    H134373   0.293   5.595   0.616
11476TIP3    H234374   0.409   5.571   0.711
11477TIP3   OH234375   0.220   1.311   0.489
11477TIP3    H134376   0.269   1.335   0.568
11477TIP3    H234377   0.280   1.254   0.441
11478TIP3   OH234378   1.005   6.552   1.940
11478TIP3    H134379   0.927   6.579   1.988
11478TIP3    H234380   1.062   6.514   2.007
11479TIP3   OH234381   0.033   5.721   6.682
11479TIP3    H134382  -0.054   5.752   6.659
11479TIP3    H234383   0.082   5.800   6.706
11480TIP3   OH234384   2.826   0.628   1.868
11480TIP3    H134385   2.858   0.714   1.838
11480TIP3    H234386   2.834   0.572   1.791
11481TIP3   OH234387   7.264   6.226   3.287
11481TIP3    H134388   7.259   6.267   3.373
11481TIP3    H234389   7.199   6.272   3.234
11482TIP3   OH234390   5.279   0.998   5.491
11482TIP3    H134391   5.209   0.999   5.425
11482TIP3    H234392   5.289   0.906   5.514
11483TIP3   OH234393   8.242   5.934   2.000
11483TIP3    H134394   8.245   5.922   1.905
11483TIP3    H234395   8.238   5.845   2.035
11484TIP3   OH234396   2.527   2.625   4.959
11484TIP3    H134397   2.458   2.606   4.895
11484TIP3    H234398   2.522   2.552   5.021
11485TIP3   OH234399   7.068   5.296   1.112
11485TIP3    H134400   7.040   5.261   1.027
11485TIP3    H234401   7.151   5.251   1.130
11486TIP3   OH234402   7.206   4.778   6.595
11486TIP3    H134403   7.278   4.800   6.654
11486TIP3    H234404   7.136   4.748   6.653
11487TIP3   OH234405   5.673   5.231   5.836
11487TIP3    H134406   5.600   5.181   5.800
11487TIP3    H234407   5.714   5.273   5.760
11488TIP3   OH234408   3.680   4.990   0.278
11488TIP3    H134409   3.751   5.049   0.253
11488TIP3    H234410   3.716   4.902   0.264
11489TIP3   OH234411   7.048   2.997   4.401
11489TIP3    H134412   7.069   2.932   4.334
11489TIP3    H234413   7.105   2.974   4.474
11490TIP3   OH234414   8.129   5.059   3.444
11490TIP3    H134415   8.159   4.971   3.465
11490TIP3    H234416   8.039   5.047   3.414
11491TIP3   OH234417   5.819   3.563   4.527
11491TIP3    H134418   5.826   3.531   4.617
11491TIP3    H234419   5.910   3.576   4.499
11492TIP3   OH234420   4.340   1.054   0.768
11492TIP3    H134421   4.367   1.019   0.852
11492TIP3    H234422   4.269   1.115   0.788
11493TIP3   OH234423   0.480   0.616   5.484
11493TIP3    H134424   0.507   0.568   5.562
11493TIP3    H234425   0.411   0.562   5.446
11494TIP3   OH234426   2.277   4.494   5.853
11494TIP3    H134427   2.369   4.480   5.877
11494TIP3    H234428   2.231   4.417   5.885
11495TIP3   OH234429   7.675   2.953   5.831
11495TIP3    H134430   7.757   2.981   5.872
11495TIP3    H234431   7.612   3.020   5.858
11496TIP3   OH234432   2.073   3.237   2.989
11496TIP3    H134433   2.005   3.188   2.944
11496TIP3    H234434   2.084   3.317   2.938
11497TIP3   OH234435   2.459   3.182   4.122
11497TIP3    H134436   2.405   3.103   4.125
11497TIP3    H234437   2.547   3.151   4.144
11498TIP3   OH234438   5.135   3.263   5.633
11498TIP3    H134439   5.070   3.275   5.701
11498TIP3    H234440   5.162   3.171   5.641
11499TIP3   OH234441   5.877   6.500   6.059
11499TIP3    H134442   5.879   6.549   5.977
11499TIP3    H234443   5.790   6.461   6.063
11500TIP3   OH234444   7.266   2.936   4.593
11500TIP3    H134445   7.300   2.919   4.681
11500TIP3    H234446   7.334   2.903   4.534
11501TIP3   OH234447   4.734   4.611   1.638
11501TIP3    H134448   4.715   4.528   1.681
11501TIP3    H234449   4.810   4.645   1.686
11502TIP3   OH234450   1.842   7.732   2.954
11502TIP3    H134451   1.878   7.690   2.876
11502TIP3    H234452   1.868   7.675   3.027
11503TIP3   OH234453   1.290   5.806   4.773
11503TIP3    H134454   1.208   5.757   4.766
11503TIP3    H234455   1.302   5.819   4.867
11504TIP3   OH234456   8.299   3.148   2.257
11504TIP3    H134457   8.212   3.136   2.296
11504TIP3    H234458   8.347   3.198   2.323
11505TIP3   OH234459   6.081   2.748   5.872
11505TIP3    H134460   6.035   2.827   5.900
11505TIP3    H234461   6.112   2.768   5.783
11506TIP3   OH234462   7.086   2.533   3.908
11506TIP3    H134463   7.111   2.483   3.986
11506TIP3    H234464   6.990   2.535   3.911
11507TIP3   OH234465   3.420   2.666   3.981
11507TIP3    H134466   3.497   2.629   4.023
11507TIP3    H234467   3.358   2.680   4.053
11508TIP3   OH234468   7.061   4.178   1.408
11508TIP3    H134469   7.046   4.211   1.320
11508TIP3    H234470   7.156   4.167   1.414
11509TIP3   OH234471   5.426   2.225   6.522
11509TIP3    H134472   5.382   2.243   6.605
11509TIP3    H234473   5.397   2.137   6.498
11510TIP3   OH234474   5.047   4.365   4.054
11510TIP3    H134475   5.030   4.413   3.972
11510TIP3    H234476   4.972   4.306   4.062
11511TIP3   OH234477   1.386   4.249   2.419
11511TIP3    H134478   1.431   4.172   2.385
11511TIP3    H234479   1.426   4.264   2.505
11512TIP3   OH234480   5.203   5.820   4.219
11512TIP3    H134481   5.154   5.874   4.156
11512TIP3    H234482   5.138   5.792   4.282
11513TIP3   OH234483   6.405   5.278   5.326
11513TIP3    H134484   6.468   5.323   5.269
11513TIP3    H234485   6.391   5.193   5.284
11514TIP3   OH234486   6.979   0.311   5.808
11514TIP3    H134487   6.983   0.341   5.718
11514TIP3    H234488   6.919   0.237   5.806
11515TIP3   OH234489   4.215   5.051   2.700
11515TIP3    H134490   4.158   5.113   2.655
11515TIP3    H234491   4.155   4.990   2.742
11516TIP3   OH234492   3.907   7.444   3.966
11516TIP3    H134493   3.842   7.391   4.013
11516TIP3    H234494   3.944   7.384   3.901
11517TIP3   OH234495   8.086   2.565   5.856
11517TIP3    H134496   8.094   2.497   5.923
11517TIP3    H234497   7.991   2.576   5.846
11518TIP3   OH234498   5.478   3.381   4.627
11518TIP3    H134499   5.537   3.347   4.561
11518TIP3    H234500   5.431   3.453   4.584
11519TIP3   OH234501   2.545   2.111   5.839
11519TIP3    H134502   2.612   2.045   5.820
11519TIP3    H234503   2.566   2.184   5.781
11520TIP3   OH234504   4.720   2.851   0.572
11520TIP3    H134505   4.708   2.810   0.658
11520TIP3    H234506   4.739   2.778   0.513
11521TIP3   OH234507   4.738   0.573   2.688
11521TIP3    H134508   4.817   0.579   2.634
11521TIP3    H234509   4.764   0.608   2.773
11522TIP3   OH234510   4.476   2.935   0.463
11522TIP3    H134511   4.454   2.886   0.384
11522TIP3    H234512   4.567   2.913   0.482
11523TIP3   OH234513   1.432   7.039   0.862
11523TIP3    H134514   1.355   7.047   0.806
11523TIP3    H234515   1.428   6.950   0.895
11524TIP3   OH234516   4.644   1.723   4.660
11524TIP3    H134517   4.601   1.645   4.697
11524TIP3    H234518   4.722   1.688   4.616
11525TIP3   OH234519   0.288   2.489   6.053
11525TIP3    H134520   0.353   2.442   6.105
11525TIP3    H234521   0.205   2.444   6.072
11526TIP3   OH234522   3.618   4.295   2.699
11526TIP3    H134523   3.544   4.272   2.755
11526TIP3    H234524   3.637   4.215   2.651
11527TIP3   OH234525   5.381   7.203   5.311
11527TIP3    H134526   5.385   7.223   5.404
11527TIP3    H234527   5.315   7.134   5.303
11528TIP3   OH234528   7.599   6.532   4.976
11528TIP3    H134529   7.646   6.530   4.892
11528TIP3    H234530   7.594   6.440   5.002
11529TIP3   OH234531   2.349   5.689   2.188
11529TIP3    H134532   2.376   5.599   2.205
11529TIP3    H234533   2.394   5.714   2.107
11530TIP3   OH234534   5.931   6.003   5.760
11530TIP3    H134535   5.897   5.991   5.849
11530TIP3    H234536   6.025   5.987   5.768
11531TIP3   OH234537   3.865   5.976   0.973
11531TIP3    H134538   3.896   6.058   0.935
11531TIP3    H234539   3.942   5.939   1.016
11532TIP3   OH234540   0.746   5.052   2.492
11532TIP3    H134541   0.820   4.996   2.470
11532TIP3    H234542   0.735   5.043   2.586
11533TIP3   OH234543   6.510   0.073   1.149
11533TIP3    H134544   6.593   0.072   1.198
11533TIP3    H234545   6.481  -0.018   1.150
11534TIP3   OH234546   0.394   5.017   4.757
11534TIP3    H134547   0.450   4.997   4.682
11534TIP3    H234548   0.317   5.058   4.719
11535TIP3   OH234549   1.007   0.209   4.944
11535TIP3    H134550   1.016   0.150   5.019
11535TIP3    H234551   1.072   0.178   4.882
11536TIP3   OH234552   7.434   7.707   5.758
11536TIP3    H134553   7.372   7.717   5.686
11536TIP3    H234554   7.456   7.796   5.783
11537TIP3   OH234555   7.807   6.301   1.657
11537TIP3    H134556   7.903   6.308   1.651
11537TIP3    H234557   7.792   6.271   1.746
11538TIP3   OH234558   4.431   4.371   5.932
11538TIP3    H134559   4.497   4.303   5.945
11538TIP3    H234560   4.396   4.388   6.019
11539TIP3   OH234561   0.152   3.551   0.721
11539TIP3    H134562   0.107   3.489   0.663
11539TIP3    H234563   0.245   3.540   0.701
11540TIP3   OH234564   4.059   4.026   5.500
11540TIP3    H134565   4.133   4.077   5.532
11540TIP3    H234566   4.070   3.940   5.540
11541TIP3   OH234567   5.745   0.574   0.014
11541TIP3    H134568   5.768   0.649  -0.041
11541TIP3    H234569   5.682   0.524  -0.038
11542TIP3   OH234570   3.555   0.458   3.667
11542TIP3    H134571   3.482   0.520   3.656
11542TIP3    H234572   3.610   0.473   3.590
11543TIP3   OH234573   3.428   0.187   1.615
11543TIP3    H134574   3.350   0.141   1.646
11543TIP3    H234575   3.463   0.131   1.546
11544TIP3   OH234576   2.257   5.803   1.674
11544TIP3    H134577   2.259   5.871   1.742
11544TIP3    H234578   2.247   5.721   1.723
11545TIP3   OH234579   7.956   2.372   4.020
11545TIP3    H134580   7.988   2.283   4.035
11545TIP3    H234581   7.862   2.366   4.035
11546TIP3   OH234582   6.414   4.173   4.086
11546TIP3    H134583   6.399   4.205   4.175
11546TIP3    H234584   6.376   4.086   4.085
11547TIP3   OH234585   6.161   2.708   1.331
11547TIP3    H134586   6.206   2.786   1.362
11547TIP3    H234587   6.153   2.652   1.408
11548TIP3   OH234588   0.711   5.833   1.732
11548TIP3    H134589   0.669   5.803   1.812
11548TIP3    H234590   0.793   5.785   1.728
11549TIP3   OH234591   6.548   6.272   6.521
11549TIP3    H134592   6.489   6.343   6.497
11549TIP3    H234593   6.552   6.216   6.444
11550TIP3   OH234594   5.675   5.991   1.632
11550TIP3    H134595   5.754   6.010   1.682
11550TIP3    H234596   5.705   5.935   1.560
11551TIP3   OH234597   0.561   3.566   0.389
11551TIP3    H134598   0.562   3.661   0.384
11551TIP3    H234599   0.524   3.538   0.305
11552TIP3   OH234600   3.684   4.340   1.164
11552TIP3    H134601   3.665   4.321   1.072
11552TIP3    H234602   3.659   4.432   1.175
11553TIP3   OH234603   7.155   1.354   5.646
11553TIP3    H134604   7.071   1.377   5.606
11553TIP3    H234605   7.152   1.259   5.654
11554TIP3   OH234606   7.398   1.584   0.718
11554TIP3    H134607   7.339   1.534   0.662
11554TIP3    H234608   7.351   1.591   0.801
11555TIP3   OH234609   1.611   5.471   3.883
11555TIP3    H134610   1.580   5.451   3.971
11555TIP3    H234611   1.534   5.458   3.828
11556TIP3   OH234612   4.325   4.752   0.747
11556TIP3    H134613   4.280   4.719   0.825
11556TIP3    H234614   4.274   4.717   0.673
11557TIP3   OH234615   3.138   1.132   1.792
11557TIP3    H134616   3.139   1.152   1.885
11557TIP3    H234617   3.099   1.044   1.787
11558TIP3   OH234618   1.304   1.546   3.442
11558TIP3    H134619   1.327   1.634   3.470
11558TIP3    H234620   1.365   1.489   3.488
11559TIP3   OH234621   3.425   4.571   4.133
11559TIP3    H134622   3.402   4.545   4.222
11559TIP3    H234623   3.436   4.489   4.085
11560TIP3   OH234624   2.412   0.993   4.567
11560TIP3    H134625   2.498   0.952   4.582
11560TIP3    H234626   2.378   1.010   4.655
11561TIP3   OH234627   6.551   7.469   2.293
11561TIP3    H134628   6.616   7.462   2.223
11561TIP3    H234629   6.477   7.416   2.263
11562TIP3   OH234630   4.177   6.955   5.167
11562TIP3    H134631   4.096   6.911   5.194
11562TIP3    H234632   4.241   6.884   5.163
11563TIP3   OH234633   0.094   6.038   0.149
11563TIP3    H134634   0.109   6.129   0.125
11563TIP3    H234635   0.095   6.037   0.245
11564TIP3   OH234636   4.691   1.626   4.226
11564TIP3    H134637   4.683   1.699   4.165
11564TIP3    H234638   4.776   1.639   4.268
11565TIP3   OH234639   2.284   5.860   5.385
11565TIP3    H134640   2.232   5.786   5.415
11565TIP3    H234641   2.322   5.831   5.302
11566TIP3   OH234642   6.411   3.609   3.360
11566TIP3    H134643   6.398   3.546   3.290
11566TIP3    H234644   6.500   3.594   3.390
11567TIP3   OH234645   0.939   0.379   6.586
11567TIP3    H134646   0.948   0.434   6.663
11567TIP3    H234647   1.006   0.311   6.596
11568TIP3   OH234648   4.395   0.996   2.028
11568TIP3    H134649   4.477   1.044   2.037
11568TIP3    H234650   4.338   1.035   2.094
11569TIP3   OH234651   7.746   2.307   4.356
11569TIP3    H134652   7.761   2.274   4.267
11569TIP3    H234653   7.829   2.291   4.401
11570TIP3   OH234654   4.181   5.759   3.081
11570TIP3    H134655   4.212   5.672   3.108
11570TIP3    H234656   4.118   5.741   3.011
11571TIP3   OH234657   2.553   7.497   4.154
11571TIP3    H134658   2.477   7.535   4.198
11571TIP3    H234659   2.568   7.553   4.078
11572TIP3   OH234660   7.332   4.080   1.497
11572TIP3    H134661   7.352   4.009   1.436
11572TIP3    H234662   7.414   4.095   1.544
11573TIP3   OH234663   4.332   0.311   0.472
11573TIP3    H134664   4.255   0.292   0.526
11573TIP3    H234665   4.297   0.350   0.392
11574TIP3   OH234666   0.458   4.042   4.097
11574TIP3    H134667   0.438   4.090   4.177
11574TIP3    H234668   0.430   3.953   4.115
11575TIP3   OH234669   1.896   6.571   2.027
11575TIP3    H134670   1.975   6.595   2.076
11575TIP3    H234671   1.928   6.543   1.941
11576TIP3   OH234672   0.584   6.227   4.457
11576TIP3    H134673   0.519   6.296   4.469
11576TIP3    H234674   0.646   6.263   4.394
11577TIP3   OH234675   8.289   1.106   6.689
11577TIP3    H134676   8.375   1.073   6.663
11577TIP3    H234677   8.307   1.163   6.763
11578TIP3   OH234678   3.647   7.614   4.830
11578TIP3    H134679   3.564   7.660   4.817
11578TIP3    H234680   3.634   7.564   4.910
11579TIP3   OH234681   0.074   6.725   6.742
11579TIP3    H134682   0.107   6.686   6.662
11579TIP3    H234683   0.077   6.654   6.806
11580TIP3   OH234684   6.903   0.813   1.195
11580TIP3    H134685   6.936   0.880   1.253
11580TIP3    H234686   6.837   0.857   1.142
11581TIP3   OH234687   7.938   6.586   6.012
11581TIP3    H134688   7.845   6.564   6.019
11581TIP3    H234689   7.984   6.503   6.028
11582TIP3   OH234690   3.930   4.401   0.198
11582TIP3    H134691   3.951   4.339   0.128
11582TIP3    H234692   3.978   4.368   0.274
11583TIP3   OH234693   1.118   1.073   4.157
11583TIP3    H134694   1.103   1.154   4.207
11583TIP3    H234695   1.032   1.032   4.151
11584TIP3   OH234696   5.495   7.028   2.622
11584TIP3    H134697   5.418   7.006   2.570
11584TIP3    H234698   5.559   7.058   2.558
11585TIP3   OH234699   5.241   0.904   1.842
11585TIP3    H134700   5.185   0.907   1.765
11585TIP3    H234701   5.234   0.814   1.873
11586TIP3   OH234702   7.103   6.088   0.702
11586TIP3    H134703   7.024   6.034   0.703
11586TIP3    H234704   7.153   6.060   0.779
11587TIP3   OH234705   4.426   3.005   3.669
11587TIP3    H134706   4.455   2.920   3.703
11587TIP3    H234707   4.491   3.067   3.703
11588TIP3   OH234708   2.500   1.563   3.585
11588TIP3    H134709   2.572   1.522   3.537
11588TIP3    H234710   2.428   1.501   3.580
11589TIP3   OH234711   1.612   5.169   2.312
11589TIP3    H134712   1.546   5.108   2.343
11589TIP3    H234713   1.583   5.193   2.224
11590TIP3   OH234714   3.656   7.346   1.404
11590TIP3    H134715   3.694   7.311   1.323
11590TIP3    H234716   3.610   7.272   1.443
11591TIP3   OH234717   7.357   2.824   2.757
11591TIP3    H134718   7.372   2.814   2.851
11591TIP3    H234719   7.307   2.747   2.732
11592TIP3   OH234720   1.833   6.276   4.224
11592TIP3    H134721   1.808   6.266   4.133
11592TIP3    H234722   1.761   6.239   4.274
11593TIP3   OH234723   2.477   7.241   0.330
11593TIP3    H134724   2.449   7.331   0.314
11593TIP3    H234725   2.398   7.188   0.318
11594TIP3   OH234726   1.871   4.037   2.996
11594TIP3    H134727   1.955   4.017   3.037
11594TIP3    H234728   1.815   3.963   3.021
11595TIP3   OH234729   0.803   7.496   2.927
11595TIP3    H134730   0.865   7.567   2.913
11595TIP3    H234731   0.748   7.496   2.848
11596TIP3   OH234732   2.251   7.257   3.590
11596TIP3    H134733   2.267   7.225   3.501
11596TIP3    H234734   2.255   7.178   3.644
11597TIP3   OH234735   4.018   4.654   3.101
11597TIP3    H134736   4.084   4.722   3.116
11597TIP3    H234737   3.974   4.644   3.186
11598TIP3   OH234738   4.945   6.043   2.707
11598TIP3    H134739   4.973   6.044   2.615
11598TIP3    H234740   4.868   6.100   2.709
11599TIP3   OH234741   7.707   0.417   5.009
11599TIP3    H134742   7.797   0.395   5.030
11599TIP3    H234743   7.660   0.333   5.012
11600TIP3   OH234744   6.890   5.018   0.763
11600TIP3    H134745   6.809   4.989   0.721
11600TIP3    H234746   6.895   4.965   0.843
11601TIP3   OH234747   7.399   7.646   4.545
11601TIP3    H134748   7.462   7.629   4.475
11601TIP3    H234749   7.327   7.586   4.528
11602TIP3   OH234750   4.300   7.109   0.752
11602TIP3    H134751   4.331   7.194   0.782
11602TIP3    H234752   4.290   7.119   0.657
11603TIP3   OH234753   5.860   6.234   5.408
11603TIP3    H134754   5.774   6.218   5.447
11603TIP3    H234755   5.866   6.330   5.403
11604TIP3   OH234756   3.787   6.990   3.382
11604TIP3    H134757   3.817   7.059   3.322
11604TIP3    H234758   3.727   6.937   3.330
11605TIP3   OH234759   7.771   4.304   4.277
11605TIP3    H134760   7.853   4.255   4.290
11605TIP3    H234761   7.727   4.258   4.206
11606TIP3   OH234762   5.918   6.719   1.353
11606TIP3    H134763   5.899   6.647   1.292
11606TIP3    H234764   5.841   6.724   1.409
11607TIP3   OH234765   8.188   6.897   2.607
11607TIP3    H134766   8.224   6.812   2.634
11607TIP3    H234767   8.160   6.938   2.688
11608TIP3   OH234768   2.740   2.587   6.014
11608TIP3    H134769   2.653   2.626   6.028
11608TIP3    H234770   2.769   2.622   5.929
11609TIP3   OH234771   6.636   7.042   0.949
11609TIP3    H134772   6.670   6.977   0.887
11609TIP3    H234773   6.678   7.124   0.922
11610TIP3   OH234774   1.731   4.760   4.900
11610TIP3    H134775   1.814   4.744   4.856
11610TIP3    H234776   1.746   4.736   4.991
11611TIP3   OH234777   6.330   7.193   0.570
11611TIP3    H134778   6.322   7.285   0.592
11611TIP3    H234779   6.291   7.184   0.483
11612TIP3   OH234780   1.295   2.750   2.994
11612TIP3    H134781   1.285   2.736   2.900
11612TIP3    H234782   1.374   2.702   3.017
11613TIP3   OH234783   6.607   0.486   5.376
11613TIP3    H134784   6.649   0.572   5.367
11613TIP3    H234785   6.518   0.499   5.344
11614TIP3   OH234786   2.901   6.581   5.708
11614TIP3    H134787   2.886   6.672   5.736
11614TIP3    H234788   2.995   6.568   5.721
11615TIP3   OH234789   6.559   5.706   0.266
11615TIP3    H134790   6.575   5.787   0.314
11615TIP3    H234791   6.543   5.640   0.333
11616TIP3   OH234792   1.673   0.446   5.718
11616TIP3    H134793   1.732   0.500   5.771
11616TIP3    H234794   1.586   0.464   5.754
11617TIP3   OH234795   3.509   7.424   4.527
11617TIP3    H134796   3.520   7.379   4.611
11617TIP3    H234797   3.415   7.425   4.512
11618TIP3   OH234798   7.641   3.439   1.613
11618TIP3    H134799   7.674   3.390   1.689
11618TIP3    H234800   7.546   3.433   1.620
11619TIP3   OH234801   1.576   7.002   1.541
11619TIP3    H134802   1.490   7.044   1.545
11619TIP3    H234803   1.557   6.910   1.523
11620TIP3   OH234804   1.383   1.174   1.644
11620TIP3    H134805   1.359   1.262   1.673
11620TIP3    H234806   1.299   1.127   1.636
11621TIP3   OH234807   3.461   1.617   5.635
11621TIP3    H134808   3.540   1.671   5.646
11621TIP3    H234809   3.425   1.608   5.723
11622TIP3   OH234810   4.277   1.195   5.319
11622TIP3    H134811   4.340   1.155   5.378
11622TIP3    H234812   4.212   1.126   5.303
11623TIP3   OH234813   5.604   5.863   5.515
11623TIP3    H134814   5.659   5.862   5.436
11623TIP3    H234815   5.639   5.934   5.568
11624TIP3   OH234816   2.697   0.559   4.613
11624TIP3    H134817   2.755   0.554   4.537
11624TIP3    H234818   2.741   0.506   4.680
11625TIP3   OH234819   7.937   5.347   2.828
11625TIP3    H134820   7.996   5.330   2.754
11625TIP3    H234821   7.991   5.334   2.906
11626TIP3   OH234822   6.681   7.747   4.278
11626TIP3    H134823   6.709   7.818   4.335
11626TIP3    H234824   6.702   7.667   4.326
11627TIP3   OH234825   3.623   4.124   3.953
11627TIP3    H134826   3.666   4.059   4.009
11627TIP3    H234827   3.638   4.094   3.864
11628TIP3   OH234828   5.176   7.411   1.536
11628TIP3    H134829   5.140   7.325   1.517
11628TIP3    H234830   5.234   7.398   1.611
11629TIP3   OH234831   6.979   7.703   5.517
11629TIP3    H134832   6.921   7.641   5.473
11629TIP3    H234833   6.920   7.766   5.559
11630TIP3   OH234834   3.811   6.228   6.661
11630TIP3    H134835   3.858   6.170   6.721
11630TIP3    H234836   3.741   6.265   6.715
11631TIP3   OH234837   7.705   4.628   1.507
11631TIP3    H134838   7.706   4.679   1.426
11631TIP3    H234839   7.619   4.644   1.544
11632TIP3   OH234840   5.954   4.235   2.314
11632TIP3    H134841   5.921   4.286   2.241
11632TIP3    H234842   5.937   4.144   2.290
11633TIP3   OH234843   4.946   7.416   1.736
11633TIP3    H134844   5.030   7.411   1.689
11633TIP3    H234845   4.917   7.325   1.741
11634TIP3   OH234846   1.485   0.078   1.593
11634TIP3    H134847   1.561   0.075   1.534
11634TIP3    H234848   1.480  -0.010   1.630
11635TIP3   OH234849   3.736   5.939   0.066
11635TIP3    H134850   3.757   5.847   0.076
11635TIP3    H234851   3.654   5.951   0.113
11636TIP3   OH234852   0.025   6.140   2.834
11636TIP3    H134853   0.112   6.100   2.828
11636TIP3    H234854  -0.036   6.069   2.812
11637TIP3   OH234855   2.588   4.556   4.445
11637TIP3    H134856   2.539   4.485   4.403
11637TIP3    H234857   2.679   4.540   4.420
11638TIP3   OH234858   6.021   5.589   0.144
11638TIP3    H134859   6.031   5.646   0.067
11638TIP3    H234860   5.935   5.612   0.179
11639TIP3   OH234861   1.625   5.287   3.590
11639TIP3    H134862   1.648   5.365   3.539
11639TIP3    H234863   1.539   5.260   3.555
11640TIP3   OH234864   6.524   5.735   5.719
11640TIP3    H134865   6.501   5.816   5.673
11640TIP3    H234866   6.469   5.668   5.679
11641TIP3   OH234867   5.794   4.381   6.101
11641TIP3    H134868   5.866   4.428   6.143
11641TIP3    H234869   5.809   4.289   6.122
11642TIP3   OH234870   7.104   6.112   1.671
11642TIP3    H134871   7.022   6.114   1.622
11642TIP3    H234872   7.098   6.187   1.730
11643TIP3   OH234873   7.573   3.600   6.782
11643TIP3    H134874   7.594   3.658   6.709
11643TIP3    H234875   7.514   3.535   6.745
11644TIP3   OH234876   2.516   4.831   3.303
11644TIP3    H134877   2.570   4.798   3.230
11644TIP3    H234878   2.517   4.926   3.292
11645TIP3   OH234879   4.370   4.864   3.660
11645TIP3    H134880   4.365   4.798   3.729
11645TIP3    H234881   4.418   4.822   3.590
11646TIP3   OH234882   6.408   0.421   4.580
11646TIP3    H134883   6.472   0.403   4.649
11646TIP3    H234884   6.434   0.365   4.508
11647TIP3   OH234885   3.409   2.364   1.192
11647TIP3    H134886   3.438   2.352   1.102
11647TIP3    H234887   3.401   2.459   1.202
11648TIP3   OH234888   6.960   4.704   5.689
11648TIP3    H134889   6.964   4.721   5.595
11648TIP3    H234890   6.989   4.786   5.730
11649TIP3   OH234891   1.176   6.691   3.297
11649TIP3    H134892   1.119   6.767   3.309
11649TIP3    H234893   1.116   6.617   3.288
11650TIP3   OH234894   4.472   3.589   3.048
11650TIP3    H134895   4.450   3.681   3.035
11650TIP3    H234896   4.444   3.571   3.138
11651TIP3   OH234897   7.671   4.776   0.069
11651TIP3    H134898   7.742   4.829   0.033
11651TIP3    H234899   7.696   4.686   0.050
11652TIP3   OH234900   1.643   7.588   1.037
11652TIP3    H134901   1.678   7.513   0.989
11652TIP3    H234902   1.556   7.559   1.066
11653TIP3   OH234903   6.895   3.273   2.133
11653TIP3    H134904   6.830   3.330   2.091
11653TIP3    H234905   6.957   3.334   2.174
11654TIP3   OH234906   3.788   7.108   5.258
11654TIP3    H134907   3.773   7.154   5.175
11654TIP3    H234908   3.700   7.086   5.290
11655TIP3   OH234909   4.319   2.540   0.560
11655TIP3    H134910   4.302   2.631   0.535
11655TIP3    H234911   4.269   2.487   0.498
11656TIP3   OH234912   7.276   7.783   1.126
11656TIP3    H134913   7.372   7.783   1.118
11656TIP3    H234914   7.251   7.874   1.114
11657TIP3   OH234915   7.556   5.153   1.703
11657TIP3    H134916   7.600   5.082   1.656
11657TIP3    H234917   7.526   5.212   1.633
11658TIP3   OH234918   3.628   0.754   6.437
11658TIP3    H134919   3.576   0.793   6.507
11658TIP3    H234920   3.693   0.700   6.481
11659TIP3   OH234921   2.073   1.731   0.705
11659TIP3    H134922   2.061   1.676   0.628
11659TIP3    H234923   2.106   1.672   0.773
11660TIP3   OH234924   1.794   1.048   6.112
11660TIP3    H134925   1.772   1.060   6.204
11660TIP3    H234926   1.736   0.977   6.083
11661TIP3   OH234927   0.248   7.602   2.165
11661TIP3    H134928   0.305   7.656   2.221
11661TIP3    H234929   0.197   7.550   2.227
11662TIP3   OH234930   5.783   7.239   3.645
11662TIP3    H134931   5.838   7.180   3.695
11662TIP3    H234932   5.732   7.287   3.711
11663TIP3   OH234933   7.763   4.457   1.229
11663TIP3    H134934   7.681   4.449   1.276
11663TIP3    H234935   7.822   4.501   1.291
11664TIP3   OH234936   4.968   6.309   6.728
11664TIP3    H134937   5.018   6.343   6.654
11664TIP3    H234938   4.968   6.381   6.791
11665TIP3   OH234939   2.671   2.796   6.730
11665TIP3    H134940   2.594   2.742   6.712
11665TIP3    H234941   2.684   2.847   6.650
11666TIP3   OH234942   2.741   7.483   2.423
11666TIP3    H134943   2.772   7.565   2.385
11666TIP3    H234944   2.647   7.496   2.437
11667TIP3   OH234945   6.860   6.083   1.558
11667TIP3    H134946   6.892   6.103   1.471
11667TIP3    H234947   6.770   6.117   1.559
11668TIP3   OH234948   7.569   1.211   4.768
11668TIP3    H134949   7.557   1.142   4.833
11668TIP3    H234950   7.573   1.292   4.820
11669TIP3   OH234951   2.469   5.395   4.540
11669TIP3    H134952   2.413   5.435   4.473
11669TIP3    H234953   2.506   5.469   4.588
11670TIP3   OH234954   5.489   5.757   0.563
11670TIP3    H134955   5.403   5.791   0.589
11670TIP3    H234956   5.503   5.791   0.475
11671TIP3   OH234957   2.618   6.768   5.640
11671TIP3    H134958   2.584   6.824   5.710
11671TIP3    H234959   2.704   6.805   5.619
11672TIP3   OH234960   1.894   2.380   3.444
11672TIP3    H134961   1.801   2.394   3.460
11672TIP3    H234962   1.900   2.359   3.351
11673TIP3   OH234963   5.502   0.203   0.130
11673TIP3    H134964   5.424   0.258   0.137
11673TIP3    H234965   5.543   0.209   0.216
11674TIP3   OH234966   0.764   1.834   4.670
11674TIP3    H134967   0.696   1.870   4.613
11674TIP3    H234968   0.728   1.750   4.698
11675TIP3   OH234969   4.882   7.033   4.817
11675TIP3    H134970   4.856   7.099   4.752
11675TIP3    H234971   4.855   6.950   4.779
11676TIP3   OH234972   3.484   3.641   1.002
11676TIP3    H134973   3.557   3.630   1.062
11676TIP3    H234974   3.408   3.651   1.059
11677TIP3   OH234975   2.632   2.192   6.703
11677TIP3    H134976   2.575   2.214   6.777
11677TIP3    H234977   2.593   2.113   6.664
11678TIP3   OH234978   6.410   7.107   4.897
11678TIP3    H134979   6.340   7.066   4.846
11678TIP3    H234980   6.470   7.143   4.830
11679TIP3   OH234981   1.386   4.694   2.533
11679TIP3    H134982   1.308   4.749   2.539
11679TIP3    H234983   1.402   4.667   2.624
11680TIP3   OH234984   5.594   4.459   0.860
11680TIP3    H134985   5.512   4.413   0.879
11680TIP3    H234986   5.570   4.551   0.856
11681TIP3   OH234987   4.780   4.330   1.318
11681TIP3    H134988   4.816   4.418   1.327
11681TIP3    H234989   4.828   4.293   1.243
11682TIP3   OH234990   7.851   6.988   3.597
11682TIP3    H134991   7.856   6.927   3.524
11682TIP3    H234992   7.858   7.075   3.558
11683TIP3   OH234993   2.718   1.177   1.066
11683TIP3    H134994   2.799   1.228   1.069
11683TIP3    H234995   2.652   1.236   1.030
11684TIP3   OH234996   0.908   4.349   2.269
11684TIP3    H134997   0.897   4.340   2.364
11684TIP3    H234998   0.833   4.304   2.231
11685TIP3   OH234999   7.064   2.943   3.473
11685TIP3    H135000   6.993   2.986   3.426
11685TIP3    H235001   7.137   2.944   3.412
11686TIP3   OH235002   6.300   6.787   1.868
11686TIP3    H135003   6.324   6.847   1.938
11686TIP3    H235004   6.383   6.769   1.823
11687TIP3   OH235005   0.292   6.810   0.015
11687TIP3    H135006   0.235   6.887   0.014
11687TIP3    H235007   0.246   6.744  -0.037
11688TIP3   OH235008   7.951   7.327   4.024
11688TIP3    H135009   7.918   7.365   4.106
11688TIP3    H235010   7.946   7.232   4.038
11689TIP3   OH235011   0.259   4.202   4.755
11689TIP3    H135012   0.282   4.281   4.706
11689TIP3    H235013   0.339   4.179   4.803
11690TIP3   OH235014   4.290   6.021   3.591
11690TIP3    H135015   4.317   6.100   3.544
11690TIP3    H235016   4.246   5.967   3.525
11691TIP3   OH235017   1.167   7.497   1.421
11691TIP3    H135018   1.106   7.468   1.490
11691TIP3    H235019   1.189   7.417   1.374
11692TIP3   OH235020   0.774   6.349   4.750
11692TIP3    H135021   0.758   6.258   4.728
11692TIP3    H235022   0.687   6.389   4.753
11693TIP3   OH235023   0.834   6.277   1.524
11693TIP3    H135024   0.855   6.311   1.611
11693TIP3    H235025   0.835   6.182   1.535
11694TIP3   OH235026   7.895   5.748   1.579
11694TIP3    H135027   7.922   5.717   1.666
11694TIP3    H235028   7.838   5.823   1.598
11695TIP3   OH235029   1.809   7.134   2.203
11695TIP3    H135030   1.806   7.201   2.134
11695TIP3    H235031   1.801   7.051   2.157
11696TIP3   OH235032   3.541   5.004   2.185
11696TIP3    H135033   3.627   5.011   2.227
11696TIP3    H235034   3.555   4.943   2.113
11697TIP3   OH235035   5.045   2.739   0.771
11697TIP3    H135036   5.127   2.690   0.763
11697TIP3    H235037   4.981   2.688   0.720
11698TIP3   OH235038   0.505   3.072   2.367
11698TIP3    H135039   0.512   3.156   2.412
11698TIP3    H235040   0.541   3.008   2.429
11699TIP3   OH235041   5.584   5.015   4.589
11699TIP3    H135042   5.675   4.984   4.596
11699TIP3    H235043   5.541   4.978   4.666
11700TIP3   OH235044   3.989   6.594   4.781
11700TIP3    H135045   4.072   6.554   4.756
11700TIP3    H235046   4.012   6.683   4.807
11701TIP3   OH235047   0.870   7.462   0.175
11701TIP3    H135048   0.915   7.383   0.146
11701TIP3    H235049   0.808   7.481   0.104
11702TIP3   OH235050   7.956   7.297   4.695
11702TIP3    H135051   7.938   7.222   4.639
11702TIP3    H235052   7.987   7.259   4.777
11703TIP3   OH235053   5.829   0.622   3.005
11703TIP3    H135054   5.863   0.681   3.072
11703TIP3    H235055   5.817   0.677   2.928
11704TIP3   OH235056   4.371   3.047   6.374
11704TIP3    H135057   4.401   2.972   6.426
11704TIP3    H235058   4.280   3.025   6.351
11705TIP3   OH235059   7.754   0.665   1.290
11705TIP3    H135060   7.711   0.623   1.215
11705TIP3    H235061   7.700   0.742   1.307
11706TIP3   OH235062   1.533   4.592   3.765
11706TIP3    H135063   1.588   4.659   3.805
11706TIP3    H235064   1.594   4.525   3.736
11707TIP3   OH235065   2.090   5.670   3.201
11707TIP3    H135066   1.998   5.694   3.186
11707TIP3    H235067   2.125   5.741   3.255
11708TIP3   OH235068   0.035   3.561   5.860
11708TIP3    H135069  -0.002   3.630   5.804
11708TIP3    H235070   0.007   3.479   5.818
11709TIP3   OH235071   5.724   2.064   3.926
11709TIP3    H135072   5.674   1.985   3.946
11709TIP3    H235073   5.736   2.107   4.010
11710TIP3   OH235074   0.085   0.102   6.178
11710TIP3    H135075   0.110   0.124   6.088
11710TIP3    H235076  -0.010   0.103   6.177
11711TIP3   OH235077   3.746   1.888   5.188
11711TIP3    H135078   3.692   1.898   5.266
11711TIP3    H235079   3.718   1.958   5.130
11712TIP3   OH235080   3.086   0.371   2.387
11712TIP3    H135081   3.010   0.328   2.348
11712TIP3    H235082   3.148   0.378   2.315
11713TIP3   OH235083   1.522   5.964   2.205
11713TIP3    H135084   1.488   5.995   2.120
11713TIP3    H235085   1.513   5.869   2.200
11714TIP3   OH235086   5.961   6.963   4.075
11714TIP3    H135087   6.052   6.939   4.060
11714TIP3    H235088   5.918   6.879   4.096
11715TIP3   OH235089   8.282   2.936   4.335
11715TIP3    H135090   8.327   2.898   4.260
11715TIP3    H235091   8.193   2.903   4.328
11716TIP3   OH235092   4.209   1.279   6.015
11716TIP3    H135093   4.184   1.345   5.951
11716TIP3    H235094   4.212   1.327   6.098
11717TIP3   OH235095   1.530   2.559   4.924
11717TIP3    H135096   1.610   2.507   4.920
11717TIP3    H235097   1.494   2.541   5.011
11718TIP3   OH235098   7.537   7.750   3.850
11718TIP3    H135099   7.527   7.673   3.794
11718TIP3    H235100   7.598   7.806   3.803
11719TIP3   OH235101   7.574   2.758   0.809
11719TIP3    H135102   7.660   2.725   0.834
11719TIP3    H235103   7.590   2.819   0.738
11720TIP3   OH235104   5.095   3.993   4.192
11720TIP3    H135105   5.060   3.943   4.266
11720TIP3    H235106   5.152   4.058   4.232
11721TIP3   OH235107   3.118   3.879   5.773
11721TIP3    H135108   3.172   3.876   5.694
11721TIP3    H235109   3.030   3.901   5.741
11722TIP3   OH235110   3.342   6.829   0.231
11722TIP3    H135111   3.295   6.825   0.147
11722TIP3    H235112   3.404   6.757   0.227
11723TIP3   OH235113   2.444   4.551   1.500
11723TIP3    H135114   2.381   4.606   1.546
11723TIP3    H235115   2.506   4.613   1.462
11724TIP3   OH235116   4.213   3.485   0.779
11724TIP3    H135117   4.149   3.556   0.773
11724TIP3    H235118   4.162   3.406   0.757
11725TIP3   OH235119   6.586   4.669   1.664
11725TIP3    H135120   6.539   4.752   1.669
11725TIP3    H235121   6.660   4.680   1.723
11726TIP3   OH235122   2.683   6.668   5.204
11726TIP3    H135123   2.745   6.741   5.205
11726TIP3    H235124   2.721   6.604   5.264
11727TIP3   OH235125   7.504   0.556   2.544
11727TIP3    H135126   7.481   0.543   2.636
11727TIP3    H235127   7.438   0.505   2.496
11728TIP3   OH235128   8.168   7.413   2.051
11728TIP3    H135129   8.189   7.490   2.103
11728TIP3    H235130   8.108   7.445   1.984
11729TIP3   OH235131   1.666   1.033   4.035
11729TIP3    H135132   1.686   0.946   3.999
11729TIP3    H235133   1.572   1.030   4.054
11730TIP3   OH235134   7.168   7.448   2.523
11730TIP3    H135135   7.109   7.413   2.590
11730TIP3    H235136   7.222   7.512   2.570
11731TIP3   OH235137   7.927   6.455   0.212
11731TIP3    H135138   7.842   6.413   0.218
11731TIP3    H235139   7.938   6.473   0.118
11732TIP3   OH235140   3.209   5.703   1.419
11732TIP3    H135141   3.147   5.676   1.486
11732TIP3    H235142   3.172   5.784   1.384
11733TIP3   OH235143   2.326   1.221   6.284
11733TIP3    H135144   2.319   1.264   6.369
11733TIP3    H235145   2.337   1.128   6.304
11734TIP3   OH235146   3.955   2.328   2.892
11734TIP3    H135147   4.009   2.252   2.870
11734TIP3    H235148   3.893   2.295   2.957
11735TIP3   OH235149   4.459   0.760   6.750
11735TIP3    H135150   4.431   0.843   6.711
11735TIP3    H235151   4.508   0.716   6.681
11736TIP3   OH235152   4.775   5.803   3.346
11736TIP3    H135153   4.786   5.708   3.342
11736TIP3    H235154   4.726   5.818   3.427
11737TIP3   OH235155   4.764   2.155   2.982
11737TIP3    H135156   4.775   2.168   3.077
11737TIP3    H235157   4.725   2.068   2.974
11738TIP3   OH235158   6.390   5.144   3.336
11738TIP3    H135159   6.428   5.169   3.420
11738TIP3    H235160   6.305   5.187   3.334
11739TIP3   OH235161   1.481   4.862   2.978
11739TIP3    H135162   1.404   4.917   2.990
11739TIP3    H235163   1.555   4.921   2.996
11740TIP3   OH235164   2.629   2.002   5.014
11740TIP3    H135165   2.558   2.020   4.953
11740TIP3    H235166   2.598   1.928   5.066
11741TIP3   OH235167   4.283   5.944   0.349
11741TIP3    H135168   4.295   5.851   0.328
11741TIP3    H235169   4.348   5.989   0.295
11742TIP3   OH235170   5.004   0.631   3.737
11742TIP3    H135171   4.910   0.642   3.720
11742TIP3    H235172   5.027   0.550   3.690
11743TIP3   OH235173   2.219   1.652   5.862
11743TIP3    H135174   2.140   1.631   5.811
11743TIP3    H235175   2.195   1.631   5.952
11744TIP3   OH235176   1.354   7.157   2.056
11744TIP3    H135177   1.308   7.225   2.105
11744TIP3    H235178   1.437   7.198   2.031
11745TIP3   OH235179   0.441   0.758   2.544
11745TIP3    H135180   0.395   0.764   2.460
11745TIP3    H235181   0.379   0.713   2.602
11746TIP3   OH235182   5.026   1.336   3.561
11746TIP3    H135183   5.099   1.359   3.504
11746TIP3    H235184   5.020   1.241   3.556
11747TIP3   OH235185   1.653   2.265   4.654
11747TIP3    H135186   1.642   2.353   4.619
11747TIP3    H235187   1.747   2.250   4.652
11748TIP3   OH235188   1.237   2.622   2.388
11748TIP3    H135189   1.277   2.572   2.459
11748TIP3    H235190   1.180   2.685   2.432
11749TIP3   OH235191   1.914   3.353   5.984
11749TIP3    H135192   1.886   3.444   5.971
11749TIP3    H235193   2.001   3.360   6.025
11750TIP3   OH235194   5.292   5.245   2.641
11750TIP3    H135195   5.225   5.195   2.595
11750TIP3    H235196   5.251   5.267   2.725
11751TIP3   OH235197   5.825   5.271   6.320
11751TIP3    H135198   5.787   5.198   6.271
11751TIP3    H235199   5.906   5.237   6.356
11752TIP3   OH235200   0.254   7.434   6.041
11752TIP3    H135201   0.160   7.429   6.058
11752TIP3    H235202   0.271   7.527   6.027
11753TIP3   OH235203   5.394   0.412   0.296
11753TIP3    H135204   5.319   0.444   0.245
11753TIP3    H235205   5.357   0.343   0.351
11754TIP3   OH235206   6.403   1.593   4.107
11754TIP3    H135207   6.356   1.564   4.186
11754TIP3    H235208   6.401   1.518   4.049
11755TIP3   OH235209   7.690   3.160   0.245
11755TIP3    H135210   7.782   3.142   0.228
11755TIP3    H235211   7.660   3.087   0.300
11756TIP3   OH235212   6.249   7.795   6.471
11756TIP3    H135213   6.264   7.747   6.552
11756TIP3    H235214   6.210   7.878   6.498
11757TIP3   OH235215   4.704   5.503   3.100
11757TIP3    H135216   4.747   5.523   3.183
11757TIP3    H235217   4.756   5.550   3.035
11758TIP3   OH235218   6.333   2.024   1.771
11758TIP3    H135219   6.321   1.937   1.810
11758TIP3    H235220   6.368   2.077   1.843
11759TIP3   OH235221   1.859   3.040   4.604
11759TIP3    H135222   1.897   3.125   4.629
11759TIP3    H235223   1.814   3.058   4.522
11760TIP3   OH235224   6.665   5.795   4.015
11760TIP3    H135225   6.581   5.753   3.996
11760TIP3    H235226   6.652   5.887   3.992
11761TIP3   OH235227   3.338   6.801   1.446
11761TIP3    H135228   3.396   6.875   1.428
11761TIP3    H235229   3.259   6.841   1.483
11762TIP3   OH235230   4.344   2.179   5.539
11762TIP3    H135231   4.315   2.197   5.449
11762TIP3    H235232   4.401   2.252   5.560
11763TIP3   OH235233   3.795   6.133   4.201
11763TIP3    H135234   3.884   6.169   4.204
11763TIP3    H235235   3.765   6.151   4.112
11764TIP3   OH235236   4.837   4.854   4.316
11764TIP3    H135237   4.928   4.880   4.302
11764TIP3    H235238   4.791   4.935   4.337
11765TIP3   OH235239   2.536   5.104   3.063
11765TIP3    H135240   2.449   5.128   3.092
11765TIP3    H235241   2.595   5.148   3.124
11766TIP3   OH235242   7.267   5.601   6.718
11766TIP3    H135243   7.228   5.514   6.727
11766TIP3    H235244   7.318   5.596   6.637
11767TIP3   OH235245   4.065   6.980   1.884
11767TIP3    H135246   4.052   7.059   1.830
11767TIP3    H235247   4.154   6.988   1.916
11768TIP3   OH235248   4.260   2.487   3.249
11768TIP3    H135249   4.172   2.496   3.286
11768TIP3    H235250   4.285   2.577   3.226
11769TIP3   OH235251   2.537   7.655   5.326
11769TIP3    H135252   2.611   7.650   5.265
11769TIP3    H235253   2.459   7.652   5.271
11770TIP3   OH235254   7.197   4.862   1.193
11770TIP3    H135255   7.165   4.779   1.226
11770TIP3    H235256   7.186   4.923   1.266
11771TIP3   OH235257   7.496   3.102   5.049
11771TIP3    H135258   7.523   3.140   5.133
11771TIP3    H235259   7.472   3.178   4.996
11772TIP3   OH235260   3.935   2.532   1.537
11772TIP3    H135261   3.950   2.622   1.509
11772TIP3    H235262   3.840   2.521   1.531
11773TIP3   OH235263   8.196   0.377   5.885
11773TIP3    H135264   8.211   0.445   5.951
11773TIP3    H235265   8.208   0.421   5.801
11774TIP3   OH235266   4.705   6.156   2.697
11774TIP3    H135267   4.649   6.220   2.741
11774TIP3    H235268   4.652   6.124   2.624
11775TIP3   OH235269   5.753   0.688   5.222
11775TIP3    H135270   5.680   0.735   5.182
11775TIP3    H235271   5.712   0.616   5.270
11776TIP3   OH235272   6.338   1.204   6.358
11776TIP3    H135273   6.409   1.243   6.409
11776TIP3    H235274   6.277   1.276   6.343
11777TIP3   OH235275   3.030   0.797   1.564
11777TIP3    H135276   3.008   0.715   1.519
11777TIP3    H235277   3.034   0.862   1.493
11778TIP3   OH235278   2.814   5.999   4.021
11778TIP3    H135279   2.853   6.085   4.001
11778TIP3    H235280   2.844   5.980   4.109
11779TIP3   OH235281   4.424   6.874   5.752
11779TIP3    H135282   4.393   6.819   5.824
11779TIP3    H235283   4.439   6.960   5.792
11780TIP3   OH235284   3.134   7.437   1.537
11780TIP3    H135285   3.074   7.487   1.481
11780TIP3    H235286   3.215   7.431   1.486
11781TIP3   OH235287   5.937   2.402   0.308
11781TIP3    H135288   5.939   2.439   0.220
11781TIP3    H235289   5.948   2.308   0.295
11782TIP3   OH235290   7.807   7.203   1.492
11782TIP3    H135291   7.787   7.124   1.442
11782TIP3    H235292   7.820   7.173   1.581
11783TIP3   OH235293   6.273   5.627   1.494
11783TIP3    H135294   6.283   5.699   1.432
11783TIP3    H235295   6.352   5.630   1.547
11784TIP3   OH235296   7.386   7.580   6.747
11784TIP3    H135297   7.368   7.543   6.660
11784TIP3    H235298   7.322   7.651   6.756
11785TIP3   OH235299   3.810   2.189   5.829
11785TIP3    H135300   3.882   2.134   5.862
11785TIP3    H235301   3.766   2.221   5.908
11786TIP3   OH235302   2.137   2.902   6.153
11786TIP3    H135303   2.181   2.956   6.219
11786TIP3    H235304   2.208   2.871   6.097
11787TIP3   OH235305   4.690   7.358   0.049
11787TIP3    H135306   4.773   7.312   0.033
11787TIP3    H235307   4.691   7.378   0.142
11788TIP3   OH235308   7.088   4.597   1.015
11788TIP3    H135309   7.135   4.519   0.988
11788TIP3    H235310   7.001   4.566   1.042
11789TIP3   OH235311   2.859   2.974   4.991
11789TIP3    H135312   2.896   2.992   5.078
11789TIP3    H235313   2.778   2.927   5.009
11790TIP3   OH235314   6.669   5.529   3.047
11790TIP3    H135315   6.594   5.523   3.106
11790TIP3    H235316   6.639   5.486   2.966
11791TIP3   OH235317   1.064   1.222   0.390
11791TIP3    H135318   0.981   1.245   0.348
11791TIP3    H235319   1.076   1.129   0.370
11792TIP3   OH235320   2.738   3.649   3.441
11792TIP3    H135321   2.662   3.608   3.481
11792TIP3    H235322   2.740   3.613   3.352
11793TIP3   OH235323   7.184   3.369   0.290
11793TIP3    H135324   7.200   3.402   0.379
11793TIP3    H235325   7.231   3.430   0.233
11794TIP3   OH235326   2.483   5.001   1.903
11794TIP3    H135327   2.496   5.019   1.810
11794TIP3    H235328   2.389   5.010   1.916
11795TIP3   OH235329   5.258   0.190   3.201
11795TIP3    H135330   5.308   0.232   3.131
11795TIP3    H235331   5.260   0.097   3.178
11796TIP3   OH235332   0.671   2.143   5.977
11796TIP3    H135333   0.687   2.057   6.015
11796TIP3    H235334   0.601   2.180   6.030
11797TIP3   OH235335   0.701   7.435   4.780
11797TIP3    H135336   0.615   7.400   4.761
11797TIP3    H235337   0.757   7.358   4.791
11798TIP3   OH235338   2.372   3.370   1.273
11798TIP3    H135339   2.440   3.435   1.261
11798TIP3    H235340   2.372   3.319   1.192
11799TIP3   OH235341   5.814   1.811   4.095
11799TIP3    H135342   5.752   1.791   4.025
11799TIP3    H235343   5.772   1.880   4.146
11800TIP3   OH235344   2.036   2.732   1.987
11800TIP3    H135345   2.056   2.660   2.046
11800TIP3    H235346   2.007   2.690   1.906
11801TIP3   OH235347   6.502   4.755   2.806
11801TIP3    H135348   6.481   4.816   2.877
11801TIP3    H235349   6.518   4.672   2.850
11802TIP3   OH235350   5.961   5.845   2.556
11802TIP3    H135351   5.969   5.823   2.463
11802TIP3    H235352   6.000   5.932   2.564
11803TIP3   OH235353   7.353   0.106   4.152
11803TIP3    H135354   7.421   0.058   4.104
11803TIP3    H235355   7.284   0.042   4.168
11804TIP3   OH235356   0.475   4.668   3.758
11804TIP3    H135357   0.490   4.574   3.763
11804TIP3    H235358   0.563   4.707   3.761
11805TIP3   OH235359   7.303   0.879   5.624
11805TIP3    H135360   7.383   0.922   5.655
11805TIP3    H235361   7.282   0.816   5.692
11806TIP3   OH235362   4.259   6.302   3.122
11806TIP3    H135363   4.243   6.313   3.029
11806TIP3    H235364   4.244   6.389   3.160
11807TIP3   OH235365   4.305   2.721   4.888
11807TIP3    H135366   4.251   2.662   4.835
11807TIP3    H235367   4.374   2.749   4.828
11808TIP3   OH235368   2.393   5.924   6.240
11808TIP3    H135369   2.443   5.951   6.162
11808TIP3    H235370   2.370   5.833   6.223
11809TIP3   OH235371   4.402   3.870   3.320
11809TIP3    H135372   4.444   3.956   3.311
11809TIP3    H235373   4.435   3.836   3.403
11810TIP3   OH235374   1.446   6.598   2.820
11810TIP3    H135375   1.469   6.509   2.846
11810TIP3    H235376   1.363   6.616   2.866
11811TIP3   OH235377   1.592   2.698   1.086
11811TIP3    H135378   1.652   2.768   1.112
11811TIP3    H235379   1.614   2.681   0.995
11812TIP3   OH235380   2.774   2.307   4.314
11812TIP3    H135381   2.699   2.366   4.327
11812TIP3    H235382   2.848   2.365   4.300
11813TIP3   OH235383   0.563   3.594   6.737
11813TIP3    H135384   0.605   3.520   6.782
11813TIP3    H235385   0.630   3.626   6.676
11814TIP3   OH235386   5.162   0.604   5.320
11814TIP3    H135387   5.091   0.624   5.259
11814TIP3    H235388   5.192   0.517   5.294
11815TIP3   OH235389   2.922   2.927   2.402
11815TIP3    H135390   2.876   2.853   2.443
11815TIP3    H235391   2.975   2.964   2.472
11816TIP3   OH235392   3.147   1.637   0.997
11816TIP3    H135393   3.202   1.560   0.987
11816TIP3    H235394   3.163   1.667   1.086
11817TIP3   OH235395   3.817   1.529   3.830
11817TIP3    H135396   3.875   1.461   3.864
11817TIP3    H235397   3.831   1.603   3.888
11818TIP3   OH235398   6.450   6.046   3.455
11818TIP3    H135399   6.546   6.048   3.459
11818TIP3    H235400   6.423   6.125   3.502
11819TIP3   OH235401   5.861   5.974   5.281
11819TIP3    H135402   5.845   6.061   5.316
11819TIP3    H235403   5.920   5.933   5.345
11820TIP3   OH235404   1.822   4.751   5.837
11820TIP3    H135405   1.791   4.675   5.887
11820TIP3    H235406   1.914   4.760   5.862
11821TIP3   OH235407   4.102   3.820   1.923
11821TIP3    H135408   4.186   3.865   1.912
11821TIP3    H235409   4.042   3.888   1.953
11822TIP3   OH235410   6.561   6.753   1.066
11822TIP3    H135411   6.582   6.840   1.031
11822TIP3    H235412   6.643   6.724   1.106
11823TIP3   OH235413   3.188   3.353   3.757
11823TIP3    H135414   3.221   3.281   3.811
11823TIP3    H235415   3.111   3.384   3.804
11824TIP3   OH235416   4.463   3.049   6.003
11824TIP3    H135417   4.466   2.962   6.041
11824TIP3    H235418   4.430   3.106   6.073
11825TIP3   OH235419   3.698   4.619   5.322
11825TIP3    H135420   3.750   4.540   5.305
11825TIP3    H235421   3.608   4.587   5.328
11826TIP3   OH235422   0.918   3.779   5.857
11826TIP3    H135423   0.890   3.849   5.798
11826TIP3    H235424   0.845   3.770   5.919
11827TIP3   OH235425   3.404   0.385   3.323
11827TIP3    H135426   3.471   0.317   3.324
11827TIP3    H235427   3.322   0.338   3.339
11828TIP3   OH235428   8.221   0.765   3.925
11828TIP3    H135429   8.245   0.855   3.903
11828TIP3    H235430   8.199   0.725   3.841
11829TIP3   OH235431   2.808   2.609   0.292
11829TIP3    H135432   2.746   2.682   0.294
11829TIP3    H235433   2.885   2.643   0.338
11830TIP3   OH235434   1.375   5.711   1.738
11830TIP3    H135435   1.328   5.703   1.655
11830TIP3    H235436   1.315   5.757   1.796
11831TIP3   OH235437   4.439   4.156   3.750
11831TIP3    H135438   4.397   4.141   3.665
11831TIP3    H235439   4.377   4.208   3.799
11832TIP3   OH235440   4.129   5.515   4.569
11832TIP3    H135441   4.165   5.456   4.501
11832TIP3    H235442   4.059   5.464   4.609
11833TIP3   OH235443   6.883   5.337   4.902
11833TIP3    H135444   6.929   5.401   4.847
11833TIP3    H235445   6.935   5.332   4.982
11834TIP3   OH235446   6.503   6.817   2.289
11834TIP3    H135447   6.460   6.879   2.230
11834TIP3    H235448   6.569   6.869   2.335
11835TIP3   OH235449   0.270   0.489   5.308
11835TIP3    H135450   0.175   0.491   5.315
11835TIP3    H235451   0.291   0.400   5.281
11836TIP3   OH235452   7.757   5.155   4.722
11836TIP3    H135453   7.757   5.153   4.818
11836TIP3    H235454   7.668   5.180   4.698
11837TIP3   OH235455   4.103   5.995   1.563
11837TIP3    H135456   4.175   5.944   1.600
11837TIP3    H235457   4.107   5.978   1.469
11838TIP3   OH235458   4.623   7.759   6.481
11838TIP3    H135459   4.640   7.719   6.396
11838TIP3    H235460   4.571   7.694   6.528
11839TIP3   OH235461   0.583   6.801   4.718
11839TIP3    H135462   0.577   6.762   4.631
11839TIP3    H235463   0.664   6.852   4.716
11840TIP3   OH235464   0.085   1.329   2.411
11840TIP3    H135465   0.074   1.420   2.438
11840TIP3    H235466   0.066   1.277   2.490
11841TIP3   OH235467   3.301   2.477   2.882
11841TIP3    H135468   3.333   2.560   2.847
11841TIP3    H235469   3.237   2.502   2.948
11842TIP3   OH235470   0.697   0.668   6.234
11842TIP3    H135471   0.637   0.685   6.306
11842TIP3    H235472   0.765   0.611   6.271
11843TIP3   OH235473   6.593   6.264   4.552
11843TIP3    H135474   6.509   6.305   4.571
11843TIP3    H235475   6.587   6.176   4.591
11844TIP3   OH235476   7.151   2.645   1.276
11844TIP3    H135477   7.220   2.585   1.247
11844TIP3    H235478   7.196   2.728   1.291
11845TIP3   OH235479   6.950   5.012   5.566
11845TIP3    H135480   7.040   4.987   5.546
11845TIP3    H235481   6.950   5.028   5.660
11846TIP3   OH235482   3.292   0.856   5.219
11846TIP3    H135483   3.371   0.851   5.273
11846TIP3    H235484   3.229   0.799   5.263
11847TIP3   OH235485   7.277   0.398   1.685
11847TIP3    H135486   7.296   0.442   1.602
11847TIP3    H235487   7.205   0.339   1.665
11848TIP3   OH235488   4.733   2.126   3.521
11848TIP3    H135489   4.778   2.129   3.437
11848TIP3    H235490   4.640   2.119   3.499
11849TIP3   OH235491   0.927   1.998   2.844
11849TIP3    H135492   0.844   2.038   2.869
11849TIP3    H235493   0.909   1.957   2.759
11850TIP3   OH235494   4.901   3.160   2.948
11850TIP3    H135495   4.842   3.087   2.929
11850TIP3    H235496   4.984   3.119   2.972
11851TIP3   OH235497   7.592   3.204   5.282
11851TIP3    H135498   7.569   3.283   5.331
11851TIP3    H235499   7.668   3.169   5.328
11852TIP3   OH235500   4.178   7.506   2.883
11852TIP3    H135501   4.189   7.413   2.905
11852TIP3    H235502   4.246   7.551   2.935
11853TIP3   OH235503   6.382   4.957   4.928
11853TIP3    H135504   6.443   4.946   5.001
11853TIP3    H235505   6.315   4.891   4.942
11854TIP3   OH235506   5.621   1.284   5.802
11854TIP3    H135507   5.552   1.327   5.751
11854TIP3    H235508   5.697   1.341   5.793
11855TIP3   OH235509   3.307   7.308   4.167
11855TIP3    H135510   3.311   7.275   4.077
11855TIP3    H235511   3.289   7.402   4.157
11856TIP3   OH235512   0.834   1.408   1.820
11856TIP3    H135513   0.917   1.427   1.863
11856TIP3    H235514   0.774   1.387   1.891
11857TIP3   OH235515   4.512   7.507   2.677
11857TIP3    H135516   4.560   7.435   2.718
11857TIP3    H235517   4.440   7.465   2.632
11858TIP3   OH235518   2.651   7.280   0.095
11858TIP3    H135519   2.592   7.346   0.058
11858TIP3    H235520   2.626   7.274   0.187
11859TIP3   OH235521   3.757   6.266   5.301
11859TIP3    H135522   3.732   6.353   5.332
11859TIP3    H235523   3.839   6.280   5.254
11860TIP3   OH235524   1.250   6.451   0.786
11860TIP3    H135525   1.161   6.480   0.766
11860TIP3    H235526   1.240   6.397   0.865
11861TIP3   OH235527   3.889   2.591   5.232
11861TIP3    H135528   3.879   2.662   5.296
11861TIP3    H235529   3.801   2.581   5.195
11862TIP3   OH235530   3.930   6.280   0.270
11862TIP3    H135531   4.022   6.306   0.267
11862TIP3    H235532   3.922   6.214   0.201
11863TIP3   OH235533   6.190   5.794   4.620
11863TIP3    H135534   6.266   5.787   4.562
11863TIP3    H235535   6.137   5.717   4.600
11864TIP3   OH235536   0.575   2.367   5.362
11864TIP3    H135537   0.638   2.347   5.430
11864TIP3    H235538   0.492   2.333   5.395
11865TIP3   OH235539   3.546   3.081   0.531
11865TIP3    H135540   3.527   3.046   0.444
11865TIP3    H235541   3.615   3.146   0.516
11866TIP3   OH235542   3.733   4.556   1.494
11866TIP3    H135543   3.696   4.566   1.406
11866TIP3    H235544   3.791   4.631   1.504
11867TIP3   OH235545   5.171   0.279   5.428
11867TIP3    H135546   5.100   0.297   5.490
11867TIP3    H235547   5.129   0.225   5.360
11868TIP3   OH235548   1.279   5.972   5.711
11868TIP3    H135549   1.306   5.966   5.803
11868TIP3    H235550   1.184   5.963   5.713
11869TIP3   OH235551   3.092   0.189   6.663
11869TIP3    H135552   3.162   0.166   6.724
11869TIP3    H235553   3.015   0.200   6.719
11870TIP3   OH235554   3.911   1.364   3.446
11870TIP3    H135555   3.960   1.329   3.520
11870TIP3    H235556   3.977   1.394   3.384
11871TIP3   OH235557   0.084   2.612   4.986
11871TIP3    H135558   0.162   2.594   4.933
11871TIP3    H235559   0.014   2.563   4.943
11872TIP3   OH235560   3.873   2.730   4.356
11872TIP3    H135561   3.872   2.641   4.322
11872TIP3    H235562   3.833   2.783   4.286
11873TIP3   OH235563   1.008   2.090   5.781
11873TIP3    H135564   1.079   2.082   5.717
11873TIP3    H235565   1.019   2.177   5.819
11874TIP3   OH235566   6.043   3.209   4.854
11874TIP3    H135567   6.120   3.175   4.809
11874TIP3    H235568   6.077   3.240   4.938
11875TIP3   OH235569   4.476   7.222   2.158
11875TIP3    H135570   4.398   7.272   2.180
11875TIP3    H235571   4.542   7.288   2.138
11876TIP3   OH235572   6.524   3.256   5.071
11876TIP3    H135573   6.469   3.331   5.049
11876TIP3    H235574   6.598   3.261   5.011
11877TIP3   OH235575   5.753   5.281   1.253
11877TIP3    H135576   5.662   5.256   1.269
11877TIP3    H235577   5.756   5.299   1.159
11878TIP3   OH235578   6.593   5.059   1.564
11878TIP3    H135579   6.592   5.124   1.634
11878TIP3    H235580   6.685   5.045   1.545
11879TIP3   OH235581   6.311   6.767   4.859
11879TIP3    H135582   6.286   6.852   4.823
11879TIP3    H235583   6.273   6.703   4.799
11880TIP3   OH235584   0.162   2.379   5.203
11880TIP3    H135585   0.098   2.345   5.266
11880TIP3    H235586   0.112   2.439   5.148
11881TIP3   OH235587   0.125   0.769   5.664
11881TIP3    H135588   0.192   0.718   5.708
11881TIP3    H235589   0.082   0.819   5.733
11882TIP3   OH235590   5.399   1.426   5.695
11882TIP3    H135591   5.353   1.497   5.649
11882TIP3    H235592   5.330   1.368   5.724
11883TIP3   OH235593   1.281   7.814   2.061
11883TIP3    H135594   1.330   7.736   2.087
11883TIP3    H235595   1.347   7.872   2.023
11884TIP3   OH235596   0.908   2.831   2.770
11884TIP3    H135597   1.002   2.819   2.778
11884TIP3    H235598   0.896   2.884   2.691
11885TIP3   OH235599   4.887   4.613   4.470
11885TIP3    H135600   4.897   4.702   4.436
11885TIP3    H235601   4.940   4.559   4.412
11886TIP3   OH235602   2.629   5.440   5.091
11886TIP3    H135603   2.665   5.519   5.050
11886TIP3    H235604   2.552   5.471   5.138
11887TIP3   OH235605   6.197   7.315   6.097
11887TIP3    H135606   6.140   7.239   6.083
11887TIP3    H235607   6.286   7.280   6.089
11888TIP3   OH235608   3.936   7.078   6.039
11888TIP3    H135609   4.006   7.073   5.973
11888TIP3    H235610   3.856   7.058   5.991
11889TIP3   OH235611   7.913   7.504   5.412
11889TIP3    H135612   7.999   7.544   5.398
11889TIP3    H235613   7.895   7.458   5.330
11890TIP3   OH235614   5.507   1.185   0.562
11890TIP3    H135615   5.547   1.194   0.649
11890TIP3    H235616   5.495   1.091   0.551
11891TIP3   OH235617   8.118   5.225   6.777
11891TIP3    H135618   8.165   5.307   6.763
11891TIP3    H235619   8.076   5.207   6.692
11892TIP3   OH235620   1.425   5.606   5.940
11892TIP3    H135621   1.495   5.669   5.918
11892TIP3    H235622   1.392   5.577   5.855
11893TIP3   OH235623   2.016   6.039   4.215
11893TIP3    H135624   2.070   6.039   4.295
11893TIP3    H235625   1.977   6.126   4.212
11894TIP3   OH235626   3.190   3.683   3.946
11894TIP3    H135627   3.210   3.601   3.991
11894TIP3    H235628   3.269   3.736   3.956
11895TIP3   OH235629   7.631   7.358   4.022
11895TIP3    H135630   7.687   7.395   4.090
11895TIP3    H235631   7.542   7.378   4.050
11896TIP3   OH235632   1.977   4.101   3.871
11896TIP3    H135633   1.910   4.110   3.939
11896TIP3    H235634   1.993   4.191   3.842
11897TIP3   OH235635   4.775   1.517   2.968
11897TIP3    H135636   4.760   1.422   2.974
11897TIP3    H235637   4.707   1.548   2.909
11898TIP3   OH235638   3.373   5.063   4.773
11898TIP3    H135639   3.397   5.136   4.830
11898TIP3    H235640   3.421   4.988   4.809
11899TIP3   OH235641   0.513   3.010   1.208
11899TIP3    H135642   0.534   2.917   1.206
11899TIP3    H235643   0.420   3.014   1.229
11900TIP3   OH235644   4.285   0.667   0.039
11900TIP3    H135645   4.314   0.587  -0.004
11900TIP3    H235646   4.208   0.695  -0.011
11901TIP3   OH235647   1.813   5.604   4.600
11901TIP3    H135648   1.893   5.651   4.625
11901TIP3    H235649   1.831   5.572   4.512
11902TIP3   OH235650   5.092   0.596   0.105
11902TIP3    H135651   5.118   0.551   0.025
11902TIP3    H235652   5.069   0.526   0.166
11903TIP3   OH235653   2.406   7.595   2.830
11903TIP3    H135654   2.336   7.660   2.825
11903TIP3    H235655   2.379   7.535   2.900
11904TIP3   OH235656   6.375   0.694   0.063
11904TIP3    H135657   6.343   0.770   0.111
11904TIP3    H235658   6.394   0.628   0.130
11905TIP3   OH235659   6.261   0.187   4.218
11905TIP3    H135660   6.242   0.172   4.125
11905TIP3    H235661   6.356   0.177   4.224
11906TIP3   OH235662   8.233   0.170   0.839
11906TIP3    H135663   8.323   0.188   0.866
11906TIP3    H235664   8.237   0.084   0.798
11907TIP3   OH235665   7.632   6.497   1.155
11907TIP3    H135666   7.559   6.525   1.210
11907TIP3    H235667   7.626   6.401   1.154
11908TIP3   OH235668   7.415   3.144   1.458
11908TIP3    H135669   7.340   3.086   1.473
11908TIP3    H235670   7.447   3.166   1.545
11909TIP3   OH235671   5.239   5.908   0.965
11909TIP3    H135672   5.222   5.880   0.875
11909TIP3    H235673   5.289   5.835   1.004
11910TIP3   OH235674   6.152   3.687   0.006
11910TIP3    H135675   6.174   3.628  -0.067
11910TIP3    H235676   6.199   3.768  -0.013
11911TIP3   OH235677   4.519   4.078   0.314
11911TIP3    H135678   4.601   4.051   0.273
11911TIP3    H235679   4.481   3.997   0.349
11912TIP3   OH235680   3.339   1.404   2.784
11912TIP3    H135681   3.410   1.365   2.835
11912TIP3    H235682   3.369   1.494   2.766
11913TIP3   OH235683   5.823   3.788   0.098
11913TIP3    H135684   5.912   3.807   0.128
11913TIP3    H235685   5.831   3.781   0.003
11914TIP3   OH235686   0.211   5.091   4.539
11914TIP3    H135687   0.174   5.119   4.455
11914TIP3    H235688   0.169   5.007   4.557
11915TIP3   OH235689   6.975   0.385   3.526
11915TIP3    H135690   6.945   0.322   3.461
11915TIP3    H235691   6.986   0.334   3.606
11916TIP3   OH235692   7.922   0.105   6.157
11916TIP3    H135693   7.926   0.016   6.122
11916TIP3    H235694   7.931   0.162   6.080
11917TIP3   OH235695   6.915   0.816   2.934
11917TIP3    H135696   6.895   0.746   2.872
11917TIP3    H235697   6.974   0.776   2.997
11918TIP3   OH235698   0.220   7.096   4.820
11918TIP3    H135699   0.158   7.146   4.767
11918TIP3    H235700   0.234   7.150   4.898
11919TIP3   OH235701   0.328   2.030   3.833
11919TIP3    H135702   0.393   2.019   3.902
11919TIP3    H235703   0.368   1.990   3.755
11920TIP3   OH235704   6.177   1.565   1.283
11920TIP3    H135705   6.175   1.614   1.365
11920TIP3    H235706   6.086   1.566   1.253
11921TIP3   OH235707   1.257   3.034   5.878
11921TIP3    H135708   1.306   3.074   5.806
11921TIP3    H235709   1.280   2.941   5.873
11922TIP3   OH235710   2.657   2.342   5.678
11922TIP3    H135711   2.729   2.354   5.740
11922TIP3    H235712   2.672   2.408   5.610
11923TIP3   OH235713   0.843   2.856   3.410
11923TIP3    H135714   0.876   2.788   3.351
11923TIP3    H235715   0.752   2.833   3.425
11924TIP3   OH235716   6.305   1.113   1.071
11924TIP3    H135717   6.253   1.036   1.093
11924TIP3    H235718   6.315   1.160   1.154
11925TIP3   OH235719   2.449   3.825   1.710
11925TIP3    H135720   2.396   3.866   1.778
11925TIP3    H235721   2.538   3.824   1.747
11926TIP3   OH235722   5.747   2.143   3.482
11926TIP3    H135723   5.747   2.239   3.490
11926TIP3    H235724   5.758   2.111   3.571
11927TIP3   OH235725   7.765   5.180   2.125
11927TIP3    H135726   7.836   5.187   2.062
11927TIP3    H235727   7.800   5.123   2.194
11928TIP3   OH235728   6.191   2.869   6.678
11928TIP3    H135729   6.285   2.857   6.669
11928TIP3    H235730   6.153   2.786   6.649
11929TIP3   OH235731   5.742   1.239   2.061
11929TIP3    H135732   5.693   1.249   1.979
11929TIP3    H235733   5.680   1.266   2.129
11930TIP3   OH235734   7.804   6.365   3.615
11930TIP3    H135735   7.754   6.371   3.534
11930TIP3    H235736   7.877   6.307   3.595
11931TIP3   OH235737   7.449   4.350   2.268
11931TIP3    H135738   7.469   4.302   2.349
11931TIP3    H235739   7.492   4.299   2.199
11932TIP3   OH235740   7.203   0.900   4.368
11932TIP3    H135741   7.286   0.864   4.338
11932TIP3    H235742   7.220   0.994   4.377
11933TIP3   OH235743   5.942   1.170   1.251
11933TIP3    H135744   5.853   1.202   1.233
11933TIP3    H235745   5.958   1.192   1.343
11934TIP3   OH235746   6.232   5.485   6.744
11934TIP3    H135747   6.207   5.400   6.709
11934TIP3    H235748   6.151   5.521   6.780
11935TIP3   OH235749   5.866   3.338   6.703
11935TIP3    H135750   5.831   3.385   6.779
11935TIP3    H235751   5.957   3.366   6.697
11936TIP3   OH235752   6.424   3.279   6.207
11936TIP3    H135753   6.410   3.209   6.143
11936TIP3    H235754   6.383   3.247   6.287
11937TIP3   OH235755   2.469   5.850   4.527
11937TIP3    H135756   2.551   5.854   4.478
11937TIP3    H235757   2.484   5.784   4.595
11938TIP3   OH235758   6.916   6.386   0.029
11938TIP3    H135759   6.977   6.313   0.031
11938TIP3    H235760   6.841   6.353  -0.021
11939TIP3   OH235761   3.286   4.195   6.620
11939TIP3    H135762   3.262   4.196   6.713
11939TIP3    H235763   3.212   4.236   6.575
11940TIP3   OH235764   4.105   6.607   5.792
11940TIP3    H135765   4.087   6.528   5.742
11940TIP3    H235766   4.091   6.582   5.884
11941TIP3   OH235767   6.427   7.711   4.246
11941TIP3    H135768   6.398   7.746   4.162
11941TIP3    H235769   6.520   7.730   4.249
11942TIP3   OH235770   3.439   2.988   1.238
11942TIP3    H135771   3.444   3.005   1.332
11942TIP3    H235772   3.423   3.073   1.199
11943TIP3   OH235773   1.609   4.663   6.194
11943TIP3    H135774   1.591   4.744   6.241
11943TIP3    H235775   1.534   4.652   6.136
11944TIP3   OH235776   7.662   2.485   2.211
11944TIP3    H135777   7.678   2.397   2.178
11944TIP3    H235778   7.574   2.508   2.181
11945TIP3   OH235779   6.771   2.917   2.543
11945TIP3    H135780   6.748   2.977   2.472
11945TIP3    H235781   6.864   2.934   2.560
11946TIP3   OH235782   0.786   0.942   3.453
11946TIP3    H135783   0.851   0.879   3.423
11946TIP3    H235784   0.825   0.983   3.530
11947TIP3   OH235785   7.103   1.799   2.584
11947TIP3    H135786   7.010   1.815   2.595
11947TIP3    H235787   7.110   1.748   2.503
11948TIP3   OH235788   1.329   3.345   0.887
11948TIP3    H135789   1.415   3.322   0.922
11948TIP3    H235790   1.288   3.261   0.869
11949TIP3   OH235791   7.807   5.835   3.769
11949TIP3    H135792   7.889   5.855   3.814
11949TIP3    H235793   7.807   5.740   3.761
11950TIP3   OH235794   0.082   2.824   1.550
11950TIP3    H135795   0.041   2.742   1.522
11950TIP3    H235796   0.160   2.796   1.598
11951TIP3   OH235797   2.836   3.334   5.410
11951TIP3    H135798   2.752   3.319   5.367
11951TIP3    H235799   2.867   3.417   5.374
11952TIP3   OH235800   0.080   3.658   1.091
11952TIP3    H135801  -0.004   3.631   1.128
11952TIP3    H235802   0.109   3.582   1.040
11953TIP3   OH235803   4.293   7.521   1.598
11953TIP3    H135804   4.265   7.525   1.507
11953TIP3    H235805   4.376   7.570   1.599
11954TIP3   OH235806   6.456   2.428   5.379
11954TIP3    H135807   6.372   2.409   5.337
11954TIP3    H235808   6.509   2.469   5.312
11955TIP3   OH235809   2.920   2.223   0.945
11955TIP3    H135810   3.009   2.256   0.930
11955TIP3    H235811   2.899   2.248   1.034
11956TIP3   OH235812   8.147   4.925   1.932
11956TIP3    H135813   8.173   4.878   2.012
11956TIP3    H235814   8.230   4.951   1.892
11957TIP3   OH235815   3.491   0.865   6.647
11957TIP3    H135816   3.438   0.842   6.723
11957TIP3    H235817   3.576   0.888   6.683
11958TIP3   OH235818   3.837   0.531   4.678
11958TIP3    H135819   3.920   0.540   4.726
11958TIP3    H235820   3.852   0.461   4.615
11959TIP3   OH235821   1.459   5.450   2.302
11959TIP3    H135822   1.400   5.398   2.248
11959TIP3    H235823   1.547   5.430   2.268
11960TIP3   OH235824   1.071   3.001   0.231
11960TIP3    H135825   1.011   2.927   0.235
11960TIP3    H235826   1.070   3.038   0.319
11961TIP3   OH235827   2.247   0.335   3.672
11961TIP3    H135828   2.276   0.425   3.659
11961TIP3    H235829   2.308   0.300   3.738
11962TIP3   OH235830   0.035   6.288   6.549
11962TIP3    H135831   0.074   6.322   6.468
11962TIP3    H235832  -0.051   6.329   6.554
11963TIP3   OH235833   4.109   4.654   1.705
11963TIP3    H135834   4.199   4.686   1.711
11963TIP3    H235835   4.117   4.560   1.696
11964TIP3   OH235836   4.132   6.358   6.404
11964TIP3    H135837   4.081   6.277   6.404
11964TIP3    H235838   4.142   6.380   6.497
11965TIP3   OH235839   2.223   4.085   4.054
11965TIP3    H135840   2.271   4.003   4.056
11965TIP3    H235841   2.170   4.081   3.975
11966TIP3   OH235842   7.050   0.142   3.989
11966TIP3    H135843   7.103   0.203   4.042
11966TIP3    H235844   6.965   0.139   4.033
11967TIP3   OH235845   7.808   0.265   4.161
11967TIP3    H135846   7.728   0.256   4.213
11967TIP3    H235847   7.820   0.360   4.152
11968TIP3   OH235848   6.808   0.311   2.022
11968TIP3    H135849   6.871   0.379   2.002
11968TIP3    H235850   6.752   0.306   1.944
11969TIP3   OH235851   3.127   5.121   3.955
11969TIP3    H135852   3.196   5.177   3.991
11969TIP3    H235853   3.151   5.109   3.863
11970TIP3   OH235854   7.040   6.830   6.370
11970TIP3    H135855   7.028   6.743   6.409
11970TIP3    H235856   7.090   6.814   6.290
11971TIP3   OH235857   3.486   1.461   0.706
11971TIP3    H135858   3.416   1.406   0.672
11971TIP3    H235859   3.444   1.544   0.726
11972TIP3   OH235860   5.480   4.832   4.302
11972TIP3    H135861   5.449   4.775   4.232
11972TIP3    H235862   5.421   4.908   4.298
11973TIP3   OH235863   1.185   4.370   5.431
11973TIP3    H135864   1.167   4.449   5.381
11973TIP3    H235865   1.273   4.383   5.467
11974TIP3   OH235866   1.178   2.400   1.571
11974TIP3    H135867   1.212   2.417   1.483
11974TIP3    H235868   1.201   2.478   1.622
11975TIP3   OH235869   3.934   1.641   1.363
11975TIP3    H135870   3.864   1.672   1.305
11975TIP3    H235871   3.963   1.720   1.409
11976TIP3   OH235872   3.210   3.624   2.280
11976TIP3    H135873   3.208   3.659   2.369
11976TIP3    H235874   3.163   3.689   2.227
11977TIP3   OH235875   4.555   2.483   6.391
11977TIP3    H135876   4.526   2.460   6.480
11977TIP3    H235877   4.501   2.429   6.334
11978TIP3   OH235878   5.624   6.768   3.107
11978TIP3    H135879   5.595   6.685   3.145
11978TIP3    H235880   5.559   6.832   3.136
11979TIP3   OH235881   7.357   7.355   2.797
11979TIP3    H135882   7.367   7.398   2.882
11979TIP3    H235883   7.338   7.426   2.736
11980TIP3   OH235884   1.789   5.482   6.176
11980TIP3    H135885   1.827   5.459   6.260
11980TIP3    H235886   1.822   5.570   6.158
11981TIP3   OH235887   4.945   0.922   2.415
11981TIP3    H135888   5.007   0.865   2.370
11981TIP3    H235889   4.939   0.888   2.504
11982TIP3   OH235890   0.994   0.716   3.859
11982TIP3    H135891   0.942   0.636   3.861
11982TIP3    H235892   0.934   0.785   3.888
11983TIP3   OH235893   6.720   2.192   2.000
11983TIP3    H135894   6.798   2.141   1.978
11983TIP3    H235895   6.748   2.283   1.992
11984TIP3   OH235896   5.549   7.644   3.787
11984TIP3    H135897   5.595   7.721   3.820
11984TIP3    H235898   5.602   7.614   3.713
11985TIP3   OH235899   6.736   6.937   2.378
11985TIP3    H135900   6.762   6.933   2.470
11985TIP3    H235901   6.721   7.030   2.362
11986TIP3   OH235902   7.176   1.619   3.970
11986TIP3    H135903   7.183   1.524   3.967
11986TIP3    H235904   7.242   1.651   3.909
11987TIP3   OH235905   5.193   3.691   5.492
11987TIP3    H135906   5.256   3.619   5.502
11987TIP3    H235907   5.111   3.647   5.470
11988TIP3   OH235908   6.766   2.605   4.978
11988TIP3    H135909   6.860   2.611   4.995
11988TIP3    H235910   6.750   2.668   4.908
11989TIP3   OH235911   7.260   5.877   1.594
11989TIP3    H135912   7.201   5.804   1.577
11989TIP3    H235913   7.202   5.954   1.597
11990TIP3   OH235914   7.833   5.522   2.476
11990TIP3    H135915   7.751   5.495   2.433
11990TIP3    H235916   7.832   5.617   2.471
11991TIP3   OH235917   5.282   7.435   0.893
11991TIP3    H135918   5.219   7.447   0.822
11991TIP3    H235919   5.233   7.390   0.962
11992TIP3   OH235920   6.867   6.599   1.083
11992TIP3    H135921   6.831   6.588   0.995
11992TIP3    H235922   6.954   6.637   1.068
11993TIP3   OH235923   2.280   2.537   0.987
11993TIP3    H135924   2.198   2.488   0.988
11993TIP3    H235925   2.347   2.470   0.973
11994TIP3   OH235926   0.299   4.613   4.646
11994TIP3    H135927   0.280   4.592   4.737
11994TIP3    H235928   0.213   4.618   4.604
11995TIP3   OH235929   1.654   3.419   4.426
11995TIP3    H135930   1.591   3.469   4.374
11995TIP3    H235931   1.641   3.451   4.515
11996TIP3   OH235932   5.073   3.097   6.294
11996TIP3    H135933   5.006   3.164   6.311
11996TIP3    H235934   5.125   3.133   6.222
11997TIP3   OH235935   1.102   6.932   5.416
11997TIP3    H135936   1.040   6.874   5.460
11997TIP3    H235937   1.148   6.977   5.487
11998TIP3   OH235938   2.494   3.522   3.535
11998TIP3    H135939   2.429   3.453   3.525
11998TIP3    H235940   2.444   3.603   3.527
11999TIP3   OH235941   5.541   4.903   2.710
11999TIP3    H135942   5.449   4.879   2.720
11999TIP3    H235943   5.588   4.844   2.769
12000TIP3   OH235944   1.248   3.095   0.888
12000TIP3    H135945   1.205   3.044   0.957
12000TIP3    H235946   1.220   3.054   0.807
12001TIP3   OH235947   0.146   6.903   6.068
12001TIP3    H135948   0.117   6.965   6.001
12001TIP3    H235949   0.239   6.920   6.078
12002TIP3   OH235950   0.314   4.710   6.641
12002TIP3    H135951   0.360   4.793   6.637
12002TIP3    H235952   0.271   4.702   6.556
12003TIP3   OH235953   1.820   1.238   5.909
12003TIP3    H135954   1.915   1.239   5.904
12003TIP3    H235955   1.800   1.176   5.979
12004TIP3   OH235956   1.937   5.343   2.324
12004TIP3    H135957   1.867   5.355   2.387
12004TIP3    H235958   1.994   5.277   2.363
12005TIP3   OH235959   4.003   3.248   6.332
12005TIP3    H135960   3.907   3.242   6.338
12005TIP3    H235961   4.024   3.335   6.368
12006TIP3   OH235962   3.673   6.284   1.545
12006TIP3    H135963   3.625   6.351   1.497
12006TIP3    H235964   3.666   6.309   1.637
12007TIP3   OH235965   3.552   1.413   2.139
12007TIP3    H135966   3.536   1.482   2.074
12007TIP3    H235967   3.643   1.426   2.166
12008TIP3   OH235968   7.260   0.431   5.752
12008TIP3    H135969   7.324   0.443   5.682
12008TIP3    H235970   7.175   0.445   5.709
12009TIP3   OH235971   6.579   0.976   4.980
12009TIP3    H135972   6.509   1.034   5.009
12009TIP3    H235973   6.628   0.956   5.059
12010TIP3   OH235974   4.814   6.566   4.210
12010TIP3    H135975   4.771   6.605   4.287
12010TIP3    H235976   4.752   6.501   4.179
12011TIP3   OH235977   8.161   1.782   5.859
12011TIP3    H135978   8.083   1.838   5.865
12011TIP3    H235979   8.166   1.757   5.767
12012TIP3   OH235980   0.151   0.052   1.537
12012TIP3    H135981   0.164   0.065   1.443
12012TIP3    H235982   0.159  -0.043   1.550
12013TIP3   OH235983   2.038   6.653   6.631
12013TIP3    H135984   2.109   6.625   6.573
12013TIP3    H235985   2.081   6.672   6.714
12014TIP3   OH235986   3.528   0.108   4.072
12014TIP3    H135987   3.581   0.029   4.085
12014TIP3    H235988   3.464   0.105   4.143
12015TIP3   OH235989   2.056   7.703   2.576
12015TIP3    H135990   2.138   7.712   2.528
12015TIP3    H235991   1.996   7.763   2.532
12016TIP3   OH235992   0.845   1.154   6.129
12016TIP3    H135993   0.758   1.114   6.129
12016TIP3    H235994   0.831   1.243   6.162
12017TIP3   OH235995   0.279   0.795   0.197
12017TIP3    H135996   0.230   0.856   0.252
12017TIP3    H235997   0.328   0.741   0.259
12018TIP3   OH235998   2.418   4.071   4.480
12018TIP3    H135999   2.367   4.011   4.425
12018TIP3    H236000   2.378   4.064   4.567
12019TIP3   OH236001   5.854   1.055   0.715
12019TIP3    H136002   5.866   1.118   0.786
12019TIP3    H236003   5.836   0.972   0.760
12020TIP3   OH236004   2.959   7.589   4.370
12020TIP3    H136005   2.968   7.624   4.282
12020TIP3    H236006   2.984   7.497   4.362
12021TIP3   OH236007   7.050   3.577   4.162
12021TIP3    H136008   6.974   3.531   4.126
12021TIP3    H236009   7.012   3.652   4.208
12022TIP3   OH236010   0.855   3.720   0.990
12022TIP3    H136011   0.869   3.724   0.895
12022TIP3    H236012   0.932   3.674   1.023
12023TIP3   OH236013   0.416   2.208   5.585
12023TIP3    H136014   0.347   2.238   5.644
12023TIP3    H236015   0.385   2.125   5.551
12024TIP3   OH236016   3.757   2.102   4.843
12024TIP3    H136017   3.789   2.012   4.843
12024TIP3    H236018   3.828   2.153   4.884
12025TIP3   OH236019   3.518   3.600   2.745
12025TIP3    H136020   3.478   3.519   2.714
12025TIP3    H236021   3.444   3.657   2.766
12026TIP3   OH236022   1.157   0.563   1.914
12026TIP3    H136023   1.110   0.570   1.998
12026TIP3    H236024   1.239   0.611   1.928
12027TIP3   OH236025   0.925   6.247   1.061
12027TIP3    H136026   0.910   6.341   1.049
12027TIP3    H236027   0.916   6.234   1.156
12028TIP3   OH236028   7.049   7.148   2.546
12028TIP3    H136029   7.142   7.170   2.541
12028TIP3    H236030   7.014   7.207   2.613
12029TIP3   OH236031   2.462   3.228   1.022
12029TIP3    H136032   2.518   3.186   0.957
12029TIP3    H236033   2.415   3.156   1.064
12030TIP3   OH236034   6.722   5.212   1.775
12030TIP3    H136035   6.720   5.125   1.814
12030TIP3    H236036   6.751   5.269   1.846
12031TIP3   OH236037   2.207   7.566   3.643
12031TIP3    H136038   2.209   7.660   3.628
12031TIP3    H236039   2.178   7.529   3.559
12032TIP3   OH236040   5.155   1.723   6.414
12032TIP3    H136041   5.102   1.707   6.492
12032TIP3    H236042   5.098   1.697   6.341
12033TIP3   OH236043   7.068   7.727   6.157
12033TIP3    H136044   7.042   7.679   6.235
12033TIP3    H236045   6.989   7.776   6.132
12034TIP3   OH236046   0.348   1.675   1.962
12034TIP3    H136047   0.350   1.665   1.867
12034TIP3    H236048   0.348   1.770   1.976
12035TIP3   OH236049   4.703   3.160   4.246
12035TIP3    H136050   4.792   3.134   4.270
12035TIP3    H236051   4.684   3.112   4.166
12036TIP3   OH236052   7.569   5.885   1.034
12036TIP3    H136053   7.564   5.942   1.110
12036TIP3    H236054   7.517   5.808   1.059
12037TIP3   OH236055   3.701   6.019   5.053
12037TIP3    H136056   3.795   6.011   5.068
12037TIP3    H236057   3.686   5.970   4.973
12038TIP3   OH236058   3.813   7.712   5.802
12038TIP3    H136059   3.840   7.734   5.891
12038TIP3    H236060   3.735   7.657   5.813
12039TIP3   OH236061   5.529   0.019   2.533
12039TIP3    H136062   5.611   0.045   2.492
12039TIP3    H236063   5.547  -0.068   2.569
12040TIP3   OH236064   3.368   3.939   6.443
12040TIP3    H136065   3.324   4.001   6.502
12040TIP3    H236066   3.393   3.867   6.500
12041TIP3   OH236067   1.329   4.391   3.783
12041TIP3    H136068   1.357   4.478   3.753
12041TIP3    H236069   1.265   4.363   3.718
12042TIP3   OH236070   3.580   2.030   4.245
12042TIP3    H136071   3.582   1.952   4.190
12042TIP3    H236072   3.489   2.059   4.242
12043TIP3   OH236073   0.679   0.665   4.854
12043TIP3    H136074   0.622   0.720   4.908
12043TIP3    H236075   0.640   0.578   4.858
12044TIP3   OH236076   0.662   1.647   2.670
12044TIP3    H136077   0.725   1.663   2.600
12044TIP3    H236078   0.610   1.572   2.639
12045TIP3   OH236079   3.617   6.455   4.229
12045TIP3    H136080   3.594   6.521   4.163
12045TIP3    H236081   3.535   6.409   4.246
12046TIP3   OH236082   4.773   0.151   2.777
12046TIP3    H136083   4.716   0.079   2.749
12046TIP3    H236084   4.715   0.226   2.785
12047TIP3   OH236085   5.192   2.316   0.599
12047TIP3    H136086   5.249   2.337   0.672
12047TIP3    H236087   5.192   2.221   0.594
12048TIP3   OH236088   6.740   6.559   0.864
12048TIP3    H136089   6.733   6.464   0.859
12048TIP3    H236090   6.730   6.589   0.773
12049TIP3   OH236091   0.286   6.583   5.189
12049TIP3    H136092   0.254   6.508   5.138
12049TIP3    H236093   0.218   6.649   5.180
12050TIP3   OH236094   0.094   7.599   1.541
12050TIP3    H136095   0.110   7.602   1.635
12050TIP3    H236096   0.022   7.660   1.526
12051TIP3   OH236097   5.000   7.098   1.711
12051TIP3    H136098   4.938   7.028   1.732
12051TIP3    H236099   4.969   7.133   1.627
12052TIP3   OH236100   6.487   1.448   2.930
12052TIP3    H136101   6.503   1.518   2.866
12052TIP3    H236102   6.408   1.476   2.977
12053TIP3   OH236103   4.531   4.670   5.512
12053TIP3    H136104   4.506   4.711   5.429
12053TIP3    H236105   4.611   4.622   5.492
12054TIP3   OH236106   2.473   3.386   4.307
12054TIP3    H136107   2.454   3.359   4.397
12054TIP3    H236108   2.457   3.308   4.254
12055TIP3   OH236109   1.652   1.080   5.440
12055TIP3    H136110   1.617   1.086   5.529
12055TIP3    H236111   1.601   1.010   5.399
12056TIP3   OH236112   6.266   7.312   4.578
12056TIP3    H136113   6.342   7.269   4.540
12056TIP3    H236114   6.192   7.255   4.555
12057TIP3   OH236115   0.093   0.959   5.857
12057TIP3    H136116   0.145   1.018   5.802
12057TIP3    H236117   0.139   0.959   5.941
12058TIP3   OH236118   3.521   6.915   6.213
12058TIP3    H136119   3.570   6.980   6.262
12058TIP3    H236120   3.436   6.957   6.195
12059TIP3   OH236121   0.320   3.767   4.769
12059TIP3    H136122   0.288   3.680   4.745
12059TIP3    H236123   0.272   3.790   4.848
12060TIP3   OH236124   0.801   6.816   0.748
12060TIP3    H136125   0.880   6.775   0.783
12060TIP3    H236126   0.795   6.785   0.658
12061TIP3   OH236127   4.621   0.204   4.983
12061TIP3    H136128   4.600   0.284   5.030
12061TIP3    H236129   4.578   0.134   5.032
12062TIP3   OH236130   0.344   5.825   0.874
12062TIP3    H136131   0.333   5.737   0.837
12062TIP3    H236132   0.339   5.883   0.799
12063TIP3   OH236133   5.128   0.958   4.497
12063TIP3    H136134   5.163   0.999   4.417
12063TIP3    H236135   5.159   1.015   4.567
12064TIP3   OH236136   0.810   3.540   4.147
12064TIP3    H136137   0.892   3.568   4.187
12064TIP3    H236138   0.801   3.448   4.173
12065TIP3   OH236139   6.077   7.608   5.388
12065TIP3    H136140   6.015   7.564   5.329
12065TIP3    H236141   6.156   7.553   5.385
12066TIP3   OH236142   0.700   7.157   0.506
12066TIP3    H136143   0.688   7.252   0.510
12066TIP3    H236144   0.724   7.131   0.595
12067TIP3   OH236145   3.223   3.373   5.041
12067TIP3    H136146   3.144   3.325   5.066
12067TIP3    H236147   3.208   3.462   5.073
12068TIP3   OH236148   3.125   6.276   5.462
12068TIP3    H136149   3.187   6.341   5.496
12068TIP3    H236150   3.039   6.315   5.478
12069TIP3   OH236151   2.046   2.071   0.988
12069TIP3    H136152   2.113   2.024   0.938
12069TIP3    H236153   1.966   2.021   0.972
12070TIP3   OH236154   1.748   3.780   5.960
12070TIP3    H136155   1.826   3.765   5.906
12070TIP3    H236156   1.779   3.831   6.034
12071TIP3   OH236157   2.104   5.922   2.630
12071TIP3    H136158   2.115   5.834   2.595
12071TIP3    H236159   2.189   5.942   2.670
12072TIP3   OH236160   5.498   4.706   5.808
12072TIP3    H136161   5.559   4.634   5.825
12072TIP3    H236162   5.537   4.782   5.853
12073TIP3   OH236163   0.923   2.890   1.851
12073TIP3    H136164   0.967   2.823   1.903
12073TIP3    H236165   0.830   2.871   1.862
12074TIP3   OH236166   2.824   6.701   0.353
12074TIP3    H136167   2.848   6.694   0.445
12074TIP3    H236168   2.809   6.795   0.340
12075TIP3   OH236169   6.225   1.731   5.190
12075TIP3    H136170   6.198   1.732   5.282
12075TIP3    H236171   6.319   1.751   5.193
12076TIP3   OH236172   1.961   5.214   3.094
12076TIP3    H136173   1.922   5.252   3.015
12076TIP3    H236174   1.961   5.286   3.158
12077TIP3   OH236175   1.312   6.028   6.767
12077TIP3    H136176   1.382   6.057   6.826
12077TIP3    H236177   1.231   6.045   6.816
12078TIP3   OH236178   4.789   3.865   2.876
12078TIP3    H136179   4.817   3.774   2.871
12078TIP3    H236180   4.712   3.869   2.820
12079TIP3   OH236181   7.974   3.334   0.343
12079TIP3    H136182   8.010   3.248   0.361
12079TIP3    H236183   7.914   3.351   0.416
12080TIP3   OH236184   5.543   7.054   4.912
12080TIP3    H136185   5.498   6.973   4.888
12080TIP3    H236186   5.548   7.051   5.008
12081TIP3   OH236187   3.959   0.878   0.231
12081TIP3    H136188   3.901   0.897   0.304
12081TIP3    H236189   3.990   0.963   0.201
12082TIP3   OH236190   2.378   3.837   3.081
12082TIP3    H136191   2.428   3.759   3.057
12082TIP3    H236192   2.409   3.860   3.168
12083TIP3   OH236193   5.237   1.752   2.623
12083TIP3    H136194   5.266   1.842   2.631
12083TIP3    H236195   5.318   1.700   2.628
12084TIP3   OH236196   4.042   4.940   5.047
12084TIP3    H136197   3.970   4.879   5.065
12084TIP3    H236198   4.121   4.892   5.070
12085TIP3   OH236199   1.326   2.579   5.758
12085TIP3    H136200   1.243   2.625   5.751
12085TIP3    H236201   1.378   2.632   5.818
12086TIP3   OH236202   7.609   6.850   6.119
12086TIP3    H136203   7.544   6.798   6.167
12086TIP3    H236204   7.572   6.938   6.115
12087TIP3   OH236205   5.787   2.871   5.491
12087TIP3    H136206   5.694   2.855   5.479
12087TIP3    H236207   5.827   2.784   5.495
12088TIP3   OH236208   5.216   0.622   2.714
12088TIP3    H136209   5.154   0.570   2.663
12088TIP3    H236210   5.197   0.713   2.690
12089TIP3   OH236211   0.557   6.158   3.655
12089TIP3    H136212   0.479   6.206   3.628
12089TIP3    H236213   0.567   6.088   3.591
12090TIP3   OH236214   1.964   6.047   6.280
12090TIP3    H136215   1.887   5.999   6.311
12090TIP3    H236216   1.951   6.137   6.310
12091TIP3   OH236217   0.559   2.456   5.057
12091TIP3    H136218   0.471   2.493   5.068
12091TIP3    H236219   0.545   2.376   5.007
12092TIP3   OH236220   2.162   5.698   2.511
12092TIP3    H136221   2.195   5.656   2.432
12092TIP3    H236222   2.220   5.668   2.581
12093TIP3   OH236223   1.232   2.702   2.113
12093TIP3    H136224   1.223   2.678   2.206
12093TIP3    H236225   1.314   2.661   2.086
12094TIP3   OH236226   0.075   1.531   0.837
12094TIP3    H136227  -0.020   1.524   0.824
12094TIP3    H236228   0.110   1.549   0.750
12095TIP3   OH236229   1.231   7.105   4.351
12095TIP3    H136230   1.205   7.195   4.371
12095TIP3    H236231   1.304   7.087   4.410
12096TIP3   OH236232   1.869   4.026   5.064
12096TIP3    H136233   1.960   4.017   5.036
12096TIP3    H236234   1.871   4.097   5.128
12097TIP3   OH236235   2.817   7.136   0.891
12097TIP3    H136236   2.736   7.099   0.927
12097TIP3    H236237   2.857   7.181   0.965
12098TIP3   OH236238   7.475   4.999   5.866
12098TIP3    H136239   7.435   4.957   5.790
12098TIP3    H236240   7.403   5.045   5.909
12099TIP3   OH236241   5.220   6.202   0.841
12099TIP3    H136242   5.232   6.111   0.867
12099TIP3    H236243   5.269   6.252   0.906
12100TIP3   OH236244   5.621   2.067   0.319
12100TIP3    H136245   5.536   2.094   0.285
12100TIP3    H236246   5.601   2.018   0.399
12101TIP3   OH236247   5.562   6.053   6.197
12101TIP3    H136248   5.556   5.985   6.130
12101TIP3    H236249   5.616   6.121   6.158
12102TIP3   OH236250   2.499   0.590   1.855
12102TIP3    H136251   2.484   0.503   1.894
12102TIP3    H236252   2.593   0.605   1.867
12103TIP3   OH236253   0.593   5.872   2.583
12103TIP3    H136254   0.611   5.947   2.639
12103TIP3    H236255   0.498   5.869   2.577
12104TIP3   OH236256   4.169   6.290   1.885
12104TIP3    H136257   4.110   6.240   1.828
12104TIP3    H236258   4.123   6.373   1.900
12105TIP3   OH236259   6.943   5.411   0.278
12105TIP3    H136260   6.970   5.476   0.213
12105TIP3    H236261   6.993   5.434   0.356
12106TIP3   OH236262   1.166   1.189   2.530
12106TIP3    H136263   1.165   1.196   2.625
12106TIP3    H236264   1.176   1.095   2.513
12107TIP3   OH236265   5.772   0.377   2.896
12107TIP3    H136266   5.763   0.468   2.923
12107TIP3    H236267   5.862   0.353   2.921
12108TIP3   OH236268   5.493   6.158   4.347
12108TIP3    H136269   5.465   6.212   4.421
12108TIP3    H236270   5.435   6.082   4.349
12109TIP3   OH236271   3.701   7.357   5.510
12109TIP3    H136272   3.761   7.380   5.439
12109TIP3    H236273   3.723   7.417   5.581
12110TIP3   OH236274   3.406   6.170   5.537
12110TIP3    H136275   3.461   6.109   5.489
12110TIP3    H236276   3.404   6.136   5.627
12111TIP3   OH236277   7.267   1.289   6.597
12111TIP3    H136278   7.341   1.244   6.556
12111TIP3    H236279   7.194   1.274   6.536
12112TIP3   OH236280   5.293   2.944   3.016
12112TIP3    H136281   5.224   2.925   3.080
12112TIP3    H236282   5.374   2.924   3.062
12113TIP3   OH236283   1.611   0.197   5.864
12113TIP3    H136284   1.585   0.110   5.834
12113TIP3    H236285   1.536   0.253   5.841
12114TIP3   OH236286   0.985   6.025   0.712
12114TIP3    H136287   0.968   5.932   0.698
12114TIP3    H236288   0.916   6.052   0.773
12115TIP3   OH236289   7.790   7.693   4.047
12115TIP3    H136290   7.777   7.761   4.114
12115TIP3    H236291   7.720   7.709   3.984
12116TIP3   OH236292   0.333   4.808   2.186
12116TIP3    H136293   0.279   4.744   2.139
12116TIP3    H236294   0.275   4.845   2.252
12117TIP3   OH236295   6.471   1.821   4.273
12117TIP3    H136296   6.489   1.745   4.219
12117TIP3    H236297   6.520   1.806   4.354
12118TIP3   OH236298   5.854   1.775   1.841
12118TIP3    H136299   5.945   1.746   1.828
12118TIP3    H236300   5.824   1.726   1.917
12119TIP3   OH236301   0.390   2.207   0.635
12119TIP3    H136302   0.348   2.262   0.569
12119TIP3    H236303   0.329   2.135   0.648
12120TIP3   OH236304   0.644   6.047   5.642
12120TIP3    H136305   0.623   5.965   5.686
12120TIP3    H236306   0.716   6.026   5.583
12121TIP3   OH236307   4.203   1.655   6.769
12121TIP3    H136308   4.120   1.641   6.724
12121TIP3    H236309   4.269   1.640   6.701
12122TIP3   OH236310   4.915   5.377   3.334
12122TIP3    H136311   4.988   5.351   3.277
12122TIP3    H236312   4.870   5.295   3.353
12123TIP3   OH236313   0.517   2.255   4.376
12123TIP3    H136314   0.605   2.224   4.396
12123TIP3    H236315   0.486   2.294   4.458
12124TIP3   OH236316   5.941   2.247   3.042
12124TIP3    H136317   6.008   2.250   2.974
12124TIP3    H236318   5.948   2.332   3.086
12125TIP3   OH236319   5.129   0.384   3.854
12125TIP3    H136320   5.036   0.392   3.878
12125TIP3    H236321   5.176   0.422   3.928
12126TIP3   OH236322   2.653   7.692   2.802
12126TIP3    H136323   2.572   7.644   2.819
12126TIP3    H236324   2.719   7.649   2.856
12127TIP3   OH236325   8.290   1.426   1.698
12127TIP3    H136326   8.196   1.409   1.697
12127TIP3    H236327   8.304   1.491   1.630
12128TIP3   OH236328   0.980   1.504   4.480
12128TIP3    H136329   0.913   1.455   4.528
12128TIP3    H236330   1.015   1.566   4.543
12129TIP3   OH236331   2.195   5.828   0.237
12129TIP3    H136332   2.119   5.886   0.231
12129TIP3    H236333   2.247   5.847   0.159
12130TIP3   OH236334   3.161   7.137   3.192
12130TIP3    H136335   3.138   7.046   3.207
12130TIP3    H236336   3.085   7.186   3.224
12131TIP3   OH236337   6.149   2.555   1.812
12131TIP3    H136338   6.138   2.476   1.865
12131TIP3    H236339   6.094   2.620   1.855
12132TIP3   OH236340   3.903   3.655   3.316
12132TIP3    H136341   3.817   3.697   3.314
12132TIP3    H236342   3.899   3.588   3.248
12133TIP3   OH236343   2.236   6.349   2.017
12133TIP3    H136344   2.149   6.376   1.987
12133TIP3    H236345   2.293   6.422   1.992
12134TIP3   OH236346   4.168   4.080   5.189
12134TIP3    H136347   4.128   4.070   5.275
12134TIP3    H236348   4.098   4.061   5.127
12135TIP3   OH236349   2.577   0.605   1.266
12135TIP3    H136350   2.481   0.603   1.265
12135TIP3    H236351   2.601   0.630   1.177
12136TIP3   OH236352   7.929   5.828   5.089
12136TIP3    H136353   7.986   5.783   5.152
12136TIP3    H236354   7.988   5.887   5.042
12137TIP3   OH236355   4.814   4.822   0.648
12137TIP3    H136356   4.780   4.793   0.563
12137TIP3    H236357   4.755   4.893   0.674
12138TIP3   OH236358   7.036   6.221   3.830
12138TIP3    H136359   7.112   6.209   3.887
12138TIP3    H236360   7.073   6.236   3.743
12139TIP3   OH236361   1.357   5.007   4.670
12139TIP3    H136362   1.323   4.971   4.752
12139TIP3    H236363   1.448   4.978   4.667
12140TIP3   OH236364   0.200   6.075   1.327
12140TIP3    H136365   0.227   6.152   1.278
12140TIP3    H236366   0.221   6.001   1.270
12141TIP3   OH236367   0.379   1.547   1.240
12141TIP3    H136368   0.472   1.552   1.259
12141TIP3    H236369   0.342   1.501   1.315
12142TIP3   OH236370   5.500   3.111   5.665
12142TIP3    H136371   5.593   3.130   5.673
12142TIP3    H236372   5.457   3.182   5.712
12143TIP3   OH236373   2.472   3.118   6.576
12143TIP3    H136374   2.525   3.167   6.513
12143TIP3    H236375   2.514   3.032   6.581
12144TIP3   OH236376   1.539   4.635   1.684
12144TIP3    H136377   1.609   4.615   1.622
12144TIP3    H236378   1.475   4.685   1.633
12145TIP3   OH236379   4.561   2.525   1.823
12145TIP3    H136380   4.555   2.510   1.917
12145TIP3    H236381   4.633   2.468   1.794
12146TIP3   OH236382   6.475   6.324   1.640
12146TIP3    H136383   6.436   6.388   1.581
12146TIP3    H236384   6.401   6.282   1.683
12147TIP3   OH236385   4.142   1.409   5.784
12147TIP3    H136386   4.056   1.413   5.743
12147TIP3    H236387   4.203   1.413   5.711
12148TIP3   OH236388   7.195   3.243   2.498
12148TIP3    H136389   7.138   3.171   2.524
12148TIP3    H236390   7.248   3.207   2.427
12149TIP3   OH236391   7.502   5.427   0.180
12149TIP3    H136392   7.552   5.508   0.180
12149TIP3    H236393   7.446   5.432   0.257
12150TIP3   OH236394   1.194   5.423   1.531
12150TIP3    H136395   1.266   5.394   1.586
12150TIP3    H236396   1.221   5.402   1.441
12151TIP3   OH236397   4.487   1.919   5.482
12151TIP3    H136398   4.425   1.991   5.487
12151TIP3    H236399   4.440   1.844   5.518
12152TIP3   OH236400   6.335   1.206   0.325
12152TIP3    H136401   6.283   1.218   0.405
12152TIP3    H236402   6.285   1.250   0.257
12153TIP3   OH236403   6.119   3.762   4.571
12153TIP3    H136404   6.031   3.798   4.580
12153TIP3    H236405   6.140   3.729   4.659
12154TIP3   OH236406   6.882   3.544   1.704
12154TIP3    H136407   6.911   3.554   1.614
12154TIP3    H236408   6.829   3.622   1.721
12155TIP3   OH236409   6.092   6.308   4.701
12155TIP3    H136410   6.181   6.307   4.666
12155TIP3    H236411   6.052   6.228   4.667
12156TIP3   OH236412   0.847   3.655   4.649
12156TIP3    H136413   0.863   3.702   4.568
12156TIP3    H236414   0.752   3.658   4.661
12157TIP3   OH236415   1.326   2.889   0.267
12157TIP3    H136416   1.373   2.938   0.334
12157TIP3    H236417   1.234   2.912   0.280
12158TIP3   OH236418   7.495   4.283   6.671
12158TIP3    H136419   7.425   4.261   6.610
12158TIP3    H236420   7.451   4.289   6.756
12159TIP3   OH236421   1.612   4.169   5.400
12159TIP3    H136422   1.645   4.213   5.321
12159TIP3    H236423   1.517   4.185   5.399
12160TIP3   OH236424   2.990   6.768   2.013
12160TIP3    H136425   2.971   6.796   1.924
12160TIP3    H236426   2.923   6.810   2.066
12161TIP3   OH236427   3.893   5.394   0.393
12161TIP3    H136428   3.962   5.438   0.442
12161TIP3    H236429   3.907   5.301   0.410
12162TIP3   OH236430   6.720   7.488   0.373
12162TIP3    H136431   6.658   7.525   0.435
12162TIP3    H236432   6.768   7.563   0.338
12163TIP3   OH236433   4.917   6.355   1.448
12163TIP3    H136434   4.898   6.334   1.540
12163TIP3    H236435   4.854   6.305   1.397
12164TIP3   OH236436   4.088   2.547   5.791
12164TIP3    H136437   4.130   2.465   5.767
12164TIP3    H236438   4.105   2.605   5.717
12165TIP3   OH236439   8.232   5.883   1.727
12165TIP3    H136440   8.283   5.959   1.699
12165TIP3    H236441   8.178   5.860   1.651
12166TIP3   OH236442   1.376   2.289   0.091
12166TIP3    H136443   1.400   2.363   0.034
12166TIP3    H236444   1.459   2.247   0.112
12167TIP3   OH236445   5.920   3.684   6.705
12167TIP3    H136446   5.876   3.677   6.620
12167TIP3    H236447   5.865   3.633   6.765
12168TIP3   OH236448   3.798   6.750   4.266
12168TIP3    H136449   3.850   6.807   4.323
12168TIP3    H236450   3.854   6.733   4.191
12169TIP3   OH236451   4.496   2.393   6.033
12169TIP3    H136452   4.466   2.306   6.009
12169TIP3    H236453   4.420   2.450   6.017
12170TIP3   OH236454   7.668   2.529   5.668
12170TIP3    H136455   7.712   2.613   5.651
12170TIP3    H236456   7.575   2.549   5.664
12171TIP3   OH236457   0.031   2.571   4.194
12171TIP3    H136458   0.120   2.549   4.223
12171TIP3    H236459  -0.025   2.507   4.237
12172TIP3   OH236460   6.119   6.548   6.392
12172TIP3    H136461   6.075   6.567   6.475
12172TIP3    H236462   6.049   6.517   6.335
12173TIP3   OH236463   0.847   2.344   1.251
12173TIP3    H136464   0.859   2.423   1.197
12173TIP3    H236465   0.779   2.369   1.314
12174TIP3   OH236466   6.078   5.710   1.946
12174TIP3    H136467   6.168   5.720   1.976
12174TIP3    H236468   6.084   5.709   1.851
12175TIP3   OH236469   5.890   5.311   6.046
12175TIP3    H136470   5.812   5.354   6.010
12175TIP3    H236471   5.887   5.331   6.139
12176TIP3   OH236472   5.693   2.371   4.318
12176TIP3    H136473   5.732   2.446   4.273
12176TIP3    H236474   5.667   2.406   4.404
12177TIP3   OH236475   4.798   0.170   4.493
12177TIP3    H136476   4.745   0.090   4.500
12177TIP3    H236477   4.756   0.221   4.424
12178TIP3   OH236478   1.076   2.918   3.040
12178TIP3    H136479   1.055   2.975   2.966
12178TIP3    H236480   1.157   2.875   3.014
12179TIP3   OH236481   6.510   4.348   6.523
12179TIP3    H136482   6.478   4.258   6.516
12179TIP3    H236483   6.605   4.338   6.535
12180TIP3   OH236484   3.575   6.311   4.524
12180TIP3    H136485   3.636   6.254   4.477
12180TIP3    H236486   3.631   6.360   4.584
12181TIP3   OH236487   3.309   7.051   2.613
12181TIP3    H136488   3.257   6.972   2.629
12181TIP3    H236489   3.244   7.121   2.607
12182TIP3   OH236490   1.137   1.961   6.474
12182TIP3    H136491   1.177   1.902   6.537
12182TIP3    H236492   1.065   2.002   6.522
12183TIP3   OH236493   4.834   1.743   1.975
12183TIP3    H136494   4.829   1.811   2.042
12183TIP3    H236495   4.772   1.676   2.004
12184TIP3   OH236496   5.808   4.294   0.803
12184TIP3    H136497   5.850   4.342   0.732
12184TIP3    H236498   5.727   4.342   0.820
12185TIP3   OH236499   7.414   2.620   3.815
12185TIP3    H136500   7.350   2.658   3.875
12185TIP3    H236501   7.455   2.695   3.772
12186TIP3   OH236502   4.791   3.924   6.067
12186TIP3    H136503   4.876   3.907   6.026
12186TIP3    H236504   4.727   3.884   6.008
12187TIP3   OH236505   3.352   5.497   0.954
12187TIP3    H136506   3.437   5.509   0.912
12187TIP3    H236507   3.303   5.576   0.932
12188TIP3   OH236508   7.523   4.113   2.118
12188TIP3    H136509   7.432   4.101   2.146
12188TIP3    H236510   7.522   4.094   2.024
12189TIP3   OH236511   4.436   6.964   2.261
12189TIP3    H136512   4.513   6.926   2.220
12189TIP3    H236513   4.458   7.057   2.272
12190TIP3   OH236514   5.179   4.908   1.036
12190TIP3    H136515   5.124   4.875   0.966
12190TIP3    H236516   5.141   4.872   1.116
12191TIP3   OH236517   5.470   5.103   5.692
12191TIP3    H136518   5.499   5.041   5.759
12191TIP3    H236519   5.470   5.052   5.611
12192TIP3   OH236520   1.502   0.851   4.377
12192TIP3    H136521   1.578   0.843   4.435
12192TIP3    H236522   1.514   0.780   4.313
12193TIP3   OH236523   5.603   1.893   4.343
12193TIP3    H136524   5.621   1.980   4.307
12193TIP3    H236525   5.507   1.887   4.344
12194TIP3   OH236526   2.183   2.864   5.790
12194TIP3    H136527   2.144   2.777   5.785
12194TIP3    H236528   2.117   2.922   5.751
12195TIP3   OH236529   1.927   0.593   3.332
12195TIP3    H136530   2.022   0.598   3.340
12195TIP3    H236531   1.894   0.652   3.400
12196TIP3   OH236532   2.882   0.983   0.801
12196TIP3    H136533   2.893   1.002   0.708
12196TIP3    H236534   2.925   1.056   0.846
12197TIP3   OH236535   5.319   5.990   3.708
12197TIP3    H136536   5.400   6.022   3.669
12197TIP3    H236537   5.314   5.898   3.682
12198TIP3   OH236538   3.173   0.835   0.542
12198TIP3    H136539   3.111   0.847   0.470
12198TIP3    H236540   3.126   0.865   0.620
12199TIP3   OH236541   2.486   6.789   2.547
12199TIP3    H136542   2.488   6.696   2.522
12199TIP3    H236543   2.417   6.827   2.492
12200TIP3   OH236544   1.341   5.897   3.633
12200TIP3    H136545   1.386   5.838   3.572
12200TIP3    H236546   1.372   5.984   3.609
12201TIP3   OH236547   7.000   6.336   0.839
12201TIP3    H136548   7.014   6.397   0.767
12201TIP3    H236549   7.048   6.257   0.815
12202TIP3   OH236550   5.110   5.370   2.269
12202TIP3    H136551   5.119   5.275   2.276
12202TIP3    H236552   5.016   5.386   2.281
12203TIP3   OH236553   7.263   5.701   0.822
12203TIP3    H136554   7.172   5.691   0.850
12203TIP3    H236555   7.299   5.613   0.827
12204TIP3   OH236556   7.155   5.647   3.236
12204TIP3    H136557   7.251   5.650   3.242
12204TIP3    H236558   7.138   5.619   3.146
12205TIP3   OH236559   6.993   3.106   4.756
12205TIP3    H136560   7.072   3.122   4.704
12205TIP3    H236561   6.936   3.057   4.698
12206TIP3   OH236562   1.901   4.389   5.788
12206TIP3    H136563   1.858   4.424   5.866
12206TIP3    H236564   1.830   4.352   5.736
12207TIP3   OH236565   1.765   1.884   1.253
12207TIP3    H136566   1.833   1.849   1.195
12207TIP3    H236567   1.732   1.808   1.300
12208TIP3   OH236568   3.122   7.147   0.878
12208TIP3    H136569   3.176   7.149   0.957
12208TIP3    H236570   3.146   7.065   0.834
12209TIP3   OH236571   0.653   7.680   4.925
12209TIP3    H136572   0.678   7.596   4.886
12209TIP3    H236573   0.640   7.659   5.018
12210TIP3   OH236574   7.733   4.647   1.926
12210TIP3    H136575   7.644   4.659   1.958
12210TIP3    H236576   7.760   4.733   1.897
12211TIP3   OH236577   4.578   4.134   5.878
12211TIP3    H136578   4.664   4.092   5.881
12211TIP3    H236579   4.547   4.119   5.789
12212TIP3   OH236580   3.306   3.755   1.500
12212TIP3    H136581   3.285   3.680   1.554
12212TIP3    H236582   3.253   3.827   1.535
12213TIP3   OH236583   6.156   6.247   5.879
12213TIP3    H136584   6.226   6.200   5.834
12213TIP3    H236585   6.116   6.301   5.811
12214TIP3   OH236586   3.032   5.456   2.446
12214TIP3    H136587   3.120   5.491   2.462
12214TIP3    H236588   3.044   5.389   2.379
12215TIP3   OH236589   3.534   2.768   3.027
12215TIP3    H136590   3.580   2.851   3.014
12215TIP3    H236591   3.470   2.787   3.096
12216TIP3   OH236592   2.076   1.240   0.922
12216TIP3    H136593   2.053   1.299   0.994
12216TIP3    H236594   2.022   1.268   0.849
12217TIP3   OH236595   4.945   6.331   2.980
12217TIP3    H136596   5.002   6.254   2.987
12217TIP3    H236597   4.870   6.310   3.036
12218TIP3   OH236598   4.652   4.983   6.641
12218TIP3    H136599   4.653   5.079   6.635
12218TIP3    H236600   4.744   4.957   6.630
12219TIP3   OH236601   0.708   3.490   2.328
12219TIP3    H136602   0.721   3.585   2.334
12219TIP3    H236603   0.746   3.466   2.243
12220TIP3   OH236604   7.700   4.965   6.401
12220TIP3    H136605   7.761   4.892   6.403
12220TIP3    H236606   7.686   4.987   6.493
12221TIP3   OH236607   6.616   2.288   0.781
12221TIP3    H136608   6.671   2.363   0.803
12221TIP3    H236609   6.574   2.313   0.699
12222TIP3   OH236610   1.657   1.076   3.651
12222TIP3    H136611   1.699   1.109   3.572
12222TIP3    H236612   1.664   1.148   3.714
12223TIP3   OH236613   3.002   5.552   4.588
12223TIP3    H136614   2.946   5.475   4.579
12223TIP3    H236615   3.079   5.520   4.636
12224TIP3   OH236616   1.160   3.471   5.021
12224TIP3    H136617   1.075   3.502   4.990
12224TIP3    H236618   1.170   3.385   4.981
12225TIP3   OH236619   7.436   1.486   4.138
12225TIP3    H136620   7.477   1.573   4.133
12225TIP3    H236621   7.347   1.500   4.106
12226TIP3   OH236622   7.204   4.442   4.884
12226TIP3    H136623   7.264   4.502   4.841
12226TIP3    H236624   7.160   4.495   4.951
12227TIP3   OH236625   8.055   1.193   2.695
12227TIP3    H136626   8.050   1.288   2.711
12227TIP3    H236627   8.068   1.186   2.601
12228TIP3   OH236628   6.124   7.587   3.656
12228TIP3    H136629   6.186   7.660   3.664
12228TIP3    H236630   6.101   7.565   3.746
12229TIP3   OH236631   6.570   0.433   5.640
12229TIP3    H136632   6.595   0.426   5.548
12229TIP3    H236633   6.634   0.493   5.678
12230TIP3   OH236634   1.951   2.693   1.725
12230TIP3    H136635   1.958   2.610   1.678
12230TIP3    H236636   2.026   2.745   1.694
12231TIP3   OH236637   5.977   3.262   0.346
12231TIP3    H136638   6.002   3.174   0.319
12231TIP3    H236639   5.977   3.313   0.265
12232TIP3   OH236640   1.192   5.590   5.226
12232TIP3    H136641   1.236   5.549   5.152
12232TIP3    H236642   1.103   5.605   5.196
12233TIP3   OH236643   3.289   0.434   2.613
12233TIP3    H136644   3.206   0.387   2.606
12233TIP3    H236645   3.269   0.523   2.586
12234TIP3   OH236646   7.649   7.579   5.452
12234TIP3    H136647   7.614   7.553   5.537
12234TIP3    H236648   7.743   7.562   5.458
12235TIP3   OH236649   3.704   3.307   0.398
12235TIP3    H136650   3.773   3.306   0.331
12235TIP3    H236651   3.742   3.355   0.471
12236TIP3   OH236652   5.683   4.869   2.301
12236TIP3    H136653   5.592   4.859   2.329
12236TIP3    H236654   5.687   4.828   2.215
12237TIP3   OH236655   6.763   0.521   3.014
12237TIP3    H136656   6.790   0.568   3.093
12237TIP3    H236657   6.726   0.439   3.047
12238TIP3   OH236658   6.598   3.597   5.487
12238TIP3    H136659   6.687   3.594   5.521
12238TIP3    H236660   6.570   3.688   5.499
12239TIP3   OH236661   6.791   4.118   5.137
12239TIP3    H136662   6.876   4.078   5.120
12239TIP3    H236663   6.758   4.141   5.051
12240TIP3   OH236664   6.806   2.968   6.533
12240TIP3    H136665   6.731   2.991   6.588
12240TIP3    H236666   6.883   2.995   6.583
12241TIP3   OH236667   5.489   5.555   4.130
12241TIP3    H136668   5.472   5.549   4.036
12241TIP3    H236669   5.420   5.502   4.171
12242TIP3   OH236670   1.875   1.854   0.845
12242TIP3    H136671   1.935   1.822   0.778
12242TIP3    H236672   1.905   1.813   0.926
12243TIP3   OH236673   2.875   5.553   5.319
12243TIP3    H136674   2.836   5.604   5.248
12243TIP3    H236675   2.808   5.489   5.343
12244TIP3   OH236676   7.889   4.655   4.763
12244TIP3    H136677   7.886   4.749   4.781
12244TIP3    H236678   7.804   4.622   4.792
12245TIP3   OH236679   6.173   6.094   0.922
12245TIP3    H136680   6.197   6.177   0.880
12245TIP3    H236681   6.105   6.118   0.985
12246TIP3   OH236682   7.689   4.948   3.934
12246TIP3    H136683   7.709   4.946   3.841
12246TIP3    H236684   7.653   5.036   3.949
12247TIP3   OH236685   5.379   1.505   6.473
12247TIP3    H136686   5.431   1.556   6.537
12247TIP3    H236687   5.395   1.549   6.390
12248TIP3   OH236688   7.009   2.644   5.556
12248TIP3    H136689   6.966   2.702   5.494
12248TIP3    H236690   6.938   2.595   5.597
12249TIP3   OH236691   1.694   2.755   0.131
12249TIP3    H136692   1.752   2.698   0.080
12249TIP3    H236693   1.734   2.841   0.126
12250TIP3   OH236694   2.322   7.399   1.353
12250TIP3    H136695   2.351   7.333   1.416
12250TIP3    H236696   2.262   7.454   1.402
12251TIP3   OH236697   3.000   0.770   0.335
12251TIP3    H136698   2.934   0.717   0.380
12251TIP3    H236699   3.038   0.712   0.269
12252TIP3   OH236700   8.023   5.251   6.509
12252TIP3    H136701   7.950   5.262   6.448
12252TIP3    H236702   8.081   5.325   6.492
12253TIP3   OH236703   0.301   2.691   0.904
12253TIP3    H136704   0.258   2.738   0.975
12253TIP3    H236705   0.344   2.759   0.852
12254TIP3   OH236706   3.999   7.553   5.668
12254TIP3    H136707   3.923   7.604   5.697
12254TIP3    H236708   3.981   7.464   5.699
12255TIP3   OH236709   4.360   6.269   4.489
12255TIP3    H136710   4.321   6.183   4.470
12255TIP3    H236711   4.317   6.328   4.427
12256TIP3   OH236712   1.306   0.036   4.468
12256TIP3    H136713   1.338   0.041   4.558
12256TIP3    H236714   1.381   0.063   4.415
12257TIP3   OH236715   1.986   5.248   0.097
12257TIP3    H136716   1.964   5.166   0.052
12257TIP3    H236717   1.961   5.317   0.036
12258TIP3   OH236718   4.215   5.438   3.654
12258TIP3    H136719   4.195   5.532   3.651
12258TIP3    H236720   4.187   5.411   3.741
12259TIP3   OH236721   5.124   6.814   3.105
12259TIP3    H136722   5.061   6.758   3.061
12259TIP3    H236723   5.141   6.885   3.043
12260TIP3   OH236724   7.154   3.914   6.456
12260TIP3    H136725   7.144   3.933   6.362
12260TIP3    H236726   7.177   3.822   6.460
12261TIP3   OH236727   4.524   4.283   0.010
12261TIP3    H136728   4.483   4.312  -0.071
12261TIP3    H236729   4.451   4.272   0.071
12262TIP3   OH236730   6.794   1.622   1.695
12262TIP3    H136731   6.808   1.531   1.668
12262TIP3    H236732   6.719   1.651   1.642
12263TIP3   OH236733   3.854   6.586   2.127
12263TIP3    H136734   3.798   6.579   2.049
12263TIP3    H236735   3.793   6.588   2.200
12264TIP3   OH236736   7.791   1.323   3.244
12264TIP3    H136737   7.828   1.366   3.322
12264TIP3    H236738   7.853   1.253   3.224
12265TIP3   OH236739   4.882   6.170   4.124
12265TIP3    H136740   4.826   6.236   4.163
12265TIP3    H236741   4.832   6.089   4.130
12266TIP3   OH236742   2.783   5.433   3.848
12266TIP3    H136743   2.839   5.378   3.792
12266TIP3    H236744   2.845   5.489   3.895
12267TIP3   OH236745   2.789   4.781   1.616
12267TIP3    H136746   2.757   4.864   1.652
12267TIP3    H236747   2.876   4.801   1.584
12268TIP3   OH236748   0.444   6.321   2.726
12268TIP3    H136749   0.419   6.377   2.800
12268TIP3    H236750   0.477   6.382   2.660
12269TIP3   OH236751   1.297   4.301   5.858
12269TIP3    H136752   1.202   4.313   5.858
12269TIP3    H236753   1.330   4.370   5.801
12270TIP3   OH236754   3.614   1.281   1.361
12270TIP3    H136755   3.582   1.322   1.441
12270TIP3    H236756   3.668   1.207   1.391
12271TIP3   OH236757   1.198   0.980   4.638
12271TIP3    H136758   1.255   0.950   4.709
12271TIP3    H236759   1.254   0.983   4.561
12272TIP3   OH236760   2.369   1.206   0.871
12272TIP3    H136761   2.352   1.117   0.903
12272TIP3    H236762   2.282   1.246   0.864
12273TIP3   OH236763   3.639   1.031   5.530
12273TIP3    H136764   3.592   1.083   5.595
12273TIP3    H236765   3.702   0.980   5.581
12274TIP3   OH236766   5.524   3.895   1.000
12274TIP3    H136767   5.440   3.937   1.018
12274TIP3    H236768   5.501   3.809   0.963
12275TIP3   OH236769   3.879   5.783   5.773
12275TIP3    H136770   3.859   5.732   5.851
12275TIP3    H236771   3.951   5.840   5.800
12276TIP3   OH236772   0.118   5.037   5.136
12276TIP3    H136773   0.100   5.123   5.097
12276TIP3    H236774   0.197   5.006   5.091
12277TIP3   OH236775   4.953   2.105   4.722
12277TIP3    H136776   4.866   2.065   4.728
12277TIP3    H236777   4.952   2.172   4.790
12278TIP3   OH236778   7.324   5.908   3.599
12278TIP3    H136779   7.363   5.839   3.652
12278TIP3    H236780   7.252   5.941   3.652
12279TIP3   OH236781   6.643   5.242   6.719
12279TIP3    H136782   6.617   5.303   6.789
12279TIP3    H236783   6.736   5.257   6.708
12280TIP3   OH236784   4.906   7.355   4.550
12280TIP3    H136785   4.866   7.269   4.565
12280TIP3    H236786   4.968   7.340   4.478
12281TIP3   OH236787   2.151   0.123   0.710
12281TIP3    H136788   2.237   0.153   0.740
12281TIP3    H236789   2.090   0.191   0.737
12282TIP3   OH236790   3.129   7.278   2.269
12282TIP3    H136791   3.195   7.250   2.206
12282TIP3    H236792   3.056   7.309   2.215
12283TIP3   OH236793   1.690   7.723   2.693
12283TIP3    H136794   1.642   7.726   2.610
12283TIP3    H236795   1.650   7.793   2.745
12284TIP3   OH236796   5.987   0.702   5.944
12284TIP3    H136797   5.988   0.783   5.894
12284TIP3    H236798   5.906   0.659   5.917
12285TIP3   OH236799   5.300   7.011   2.421
12285TIP3    H136800   5.217   7.000   2.376
12285TIP3    H236801   5.363   6.960   2.369
12286TIP3   OH236802   6.507   6.548   4.404
12286TIP3    H136803   6.512   6.527   4.498
12286TIP3    H236804   6.441   6.488   4.370
12287TIP3   OH236805   7.693   1.133   4.499
12287TIP3    H136806   7.778   1.090   4.488
12287TIP3    H236807   7.699   1.175   4.585
12288TIP3   OH236808   5.921   5.599   6.620
12288TIP3    H136809   5.886   5.683   6.589
12288TIP3    H236810   5.930   5.610   6.714
12289TIP3   OH236811   1.128   1.111   0.904
12289TIP3    H136812   1.105   1.172   0.974
12289TIP3    H236813   1.195   1.157   0.853
12290TIP3   OH236814   8.069   5.900   3.554
12290TIP3    H136815   8.092   5.811   3.580
12290TIP3    H236816   8.091   5.953   3.631
12291TIP3   OH236817   5.742   4.645   1.308
12291TIP3    H136818   5.746   4.601   1.394
12291TIP3    H236819   5.724   4.574   1.246
12292TIP3   OH236820   1.835   3.222   0.541
12292TIP3    H136821   1.792   3.299   0.503
12292TIP3    H236822   1.910   3.207   0.484
12293TIP3   OH236823   5.857   4.763   0.066
12293TIP3    H136824   5.887   4.853   0.053
12293TIP3    H236825   5.817   4.739  -0.018
12294TIP3   OH236826   7.232   7.579   1.992
12294TIP3    H136827   7.238   7.484   1.981
12294TIP3    H236828   7.271   7.596   2.078
12295TIP3   OH236829   2.858   1.474   6.675
12295TIP3    H136830   2.902   1.389   6.674
12295TIP3    H236831   2.765   1.454   6.664
12296TIP3   OH236832   2.313   6.691   5.846
12296TIP3    H136833   2.308   6.769   5.790
12296TIP3    H236834   2.225   6.654   5.843
12297TIP3   OH236835   4.634   3.486   5.854
12297TIP3    H136836   4.700   3.537   5.807
12297TIP3    H236837   4.611   3.416   5.793
12298TIP3   OH236838   7.070   3.249   4.002
12298TIP3    H136839   7.142   3.187   3.998
12298TIP3    H236840   7.022   3.226   4.082
12299TIP3   OH236841   6.060   0.437   0.871
12299TIP3    H136842   6.147   0.408   0.843
12299TIP3    H236843   6.036   0.376   0.941
12300TIP3   OH236844   4.535   6.455   4.611
12300TIP3    H136845   4.552   6.420   4.698
12300TIP3    H236846   4.490   6.384   4.565
12301TIP3   OH236847   3.012   2.380   6.113
12301TIP3    H136848   2.948   2.450   6.126
12301TIP3    H236849   2.976   2.305   6.161
12302TIP3   OH236850   0.631   1.611   6.645
12302TIP3    H136851   0.695   1.635   6.711
12302TIP3    H236852   0.664   1.528   6.610
12303TIP3   OH236853   7.478   1.443   3.493
12303TIP3    H136854   7.530   1.519   3.521
12303TIP3    H236855   7.435   1.473   3.412
12304TIP3   OH236856   2.580   5.838   6.525
12304TIP3    H136857   2.643   5.891   6.574
12304TIP3    H236858   2.545   5.898   6.459
12305TIP3   OH236859   5.483   7.107   2.899
12305TIP3    H136860   5.482   7.095   2.804
12305TIP3    H236861   5.573   7.087   2.924
12306TIP3   OH236862   1.081   3.465   2.834
12306TIP3    H136863   1.154   3.448   2.894
12306TIP3    H236864   1.013   3.403   2.860
12307TIP3   OH236865   3.302   4.707   1.450
12307TIP3    H136866   3.342   4.774   1.396
12307TIP3    H236867   3.331   4.624   1.412
12308TIP3   OH236868   1.292   4.927   6.470
12308TIP3    H136869   1.240   4.977   6.409
12308TIP3    H236870   1.265   4.836   6.457
12309TIP3   OH236871   6.911   2.874   5.709
12309TIP3    H136872   6.844   2.813   5.741
12309TIP3    H236873   6.961   2.824   5.644
12310TIP3   OH236874   6.419   6.568   0.368
12310TIP3    H136875   6.356   6.588   0.437
12310TIP3    H236876   6.416   6.472   0.360
12311TIP3   OH236877   3.774   0.521   3.476
12311TIP3    H136878   3.804   0.433   3.454
12311TIP3    H236879   3.815   0.540   3.560
12312TIP3   OH236880   2.792   4.923   0.253
12312TIP3    H136881   2.757   4.936   0.341
12312TIP3    H236882   2.726   4.870   0.208
12313TIP3   OH236883   2.579   1.307   3.005
12313TIP3    H136884   2.653   1.258   3.041
12313TIP3    H236885   2.609   1.336   2.919
12314TIP3   OH236886   2.515   6.799   4.521
12314TIP3    H136887   2.459   6.747   4.464
12314TIP3    H236888   2.596   6.810   4.471
12315TIP3   OH236889   4.063   0.256   0.743
12315TIP3    H136890   3.978   0.288   0.712
12315TIP3    H236891   4.087   0.188   0.681
12316TIP3   OH236892   1.398   0.443   1.308
12316TIP3    H136893   1.312   0.478   1.284
12316TIP3    H236894   1.455   0.469   1.236
12317TIP3   OH236895   2.927   0.259   2.037
12317TIP3    H136896   3.014   0.293   2.057
12317TIP3    H236897   2.916   0.185   2.098
12318TIP3   OH236898   0.488   3.930   1.704
12318TIP3    H136899   0.525   3.998   1.649
12318TIP3    H236900   0.394   3.951   1.707
12319TIP3   OH236901   6.181   4.252   6.513
12319TIP3    H136902   6.185   4.157   6.509
12319TIP3    H236903   6.178   4.280   6.421
12320TIP3   OH236904   7.398   7.275   4.118
12320TIP3    H136905   7.321   7.331   4.124
12320TIP3    H236906   7.398   7.243   4.028
12321TIP3   OH236907   6.468   7.441   1.803
12321TIP3    H136908   6.459   7.507   1.734
12321TIP3    H236909   6.378   7.425   1.833
12322TIP3   OH236910   1.837   3.689   5.198
12322TIP3    H136911   1.928   3.698   5.169
12322TIP3    H236912   1.785   3.720   5.124
12323TIP3   OH236913   0.455   5.282   3.303
12323TIP3    H136914   0.479   5.361   3.351
12323TIP3    H236915   0.360   5.277   3.310
12324TIP3   OH236916   2.025   0.674   3.668
12324TIP3    H136917   1.974   0.755   3.673
12324TIP3    H236918   2.113   0.699   3.696
12325TIP3   OH236919   1.870   1.379   4.527
12325TIP3    H136920   1.896   1.290   4.548
12325TIP3    H236921   1.933   1.408   4.461
12326TIP3   OH236922   2.262   0.806   3.237
12326TIP3    H136923   2.306   0.888   3.215
12326TIP3    H236924   2.198   0.794   3.167
12327TIP3   OH236925   1.632   2.780   4.431
12327TIP3    H136926   1.638   2.875   4.442
12327TIP3    H236927   1.723   2.751   4.422
12328TIP3   OH236928   1.658   2.324   5.707
12328TIP3    H136929   1.745   2.284   5.713
12328TIP3    H236930   1.614   2.274   5.638
12329TIP3   OH236931   4.120   2.940   5.281
12329TIP3    H136932   4.188   2.962   5.218
12329TIP3    H236933   4.168   2.916   5.361
12330TIP3   OH236934   3.118   5.536   2.890
12330TIP3    H136935   3.028   5.542   2.857
12330TIP3    H236936   3.173   5.543   2.811
12331TIP3   OH236937   6.727   2.723   6.056
12331TIP3    H136938   6.634   2.710   6.076
12331TIP3    H236939   6.729   2.733   5.961
12332TIP3   OH236940   1.852   1.048   2.354
12332TIP3    H136941   1.923   0.983   2.351
12332TIP3    H236942   1.779   1.004   2.310
12333TIP3   OH236943   6.751   1.762   5.086
12333TIP3    H136944   6.832   1.718   5.112
12333TIP3    H236945   6.713   1.706   5.019
12334TIP3   OH236946   3.098   7.585   6.472
12334TIP3    H136947   3.149   7.572   6.392
12334TIP3    H236948   3.101   7.500   6.517
12335TIP3   OH236949   5.063   2.277   2.609
12335TIP3    H136950   5.111   2.239   2.683
12335TIP3    H236951   5.008   2.345   2.648
12336TIP3   OH236952   2.869   7.562   5.142
12336TIP3    H136953   2.861   7.650   5.178
12336TIP3    H236954   2.859   7.573   5.048
12337TIP3   OH236955   2.484   0.323   1.617
12337TIP3    H136956   2.440   0.311   1.701
12337TIP3    H236957   2.563   0.270   1.623
12338TIP3   OH236958   5.776   7.423   1.402
12338TIP3    H136959   5.832   7.351   1.371
12338TIP3    H236960   5.711   7.380   1.458
12339TIP3   OH236961   6.334   0.690   4.634
12339TIP3    H136962   6.428   0.696   4.616
12339TIP3    H236963   6.320   0.597   4.650
12340TIP3   OH236964   1.908   5.226   3.700
12340TIP3    H136965   1.940   5.244   3.789
12340TIP3    H236966   1.813   5.229   3.708
12341TIP3   OH236967   3.559   6.085   6.241
12341TIP3    H136968   3.566   6.154   6.307
12341TIP3    H236969   3.493   6.025   6.276
12342TIP3   OH236970   2.097   7.766   1.600
12342TIP3    H136971   2.042   7.763   1.678
12342TIP3    H236972   2.071   7.846   1.555
12343TIP3   OH236973   4.269   2.112   6.415
12343TIP3    H136974   4.320   2.082   6.490
12343TIP3    H236975   4.280   2.043   6.349
12344TIP3   OH236976   4.694   4.724   4.685
12344TIP3    H136977   4.617   4.766   4.646
12344TIP3    H236978   4.742   4.688   4.611
12345TIP3   OH236979   2.983   5.557   1.026
12345TIP3    H136980   2.966   5.521   0.939
12345TIP3    H236981   2.940   5.643   1.025
12346TIP3   OH236982   3.972   1.966   5.895
12346TIP3    H136983   4.024   1.982   5.816
12346TIP3    H236984   3.932   1.881   5.881
12347TIP3   OH236985   1.791   7.223   3.274
12347TIP3    H136986   1.809   7.269   3.192
12347TIP3    H236987   1.742   7.286   3.327
12348TIP3   OH236988   6.557   5.881   0.831
12348TIP3    H136989   6.493   5.889   0.760
12348TIP3    H236990   6.551   5.964   0.878
12349TIP3   OH236991   5.840   2.474   5.749
12349TIP3    H136992   5.930   2.443   5.741
12349TIP3    H236993   5.786   2.403   5.715
12350TIP3   OH236994   3.470   1.394   6.303
12350TIP3    H136995   3.539   1.332   6.326
12350TIP3    H236996   3.466   1.454   6.378
12351TIP3   OH236997   2.597   1.473   1.188
12351TIP3    H136998   2.612   1.433   1.103
12351TIP3    H236999   2.682   1.508   1.213
12352TIP3   OH237000   5.421   5.399   1.030
12352TIP3    H137001   5.416   5.332   0.962
12352TIP3    H237002   5.339   5.388   1.080
12353TIP3   OH237003   8.146   3.726   1.422
12353TIP3    H137004   8.051   3.724   1.408
12353TIP3    H237005   8.183   3.698   1.339
12354TIP3   OH237006   7.974   2.534   3.589
12354TIP3    H137007   7.977   2.622   3.628
12354TIP3    H237008   7.982   2.548   3.495
12355TIP3   OH237009   0.576   2.346   0.369
12355TIP3    H137010   0.592   2.359   0.462
12355TIP3    H237011   0.489   2.308   0.364
12356TIP3   OH237012   0.407   3.532   4.370
12356TIP3    H137013   0.443   3.445   4.351
12356TIP3    H237014   0.328   3.514   4.421
12357TIP3   OH237015   4.189   3.576   0.284
12357TIP3    H137016   4.245   3.583   0.362
12357TIP3    H237017   4.137   3.497   0.300
12358TIP3   OH237018   5.232   5.854   1.630
12358TIP3    H137019   5.323   5.824   1.633
12358TIP3    H237020   5.208   5.847   1.537
12359TIP3   OH237021   1.022   6.205   4.460
12359TIP3    H137022   1.062   6.120   4.442
12359TIP3    H237023   0.939   6.203   4.412
12360TIP3   OH237024   6.580   0.279   5.865
12360TIP3    H137025   6.653   0.234   5.822
12360TIP3    H237026   6.544   0.337   5.798
12361TIP3   OH237027   7.141   2.246   3.170
12361TIP3    H137028   7.100   2.325   3.137
12361TIP3    H237029   7.077   2.209   3.231
12362TIP3   OH237030   4.325   0.464   1.979
12362TIP3    H137031   4.381   0.386   1.974
12362TIP3    H237032   4.385   0.537   1.990
12363TIP3   OH237033   3.933   2.961   2.296
12363TIP3    H137034   3.906   2.884   2.345
12363TIP3    H237035   3.853   2.992   2.253
12364TIP3   OH237036   7.556   4.236   5.576
12364TIP3    H137037   7.516   4.313   5.535
12364TIP3    H237038   7.604   4.194   5.504
12365TIP3   OH237039   1.296   2.272   0.744
12365TIP3    H137040   1.207   2.280   0.709
12365TIP3    H237041   1.339   2.354   0.720
12366TIP3   OH237042   6.593   6.220   2.323
12366TIP3    H137043   6.564   6.259   2.240
12366TIP3    H237044   6.668   6.166   2.298
12367TIP3   OH237045   7.146   0.118   2.679
12367TIP3    H137046   7.179   0.207   2.689
12367TIP3    H237047   7.151   0.080   2.766
12368TIP3   OH237048   6.049   0.475   0.488
12368TIP3    H137049   6.011   0.441   0.407
12368TIP3    H237050   5.976   0.480   0.549
12369TIP3   OH237051   2.365   5.487   4.323
12369TIP3    H137052   2.283   5.489   4.373
12369TIP3    H237053   2.339   5.464   4.234
12370TIP3   OH237054   7.998   1.022   0.323
12370TIP3    H137055   8.042   1.002   0.406
12370TIP3    H237056   8.019   1.114   0.306
12371TIP3   OH237057   3.687   0.042   1.807
12371TIP3    H137058   3.631   0.116   1.785
12371TIP3    H237059   3.730   0.069   1.888
12372TIP3   OH237060   5.055   5.580   5.885
12372TIP3    H137061   5.002   5.622   5.818
12372TIP3    H237062   5.138   5.629   5.884
12373TIP3   OH237063   2.956   6.762   4.675
12373TIP3    H137064   3.010   6.838   4.657
12373TIP3    H237065   3.004   6.713   4.742
12374TIP3   OH237066   2.818   3.630   0.834
12374TIP3    H137067   2.771   3.548   0.815
12374TIP3    H237068   2.849   3.618   0.924
12375TIP3   OH237069   4.526   7.085   4.859
12375TIP3    H137070   4.564   7.055   4.942
12375TIP3    H237071   4.494   7.005   4.817
12376TIP3   OH237072   6.714   5.699   2.740
12376TIP3    H137073   6.760   5.630   2.693
12376TIP3    H237074   6.758   5.703   2.825
12377TIP3   OH237075   5.968   1.430   2.925
12377TIP3    H137076   6.034   1.365   2.947
12377TIP3    H237077   5.902   1.421   2.994
12378TIP3   OH237078   6.345   5.766   2.021
12378TIP3    H137079   6.430   5.723   2.034
12378TIP3    H237080   6.359   5.824   1.946
12379TIP3   OH237081   0.038   5.716   2.823
12379TIP3    H137082  -0.012   5.688   2.900
12379TIP3    H237083  -0.011   5.790   2.788
12380TIP3   OH237084   6.276   0.172   3.901
12380TIP3    H137085   6.212   0.242   3.912
12380TIP3    H237086   6.361   0.216   3.901
12381TIP3   OH237087   2.199   2.292   3.700
12381TIP3    H137088   2.201   2.197   3.695
12381TIP3    H237089   2.268   2.314   3.762
12382TIP3   OH237090   3.347   6.342   4.179
12382TIP3    H137091   3.258   6.369   4.200
12382TIP3    H237092   3.371   6.281   4.249
12383TIP3   OH237093   0.930   7.352   5.556
12383TIP3    H137094   0.883   7.282   5.601
12383TIP3    H237095   1.016   7.315   5.536
12384TIP3   OH237096   6.002   2.980   6.003
12384TIP3    H137097   5.906   2.982   5.998
12384TIP3    H237098   6.020   2.941   6.088
12385TIP3   OH237099   6.854   4.487   6.222
12385TIP3    H137100   6.812   4.404   6.199
12385TIP3    H237101   6.876   4.527   6.138
12386TIP3   OH237102   3.700   4.511   6.106
12386TIP3    H137103   3.684   4.426   6.065
12386TIP3    H237104   3.795   4.521   6.102
12387TIP3   OH237105   0.057   1.539   0.443
12387TIP3    H137106   0.100   1.454   0.451
12387TIP3    H237107   0.099   1.593   0.510
12388TIP3   OH237108   6.694   3.360   4.872
12388TIP3    H137109   6.671   3.306   4.798
12388TIP3    H237110   6.787   3.342   4.888
12389TIP3   OH237111   4.714   3.868   1.562
12389TIP3    H137112   4.794   3.876   1.510
12389TIP3    H237113   4.643   3.872   1.497
12390TIP3   OH237114   6.720   7.063   5.319
12390TIP3    H137115   6.711   7.043   5.412
12390TIP3    H237116   6.734   7.158   5.316
12391TIP3   OH237117   4.336   1.846   3.776
12391TIP3    H137118   4.275   1.811   3.711
12391TIP3    H237119   4.416   1.795   3.763
12392TIP3   OH237120   3.309   7.568   5.332
12392TIP3    H137121   3.251   7.501   5.295
12392TIP3    H237122   3.335   7.621   5.256
12393TIP3   OH237123   8.034   4.159   4.349
12393TIP3    H137124   8.084   4.240   4.357
12393TIP3    H237125   8.100   4.092   4.332
12394TIP3   OH237126   3.187   6.735   1.083
12394TIP3    H137127   3.259   6.748   1.021
12394TIP3    H237128   3.140   6.818   1.082
12395TIP3   OH237129   8.160   4.789   4.879
12395TIP3    H137130   8.081   4.844   4.885
12395TIP3    H237131   8.201   4.796   4.965
12396TIP3   OH237132   6.750   1.479   3.066
12396TIP3    H137133   6.793   1.562   3.046
12396TIP3    H237134   6.720   1.446   2.981
12397TIP3   OH237135   4.263   1.009   0.034
12397TIP3    H137136   4.176   0.993  -0.001
12397TIP3    H237137   4.253   0.996   0.129
12398TIP3   OH237138   2.293   1.693   1.805
12398TIP3    H137139   2.357   1.718   1.872
12398TIP3    H237140   2.341   1.702   1.722
12399TIP3   OH237141   6.686   1.337   1.525
12399TIP3    H137142   6.673   1.329   1.619
12399TIP3    H237143   6.601   1.366   1.491
12400TIP3   OH237144   3.755   2.250   3.075
12400TIP3    H137145   3.677   2.298   3.046
12400TIP3    H237146   3.783   2.296   3.154
12401TIP3   OH237147   0.071   1.469   3.564
12401TIP3    H137148   0.138   1.484   3.498
12401TIP3    H237149  -0.011   1.461   3.515
12402TIP3   OH237150   3.797   4.973   6.389
12402TIP3    H137151   3.718   4.974   6.334
12402TIP3    H237152   3.766   4.999   6.476
12403TIP3   OH237153   6.069   0.857   6.546
12403TIP3    H137154   6.105   0.774   6.578
12403TIP3    H237155   5.975   0.847   6.553
12404TIP3   OH237156   6.379   4.872   1.647
12404TIP3    H137157   6.399   4.958   1.611
12404TIP3    H237158   6.296   4.884   1.694
12405TIP3   OH237159   2.441   3.146   3.441
12405TIP3    H137160   2.454   3.077   3.376
12405TIP3    H237161   2.358   3.124   3.484
12406TIP3   OH237162   1.832   6.006   4.666
12406TIP3    H137163   1.839   5.929   4.722
12406TIP3    H237164   1.849   5.972   4.578
12407TIP3   OH237165   7.005   6.756   3.167
12407TIP3    H137166   7.095   6.724   3.159
12407TIP3    H237167   6.999   6.828   3.104
12408TIP3   OH237168   2.918   3.998   0.440
12408TIP3    H137169   2.854   3.961   0.501
12408TIP3    H237170   2.870   4.006   0.357
12409TIP3   OH237171   5.243   5.378   1.424
12409TIP3    H137172   5.178   5.399   1.490
12409TIP3    H237173   5.194   5.373   1.342
12410TIP3   OH237174   2.366   6.304   3.443
12410TIP3    H137175   2.348   6.259   3.526
12410TIP3    H237176   2.307   6.262   3.380
12411TIP3   OH237177   1.252   7.634   3.386
12411TIP3    H137178   1.210   7.693   3.449
12411TIP3    H237179   1.299   7.693   3.327
12412TIP3   OH237180   0.358   0.252   4.915
12412TIP3    H137181   0.386   0.162   4.931
12412TIP3    H237182   0.429   0.305   4.951
12413TIP3   OH237183   0.196   5.595   3.502
12413TIP3    H137184   0.217   5.509   3.538
12413TIP3    H237185   0.155   5.642   3.575
12414TIP3   OH237186   6.776   2.918   4.342
12414TIP3    H137187   6.773   2.827   4.370
12414TIP3    H237188   6.856   2.953   4.382
12415TIP3   OH237189   5.056   6.101   1.126
12415TIP3    H137190   5.120   6.046   1.081
12415TIP3    H237191   4.972   6.060   1.109
12416TIP3   OH237192   7.586   3.730   3.784
12416TIP3    H137193   7.549   3.793   3.845
12416TIP3    H237194   7.577   3.771   3.698
12417TIP3   OH237195   2.336   0.747   6.139
12417TIP3    H137196   2.278   0.760   6.064
12417TIP3    H237197   2.394   0.675   6.113
12418TIP3   OH237198   5.703   2.793   1.159
12418TIP3    H137199   5.798   2.788   1.170
12418TIP3    H237200   5.688   2.877   1.116
12419TIP3   OH237201   3.442   4.463   5.805
12419TIP3    H137202   3.372   4.478   5.869
12419TIP3    H237203   3.508   4.413   5.854
12420TIP3   OH237204   6.273   4.570   0.780
12420TIP3    H137205   6.335   4.515   0.732
12420TIP3    H237206   6.236   4.512   0.847
12421TIP3   OH237207   0.716   2.712   2.105
12421TIP3    H137208   0.671   2.666   2.034
12421TIP3    H237209   0.771   2.645   2.146
12422TIP3   OH237210   0.855   4.027   5.724
12422TIP3    H137211   0.821   4.114   5.742
12422TIP3    H237212   0.864   4.023   5.629
12423TIP3   OH237213   1.002   2.605   1.353
12423TIP3    H137214   1.075   2.559   1.313
12423TIP3    H237215   1.025   2.698   1.344
12424TIP3   OH237216   1.870   7.577   6.037
12424TIP3    H137217   1.881   7.600   5.945
12424TIP3    H237218   1.953   7.536   6.061
12425TIP3   OH237219   3.948   2.073   0.958
12425TIP3    H137220   4.017   2.015   0.926
12425TIP3    H237221   3.983   2.108   1.040
12426TIP3   OH237222   1.993   5.365   5.973
12426TIP3    H137223   2.043   5.323   5.903
12426TIP3    H237224   2.036   5.449   5.988
12427TIP3   OH237225   1.120   2.461   1.090
12427TIP3    H137226   1.121   2.367   1.072
12427TIP3    H237227   1.036   2.491   1.057
12428TIP3   OH237228   6.604   1.834   1.892
12428TIP3    H137229   6.625   1.743   1.870
12428TIP3    H237230   6.676   1.885   1.854
12429TIP3   OH237231   3.394   5.691   3.677
12429TIP3    H137232   3.384   5.718   3.586
12429TIP3    H237233   3.422   5.770   3.723
12430TIP3   OH237234   1.795   2.207   3.926
12430TIP3    H137235   1.714   2.220   3.876
12430TIP3    H237236   1.774   2.238   4.014
12431TIP3   OH237237   0.024   4.019   5.168
12431TIP3    H137238   0.082   4.088   5.135
12431TIP3    H237239  -0.062   4.042   5.133
12432TIP3   OH237240   3.650   4.598   1.213
12432TIP3    H137241   3.564   4.639   1.204
12432TIP3    H237242   3.710   4.660   1.171
12433TIP3   OH237243   1.763   4.260   1.674
12433TIP3    H137244   1.730   4.306   1.751
12433TIP3    H237245   1.707   4.291   1.602
12434TIP3   OH237246   2.159   7.494   6.160
12434TIP3    H137247   2.214   7.440   6.104
12434TIP3    H237248   2.176   7.463   6.248
12435TIP3   OH237249   8.184   3.297   1.031
12435TIP3    H137250   8.268   3.334   1.004
12435TIP3    H237251   8.180   3.311   1.125
12436TIP3   OH237252   6.071   5.734   1.221
12436TIP3    H137253   6.111   5.790   1.155
12436TIP3    H237254   6.058   5.650   1.177
12437TIP3   OH237255   5.495   5.701   6.509
12437TIP3    H137256   5.550   5.726   6.435
12437TIP3    H237257   5.412   5.745   6.494
12438TIP3   OH237258   5.442   7.666   5.506
12438TIP3    H137259   5.501   7.659   5.582
12438TIP3    H237260   5.462   7.589   5.453
12439TIP3   OH237261   7.970   1.300   1.700
12439TIP3    H137262   7.980   1.285   1.794
12439TIP3    H237263   7.876   1.301   1.686
12440TIP3   OH237264   0.218   1.582   5.381
12440TIP3    H137265   0.169   1.503   5.360
12440TIP3    H237266   0.156   1.654   5.367
12441TIP3   OH237267   2.787   4.078   5.145
12441TIP3    H137268   2.780   4.157   5.091
12441TIP3    H237269   2.854   4.100   5.210
12442TIP3   OH237270   0.722   6.856   5.784
12442TIP3    H137271   0.629   6.873   5.772
12442TIP3    H237272   0.728   6.761   5.794
12443TIP3   OH237273   3.405   2.845   4.389
12443TIP3    H137274   3.477   2.787   4.415
12443TIP3    H237275   3.438   2.933   4.404
12444TIP3   OH237276   1.255   5.201   2.555
12444TIP3    H137277   1.195   5.237   2.620
12444TIP3    H237278   1.234   5.247   2.474
12445TIP3   OH237279   8.258   2.029   1.956
12445TIP3    H137280   8.255   2.066   2.044
12445TIP3    H237281   8.175   2.056   1.916
12446TIP3   OH237282   6.126   2.035   0.945
12446TIP3    H137283   6.180   1.957   0.930
12446TIP3    H237284   6.085   2.021   1.030
12447TIP3   OH237285   0.157   6.406   4.021
12447TIP3    H137286   0.223   6.404   3.952
12447TIP3    H237287   0.082   6.360   3.983
12448TIP3   OH237288   5.675   0.984   6.053
12448TIP3    H137289   5.679   1.033   6.136
12448TIP3    H237290   5.620   1.038   5.996
12449TIP3   OH237291   5.396   4.919   3.479
12449TIP3    H137292   5.487   4.906   3.507
12449TIP3    H237293   5.401   4.928   3.384
12450TIP3   OH237294   1.503   4.019   0.356
12450TIP3    H137295   1.495   4.048   0.265
12450TIP3    H237296   1.472   4.094   0.407
12451TIP3   OH237297   2.109   2.411   0.384
12451TIP3    H137298   2.126   2.337   0.442
12451TIP3    H237299   2.184   2.469   0.397
12452TIP3   OH237300   7.412   2.052   0.973
12452TIP3    H137301   7.459   1.969   0.965
12452TIP3    H237302   7.452   2.095   1.048
12453TIP3   OH237303   1.906   7.231   2.666
12453TIP3    H137304   1.847   7.301   2.693
12453TIP3    H237305   1.932   7.254   2.577
12454TIP3   OH237306   6.265   4.320   5.005
12454TIP3    H137307   6.310   4.354   5.082
12454TIP3    H237308   6.296   4.375   4.933
12455TIP3   OH237309   3.020   5.036   6.003
12455TIP3    H137310   3.003   5.126   5.977
12455TIP3    H237311   2.993   5.033   6.095
12456TIP3   OH237312   1.908   5.722   6.525
12456TIP3    H137313   1.979   5.683   6.473
12456TIP3    H237314   1.880   5.798   6.475
12457TIP3   OH237315   1.922   4.654   2.450
12457TIP3    H137316   1.953   4.744   2.440
12457TIP3    H237317   1.838   4.653   2.403
12458TIP3   OH237318   7.429   7.175   3.026
12458TIP3    H137319   7.451   7.173   2.933
12458TIP3    H237320   7.475   7.100   3.063
12459TIP3   OH237321   3.302   0.497   1.166
12459TIP3    H137322   3.225   0.554   1.169
12459TIP3    H237323   3.375   0.555   1.190
12460TIP3   OH237324   1.267   3.308   5.690
12460TIP3    H137325   1.352   3.303   5.647
12460TIP3    H237326   1.222   3.228   5.663
12461TIP3   OH237327   6.462   4.779   0.771
12461TIP3    H137328   6.547   4.736   0.769
12461TIP3    H237329   6.399   4.709   0.756
12462TIP3   OH237330   6.581   2.320   2.806
12462TIP3    H137331   6.543   2.384   2.746
12462TIP3    H237332   6.673   2.314   2.780
12463TIP3   OH237333   7.578   5.902   0.338
12463TIP3    H137334   7.547   5.958   0.267
12463TIP3    H237335   7.613   5.963   0.404
12464TIP3   OH237336   7.687   5.905   5.012
12464TIP3    H137337   7.652   5.923   5.099
12464TIP3    H237338   7.772   5.863   5.029
12465TIP3   OH237339   0.813   6.220   4.271
12465TIP3    H137340   0.801   6.305   4.229
12465TIP3    H237341   0.862   6.168   4.208
12466TIP3   OH237342   2.895   5.826   5.832
12466TIP3    H137343   2.987   5.846   5.814
12466TIP3    H237344   2.870   5.764   5.764
12467TIP3   OH237345   1.276   3.893   1.212
12467TIP3    H137346   1.289   3.981   1.177
12467TIP3    H237347   1.304   3.899   1.303
12468TIP3   OH237348   0.273   3.276   2.308
12468TIP3    H137349   0.304   3.226   2.383
12468TIP3    H237350   0.270   3.367   2.338
12469TIP3   OH237351   8.172   3.551   4.233
12469TIP3    H137352   8.121   3.631   4.248
12469TIP3    H237353   8.108   3.480   4.236
12470TIP3   OH237354   1.724   4.538   5.981
12470TIP3    H137355   1.723   4.595   6.058
12470TIP3    H237356   1.644   4.486   5.989
12471TIP3   OH237357   6.427   3.816   5.124
12471TIP3    H137358   6.422   3.777   5.037
12471TIP3    H237359   6.503   3.773   5.165
12472TIP3   OH237360   0.364   3.265   1.773
12472TIP3    H137361   0.336   3.280   1.864
12472TIP3    H237362   0.460   3.262   1.779
12473TIP3   OH237363   3.886   4.449   2.968
12473TIP3    H137364   3.826   4.466   3.042
12473TIP3    H237365   3.957   4.512   2.980
12474TIP3   OH237366   2.938   1.538   5.032
12474TIP3    H137367   2.937   1.628   5.063
12474TIP3    H237368   2.854   1.527   4.988
12475TIP3   OH237369   1.603   4.425   6.585
12475TIP3    H137370   1.626   4.422   6.492
12475TIP3    H237371   1.628   4.513   6.613
12476TIP3   OH237372   0.847   4.752   2.370
12476TIP3    H137373   0.937   4.727   2.387
12476TIP3    H237374   0.808   4.762   2.456
12477TIP3   OH237375   5.322   2.178   3.002
12477TIP3    H137376   5.340   2.167   2.909
12477TIP3    H237377   5.287   2.094   3.030
12478TIP3   OH237378   3.963   1.413   0.637
12478TIP3    H137379   3.906   1.488   0.619
12478TIP3    H237380   4.026   1.445   0.701
12479TIP3   OH237381   1.210   6.270   0.993
12479TIP3    H137382   1.269   6.216   1.046
12479TIP3    H237383   1.125   6.260   1.035
12480TIP3   OH237384   3.869   5.149   0.172
12480TIP3    H137385   3.941   5.208   0.195
12480TIP3    H237386   3.867   5.150   0.076
12481TIP3   OH237387   3.529   6.742   4.200
12481TIP3    H137388   3.620   6.749   4.227
12481TIP3    H237389   3.480   6.792   4.265
12482TIP3   OH237390   6.100   5.923   6.667
12482TIP3    H137391   6.135   5.944   6.753
12482TIP3    H237392   6.150   5.978   6.606
12483TIP3   OH237393   0.487   0.458   3.734
12483TIP3    H137394   0.443   0.443   3.817
12483TIP3    H237395   0.490   0.553   3.725
12484TIP3   OH237396   0.025   6.288   6.019
12484TIP3    H137397   0.053   6.374   6.052
12484TIP3    H237398   0.085   6.270   5.947
12485TIP3   OH237399   5.250   2.405   4.651
12485TIP3    H137400   5.252   2.384   4.557
12485TIP3    H237401   5.161   2.385   4.678
12486TIP3   OH237402   5.121   7.494   0.679
12486TIP3    H137403   5.068   7.414   0.675
12486TIP3    H237404   5.125   7.524   0.588
12487TIP3   OH237405   2.377   3.558   0.455
12487TIP3    H137406   2.426   3.581   0.376
12487TIP3    H237407   2.422   3.482   0.491
12488TIP3   OH237408   3.264   6.334   0.255
12488TIP3    H137409   3.243   6.286   0.175
12488TIP3    H237410   3.182   6.334   0.305
12489TIP3   OH237411   2.519   6.773   0.464
12489TIP3    H137412   2.465   6.780   0.543
12489TIP3    H237413   2.601   6.815   0.488
12490TIP3   OH237414   0.049   2.472   1.842
12490TIP3    H137415   0.010   2.555   1.868
12490TIP3    H237416   0.050   2.475   1.746
12491TIP3   OH237417   6.610   0.606   3.724
12491TIP3    H137418   6.695   0.597   3.681
12491TIP3    H237419   6.613   0.691   3.767
12492TIP3   OH237420   1.832   1.062   5.234
12492TIP3    H137421   1.843   1.148   5.192
12492TIP3    H237422   1.783   1.081   5.314
12493TIP3   OH237423   2.839   6.992   1.230
12493TIP3    H137424   2.814   6.970   1.320
12493TIP3    H237425   2.798   7.077   1.214
12494TIP3   OH237426   0.234   7.087   6.385
12494TIP3    H137427   0.230   7.120   6.295
12494TIP3    H237428   0.265   6.996   6.376
12495TIP3   OH237429   4.869   1.119   2.932
12495TIP3    H137430   4.858   1.079   2.846
12495TIP3    H237431   4.783   1.156   2.952
12496TIP3   OH237432   0.230   5.106   4.085
12496TIP3    H137433   0.323   5.099   4.064
12496TIP3    H237434   0.227   5.112   4.181
12497TIP3   OH237435   2.917   0.599   4.992
12497TIP3    H137436   2.843   0.608   5.052
12497TIP3    H237437   2.992   0.633   5.040
12498TIP3   OH237438   4.350   6.199   1.358
12498TIP3    H137439   4.259   6.185   1.330
12498TIP3    H237440   4.400   6.198   1.277
12499TIP3   OH237441   2.762   3.474   6.636
12499TIP3    H137442   2.672   3.502   6.618
12499TIP3    H237443   2.814   3.515   6.567
12500TIP3   OH237444   2.616   5.792   5.757
12500TIP3    H137445   2.573   5.871   5.725
12500TIP3    H237446   2.680   5.770   5.689
12501TIP3   OH237447   6.956   7.283   1.517
12501TIP3    H137448   6.938   7.372   1.548
12501TIP3    H237449   6.921   7.281   1.428
12502TIP3   OH237450   8.136   6.572   4.948
12502TIP3    H137451   8.230   6.590   4.943
12502TIP3    H237452   8.119   6.559   5.041
12503TIP3   OH237453   3.642   4.896   0.768
12503TIP3    H137454   3.711   4.832   0.751
12503TIP3    H237455   3.626   4.938   0.684
12504TIP3   OH237456   5.198   4.718   3.822
12504TIP3    H137457   5.180   4.691   3.912
12504TIP3    H237458   5.265   4.786   3.830
12505TIP3   OH237459   0.501   0.323   6.070
12505TIP3    H137460   0.540   0.281   6.146
12505TIP3    H237461   0.564   0.391   6.046
12506TIP3   OH237462   2.432   7.813   6.588
12506TIP3    H137463   2.397   7.786   6.673
12506TIP3    H237464   2.523   7.785   6.590
12507TIP3   OH237465   2.780   1.249   0.101
12507TIP3    H137466   2.840   1.176   0.116
12507TIP3    H237467   2.837   1.322   0.075
12508TIP3   OH237468   2.666   4.267   0.289
12508TIP3    H137469   2.633   4.183   0.322
12508TIP3    H237470   2.616   4.282   0.209
12509TIP3   OH237471   6.113   0.642   4.418
12509TIP3    H137472   6.179   0.643   4.487
12509TIP3    H237473   6.030   0.634   4.464
12510TIP3   OH237474   5.496   4.106   3.669
12510TIP3    H137475   5.478   4.014   3.687
12510TIP3    H237476   5.463   4.120   3.580
12511TIP3   OH237477   1.392   0.353   5.785
12511TIP3    H137478   1.327   0.295   5.744
12511TIP3    H237479   1.339   0.425   5.820
12512TIP3   OH237480   6.525   2.985   4.247
12512TIP3    H137481   6.496   2.958   4.160
12512TIP3    H237482   6.560   2.905   4.286
12513TIP3   OH237483   0.964   6.674   6.598
12513TIP3    H137484   0.895   6.681   6.533
12513TIP3    H237485   1.027   6.612   6.559
12514TIP3   OH237486   3.259   2.283   5.407
12514TIP3    H137487   3.190   2.270   5.473
12514TIP3    H237488   3.311   2.203   5.410
12515TIP3   OH237489   6.465   6.132   2.751
12515TIP3    H137490   6.506   6.201   2.699
12515TIP3    H237491   6.399   6.176   2.803
12516TIP3   OH237492   2.939   0.436   1.172
12516TIP3    H137493   2.907   0.475   1.254
12516TIP3    H237494   2.998   0.366   1.201
12517TIP3   OH237495   2.185   7.480   6.517
12517TIP3    H137496   2.256   7.500   6.578
12517TIP3    H237497   2.105   7.501   6.566
12518TIP3   OH237498   2.981   5.976   4.402
12518TIP3    H137499   3.050   5.947   4.461
12518TIP3    H237500   2.957   6.063   4.433
12519TIP3   OH237501   7.449   1.420   6.340
12519TIP3    H137502   7.364   1.446   6.376
12519TIP3    H237503   7.431   1.399   6.248
12520TIP3   OH237504   5.525   2.004   2.070
12520TIP3    H137505   5.611   1.984   2.035
12520TIP3    H237506   5.529   2.097   2.092
12521TIP3   OH237507   4.274   5.829   0.895
12521TIP3    H137508   4.236   5.828   0.808
12521TIP3    H237509   4.237   5.751   0.938
12522TIP3   OH237510   1.791   4.654   3.916
12522TIP3    H137511   1.882   4.681   3.910
12522TIP3    H237512   1.794   4.566   3.953
12523TIP3   OH237513   2.708   0.802   2.079
12523TIP3    H137514   2.719   0.752   1.999
12523TIP3    H237515   2.767   0.877   2.069
12524TIP3   OH237516   7.007   0.427   6.179
12524TIP3    H137517   6.954   0.485   6.232
12524TIP3    H237518   6.949   0.354   6.157
12525TIP3   OH237519   6.843   5.728   4.931
12525TIP3    H137520   6.915   5.711   4.992
12525TIP3    H237521   6.836   5.648   4.879
12526TIP3   OH237522   5.626   0.426   0.433
12526TIP3    H137523   5.659   0.336   0.437
12526TIP3    H237524   5.535   0.416   0.404
12527TIP3   OH237525   5.529   4.565   4.102
12527TIP3    H137526   5.542   4.504   4.175
12527TIP3    H237527   5.491   4.512   4.032
12528TIP3   OH237528   1.593   5.306   4.670
12528TIP3    H137529   1.659   5.288   4.737
12528TIP3    H237530   1.639   5.296   4.587
12529TIP3   OH237531   0.621   2.561   6.002
12529TIP3    H137532   0.613   2.486   6.061
12529TIP3    H237533   0.716   2.573   5.992
12530TIP3   OH237534   4.159   0.613   6.640
12530TIP3    H137535   4.193   0.701   6.655
12530TIP3    H237536   4.237   0.560   6.622
12531TIP3   OH237537   4.232   6.496   4.395
12531TIP3    H137538   4.254   6.481   4.304
12531TIP3    H237539   4.222   6.591   4.403
12532TIP3   OH237540   7.144   4.364   4.400
12532TIP3    H137541   7.181   4.438   4.352
12532TIP3    H237542   7.110   4.305   4.332
12533TIP3   OH237543   5.829   1.280   1.702
12533TIP3    H137544   5.740   1.285   1.735
12533TIP3    H237545   5.830   1.340   1.627
12534TIP3   OH237546   1.187   5.958   4.528
12534TIP3    H137547   1.220   5.903   4.599
12534TIP3    H237548   1.123   6.016   4.570
12535TIP3   OH237549   4.969   5.120   0.025
12535TIP3    H137550   4.874   5.130   0.022
12535TIP3    H237551   4.985   5.029   0.003
12536TIP3   OH237552   7.848   1.238   3.741
12536TIP3    H137553   7.887   1.152   3.756
12536TIP3    H237554   7.757   1.219   3.716
12537TIP3   OH237555   3.568   5.536   0.799
12537TIP3    H137556   3.550   5.532   0.705
12537TIP3    H237557   3.626   5.611   0.810
12538TIP3   OH237558   8.043   5.155   0.831
12538TIP3    H137559   7.982   5.091   0.869
12538TIP3    H237560   8.047   5.132   0.738
12539TIP3   OH237561   3.775   3.410   5.128
12539TIP3    H137562   3.757   3.371   5.214
12539TIP3    H237563   3.819   3.340   5.079
12540TIP3   OH237564   1.942   4.162   2.280
12540TIP3    H137565   1.982   4.219   2.345
12540TIP3    H237566   1.980   4.192   2.196
12541TIP3   OH237567   6.221   4.595   1.789
12541TIP3    H137568   6.143   4.557   1.830
12541TIP3    H237569   6.220   4.687   1.815
12542TIP3   OH237570   5.266   5.284   5.710
12542TIP3    H137571   5.217   5.263   5.631
12542TIP3    H237572   5.346   5.232   5.702
12543TIP3   OH237573   3.108   4.460   4.216
12543TIP3    H137574   3.173   4.487   4.281
12543TIP3    H237575   3.147   4.385   4.171
12544TIP3   OH237576   0.508   6.281   0.688
12544TIP3    H137577   0.538   6.290   0.597
12544TIP3    H237578   0.435   6.342   0.695
12545TIP3   OH237579   4.646   7.497   0.659
12545TIP3    H137580   4.701   7.535   0.590
12545TIP3    H237581   4.657   7.556   0.734
12546TIP3   OH237582   1.097   6.001   5.139
12546TIP3    H137583   1.033   6.060   5.177
12546TIP3    H237584   1.049   5.953   5.072
12547TIP3   OH237585   0.531   0.061   2.790
12547TIP3    H137586   0.596   0.030   2.854
12547TIP3    H237587   0.561   0.025   2.706
12548TIP3   OH237588   5.735   3.733   2.363
12548TIP3    H137589   5.815   3.680   2.370
12548TIP3    H237590   5.695   3.728   2.450
12549TIP3   OH237591   1.871   3.925   5.365
12549TIP3    H137592   1.828   4.000   5.326
12549TIP3    H237593   1.880   3.862   5.293
12550TIP3   OH237594   0.909   1.803   6.630
12550TIP3    H137595   0.859   1.776   6.706
12550TIP3    H237596   0.998   1.770   6.647
12551TIP3   OH237597   4.239   3.431   1.480
12551TIP3    H137598   4.285   3.347   1.477
12551TIP3    H237599   4.303   3.495   1.449
12552TIP3   OH237600   7.513   4.751   6.548
12552TIP3    H137601   7.583   4.687   6.563
12552TIP3    H237602   7.499   4.791   6.634
12553TIP3   OH237603   4.489   5.641   0.044
12553TIP3    H137604   4.504   5.735   0.036
12553TIP3    H237605   4.395   5.632   0.055
12554TIP3   OH237606   0.150   2.991   3.522
12554TIP3    H137607   0.211   3.029   3.585
12554TIP3    H237608   0.077   3.051   3.519
12555TIP3   OH237609   3.066   2.849   4.866
12555TIP3    H137610   3.047   2.794   4.790
12555TIP3    H237611   2.981   2.884   4.892
12556TIP3   OH237612   8.007   4.606   6.220
12556TIP3    H137613   8.016   4.687   6.270
12556TIP3    H237614   7.937   4.557   6.264
12557TIP3   OH237615   6.742   4.697   1.088
12557TIP3    H137616   6.661   4.748   1.086
12557TIP3    H237617   6.805   4.750   1.039
12558TIP3   OH237618   5.120   0.211   5.987
12558TIP3    H137619   5.208   0.173   5.994
12558TIP3    H237620   5.087   0.180   5.902
12559TIP3   OH237621   6.567   3.261   4.138
12559TIP3    H137622   6.616   3.189   4.177
12559TIP3    H237623   6.514   3.219   4.070
12560TIP3   OH237624   0.046   4.019   2.679
12560TIP3    H137625   0.028   4.075   2.604
12560TIP3    H237626  -0.020   4.045   2.744
12561TIP3   OH237627   1.463   6.879   4.756
12561TIP3    H137628   1.390   6.886   4.818
12561TIP3    H237629   1.460   6.788   4.727
12562TIP3   OH237630   2.776   2.722   5.747
12562TIP3    H137631   2.808   2.813   5.747
12562TIP3    H237632   2.849   2.671   5.711
12563TIP3   OH237633   4.589   1.689   3.835
12563TIP3    H137634   4.667   1.666   3.887
12563TIP3    H237635   4.619   1.757   3.776
12564TIP3   OH237636   2.874   3.714   0.373
12564TIP3    H137637   2.812   3.781   0.343
12564TIP3    H237638   2.819   3.642   0.404
12565TIP3   OH237639   5.541   4.038   5.857
12565TIP3    H137640   5.450   4.008   5.846
12565TIP3    H237641   5.547   4.061   5.950
12566TIP3   OH237642   7.288   3.610   3.679
12566TIP3    H137643   7.348   3.563   3.737
12566TIP3    H237644   7.217   3.639   3.737
12567TIP3   OH237645   7.492   2.450   5.380
12567TIP3    H137646   7.404   2.443   5.418
12567TIP3    H237647   7.508   2.545   5.377
12568TIP3   OH237648   0.983   0.357   5.361
12568TIP3    H137649   0.907   0.414   5.348
12568TIP3    H237650   0.948   0.280   5.407
12569TIP3   OH237651   4.265   3.955   5.785
12569TIP3    H137652   4.239   3.889   5.721
12569TIP3    H237653   4.230   3.922   5.868
12570TIP3   OH237654   7.295   0.077   0.743
12570TIP3    H137655   7.206   0.049   0.766
12570TIP3    H237656   7.286   0.113   0.655
12571TIP3   OH237657   6.768   0.040   3.664
12571TIP3    H137658   6.843   0.098   3.675
12571TIP3    H237659   6.735   0.025   3.752
12572TIP3   OH237660   0.653   3.496   6.390
12572TIP3    H137661   0.601   3.428   6.432
12572TIP3    H237662   0.706   3.533   6.460
12573TIP3   OH237663   1.095   2.228   4.436
12573TIP3    H137664   1.044   2.149   4.449
12573TIP3    H237665   1.044   2.280   4.374
12574TIP3   OH237666   4.089   4.422   5.234
12574TIP3    H137667   4.160   4.377   5.189
12574TIP3    H237668   4.126   4.448   5.318
12575TIP3   OH237669   2.184   7.516   1.894
12575TIP3    H137670   2.202   7.433   1.938
12575TIP3    H237671   2.268   7.540   1.855
12576TIP3   OH237672   4.476   5.509   4.432
12576TIP3    H137673   4.500   5.506   4.339
12576TIP3    H237674   4.503   5.597   4.461
12577TIP3   OH237675   5.517   6.578   2.682
12577TIP3    H137676   5.443   6.520   2.700
12577TIP3    H237677   5.592   6.520   2.672
12578TIP3   OH237678   3.981   1.917   3.995
12578TIP3    H137679   3.934   1.992   4.033
12578TIP3    H237680   3.917   1.845   3.999
12579TIP3   OH237681   2.202   7.126   6.074
12579TIP3    H137682   2.245   7.167   6.149
12579TIP3    H237683   2.214   7.032   6.087
12580TIP3   OH237684   5.766   4.007   2.283
12580TIP3    H137685   5.789   3.921   2.318
12580TIP3    H237686   5.675   4.020   2.311
12581TIP3   OH237687   0.167   6.658   4.120
12581TIP3    H137688   0.154   6.737   4.068
12581TIP3    H237689   0.176   6.588   4.055
12582TIP3   OH237690   3.832   3.339   3.610
12582TIP3    H137691   3.795   3.263   3.565
12582TIP3    H237692   3.761   3.371   3.665
12583TIP3   OH237693   2.072   4.681   2.912
12583TIP3    H137694   1.997   4.739   2.906
12583TIP3    H237695   2.145   4.733   2.880
12584TIP3   OH237696   0.753   7.315   2.317
12584TIP3    H137697   0.833   7.342   2.361
12584TIP3    H237698   0.757   7.219   2.315
12585TIP3   OH237699   4.920   4.206   6.133
12585TIP3    H137700   4.868   4.126   6.123
12585TIP3    H237701   4.993   4.181   6.190
12586TIP3   OH237702   7.106   1.596   2.387
12586TIP3    H137703   7.123   1.618   2.295
12586TIP3    H237704   7.072   1.506   2.384
12587TIP3   OH237705   7.867   2.385   4.701
12587TIP3    H137706   7.775   2.401   4.723
12587TIP3    H237707   7.874   2.412   4.609
12588TIP3   OH237708   5.216   7.191   4.591
12588TIP3    H137709   5.221   7.259   4.659
12588TIP3    H237710   5.298   7.199   4.543
12589TIP3   OH237711   3.021   5.804   5.063
12589TIP3    H137712   2.978   5.848   5.136
12589TIP3    H237713   2.952   5.750   5.024
12590TIP3   OH237714   2.313   3.722   3.473
12590TIP3    H137715   2.272   3.786   3.532
12590TIP3    H237716   2.240   3.685   3.423
12591TIP3   OH237717   4.937   7.448   6.529
12591TIP3    H137718   4.861   7.428   6.474
12591TIP3    H237719   4.900   7.452   6.618
12592TIP3   OH237720   7.459   5.544   6.275
12592TIP3    H137721   7.471   5.454   6.243
12592TIP3    H237722   7.408   5.587   6.207
12593TIP3   OH237723   4.892   4.509   3.275
12593TIP3    H137724   4.973   4.462   3.296
12593TIP3    H237725   4.913   4.601   3.291
12594TIP3   OH237726   7.810   4.007   4.589
12594TIP3    H137727   7.885   4.066   4.581
12594TIP3    H237728   7.838   3.941   4.652
12595TIP3   OH237729   6.117   2.695   5.045
12595TIP3    H137730   6.033   2.737   5.063
12595TIP3    H237731   6.100   2.601   5.052
12596TIP3   OH237732   0.902   3.943   5.469
12596TIP3    H137733   0.964   3.976   5.403
12596TIP3    H237734   0.844   3.885   5.420
12597TIP3   OH237735   7.677   4.837   5.088
12597TIP3    H137736   7.641   4.802   5.170
12597TIP3    H237737   7.768   4.810   5.088
12598TIP3   OH237738   7.160   4.088   4.539
12598TIP3    H137739   7.139   4.024   4.470
12598TIP3    H237740   7.157   4.173   4.495
12599TIP3   OH237741   4.596   5.493   5.014
12599TIP3    H137742   4.631   5.520   4.929
12599TIP3    H237743   4.673   5.485   5.070
12600TIP3   OH237744   5.476   2.328   1.391
12600TIP3    H137745   5.558   2.376   1.382
12600TIP3    H237746   5.488   2.249   1.338
12601TIP3   OH237747   0.680   3.897   3.841
12601TIP3    H137748   0.723   3.942   3.914
12601TIP3    H237749   0.647   3.816   3.879
12602TIP3   OH237750   2.485   2.197   1.163
12602TIP3    H137751   2.510   2.241   1.244
12602TIP3    H237752   2.391   2.215   1.154
12603TIP3   OH237753   1.920   1.670   3.925
12603TIP3    H137754   1.983   1.620   3.874
12603TIP3    H237755   1.840   1.617   3.923
12604TIP3   OH237756   5.635   2.168   2.654
12604TIP3    H137757   5.711   2.113   2.673
12604TIP3    H237758   5.672   2.254   2.634
12605TIP3   OH237759   6.202   4.718   4.950
12605TIP3    H137760   6.151   4.705   4.870
12605TIP3    H237761   6.140   4.701   5.021
12606TIP3   OH237762   8.231   3.947   3.311
12606TIP3    H137763   8.241   3.976   3.401
12606TIP3    H237764   8.178   4.015   3.270
12607TIP3   OH237765   1.561   2.031   6.528
12607TIP3    H137766   1.494   2.087   6.490
12607TIP3    H237767   1.539   2.026   6.621
12608TIP3   OH237768   0.027   7.028   1.932
12608TIP3    H137769   0.029   7.110   1.882
12608TIP3    H237770  -0.037   6.973   1.887
12609TIP3   OH237771   4.674   2.650   1.618
12609TIP3    H137772   4.602   2.632   1.557
12609TIP3    H237773   4.636   2.638   1.705
12610TIP3   OH237774   2.314   0.200   5.761
12610TIP3    H137775   2.356   0.286   5.760
12610TIP3    H237776   2.256   0.201   5.685
12611TIP3   OH237777   0.461   0.603   4.027
12611TIP3    H137778   0.417   0.518   4.020
12611TIP3    H237779   0.548   0.588   3.990
12612TIP3   OH237780   3.583   7.563   5.771
12612TIP3    H137781   3.524   7.487   5.766
12612TIP3    H237782   3.558   7.616   5.696
12613TIP3   OH237783   2.074   6.257   6.585
12613TIP3    H137784   2.031   6.284   6.666
12613TIP3    H237785   2.168   6.272   6.602
12614TIP3   OH237786   5.036   1.759   1.125
12614TIP3    H137787   4.951   1.793   1.099
12614TIP3    H237788   5.096   1.833   1.117
12615TIP3   OH237789   8.047   2.811   3.395
12615TIP3    H137790   8.093   2.816   3.479
12615TIP3    H237791   8.025   2.902   3.375
12616TIP3   OH237792   7.372   3.653   0.352
12616TIP3    H137793   7.429   3.593   0.302
12616TIP3    H237794   7.289   3.651   0.305
12617TIP3   OH237795   1.187   2.368   2.210
12617TIP3    H137796   1.268   2.318   2.198
12617TIP3    H237797   1.203   2.420   2.289
12618TIP3   OH237798   6.244   1.327   6.698
12618TIP3    H137799   6.235   1.324   6.793
12618TIP3    H237800   6.240   1.235   6.671
12619TIP3   OH237801   5.678   7.536   4.540
12619TIP3    H137802   5.718   7.616   4.505
12619TIP3    H237803   5.596   7.566   4.580
12620TIP3   OH237804   2.306   4.928   2.228
12620TIP3    H137805   2.234   4.864   2.222
12620TIP3    H237806   2.381   4.882   2.190
12621TIP3   OH237807   2.031   1.840   2.521
12621TIP3    H137808   1.986   1.781   2.581
12621TIP3    H237809   2.121   1.846   2.554
12622TIP3   OH237810   4.866   4.678   1.146
12622TIP3    H137811   4.860   4.760   1.196
12622TIP3    H237812   4.785   4.675   1.095
12623TIP3   OH237813   0.343   0.043   5.797
12623TIP3    H137814   0.401   0.013   5.727
12623TIP3    H237815   0.339  -0.031   5.858
12624TIP3   OH237816   5.754   0.692   2.418
12624TIP3    H137817   5.748   0.616   2.360
12624TIP3    H237818   5.761   0.767   2.359
12625TIP3   OH237819   3.317   3.193   4.809
12625TIP3    H137820   3.288   3.235   4.890
12625TIP3    H237821   3.236   3.166   4.765
12626TIP3   OH237822   5.350   4.344   6.249
12626TIP3    H137823   5.334   4.411   6.182
12626TIP3    H237824   5.445   4.329   6.245
12627TIP3   OH237825   4.715   3.436   3.405
12627TIP3    H137826   4.638   3.421   3.350
12627TIP3    H237827   4.741   3.525   3.385
12628TIP3   OH237828   4.492   5.054   3.414
12628TIP3    H137829   4.464   5.108   3.487
12628TIP3    H237830   4.451   5.093   3.337
12629TIP3   OH237831   8.195   5.992   6.562
12629TIP3    H137832   8.188   6.049   6.485
12629TIP3    H237833   8.141   5.916   6.540
12630TIP3   OH237834   4.182   6.508   0.432
12630TIP3    H137835   4.218   6.480   0.516
12630TIP3    H237836   4.216   6.596   0.419
12631TIP3   OH237837   0.255   4.291   3.121
12631TIP3    H137838   0.222   4.255   3.203
12631TIP3    H237839   0.178   4.327   3.078
12632TIP3   OH237840   5.120   1.396   5.441
12632TIP3    H137841   5.084   1.327   5.386
12632TIP3    H237842   5.147   1.351   5.521
12633TIP3   OH237843   1.412   4.273   0.402
12633TIP3    H137844   1.499   4.279   0.364
12633TIP3    H237845   1.411   4.337   0.473
12634TIP3   OH237846   3.629   1.429   5.520
12634TIP3    H137847   3.565   1.466   5.580
12634TIP3    H237848   3.584   1.426   5.436
12635TIP3   OH237849   7.645   7.439   2.677
12635TIP3    H137850   7.684   7.479   2.755
12635TIP3    H237851   7.552   7.460   2.683
12636TIP3   OH237852   3.664   0.808   3.417
12636TIP3    H137853   3.636   0.828   3.328
12636TIP3    H237854   3.708   0.723   3.409
12637TIP3   OH237855   2.737   1.814   6.496
12637TIP3    H137856   2.687   1.828   6.415
12637TIP3    H237857   2.793   1.739   6.477
12638TIP3   OH237858   3.371   6.615   6.545
12638TIP3    H137859   3.385   6.528   6.582
12638TIP3    H237860   3.284   6.640   6.575
12639TIP3   OH237861   8.053   5.408   2.125
12639TIP3    H137862   8.086   5.329   2.085
12639TIP3    H237863   8.093   5.410   2.212
12640TIP3   OH237864   3.201   3.345   4.046
12640TIP3    H137865   3.126   3.293   4.075
12640TIP3    H237866   3.198   3.423   4.101
12641TIP3   OH237867   1.125   1.780   4.955
12641TIP3    H137868   1.062   1.824   5.012
12641TIP3    H237869   1.207   1.783   5.005
12642TIP3   OH237870   7.506   4.137   5.828
12642TIP3    H137871   7.435   4.196   5.853
12642TIP3    H237872   7.530   4.163   5.739
12643TIP3   OH237873   7.742   2.619   1.246
12643TIP3    H137874   7.796   2.568   1.306
12643TIP3    H237875   7.747   2.709   1.280
12644TIP3   OH237876   0.848   5.142   4.800
12644TIP3    H137877   0.850   5.047   4.815
12644TIP3    H237878   0.938   5.170   4.811
12645TIP3   OH237879   3.096   7.680   0.576
12645TIP3    H137880   3.101   7.687   0.481
12645TIP3    H237881   3.013   7.635   0.593
12646TIP3   OH237882   0.798   4.502   2.857
12646TIP3    H137883   0.726   4.490   2.795
12646TIP3    H237884   0.835   4.414   2.869
12647TIP3   OH237885   2.511   2.700   0.365
12647TIP3    H137886   2.485   2.785   0.402
12647TIP3    H237887   2.455   2.637   0.411
12648TIP3   OH237888   2.214   5.305   2.000
12648TIP3    H137889   2.223   5.253   2.079
12648TIP3    H237890   2.179   5.244   1.935
12649TIP3   OH237891   1.916   5.705   6.077
12649TIP3    H137892   1.992   5.759   6.096
12649TIP3    H237893   1.940   5.655   5.999
12650TIP3   OH237894   7.933   2.489   1.428
12650TIP3    H137895   8.015   2.533   1.405
12650TIP3    H237896   7.960   2.408   1.471
12651TIP3   OH237897   2.739   3.571   1.967
12651TIP3    H137898   2.821   3.589   2.014
12651TIP3    H237899   2.743   3.629   1.890
12652TIP3   OH237900   0.486   0.270   0.098
12652TIP3    H137901   0.450   0.347   0.142
12652TIP3    H237902   0.440   0.196   0.136
12653TIP3   OH237903   2.702   5.613   6.321
12653TIP3    H137904   2.670   5.630   6.233
12653TIP3    H237905   2.729   5.698   6.355
12654TIP3   OH237906   6.174   1.407   6.350
12654TIP3    H137907   6.176   1.436   6.441
12654TIP3    H237908   6.081   1.400   6.328
12655TIP3   OH237909   8.271   7.667   1.079
12655TIP3    H137910   8.346   7.661   1.019
12655TIP3    H237911   8.220   7.588   1.060
12656TIP3   OH237912   2.979   2.554   5.637
12656TIP3    H137913   3.027   2.586   5.561
12656TIP3    H237914   3.045   2.511   5.691
12657TIP3   OH237915   5.075   7.258   3.038
12657TIP3    H137916   4.981   7.241   3.049
12657TIP3    H237917   5.112   7.173   3.015
12658TIP3   OH237918   7.628   2.313   6.653
12658TIP3    H137919   7.598   2.224   6.632
12658TIP3    H237920   7.549   2.366   6.652
12659TIP3   OH237921   1.760   1.354   0.474
12659TIP3    H137922   1.686   1.345   0.415
12659TIP3    H237923   1.823   1.407   0.426
12660TIP3   OH237924   4.276   4.248   5.751
12660TIP3    H137925   4.294   4.159   5.780
12660TIP3    H237926   4.325   4.304   5.813
12661TIP3   OH237927   7.436   4.746   2.598
12661TIP3    H137928   7.443   4.657   2.633
12661TIP3    H237929   7.348   4.774   2.620
12662TIP3   OH237930   7.673   2.859   0.119
12662TIP3    H137931   7.726   2.937   0.103
12662TIP3    H237932   7.734   2.786   0.109
12663TIP3   OH237933   1.328   3.317   1.961
12663TIP3    H137934   1.350   3.247   1.899
12663TIP3    H237935   1.287   3.385   1.907
12664TIP3   OH237936   0.782   3.664   6.584
12664TIP3    H137937   0.772   3.733   6.650
12664TIP3    H237938   0.876   3.657   6.570
12665TIP3   OH237939   1.213   7.247   6.612
12665TIP3    H137940   1.146   7.308   6.582
12665TIP3    H237941   1.226   7.188   6.539
12666TIP3   OH237942   1.650   1.977   5.156
12666TIP3    H137943   1.588   2.046   5.131
12666TIP3    H237944   1.635   1.964   5.249
12667TIP3   OH237945   2.538   5.712   4.878
12667TIP3    H137946   2.455   5.668   4.897
12667TIP3    H237947   2.519   5.805   4.890
12668TIP3   OH237948   3.215   7.303   6.349
12668TIP3    H137949   3.228   7.230   6.409
12668TIP3    H237950   3.208   7.263   6.262
12669TIP3   OH237951   5.380   1.071   3.843
12669TIP3    H137952   5.383   1.154   3.796
12669TIP3    H237953   5.468   1.060   3.879
12670TIP3   OH237954   5.221   4.885   2.453
12670TIP3    H137955   5.250   4.859   2.540
12670TIP3    H237956   5.125   4.885   2.459
12671TIP3   OH237957   5.502   3.149   1.804
12671TIP3    H137958   5.421   3.099   1.809
12671TIP3    H237959   5.474   3.239   1.785
12672TIP3   OH237960   1.155   2.605   4.241
12672TIP3    H137961   1.155   2.596   4.336
12672TIP3    H237962   1.216   2.537   4.211
12673TIP3   OH237963   8.134   6.236   2.231
12673TIP3    H137964   8.203   6.210   2.292
12673TIP3    H237965   8.113   6.326   2.256
12674TIP3   OH237966   1.535   0.075   4.332
12674TIP3    H137967   1.619   0.032   4.315
12674TIP3    H237968   1.556   0.168   4.336
12675TIP3   OH237969   1.504   2.209   2.385
12675TIP3    H137970   1.566   2.136   2.379
12675TIP3    H237971   1.556   2.286   2.363
12676TIP3   OH237972   0.309   1.153   3.273
12676TIP3    H137973   0.255   1.151   3.352
12676TIP3    H237974   0.265   1.094   3.212
12677TIP3   OH237975   0.311   4.922   4.295
12677TIP3    H137976   0.394   4.876   4.280
12677TIP3    H237977   0.325   4.972   4.375
12678TIP3   OH237978   1.206   6.060   5.392
12678TIP3    H137979   1.174   6.044   5.304
12678TIP3    H237980   1.210   5.974   5.433
12679TIP3   OH237981   0.233   3.992   1.764
12679TIP3    H137982   0.180   4.001   1.843
12679TIP3    H237983   0.170   3.968   1.695
12680TIP3   OH237984   6.204   0.313   4.877
12680TIP3    H137985   6.258   0.391   4.872
12680TIP3    H237986   6.260   0.243   4.844
12681TIP3   OH237987   3.383   3.500   4.410
12681TIP3    H137988   3.412   3.409   4.415
12681TIP3    H237989   3.315   3.500   4.343
12682TIP3   OH237990   5.544   1.594   1.850
12682TIP3    H137991   5.595   1.635   1.920
12682TIP3    H237992   5.484   1.662   1.820
12683TIP3   OH237993   3.609   5.350   5.678
12683TIP3    H137994   3.601   5.428   5.623
12683TIP3    H237995   3.537   5.294   5.650
12684TIP3   OH237996   3.140   5.292   4.340
12684TIP3    H137997   3.125   5.246   4.423
12684TIP3    H237998   3.061   5.276   4.289
12685TIP3   OH237999   3.044   4.122   1.272
12685TIP3    H138000   3.007   4.179   1.204
12685TIP3    H238001   3.076   4.183   1.339
12686TIP3   OH238002   2.465   5.058   5.512
12686TIP3    H138003   2.447   4.973   5.470
12686TIP3    H238004   2.486   5.116   5.439
12687TIP3   OH238005   3.191   1.526   5.742
12687TIP3    H138006   3.130   1.456   5.766
12687TIP3    H238007   3.249   1.534   5.818
12688TIP3   OH238008   7.837   1.729   1.652
12688TIP3    H138009   7.893   1.720   1.575
12688TIP3    H238010   7.823   1.823   1.662
12689TIP3   OH238011   4.341   0.934   4.602
12689TIP3    H138012   4.261   0.909   4.555
12689TIP3    H238013   4.408   0.874   4.568
12690TIP3   OH238014   6.367   3.712   0.748
12690TIP3    H138015   6.370   3.624   0.786
12690TIP3    H238016   6.350   3.697   0.655
12691TIP3   OH238017   2.180   6.223   3.962
12691TIP3    H138018   2.272   6.202   3.979
12691TIP3    H238019   2.139   6.140   3.940
12692TIP3   OH238020   8.116   3.881   3.839
12692TIP3    H138021   8.030   3.839   3.851
12692TIP3    H238022   8.156   3.832   3.766
12693TIP3   OH238023   3.855   4.230   3.791
12693TIP3    H138024   3.812   4.173   3.727
12693TIP3    H238025   3.825   4.318   3.769
12694TIP3   OH238026   3.615   2.600   0.245
12694TIP3    H138027   3.671   2.678   0.243
12694TIP3    H238028   3.593   2.585   0.153
12695TIP3   OH238029   6.152   4.322   6.222
12695TIP3    H138030   6.120   4.233   6.232
12695TIP3    H238031   6.120   4.350   6.136
12696TIP3   OH238032   3.644   3.079   2.274
12696TIP3    H138033   3.627   3.014   2.206
12696TIP3    H238034   3.633   3.031   2.356
12697TIP3   OH238035   6.495   0.852   5.994
12697TIP3    H138036   6.432   0.785   6.021
12697TIP3    H238037   6.451   0.935   6.012
12698TIP3   OH238038   4.571   3.977   4.977
12698TIP3    H138039   4.602   3.917   4.908
12698TIP3    H238040   4.522   4.044   4.930
12699TIP3   OH238041   2.380   2.174   1.808
12699TIP3    H138042   2.349   2.121   1.735
12699TIP3    H238043   2.470   2.197   1.785
12700TIP3   OH238044   8.000   5.286   2.558
12700TIP3    H138045   7.925   5.233   2.585
12700TIP3    H238046   7.962   5.362   2.515
12701TIP3   OH238047   3.560   6.291   2.937
12701TIP3    H138048   3.477   6.244   2.942
12701TIP3    H238049   3.544   6.373   2.982
12702TIP3   OH238050   4.803   1.096   4.365
12702TIP3    H138051   4.845   1.182   4.368
12702TIP3    H238052   4.767   1.084   4.453
12703TIP3   OH238053   7.254   3.111   0.445
12703TIP3    H138054   7.269   3.166   0.368
12703TIP3    H238055   7.306   3.032   0.429
12704TIP3   OH238056   7.062   0.707   4.015
12704TIP3    H138057   7.142   0.655   4.009
12704TIP3    H238058   6.996   0.645   4.046
12705TIP3   OH238059   7.583   2.129   1.834
12705TIP3    H138060   7.619   2.203   1.787
12705TIP3    H238061   7.553   2.069   1.766
12706TIP3   OH238062   1.022   4.906   6.193
12706TIP3    H138063   1.052   4.821   6.226
12706TIP3    H238064   1.072   4.970   6.243
12707TIP3   OH238065   3.409   6.754   4.700
12707TIP3    H138066   3.445   6.732   4.614
12707TIP3    H238067   3.482   6.742   4.760
12708TIP3   OH238068   6.973   1.368   3.733
12708TIP3    H138069   7.033   1.375   3.808
12708TIP3    H238070   7.021   1.408   3.660
12709TIP3   OH238071   4.704   1.186   3.886
12709TIP3    H138072   4.730   1.149   3.970
12709TIP3    H238073   4.693   1.279   3.904
12710TIP3   OH238074   3.493   5.491   0.549
12710TIP3    H138075   3.410   5.522   0.513
12710TIP3    H238076   3.552   5.485   0.473
12711TIP3   OH238077   2.733   6.975   5.415
12711TIP3    H138078   2.766   6.944   5.331
12711TIP3    H238079   2.806   6.965   5.476
12712TIP3   OH238080   6.590   1.112   3.375
12712TIP3    H138081   6.570   1.161   3.296
12712TIP3    H238082   6.608   1.179   3.441
12713TIP3   OH238083   6.366   0.074   5.703
12713TIP3    H138084   6.346  -0.004   5.652
12713TIP3    H238085   6.434   0.045   5.765
12714TIP3   OH238086   0.047   2.294   1.050
12714TIP3    H138087   0.086   2.208   1.037
12714TIP3    H238088   0.104   2.354   1.004
12715TIP3   OH238089   4.353   1.705   0.373
12715TIP3    H138090   4.406   1.640   0.418
12715TIP3    H238091   4.265   1.667   0.369
12716TIP3   OH238092   2.015   4.504   2.659
12716TIP3    H138093   2.049   4.573   2.716
12716TIP3    H238094   1.996   4.549   2.577
12717TIP3   OH238095   6.072   3.139   4.460
12717TIP3    H138096   6.067   3.048   4.490
12717TIP3    H238097   6.162   3.165   4.478
12718TIP3   OH238098   3.757   1.555   4.746
12718TIP3    H138099   3.813   1.554   4.823
12718TIP3    H238100   3.778   1.637   4.702
12719TIP3   OH238101   1.728   4.536   1.210
12719TIP3    H138102   1.776   4.482   1.273
12719TIP3    H238103   1.682   4.474   1.154
12720TIP3   OH238104   0.537   0.689   6.462
12720TIP3    H138105   0.472   0.700   6.532
12720TIP3    H238106   0.621   0.688   6.507
12721TIP3   OH238107   3.559   4.618   1.692
12721TIP3    H138108   3.585   4.710   1.698
12721TIP3    H238109   3.618   4.580   1.627
12722TIP3   OH238110   0.920   7.328   1.949
12722TIP3    H138111   0.993   7.387   1.930
12722TIP3    H238112   0.860   7.381   2.002
12723TIP3   OH238113   3.336   7.557   0.670
12723TIP3    H138114   3.336   7.490   0.601
12723TIP3    H238115   3.268   7.619   0.642
12724TIP3   OH238116   2.845   2.173   0.489
12724TIP3    H138117   2.894   2.107   0.438
12724TIP3    H238118   2.801   2.122   0.557
12725TIP3   OH238119   3.784   4.016   5.173
12725TIP3    H138120   3.736   4.088   5.132
12725TIP3    H238121   3.841   3.982   5.104
12726TIP3   OH238122   4.661   5.520   6.683
12726TIP3    H138123   4.728   5.588   6.691
12726TIP3    H238124   4.588   5.564   6.639
12727TIP3   OH238125   3.689   6.764   4.770
12727TIP3    H138126   3.754   6.828   4.740
12727TIP3    H238127   3.741   6.685   4.789
12728TIP3   OH238128   2.581   5.872   0.980
12728TIP3    H138129   2.676   5.881   0.978
12728TIP3    H238130   2.554   5.872   0.888
12729TIP3   OH238131   1.598   5.252   3.291
12729TIP3    H138132   1.609   5.346   3.277
12729TIP3    H238133   1.505   5.236   3.277
12730TIP3   OH238134   7.604   4.452   3.139
12730TIP3    H138135   7.607   4.401   3.220
12730TIP3    H238136   7.692   4.487   3.130
12731TIP3   OH238137   5.905   4.158   1.041
12731TIP3    H138138   5.997   4.180   1.055
12731TIP3    H238139   5.882   4.201   0.958
12732TIP3   OH238140   8.031   3.063   5.637
12732TIP3    H138141   8.040   2.975   5.599
12732TIP3    H238142   7.990   3.047   5.722
12733TIP3   OH238143   5.934   0.094   3.648
12733TIP3    H138144   5.932   0.189   3.659
12733TIP3    H238145   6.026   0.070   3.661
12734TIP3   OH238146   7.343   1.508   6.741
12734TIP3    H138147   7.321   1.425   6.699
12734TIP3    H238148   7.327   1.574   6.673
12735TIP3   OH238149   3.628   7.192   3.134
12735TIP3    H138150   3.609   7.285   3.144
12735TIP3    H238151   3.564   7.148   3.190
12736TIP3   OH238152   1.449   6.200   6.463
12736TIP3    H138153   1.381   6.144   6.499
12736TIP3    H238154   1.409   6.287   6.459
12737TIP3   OH238155   0.139   4.322   2.149
12737TIP3    H138156   0.142   4.276   2.066
12737TIP3    H238157   0.057   4.293   2.189
12738TIP3   OH238158   5.081   3.603   0.917
12738TIP3    H138159   5.162   3.557   0.938
12738TIP3    H238160   5.092   3.632   0.826
12739TIP3   OH238161   3.868   0.154   0.285
12739TIP3    H138162   3.773   0.148   0.295
12739TIP3    H238163   3.899   0.183   0.371
12740TIP3   OH238164   2.510   2.352   6.489
12740TIP3    H138165   2.500   2.263   6.455
12740TIP3    H238166   2.552   2.339   6.575
12741TIP3   OH238167   0.051   1.616   1.520
12741TIP3    H138168   0.069   1.669   1.443
12741TIP3    H238169   0.128   1.627   1.576
12742TIP3   OH238170   6.971   2.054   3.302
12742TIP3    H138171   6.944   2.052   3.211
12742TIP3    H238172   6.977   1.962   3.328
12743TIP3   OH238173   6.485   0.680   1.142
12743TIP3    H138174   6.422   0.660   1.073
12743TIP3    H238175   6.499   0.596   1.187
12744TIP3   OH238176   7.166   0.278   6.776
12744TIP3    H138177   7.233   0.227   6.730
12744TIP3    H238178   7.207   0.304   6.858
12745TIP3   OH238179   1.320   4.876   0.252
12745TIP3    H138180   1.369   4.954   0.278
12745TIP3    H238181   1.346   4.860   0.161
12746TIP3   OH238182   2.822   6.472   0.803
12746TIP3    H138183   2.768   6.408   0.756
12746TIP3    H238184   2.897   6.421   0.834
12747TIP3   OH238185   4.562   5.863   1.714
12747TIP3    H138186   4.565   5.836   1.806
12747TIP3    H238187   4.469   5.869   1.694
12748TIP3   OH238188   6.899   6.327   4.674
12748TIP3    H138189   6.822   6.337   4.617
12748TIP3    H238190   6.866   6.344   4.762
12749TIP3   OH238191   3.098   1.153   2.330
12749TIP3    H138192   3.140   1.193   2.406
12749TIP3    H238193   3.004   1.155   2.352
12750TIP3   OH238194   5.984   6.664   4.928
12750TIP3    H138195   5.917   6.727   4.900
12750TIP3    H238196   6.017   6.699   5.011
12751TIP3   OH238197   2.393   5.642   6.162
12751TIP3    H138198   2.362   5.554   6.184
12751TIP3    H238199   2.463   5.627   6.098
12752TIP3   OH238200   3.692   7.824   4.076
12752TIP3    H138201   3.633   7.755   4.045
12752TIP3    H238202   3.677   7.829   4.170
12753TIP3   OH238203   1.785   7.151   0.334
12753TIP3    H138204   1.822   7.221   0.280
12753TIP3    H238205   1.706   7.124   0.287
12754TIP3   OH238206   4.925   6.905   2.189
12754TIP3    H138207   4.860   6.926   2.257
12754TIP3    H238208   4.989   6.849   2.234
12755TIP3   OH238209   1.054   4.683   5.860
12755TIP3    H138210   1.071   4.599   5.903
12755TIP3    H238211   1.013   4.737   5.927
12756TIP3   OH238212   6.729   4.528   3.408
12756TIP3    H138213   6.661   4.541   3.343
12756TIP3    H238214   6.698   4.574   3.485
12757TIP3   OH238215   7.564   5.725   0.797
12757TIP3    H138216   7.597   5.802   0.843
12757TIP3    H238217   7.472   5.745   0.780
12758TIP3   OH238218   2.261   2.784   1.125
12758TIP3    H138219   2.177   2.762   1.166
12758TIP3    H238220   2.283   2.706   1.074
12759TIP3   OH238221   6.993   6.756   4.390
12759TIP3    H138222   7.016   6.724   4.477
12759TIP3    H238223   6.911   6.712   4.369
12760TIP3   OH238224   3.654   3.339   1.162
12760TIP3    H138225   3.717   3.269   1.146
12760TIP3    H238226   3.569   3.296   1.161
12761TIP3   OH238227   5.965   5.181   3.078
12761TIP3    H138228   6.029   5.114   3.054
12761TIP3    H238229   5.963   5.239   3.002
12762TIP3   OH238230   5.878   5.154   5.578
12762TIP3    H138231   5.943   5.172   5.509
12762TIP3    H238232   5.794   5.178   5.539
12763TIP3   OH238233   4.385   0.839   3.288
12763TIP3    H138234   4.290   0.840   3.298
12763TIP3    H238235   4.419   0.850   3.377
12764TIP3   OH238236   0.850   7.616   1.434
12764TIP3    H138237   0.893   7.610   1.349
12764TIP3    H238238   0.910   7.572   1.494
12765TIP3   OH238239   7.194   3.237   4.630
12765TIP3    H138240   7.263   3.201   4.576
12765TIP3    H238241   7.227   3.322   4.658
12766TIP3   OH238242   7.656   1.278   0.110
12766TIP3    H138243   7.660   1.373   0.095
12766TIP3    H238244   7.674   1.268   0.203
12767TIP3   OH238245   0.737   6.303   5.718
12767TIP3    H138246   0.692   6.219   5.709
12767TIP3    H238247   0.796   6.290   5.793
12768TIP3   OH238248   7.819   3.430   0.140
12768TIP3    H138249   7.861   3.413   0.224
12768TIP3    H238250   7.726   3.417   0.157
12769TIP3   OH238251   7.787   0.104   5.704
12769TIP3    H138252   7.869   0.086   5.751
12769TIP3    H238253   7.731   0.146   5.769
12770TIP3   OH238254   2.765   3.815   2.904
12770TIP3    H138255   2.819   3.882   2.862
12770TIP3    H238256   2.733   3.856   2.984
12771TIP3   OH238257   7.307   4.172   1.225
12771TIP3    H138258   7.257   4.136   1.151
12771TIP3    H238259   7.284   4.265   1.227
12772TIP3   OH238260   4.748   1.623   5.241
12772TIP3    H138261   4.680   1.567   5.204
12772TIP3    H238262   4.830   1.584   5.210
12773TIP3   OH238263   6.431   2.210   1.952
12773TIP3    H138264   6.521   2.200   1.984
12773TIP3    H238265   6.380   2.228   2.031
12774TIP3   OH238266   1.662   6.170   0.509
12774TIP3    H138267   1.585   6.115   0.520
12774TIP3    H238268   1.648   6.215   0.426
12775TIP3   OH238269   5.566   6.321   5.862
12775TIP3    H138270   5.582   6.348   5.771
12775TIP3    H238271   5.472   6.335   5.875
12776TIP3   OH238272   7.349   7.607   6.057
12776TIP3    H138273   7.325   7.547   6.128
12776TIP3    H238274   7.441   7.588   6.039
12777TIP3   OH238275   3.510   6.826   2.527
12777TIP3    H138276   3.476   6.910   2.495
12777TIP3    H238277   3.512   6.836   2.622
12778TIP3   OH238278   1.137   3.013   1.585
12778TIP3    H138279   1.127   2.951   1.657
12778TIP3    H238280   1.136   3.099   1.628
12779TIP3   OH238281   6.054   0.016   4.337
12779TIP3    H138282   5.975   0.064   4.313
12779TIP3    H238283   6.125   0.079   4.326
12780TIP3   OH238284   0.242   4.026   0.465
12780TIP3    H138285   0.194   3.999   0.387
12780TIP3    H238286   0.291   3.948   0.492
12781TIP3   OH238287   0.218   4.685   2.936
12781TIP3    H138288   0.206   4.605   2.884
12781TIP3    H238289   0.130   4.705   2.969
12782TIP3   OH238290   3.716   3.566   4.936
12782TIP3    H138291   3.735   3.507   5.009
12782TIP3    H238292   3.653   3.629   4.971
12783TIP3   OH238293   0.755   2.111   5.358
12783TIP3    H138294   0.779   2.160   5.437
12783TIP3    H238295   0.714   2.032   5.391
12784TIP3   OH238296   5.771   6.433   2.663
12784TIP3    H138297   5.834   6.419   2.593
12784TIP3    H238298   5.800   6.514   2.705
12785TIP3   OH238299   0.485   2.931   3.381
12785TIP3    H138300   0.527   2.971   3.305
12785TIP3    H238301   0.396   2.912   3.352
12786TIP3   OH238302   1.279   1.402   0.319
12786TIP3    H138303   1.212   1.334   0.315
12786TIP3    H238304   1.314   1.395   0.408
12787TIP3   OH238305   5.189   0.925   2.998
12787TIP3    H138306   5.170   0.950   3.088
12787TIP3    H238307   5.180   0.830   2.997
12788TIP3   OH238308   7.284   6.253   5.730
12788TIP3    H138309   7.256   6.338   5.763
12788TIP3    H238310   7.229   6.238   5.653
12789TIP3   OH238311   6.826   4.688   1.340
12789TIP3    H138312   6.769   4.716   1.269
12789TIP3    H238313   6.827   4.593   1.335
12790TIP3   OH238314   4.248   5.996   0.007
12790TIP3    H138315   4.192   5.926  -0.026
12790TIP3    H238316   4.187   6.062   0.041
12791TIP3   OH238317   4.574   3.809   4.115
12791TIP3    H138318   4.509   3.864   4.072
12791TIP3    H238319   4.548   3.808   4.207
12792TIP3   OH238320   1.558   4.397   3.402
12792TIP3    H138321   1.465   4.418   3.393
12792TIP3    H238322   1.580   4.351   3.321
12793TIP3   OH238323   4.478   5.622   5.634
12793TIP3    H138324   4.484   5.566   5.712
12793TIP3    H238325   4.569   5.635   5.607
12794TIP3   OH238326   3.646   3.290   6.642
12794TIP3    H138327   3.662   3.196   6.644
12794TIP3    H238328   3.703   3.323   6.572
12795TIP3   OH238329   1.030   6.680   6.150
12795TIP3    H138330   1.085   6.739   6.202
12795TIP3    H238331   1.075   6.672   6.066
12796TIP3   OH238332   5.563   0.442   1.454
12796TIP3    H138333   5.557   0.480   1.366
12796TIP3    H238334   5.471   0.430   1.481
12797TIP3   OH238335   7.202   0.955   1.698
12797TIP3    H138336   7.188   1.014   1.772
12797TIP3    H238337   7.130   0.973   1.638
12798TIP3   OH238338   4.860   7.762   5.304
12798TIP3    H138339   4.803   7.767   5.226
12798TIP3    H238340   4.898   7.850   5.310
12799TIP3   OH238341   4.444   6.120   5.298
12799TIP3    H138342   4.502   6.180   5.344
12799TIP3    H238343   4.359   6.164   5.298
12800TIP3   OH238344   8.015   3.768   4.452
12800TIP3    H138345   8.065   3.810   4.522
12800TIP3    H238346   8.055   3.800   4.371
12801TIP3   OH238347   0.008   1.695   4.575
12801TIP3    H138348  -0.065   1.660   4.625
12801TIP3    H238349  -0.011   1.789   4.568
12802TIP3   OH238350   2.847   5.631   5.631
12802TIP3    H138351   2.854   5.536   5.644
12802TIP3    H238352   2.801   5.640   5.547
12803TIP3   OH238353   1.955   5.120   4.863
12803TIP3    H138354   1.896   5.120   4.939
12803TIP3    H238355   1.967   5.027   4.842
12804TIP3   OH238356   0.853   7.100   0.735
12804TIP3    H138357   0.826   7.013   0.765
12804TIP3    H238358   0.882   7.145   0.815
12805TIP3   OH238359   5.176   1.113   6.189
12805TIP3    H138360   5.233   1.186   6.164
12805TIP3    H238361   5.088   1.149   6.183
12806TIP3   OH238362   5.353   6.009   5.472
12806TIP3    H138363   5.437   5.962   5.471
12806TIP3    H238364   5.336   6.025   5.564
12807TIP3   OH238365   5.942   0.440   6.634
12807TIP3    H138366   5.911   0.384   6.705
12807TIP3    H238367   5.867   0.496   6.613
12808TIP3   OH238368   1.800   4.005   2.554
12808TIP3    H138369   1.821   4.080   2.611
12808TIP3    H238370   1.878   3.994   2.499
12809TIP3   OH238371   5.365   5.427   6.578
12809TIP3    H138372   5.377   5.516   6.545
12809TIP3    H238373   5.410   5.372   6.515
12810TIP3   OH238374   6.500   3.789   3.745
12810TIP3    H138375   6.568   3.769   3.680
12810TIP3    H238376   6.547   3.793   3.828
12811TIP3   OH238377   1.674   6.164   2.710
12811TIP3    H138378   1.671   6.157   2.805
12811TIP3    H238379   1.758   6.124   2.686
12812TIP3   OH238380   1.490   2.000   3.202
12812TIP3    H138381   1.480   2.040   3.116
12812TIP3    H238382   1.584   2.006   3.221
12813TIP3   OH238383   0.192   7.413   0.384
12813TIP3    H138384   0.140   7.492   0.397
12813TIP3    H238385   0.129   7.342   0.391
12814TIP3   OH238386   2.275   0.363   0.051
12814TIP3    H138387   2.210   0.430   0.073
12814TIP3    H238388   2.355   0.412   0.035
12815TIP3   OH238389   0.605   1.610   0.422
12815TIP3    H138390   0.581   1.702   0.413
12815TIP3    H238391   0.701   1.611   0.426
12816TIP3   OH238392   3.805   4.009   5.433
12816TIP3    H138393   3.796   4.015   5.338
12816TIP3    H238394   3.895   4.036   5.450
12817TIP3   OH238395   0.684   0.236   6.256
12817TIP3    H138396   0.653   0.247   6.346
12817TIP3    H238397   0.776   0.212   6.266
12818TIP3   OH238398   0.826   0.072   5.737
12818TIP3    H138399   0.777   0.097   5.815
12818TIP3    H238400   0.811  -0.022   5.728
12819TIP3   OH238401   1.531   6.773   1.277
12819TIP3    H138402   1.539   6.693   1.225
12819TIP3    H238403   1.608   6.773   1.333
12820TIP3   OH238404   1.528   5.267   0.010
12820TIP3    H138405   1.606   5.265  -0.046
12820TIP3    H238406   1.492   5.355  -0.002
12821TIP3   OH238407   4.112   4.654   5.033
12821TIP3    H138408   4.039   4.653   5.095
12821TIP3    H238409   4.128   4.561   5.014
12822TIP3   OH238410   4.584   4.398   5.118
12822TIP3    H138411   4.507   4.359   5.159
12822TIP3    H238412   4.551   4.438   5.038
12823TIP3   OH238413   5.445   4.571   1.636
12823TIP3    H138414   5.484   4.636   1.694
12823TIP3    H238415   5.472   4.597   1.548
12824TIP3   OH238416   7.677   5.731   2.159
12824TIP3    H138417   7.725   5.765   2.234
12824TIP3    H238418   7.722   5.650   2.136
12825TIP3   OH238419   2.919   3.574   6.432
12825TIP3    H138420   3.004   3.616   6.427
12825TIP3    H238421   2.873   3.604   6.354
12826TIP3   OH238422   7.348   1.533   5.541
12826TIP3    H138423   7.434   1.570   5.521
12826TIP3    H238424   7.329   1.476   5.467
12827TIP3   OH238425   7.057   5.838   5.508
12827TIP3    H138426   7.094   5.926   5.515
12827TIP3    H238427   6.971   5.845   5.550
12828TIP3   OH238428   1.399   3.024   1.477
12828TIP3    H138429   1.421   3.020   1.570
12828TIP3    H238430   1.303   3.020   1.475
12829TIP3   OH238431   3.690   4.446   0.032
12829TIP3    H138432   3.631   4.484   0.097
12829TIP3    H238433   3.777   4.451   0.072
12830TIP3   OH238434   5.525   5.743   1.886
12830TIP3    H138435   5.468   5.686   1.938
12830TIP3    H238436   5.504   5.832   1.915
12831TIP3   OH238437   2.612   3.719   6.718
12831TIP3    H138438   2.707   3.720   6.705
12831TIP3    H238439   2.578   3.780   6.652
12832TIP3   OH238440   5.027   2.672   5.180
12832TIP3    H138441   4.989   2.660   5.093
12832TIP3    H238442   5.105   2.617   5.180
12833TIP3   OH238443   7.153   5.791   0.569
12833TIP3    H138444   7.135   5.808   0.662
12833TIP3    H238445   7.245   5.764   0.567
12834TIP3   OH238446   6.873   5.744   0.189
12834TIP3    H138447   6.810   5.712   0.254
12834TIP3    H238448   6.860   5.687   0.113
12835TIP3   OH238449   1.839   1.794   1.920
12835TIP3    H138450   1.899   1.862   1.888
12835TIP3    H238451   1.754   1.820   1.884
12836TIP3   OH238452   3.068   2.839   2.194
12836TIP3    H138453   3.029   2.886   2.268
12836TIP3    H238454   3.117   2.767   2.233
12837TIP3   OH238455   5.616   0.420   1.932
12837TIP3    H138456   5.609   0.514   1.919
12837TIP3    H238457   5.526   0.388   1.933
12838TIP3   OH238458   6.215   0.832   0.739
12838TIP3    H138459   6.226   0.926   0.754
12838TIP3    H238460   6.157   0.827   0.664
12839TIP3   OH238461   2.201   4.704   5.555
12839TIP3    H138462   2.223   4.611   5.558
12839TIP3    H238463   2.105   4.705   5.555
12840TIP3   OH238464   7.387   1.025   2.015
12840TIP3    H138465   7.352   1.105   2.054
12840TIP3    H238466   7.328   0.956   2.044
12841TIP3   OH238467   7.959   0.512   6.131
12841TIP3    H138468   7.906   0.464   6.068
12841TIP3    H238469   7.915   0.597   6.140
12842TIP3   OH238470   8.033   0.401   5.022
12842TIP3    H138471   8.046   0.400   5.117
12842TIP3    H238472   8.050   0.310   4.996
12843TIP3   OH238473   4.078   6.555   1.864
12843TIP3    H138474   4.001   6.549   1.807
12843TIP3    H238475   4.138   6.613   1.817
12844TIP3   OH238476   5.256   4.179   4.331
12844TIP3    H138477   5.271   4.100   4.384
12844TIP3    H238478   5.337   4.229   4.338
12845TIP3   OH238479   5.822   7.749   4.455
12845TIP3    H138480   5.814   7.830   4.505
12845TIP3    H238481   5.892   7.701   4.497
12846TIP3   OH238482   6.674   5.488   1.711
12846TIP3    H138483   6.592   5.472   1.663
12846TIP3    H238484   6.709   5.401   1.729
12847TIP3   OH238485   8.123   2.067   2.504
12847TIP3    H138486   8.031   2.062   2.479
12847TIP3    H238487   8.121   2.087   2.597
12848TIP3   OH238488   2.342   6.651   4.363
12848TIP3    H138489   2.297   6.585   4.416
12848TIP3    H238490   2.329   6.622   4.272
12849TIP3   OH238491   1.181   4.240   4.488
12849TIP3    H138492   1.234   4.233   4.408
12849TIP3    H238493   1.243   4.270   4.555
12850TIP3   OH238494   0.756   1.489   5.265
12850TIP3    H138495   0.701   1.565   5.282
12850TIP3    H238496   0.780   1.457   5.352
12851TIP3   OH238497   7.118   4.628   1.393
12851TIP3    H138498   7.160   4.674   1.466
12851TIP3    H238499   7.025   4.653   1.400
12852TIP3   OH238500   7.569   3.840   5.294
12852TIP3    H138501   7.509   3.902   5.252
12852TIP3    H238502   7.597   3.884   5.375
12853TIP3   OH238503   7.080   7.678   4.108
12853TIP3    H138504   7.068   7.672   4.203
12853TIP3    H238505   7.170   7.651   4.093
12854TIP3   OH238506   0.574   4.216   0.690
12854TIP3    H138507   0.492   4.260   0.713
12854TIP3    H238508   0.566   4.128   0.727
12855TIP3   OH238509   1.065   5.100   0.118
12855TIP3    H138510   1.150   5.101   0.075
12855TIP3    H238511   1.038   5.192   0.120
12856TIP3   OH238512   6.006   5.025   5.233
12856TIP3    H138513   6.036   5.029   5.324
12856TIP3    H238514   6.077   5.065   5.182
12857TIP3   OH238515   5.242   7.620   0.209
12857TIP3    H138516   5.322   7.647   0.163
12857TIP3    H238517   5.265   7.537   0.251
12858TIP3   OH238518   3.794   0.143   6.451
12858TIP3    H138519   3.863   0.136   6.384
12858TIP3    H238520   3.818   0.078   6.517
12859TIP3   OH238521   5.911   7.302   6.181
12859TIP3    H138522   6.005   7.308   6.168
12859TIP3    H238523   5.892   7.366   6.250
12860TIP3   OH238524   2.261   1.433   1.097
12860TIP3    H138525   2.347   1.393   1.083
12860TIP3    H238526   2.240   1.414   1.189
12861TIP3   OH238527   2.690   7.778   6.511
12861TIP3    H138528   2.737   7.794   6.429
12861TIP3    H238529   2.734   7.702   6.549
12862TIP3   OH238530   0.778   7.328   5.835
12862TIP3    H138531   0.707   7.267   5.819
12862TIP3    H238532   0.744   7.387   5.902
12863TIP3   OH238533   6.636   2.684   2.507
12863TIP3    H138534   6.686   2.755   2.467
12863TIP3    H238535   6.682   2.666   2.589
12864TIP3   OH238536   3.718   2.404   0.544
12864TIP3    H138537   3.630   2.427   0.575
12864TIP3    H238538   3.769   2.393   0.625
12865TIP3   OH238539   5.239   6.963   3.519
12865TIP3    H138540   5.284   7.047   3.528
12865TIP3    H238541   5.309   6.899   3.505
12866TIP3   OH238542   6.689   2.671   0.532
12866TIP3    H138543   6.700   2.766   0.532
12866TIP3    H238544   6.708   2.645   0.442
12867TIP3   OH238545   7.268   2.632   5.175
12867TIP3    H138546   7.356   2.635   5.139
12867TIP3    H238547   7.228   2.715   5.148
12868TIP3   OH238548   0.920   2.378   3.623
12868TIP3    H138549   0.932   2.449   3.560
12868TIP3    H238550   0.826   2.376   3.639
12869TIP3   OH238551   6.404   7.029   4.202
12869TIP3    H138552   6.426   6.952   4.254
12869TIP3    H238553   6.449   7.016   4.119
12870TIP3   OH238554   7.233   1.594   6.463
12870TIP3    H138555   7.259   1.686   6.454
12870TIP3    H238556   7.147   1.590   6.422
12871TIP3   OH238557   7.386   0.696   1.120
12871TIP3    H138558   7.439   0.649   1.183
12871TIP3    H238559   7.324   0.746   1.173
12872TIP3   OH238560   6.120   5.404   5.150
12872TIP3    H138561   6.043   5.357   5.119
12872TIP3    H238562   6.100   5.425   5.241
12873TIP3   OH238563   1.509   6.367   2.957
12873TIP3    H138564   1.425   6.366   3.003
12873TIP3    H238565   1.533   6.275   2.949
12874TIP3   OH238566   5.282   5.975   0.425
12874TIP3    H138567   5.251   6.021   0.503
12874TIP3    H238568   5.329   6.042   0.375
12875TIP3   OH238569   3.959   3.138   1.732
12875TIP3    H138570   3.941   3.185   1.813
12875TIP3    H238571   4.046   3.100   1.744
12876TIP3   OH238572   6.463   6.897   6.768
12876TIP3    H138573   6.447   6.864   6.680
12876TIP3    H238574   6.385   6.949   6.789
12877TIP3   OH238575   2.770   1.912   2.452
12877TIP3    H138576   2.802   1.937   2.365
12877TIP3    H238577   2.846   1.920   2.509
12878TIP3   OH238578   6.670   6.641   2.161
12878TIP3    H138579   6.605   6.689   2.213
12878TIP3    H238580   6.751   6.688   2.175
12879TIP3   OH238581   2.293   5.961   2.307
12879TIP3    H138582   2.367   6.007   2.346
12879TIP3    H238583   2.325   5.872   2.293
12880TIP3   OH238584   6.294   6.894   5.632
12880TIP3    H138585   6.327   6.958   5.695
12880TIP3    H238586   6.310   6.933   5.547
12881TIP3   OH238587   2.591   1.658   2.333
12881TIP3    H138588   2.682   1.629   2.341
12881TIP3    H238589   2.566   1.635   2.244
12882TIP3   OH238590   7.661   1.822   0.376
12882TIP3    H138591   7.748   1.816   0.414
12882TIP3    H238592   7.621   1.736   0.393
12883TIP3   OH238593   1.764   1.990   3.405
12883TIP3    H138594   1.842   2.041   3.426
12883TIP3    H238595   1.694   2.030   3.457
12884TIP3   OH238596   3.616   7.631   1.181
12884TIP3    H138597   3.589   7.598   1.095
12884TIP3    H238598   3.534   7.640   1.230
12885TIP3   OH238599   5.841   4.676   3.000
12885TIP3    H138600   5.888   4.754   2.969
12885TIP3    H238601   5.906   4.606   2.997
12886TIP3   OH238602   6.332   0.174   1.705
12886TIP3    H138603   6.335   0.079   1.712
12886TIP3    H238604   6.328   0.205   1.796
12887TIP3   OH238605   5.053   4.536   0.986
12887TIP3    H138606   5.015   4.561   1.071
12887TIP3    H238607   4.977   4.524   0.929
12888TIP3   OH238608   6.942   3.260   0.302
12888TIP3    H138609   6.901   3.297   0.223
12888TIP3    H238610   7.027   3.302   0.307
12889TIP3   OH238611   2.634   5.732   5.183
12889TIP3    H138612   2.644   5.796   5.113
12889TIP3    H238613   2.546   5.696   5.170
12890TIP3   OH238614   7.841   0.525   4.246
12890TIP3    H138615   7.754   0.563   4.233
12890TIP3    H238616   7.855   0.528   4.341
12891TIP3   OH238617   1.153   0.118   2.593
12891TIP3    H138618   1.190   0.189   2.645
12891TIP3    H238619   1.168   0.144   2.502
12892TIP3   OH238620   1.088   3.158   0.454
12892TIP3    H138621   0.995   3.181   0.459
12892TIP3    H238622   1.131   3.240   0.431
12893TIP3   OH238623   6.623   6.594   0.618
12893TIP3    H138624   6.530   6.595   0.641
12893TIP3    H238625   6.626   6.558   0.530
12894TIP3   OH238626   7.241   5.248   2.250
12894TIP3    H138627   7.248   5.329   2.199
12894TIP3    H238628   7.179   5.194   2.201
12895TIP3   OH238629   3.016   5.321   5.899
12895TIP3    H138630   3.094   5.324   5.843
12895TIP3    H238631   3.008   5.411   5.933
12896TIP3   OH238632   6.190   7.410   5.206
12896TIP3    H138633   6.238   7.481   5.163
12896TIP3    H238634   6.246   7.385   5.280
12897TIP3   OH238635   4.291   7.308   2.625
12897TIP3    H138636   4.212   7.353   2.596
12897TIP3    H238637   4.285   7.220   2.587
12898TIP3   OH238638   4.585   6.776   0.667
12898TIP3    H138639   4.521   6.712   0.697
12898TIP3    H238640   4.635   6.799   0.745
12899TIP3   OH238641   7.118   4.436   5.699
12899TIP3    H138642   7.179   4.403   5.765
12899TIP3    H238643   7.107   4.529   5.721
12900TIP3   OH238644   4.394   4.063   5.476
12900TIP3    H138645   4.452   4.033   5.545
12900TIP3    H238646   4.394   3.991   5.412
12901TIP3   OH238647   0.040   7.578   4.400
12901TIP3    H138648   0.126   7.620   4.407
12901TIP3    H238649  -0.020   7.650   4.379
12902TIP3   OH238650   5.986   1.501   3.637
12902TIP3    H138651   5.917   1.562   3.663
12902TIP3    H238652   5.995   1.441   3.711
12903TIP3   OH238653   3.546   6.106   5.251
12903TIP3    H138654   3.572   6.078   5.163
12903TIP3    H238655   3.612   6.171   5.276
12904TIP3   OH238656   0.119   2.019   6.560
12904TIP3    H138657   0.077   2.046   6.641
12904TIP3    H238658   0.194   1.966   6.588
12905TIP3   OH238659   2.902   5.549   2.694
12905TIP3    H138660   2.957   5.520   2.621
12905TIP3    H238661   2.841   5.477   2.708
12906TIP3   OH238662   6.604   3.123   5.314
12906TIP3    H138663   6.590   3.170   5.231
12906TIP3    H238664   6.677   3.064   5.296
12907TIP3   OH238665   4.787   7.122   2.812
12907TIP3    H138666   4.759   7.059   2.878
12907TIP3    H238667   4.720   7.117   2.743
12908TIP3   OH238668   6.367   3.995   6.538
12908TIP3    H138669   6.363   3.937   6.615
12908TIP3    H238670   6.454   3.980   6.502
12909TIP3   OH238671   1.050   0.397   1.484
12909TIP3    H138672   1.131   0.363   1.521
12909TIP3    H238673   0.989   0.401   1.558
12910TIP3   OH238674   0.828   6.979   4.708
12910TIP3    H138675   0.773   7.032   4.651
12910TIP3    H238676   0.845   7.036   4.784
12911TIP3   OH238677   3.571   2.794   5.346
12911TIP3    H138678   3.530   2.879   5.334
12911TIP3    H238679   3.561   2.776   5.440
12912TIP3   OH238680   4.275   0.146   5.810
12912TIP3    H138681   4.335   0.091   5.862
12912TIP3    H238682   4.307   0.235   5.823
12913TIP3   OH238683   6.507   2.780   0.082
12913TIP3    H138684   6.441   2.742   0.141
12913TIP3    H238685   6.470   2.767  -0.005
12914TIP3   OH238686   1.597   2.372   6.001
12914TIP3    H138687   1.502   2.367   6.005
12914TIP3    H238688   1.618   2.357   5.909
12915TIP3   OH238689   4.719   7.180   1.901
12915TIP3    H138690   4.683   7.268   1.892
12915TIP3    H238691   4.677   7.129   1.832
12916TIP3   OH238692   0.949   3.536   3.898
12916TIP3    H138693   0.941   3.556   3.991
12916TIP3    H238694   0.919   3.616   3.854
12917TIP3   OH238695   0.159   6.340   1.710
12917TIP3    H138696   0.098   6.280   1.753
12917TIP3    H238697   0.141   6.425   1.750
12918TIP3   OH238698   5.382   7.225   0.728
12918TIP3    H138699   5.356   7.309   0.767
12918TIP3    H238700   5.306   7.168   0.741
12919TIP3   OH238701   6.849   4.275   3.384
12919TIP3    H138702   6.931   4.304   3.423
12919TIP3    H238703   6.787   4.346   3.400
12920TIP3   OH238704   6.215   5.958   5.829
12920TIP3    H138705   6.224   5.873   5.785
12920TIP3    H238706   6.299   6.001   5.815
12921TIP3   OH238707   4.772   1.516   1.072
12921TIP3    H138708   4.782   1.547   1.162
12921TIP3    H238709   4.678   1.502   1.061
12922TIP3   OH238710   5.224   0.348   0.483
12922TIP3    H138711   5.234   0.309   0.570
12922TIP3    H238712   5.246   0.441   0.496
12923TIP3   OH238713   6.405   3.463   1.423
12923TIP3    H138714   6.317   3.469   1.461
12923TIP3    H238715   6.392   3.478   1.329
12924TIP3   OH238716   6.310   3.630   3.641
12924TIP3    H138717   6.324   3.640   3.547
12924TIP3    H238718   6.358   3.702   3.681
12925TIP3   OH238719   7.633   6.207   3.810
12925TIP3    H138720   7.647   6.242   3.897
12925TIP3    H238721   7.666   6.274   3.751
12926TIP3   OH238722   7.744   5.522   6.175
12926TIP3    H138723   7.695   5.506   6.093
12926TIP3    H238724   7.681   5.566   6.232
12927TIP3   OH238725   2.786   4.687   5.032
12927TIP3    H138726   2.791   4.763   4.974
12927TIP3    H238727   2.837   4.712   5.109
12928TIP3   OH238728   6.668   6.574   4.625
12928TIP3    H138729   6.722   6.546   4.698
12928TIP3    H238730   6.648   6.666   4.643
12929TIP3   OH238731   3.717   4.399   3.633
12929TIP3    H138732   3.668   4.463   3.684
12929TIP3    H238733   3.747   4.447   3.556
12930TIP3   OH238734   5.654   5.176   2.885
12930TIP3    H138735   5.630   5.220   2.803
12930TIP3    H238736   5.572   5.169   2.934
12931TIP3   OH238737   0.399   5.501   4.490
12931TIP3    H138738   0.347   5.576   4.521
12931TIP3    H238739   0.338   5.450   4.437
12932TIP3   OH238740   4.610   1.546   2.753
12932TIP3    H138741   4.597   1.465   2.704
12932TIP3    H238742   4.646   1.608   2.689
12933TIP3   OH238743   0.683   5.710   2.094
12933TIP3    H138744   0.657   5.663   2.015
12933TIP3    H238745   0.695   5.642   2.160
12934TIP3   OH238746   4.403   4.443   6.201
12934TIP3    H138747   4.339   4.499   6.246
12934TIP3    H238748   4.461   4.412   6.271
12935TIP3   OH238749   2.569   0.663   2.582
12935TIP3    H138750   2.605   0.656   2.493
12935TIP3    H238751   2.559   0.573   2.611
12936TIP3   OH238752   4.685   1.930   0.783
12936TIP3    H138753   4.743   1.857   0.807
12936TIP3    H238754   4.657   1.910   0.694
12937TIP3   OH238755   8.293   1.206   0.824
12937TIP3    H138756   8.353   1.280   0.827
12937TIP3    H238757   8.231   1.222   0.894
12938TIP3   OH238758   8.209   6.099   3.388
12938TIP3    H138759   8.251   6.022   3.427
12938TIP3    H238760   8.209   6.081   3.294
12939TIP3   OH238761   0.769   3.245   4.213
12939TIP3    H138762   0.721   3.173   4.252
12939TIP3    H238763   0.839   3.203   4.162
12940TIP3   OH238764   5.807   0.470   1.087
12940TIP3    H138765   5.814   0.503   1.176
12940TIP3    H238766   5.856   0.388   1.087
12941TIP3   OH238767   2.408   4.639   4.749
12941TIP3    H138768   2.448   4.626   4.835
12941TIP3    H238769   2.424   4.731   4.728
12942TIP3   OH238770   2.381   2.853   5.416
12942TIP3    H138771   2.469   2.854   5.378
12942TIP3    H238772   2.334   2.786   5.366
12943TIP3   OH238773   0.979   1.910   1.097
12943TIP3    H138774   0.906   1.969   1.116
12943TIP3    H238775   0.971   1.841   1.162
12944TIP3   OH238776   3.938   3.497   4.369
12944TIP3    H138777   3.964   3.430   4.306
12944TIP3    H238778   3.878   3.453   4.429
12945TIP3   OH238779   2.098   6.240   5.909
12945TIP3    H138780   2.187   6.217   5.884
12945TIP3    H238781   2.048   6.159   5.898
12946TIP3   OH238782   4.152   3.005   6.259
12946TIP3    H138783   4.080   3.068   6.251
12946TIP3    H238784   4.154   2.959   6.175
12947TIP3   OH238785   5.385   6.353   6.217
12947TIP3    H138786   5.321   6.284   6.231
12947TIP3    H238787   5.333   6.428   6.187
12948TIP3   OH238788   0.348   5.792   0.211
12948TIP3    H138789   0.424   5.737   0.192
12948TIP3    H238790   0.287   5.775   0.139
12949TIP3   OH238791   4.364   2.995   5.131
12949TIP3    H138792   4.379   3.028   5.042
12949TIP3    H238793   4.444   2.949   5.153
12950TIP3   OH238794   8.238   0.563   2.446
12950TIP3    H138795   8.229   0.553   2.541
12950TIP3    H238796   8.220   0.476   2.411
12951TIP3   OH238797   4.292   0.047   0.351
12951TIP3    H138798   4.358   0.116   0.359
12951TIP3    H238799   4.295   0.022   0.258
12952TIP3   OH238800   0.381   0.016   3.397
12952TIP3    H138801   0.403   0.031   3.489
12952TIP3    H238802   0.345   0.100   3.367
12953TIP3   OH238803   2.681   5.168   6.595
12953TIP3    H138804   2.591   5.178   6.626
12953TIP3    H238805   2.717   5.097   6.648
12954TIP3   OH238806   2.948   7.726   4.120
12954TIP3    H138807   2.881   7.789   4.145
12954TIP3    H238808   3.003   7.773   4.056
12955TIP3   OH238809   3.840   1.479   1.600
12955TIP3    H138810   3.884   1.397   1.580
12955TIP3    H238811   3.875   1.542   1.536
12956TIP3   OH238812   5.095   0.168   5.190
12956TIP3    H138813   5.132   0.253   5.166
12956TIP3    H238814   5.025   0.153   5.127
12957TIP3   OH238815   0.607   4.979   1.147
12957TIP3    H138816   0.538   5.041   1.125
12957TIP3    H238817   0.648   4.957   1.063
12958TIP3   OH238818   6.591   7.231   3.096
12958TIP3    H138819   6.684   7.211   3.109
12958TIP3    H238820   6.580   7.318   3.134
12959TIP3   OH238821   5.657   6.907   3.412
12959TIP3    H138822   5.672   6.961   3.489
12959TIP3    H238823   5.582   6.946   3.369
12960TIP3   OH238824   1.937   6.219   1.632
12960TIP3    H138825   1.943   6.250   1.542
12960TIP3    H238826   1.846   6.236   1.658
12961TIP3   OH238827   6.150   1.489   0.419
12961TIP3    H138828   6.101   1.562   0.382
12961TIP3    H238829   6.237   1.496   0.381
12962TIP3   OH238830   7.106   5.407   3.722
12962TIP3    H138831   7.012   5.411   3.741
12962TIP3    H238832   7.142   5.354   3.793
12963TIP3   OH238833   0.860   0.106   5.432
12963TIP3    H138834   0.824   0.098   5.343
12963TIP3    H238835   0.784   0.122   5.487
12964TIP3   OH238836   0.122   3.346   3.183
12964TIP3    H138837   0.117   3.418   3.121
12964TIP3    H238838   0.063   3.279   3.148
12965TIP3   OH238839   7.721   4.530   4.426
12965TIP3    H138840   7.809   4.559   4.399
12965TIP3    H238841   7.725   4.435   4.424
12966TIP3   OH238842   3.442   0.822   3.039
12966TIP3    H138843   3.366   0.856   2.991
12966TIP3    H238844   3.485   0.763   2.977
12967TIP3   OH238845   1.603   4.893   4.678
12967TIP3    H138846   1.578   4.856   4.762
12967TIP3    H238847   1.680   4.844   4.651
12968TIP3   OH238848   4.826   5.813   4.794
12968TIP3    H138849   4.743   5.858   4.776
12968TIP3    H238850   4.892   5.866   4.750
12969TIP3   OH238851   0.614   7.818   3.253
12969TIP3    H138852   0.611   7.812   3.349
12969TIP3    H238853   0.702   7.788   3.230
12970TIP3   OH238854   2.937   5.682   2.267
12970TIP3    H138855   2.949   5.594   2.302
12970TIP3    H238856   2.873   5.671   2.196
12971TIP3   OH238857   1.815   3.190   5.423
12971TIP3    H138858   1.858   3.116   5.380
12971TIP3    H238859   1.727   3.192   5.386
12972TIP3   OH238860   2.169   3.399   6.031
12972TIP3    H138861   2.258   3.433   6.025
12972TIP3    H238862   2.179   3.305   6.016
12973TIP3   OH238863   1.965   3.798   0.602
12973TIP3    H138864   1.894   3.748   0.642
12973TIP3    H238865   1.957   3.886   0.639
12974TIP3   OH238866   6.935   5.760   0.989
12974TIP3    H138867   6.941   5.685   0.929
12974TIP3    H238868   6.908   5.833   0.933
12975TIP3   OH238869   7.107   5.527   0.476
12975TIP3    H138870   7.083   5.613   0.510
12975TIP3    H238871   7.082   5.466   0.545
12976TIP3   OH238872   4.782   1.205   5.561
12976TIP3    H138873   4.840   1.206   5.638
12976TIP3    H238874   4.757   1.296   5.548
12977TIP3   OH238875   5.633   1.072   3.967
12977TIP3    H138876   5.615   1.164   3.987
12977TIP3    H238877   5.685   1.041   4.041
12978TIP3   OH238878   3.505   5.579   6.600
12978TIP3    H138879   3.509   5.485   6.621
12978TIP3    H238880   3.470   5.582   6.511
12979TIP3   OH238881   1.731   5.400   5.509
12979TIP3    H138882   1.736   5.307   5.531
12979TIP3    H238883   1.747   5.445   5.593
12980TIP3   OH238884   4.350   1.035   6.028
12980TIP3    H138885   4.264   1.075   6.033
12980TIP3    H238886   4.334   0.941   6.040
12981TIP3   OH238887   1.586   3.754   5.672
12981TIP3    H138888   1.570   3.835   5.624
12981TIP3    H238889   1.639   3.701   5.613
12982TIP3   OH238890   7.322   0.492   0.910
12982TIP3    H138891   7.294   0.541   0.832
12982TIP3    H238892   7.365   0.558   0.965
12983TIP3   OH238893   3.892   1.469   2.080
12983TIP3    H138894   3.925   1.421   2.156
12983TIP3    H238895   3.845   1.404   2.029
12984TIP3   OH238896   3.317   3.763   2.796
12984TIP3    H138897   3.360   3.807   2.869
12984TIP3    H238898   3.243   3.718   2.835
12985TIP3   OH238899   4.167   2.586   0.840
12985TIP3    H138900   4.091   2.537   0.809
12985TIP3    H238901   4.223   2.594   0.763
12986TIP3   OH238902   6.136   1.614   3.920
12986TIP3    H138903   6.128   1.630   4.014
12986TIP3    H238904   6.202   1.676   3.891
12987TIP3   OH238905   2.855   2.101   6.100
12987TIP3    H138906   2.778   2.075   6.151
12987TIP3    H238907   2.884   2.019   6.059
12988TIP3   OH238908   0.112   3.502   5.130
12988TIP3    H138909   0.094   3.481   5.221
12988TIP3    H238910   0.204   3.480   5.118
12989TIP3   OH238911   3.571   1.264   0.224
12989TIP3    H138912   3.519   1.271   0.304
12989TIP3    H238913   3.611   1.177   0.228
12990TIP3   OH238914   0.153   1.191   1.585
12990TIP3    H138915   0.087   1.146   1.638
12990TIP3    H238916   0.103   1.229   1.513
12991TIP3   OH238917   1.624   7.132   5.173
12991TIP3    H138918   1.660   7.078   5.243
12991TIP3    H238919   1.619   7.073   5.098
12992TIP3   OH238920   7.712   0.640   3.477
12992TIP3    H138921   7.706   0.544   3.480
12992TIP3    H238922   7.690   0.662   3.386
12993TIP3   OH238923   3.931   3.864   0.298
12993TIP3    H138924   3.898   3.794   0.241
12993TIP3    H238925   3.887   3.943   0.267
12994TIP3   OH238926   0.077   2.022   4.665
12994TIP3    H138927   0.050   2.107   4.700
12994TIP3    H238928   0.173   2.027   4.661
12995TIP3   OH238929   1.954   3.051   1.052
12995TIP3    H138930   2.009   3.054   0.973
12995TIP3    H238931   1.995   3.113   1.112
12996TIP3   OH238932   2.331   1.999   4.856
12996TIP3    H138933   2.267   1.984   4.787
12996TIP3    H238934   2.286   2.054   4.920
12997TIP3   OH238935   5.713   6.379   3.467
12997TIP3    H138936   5.735   6.472   3.468
12997TIP3    H238937   5.797   6.334   3.478
12998TIP3   OH238938   1.889   6.727   4.479
12998TIP3    H138939   1.927   6.755   4.396
12998TIP3    H238940   1.864   6.636   4.464
12999TIP3   OH238941   3.767   1.457   3.139
12999TIP3    H138942   3.752   1.449   3.233
12999TIP3    H238943   3.716   1.533   3.112
13000TIP3   OH238944   8.297   3.364   5.690
13000TIP3    H138945   8.240   3.379   5.614
13000TIP3    H238946   8.279   3.274   5.716
13001TIP3   OH238947   5.362   0.933   6.748
13001TIP3    H138948   5.387   0.952   6.838
13001TIP3    H238949   5.435   0.965   6.696
13002TIP3   OH238950   5.802   0.909   5.670
13002TIP3    H138951   5.855   0.975   5.715
13002TIP3    H238952   5.715   0.918   5.709
13003TIP3   OH238953   5.644   2.681   5.813
13003TIP3    H138954   5.597   2.719   5.739
13003TIP3    H238955   5.716   2.632   5.774
13004TIP3   OH238956   7.353   5.035   4.077
13004TIP3    H138957   7.423   4.976   4.104
13004TIP3    H238958   7.394   5.096   4.015
13005TIP3   OH238959   2.426   5.183   6.726
13005TIP3    H138960   2.348   5.129   6.741
13005TIP3    H238961   2.395   5.255   6.671
13006TIP3   OH238962   4.070   6.347   1.047
13006TIP3    H138963   3.974   6.341   1.055
13006TIP3    H238964   4.093   6.426   1.095
13007TIP3   OH238965   6.109   6.464   5.700
13007TIP3    H138966   6.177   6.530   5.715
13007TIP3    H238967   6.127   6.431   5.612
13008TIP3   OH238968   6.886   7.700   2.449
13008TIP3    H138969   6.977   7.703   2.420
13008TIP3    H238970   6.878   7.773   2.510
13009TIP3   OH238971   3.330   0.484   2.946
13009TIP3    H138972   3.259   0.544   2.968
13009TIP3    H238973   3.289   0.417   2.892
13010TIP3   OH238974   5.789   5.382   2.341
13010TIP3    H138975   5.726   5.453   2.331
13010TIP3    H238976   5.852   5.396   2.270
13011TIP3   OH238977   7.562   6.700   4.593
13011TIP3    H138978   7.519   6.773   4.636
13011TIP3    H238979   7.563   6.723   4.500
13012TIP3   OH238980   6.047   6.959   1.244
13012TIP3    H138981   6.072   6.928   1.157
13012TIP3    H238982   6.004   6.883   1.284
13013TIP3   OH238983   3.330   2.155   0.274
13013TIP3    H138984   3.304   2.140   0.365
13013TIP3    H238985   3.252   2.136   0.222
13014TIP3   OH238986   7.809   3.994   1.326
13014TIP3    H138987   7.854   4.075   1.303
13014TIP3    H238988   7.720   4.005   1.293
13015TIP3   OH238989   6.051   1.359   3.854
13015TIP3    H138990   5.998   1.326   3.927
13015TIP3    H238991   6.064   1.452   3.874
13016TIP3   OH238992   1.950   3.464   5.672
13016TIP3    H138993   2.003   3.386   5.656
13016TIP3    H238994   1.898   3.443   5.749
13017TIP3   OH238995   1.247   0.855   5.239
13017TIP3    H138996   1.193   0.820   5.310
13017TIP3    H238997   1.302   0.781   5.214
13018TIP3   OH238998   0.039   7.730   3.427
13018TIP3    H138999   0.036   7.811   3.477
13018TIP3    H239000   0.054   7.662   3.492
13019TIP3   OH239001   2.980   0.459   3.926
13019TIP3    H139002   3.064   0.425   3.954
13019TIP3    H239003   2.930   0.470   4.008
13020TIP3   OH239004   7.757   7.063   1.111
13020TIP3    H139005   7.844   7.038   1.082
13020TIP3    H239006   7.715   6.981   1.136
13021TIP3   OH239007   2.950   5.489   1.288
13021TIP3    H139008   2.880   5.554   1.283
13021TIP3    H239009   2.985   5.485   1.199
13022TIP3   OH239010   2.703   6.749   6.690
13022TIP3    H139011   2.718   6.842   6.674
13022TIP3    H239012   2.774   6.705   6.644
13023TIP3   OH239013   1.587   3.142   5.268
13023TIP3    H139014   1.532   3.219   5.253
13023TIP3    H239015   1.561   3.081   5.199
13024TIP3   OH239016   6.092   3.535   4.756
13024TIP3    H139017   6.094   3.471   4.826
13024TIP3    H239018   6.128   3.489   4.680
13025TIP3   OH239019   3.778   3.585   0.093
13025TIP3    H139020   3.722   3.537   0.032
13025TIP3    H239021   3.723   3.656   0.127
13026TIP3   OH239022   1.977   7.789   3.325
13026TIP3    H139023   1.928   7.845   3.385
13026TIP3    H239024   2.061   7.834   3.313
13027TIP3   OH239025   0.795   7.291   6.586
13027TIP3    H139026   0.833   7.352   6.649
13027TIP3    H239027   0.710   7.328   6.564
13028TIP3   OH239028   3.646   3.475   1.661
13028TIP3    H139029   3.702   3.413   1.614
13028TIP3    H239030   3.616   3.427   1.738
13029TIP3   OH239031   6.401   2.861   3.634
13029TIP3    H139032   6.452   2.934   3.670
13029TIP3    H239033   6.382   2.805   3.709
13030TIP3   OH239034   7.650   2.625   3.079
13030TIP3    H139035   7.726   2.668   3.038
13030TIP3    H239036   7.579   2.637   3.016
13031TIP3   OH239037   3.510   7.051   2.237
13031TIP3    H139038   3.462   7.025   2.159
13031TIP3    H239039   3.585   6.991   2.240
13032TIP3   OH239040   2.664   0.602   6.623
13032TIP3    H139041   2.634   0.583   6.534
13032TIP3    H239042   2.589   0.585   6.678
13033TIP3   OH239043   2.701   3.043   4.225
13033TIP3    H139044   2.727   3.114   4.284
13033TIP3    H239045   2.623   3.006   4.266
13034TIP3   OH239046   7.484   2.221   5.255
13034TIP3    H139047   7.474   2.170   5.336
13034TIP3    H239048   7.485   2.312   5.283
13035TIP3   OH239049   1.187   5.467   6.429
13035TIP3    H139050   1.238   5.545   6.405
13035TIP3    H239051   1.180   5.418   6.347
13036TIP3   OH239052   4.769   6.273   3.589
13036TIP3    H139053   4.816   6.210   3.535
13036TIP3    H239054   4.837   6.334   3.618
13037TIP3   OH239055   6.021   4.689   0.782
13037TIP3    H139056   5.964   4.640   0.841
13037TIP3    H239057   6.110   4.662   0.806
13038TIP3   OH239058   6.601   0.778   0.284
13038TIP3    H139059   6.682   0.789   0.334
13038TIP3    H239060   6.589   0.861   0.238
13039TIP3   OH239061   5.469   1.407   5.344
13039TIP3    H139062   5.467   1.333   5.283
13039TIP3    H239063   5.488   1.482   5.289
13040TIP3   OH239064   3.243   0.990   2.659
13040TIP3    H139065   3.229   0.901   2.626
13040TIP3    H239066   3.335   0.992   2.686
13041TIP3   OH239067   6.370   2.809   2.820
13041TIP3    H139068   6.296   2.841   2.872
13041TIP3    H239069   6.337   2.808   2.730
13042TIP3   OH239070   5.761   1.962   5.986
13042TIP3    H139071   5.761   1.930   6.076
13042TIP3    H239072   5.703   2.037   5.987
13043TIP3   OH239073   7.792   4.075   5.070
13043TIP3    H139074   7.811   4.157   5.114
13043TIP3    H239075   7.869   4.021   5.086
13044TIP3   OH239076   2.460   1.549   5.900
13044TIP3    H139077   2.402   1.615   5.862
13044TIP3    H239078   2.408   1.469   5.899
13045TIP3   OH239079   7.615   2.328   1.380
13045TIP3    H139080   7.587   2.342   1.470
13045TIP3    H239081   7.631   2.416   1.345
13046TIP3   OH239082   7.757   4.055   2.830
13046TIP3    H139083   7.831   4.089   2.880
13046TIP3    H239084   7.741   3.967   2.866
13047TIP3   OH239085   2.366   2.345   0.222
13047TIP3    H139086   2.429   2.277   0.246
13047TIP3    H239087   2.287   2.323   0.272
13048TIP3   OH239088   0.499   7.046   0.825
13048TIP3    H139089   0.555   7.124   0.819
13048TIP3    H239090   0.548   6.979   0.777
13049TIP3   OH239091   1.215   4.249   0.196
13049TIP3    H139092   1.154   4.176   0.187
13049TIP3    H239093   1.265   4.229   0.275
13050TIP3   OH239094   5.964   2.018   4.590
13050TIP3    H139095   6.023   1.945   4.610
13050TIP3    H239096   5.880   1.976   4.572
13051TIP3   OH239097   7.124   3.867   2.122
13051TIP3    H139098   7.041   3.857   2.076
13051TIP3    H239099   7.182   3.803   2.081
13052TIP3   OH239100   7.799   0.987   2.495
13052TIP3    H139101   7.822   0.997   2.402
13052TIP3    H239102   7.765   0.898   2.502
13053TIP3   OH239103   3.618   4.930   4.322
13053TIP3    H139104   3.617   5.025   4.330
13053TIP3    H239105   3.598   4.898   4.410
13054TIP3   OH239106   4.503   1.064   1.441
13054TIP3    H139107   4.495   1.034   1.532
13054TIP3    H239108   4.425   1.118   1.427
13055TIP3   OH239109   0.617   2.620   2.695
13055TIP3    H139110   0.597   2.584   2.609
13055TIP3    H239111   0.582   2.556   2.757
13056TIP3   OH239112   5.270   4.397   0.928
13056TIP3    H139113   5.188   4.444   0.910
13056TIP3    H239114   5.250   4.306   0.905
13057TIP3   OH239115   0.406   1.215   4.426
13057TIP3    H139116   0.392   1.307   4.448
13057TIP3    H239117   0.358   1.167   4.493
13058TIP3   OH239118   0.774   1.784   1.990
13058TIP3    H139119   0.802   1.738   1.911
13058TIP3    H239120   0.742   1.868   1.959
13059TIP3   OH239121   5.822   1.328   4.961
13059TIP3    H139122   5.748   1.271   4.983
13059TIP3    H239123   5.893   1.297   5.018
13060TIP3   OH239124   2.436   7.768   0.903
13060TIP3    H139125   2.387   7.691   0.933
13060TIP3    H239126   2.442   7.824   0.980
13061TIP3   OH239127   4.769   3.630   2.662
13061TIP3    H139128   4.814   3.602   2.742
13061TIP3    H239129   4.745   3.549   2.618
13062TIP3   OH239130   6.543   2.755   3.165
13062TIP3    H139131   6.541   2.662   3.187
13062TIP3    H239132   6.453   2.785   3.182
13063TIP3   OH239133   3.869   4.691   2.447
13063TIP3    H139134   3.891   4.741   2.368
13063TIP3    H239135   3.793   4.737   2.483
13064TIP3   OH239136   6.600   1.377   5.200
13064TIP3    H139137   6.596   1.327   5.282
13064TIP3    H239138   6.656   1.325   5.143
13065TIP3   OH239139   6.782   3.932   2.218
13065TIP3    H139140   6.710   3.979   2.175
13065TIP3    H239141   6.757   3.930   2.311
13066TIP3   OH239142   7.961   1.455   2.650
13066TIP3    H139143   7.985   1.433   2.560
13066TIP3    H239144   7.866   1.463   2.648
13067TIP3   OH239145   7.425   4.892   5.611
13067TIP3    H139146   7.355   4.886   5.547
13067TIP3    H239147   7.425   4.806   5.654
13068TIP3   OH239148   5.260   1.506   1.484
13068TIP3    H139149   5.214   1.587   1.461
13068TIP3    H239150   5.193   1.453   1.527
13069TIP3   OH239151   3.135   4.541   5.023
13069TIP3    H139152   3.134   4.446   5.008
13069TIP3    H239153   3.093   4.552   5.108
13070TIP3   OH239154   7.853   5.227   5.686
13070TIP3    H139155   7.802   5.245   5.765
13070TIP3    H239156   7.812   5.149   5.648
13071TIP3   OH239157   0.711   7.076   0.021
13071TIP3    H139158   0.717   6.988  -0.016
13071TIP3    H239159   0.633   7.075   0.076
13072TIP3   OH239160   3.393   2.941   1.803
13072TIP3    H139161   3.309   2.900   1.782
13072TIP3    H239162   3.458   2.878   1.770
13073TIP3   OH239163   2.047   2.575   5.356
13073TIP3    H139164   2.083   2.592   5.444
13073TIP3    H239165   2.117   2.602   5.296
13074TIP3   OH239166   3.056   3.305   6.182
13074TIP3    H139167   2.976   3.261   6.155
13074TIP3    H239168   3.083   3.258   6.261
13075TIP3   OH239169   5.957   2.865   0.425
13075TIP3    H139170   5.868   2.900   0.430
13075TIP3    H239171   5.952   2.783   0.474
13076TIP3   OH239172   6.579   5.501   3.812
13076TIP3    H139173   6.551   5.529   3.899
13076TIP3    H239174   6.570   5.579   3.758
13077TIP3   OH239175   2.169   2.989   2.152
13077TIP3    H139176   2.141   3.077   2.124
13077TIP3    H239177   2.256   2.979   2.112
13078TIP3   OH239178   3.836   5.524   6.430
13078TIP3    H139179   3.791   5.448   6.466
13078TIP3    H239180   3.822   5.594   6.494
13079TIP3   OH239181   8.052   0.992   6.630
13079TIP3    H139182   8.139   1.026   6.651
13079TIP3    H239183   8.015   1.057   6.570
13080TIP3   OH239184   7.231   3.446   0.552
13080TIP3    H139185   7.227   3.541   0.550
13080TIP3    H239186   7.181   3.421   0.630
13081TIP3   OH239187   1.439   7.285   0.526
13081TIP3    H139188   1.448   7.337   0.446
13081TIP3    H239189   1.524   7.291   0.569
13082TIP3   OH239190   5.515   5.224   4.445
13082TIP3    H139191   5.554   5.180   4.520
13082TIP3    H239192   5.534   5.166   4.371
13083TIP3   OH239193   4.823   5.562   1.359
13083TIP3    H139194   4.764   5.553   1.433
13083TIP3    H239195   4.910   5.565   1.397
13084TIP3   OH239196   4.178   0.076   1.467
13084TIP3    H139197   4.204   0.079   1.375
13084TIP3    H239198   4.092   0.034   1.467
13085TIP3   OH239199   6.418   1.089   2.981
13085TIP3    H139200   6.347   1.031   2.953
13085TIP3    H239201   6.495   1.032   2.986
13086TIP3   OH239202   6.343   1.083   4.796
13086TIP3    H139203   6.422   1.090   4.743
13086TIP3    H239204   6.369   1.116   4.882
13087TIP3   OH239205   0.319   5.733   1.874
13087TIP3    H139206   0.371   5.777   1.807
13087TIP3    H239207   0.301   5.800   1.940
13088TIP3   OH239208   1.253   0.812   1.387
13088TIP3    H139209   1.308   0.849   1.318
13088TIP3    H239210   1.205   0.741   1.345
13089TIP3   OH239211   3.797   6.353   3.569
13089TIP3    H139212   3.811   6.447   3.586
13089TIP3    H239213   3.715   6.333   3.613
13090TIP3   OH239214   5.888   1.727   5.487
13090TIP3    H139215   5.806   1.776   5.498
13090TIP3    H239216   5.859   1.636   5.478
13091TIP3   OH239217   4.920   4.839   5.260
13091TIP3    H139218   4.963   4.754   5.264
13091TIP3    H239219   4.920   4.871   5.350
13092TIP3   OH239220   1.866   5.177   3.404
13092TIP3    H139221   1.892   5.253   3.351
13092TIP3    H239222   1.906   5.192   3.489
13093TIP3   OH239223   3.018   3.544   1.356
13093TIP3    H139224   2.982   3.624   1.394
13093TIP3    H239225   3.065   3.503   1.429
13094TIP3   OH239226   1.244   1.118   5.319
13094TIP3    H139227   1.233   1.024   5.303
13094TIP3    H239228   1.183   1.160   5.257
13095TIP3   OH239229   3.376   6.436   2.530
13095TIP3    H139230   3.455   6.456   2.581
13095TIP3    H239231   3.389   6.346   2.500
13096TIP3   OH239232   3.753   4.543   0.390
13096TIP3    H139233   3.769   4.465   0.337
13096TIP3    H239234   3.726   4.509   0.476
13097TIP3   OH239235   4.922   5.058   5.839
13097TIP3    H139236   4.983   5.003   5.791
13097TIP3    H239237   4.965   5.143   5.845
13098TIP3   OH239238   7.603   1.753   4.803
13098TIP3    H139239   7.628   1.678   4.748
13098TIP3    H239240   7.645   1.828   4.761
13099TIP3   OH239241   0.103   1.801   5.608
13099TIP3    H139242   0.164   1.728   5.610
13099TIP3    H239243   0.016   1.760   5.608
13100TIP3   OH239244   3.683   4.566   5.034
13100TIP3    H139245   3.745   4.598   5.099
13100TIP3    H239246   3.597   4.587   5.071
13101TIP3   OH239247   4.797   3.330   3.941
13101TIP3    H139248   4.747   3.320   3.860
13101TIP3    H239249   4.756   3.404   3.985
13102TIP3   OH239250   7.264   5.956   0.882
13102TIP3    H139251   7.349   6.000   0.878
13102TIP3    H239252   7.283   5.865   0.864
13103TIP3   OH239253   5.599   7.343   2.551
13103TIP3    H139254   5.504   7.346   2.553
13103TIP3    H239255   5.620   7.249   2.546
13104TIP3   OH239256   4.979   4.537   2.460
13104TIP3    H139257   5.064   4.495   2.473
13104TIP3    H239258   4.952   4.565   2.548
13105TIP3   OH239259   5.740   5.937   5.047
13105TIP3    H139260   5.795   5.931   5.124
13105TIP3    H239261   5.743   5.850   5.007
13106TIP3   OH239262   1.580   3.015   3.371
13106TIP3    H139263   1.520   3.089   3.380
13106TIP3    H239264   1.664   3.048   3.402
13107TIP3   OH239265   2.299   1.022   4.814
13107TIP3    H139266   2.267   1.010   4.904
13107TIP3    H239267   2.320   1.115   4.809
13108TIP3   OH239268   6.782   5.496   5.720
13108TIP3    H139269   6.755   5.531   5.635
13108TIP3    H239270   6.709   5.441   5.748
13109TIP3   OH239271   8.209   0.486   6.291
13109TIP3    H139272   8.256   0.486   6.208
13109TIP3    H239273   8.117   0.496   6.266
13110TIP3   OH239274   0.314   0.879   4.754
13110TIP3    H139275   0.373   0.809   4.781
13110TIP3    H239276   0.227   0.838   4.754
13111TIP3   OH239277   0.790   1.947   4.185
13111TIP3    H139278   0.741   1.865   4.177
13111TIP3    H239279   0.882   1.920   4.191
13112TIP3   OH239280   3.545   0.265   3.029
13112TIP3    H139281   3.557   0.249   3.123
13112TIP3    H239282   3.466   0.318   3.023
13113TIP3   OH239283   7.108   4.838   2.171
13113TIP3    H139284   7.070   4.829   2.258
13113TIP3    H239285   7.173   4.767   2.166
13114TIP3   OH239286   2.849   1.170   5.800
13114TIP3    H139287   2.829   1.192   5.891
13114TIP3    H239288   2.927   1.223   5.779
13115TIP3   OH239289   4.637   2.764   2.213
13115TIP3    H139290   4.618   2.681   2.168
13115TIP3    H239291   4.654   2.739   2.303
13116TIP3   OH239292   6.571   4.947   3.553
13116TIP3    H139293   6.553   4.933   3.460
13116TIP3    H239294   6.511   4.888   3.598
13117TIP3   OH239295   7.085   6.436   4.095
13117TIP3    H139296   7.120   6.351   4.067
13117TIP3    H239297   7.079   6.428   4.191
13118TIP3   OH239298   4.118   7.290   3.562
13118TIP3    H139299   4.200   7.250   3.532
13118TIP3    H239300   4.078   7.222   3.616
13119TIP3   OH239301   3.984   4.736   6.432
13119TIP3    H139302   3.931   4.812   6.408
13119TIP3    H239303   3.948   4.664   6.380
13120TIP3   OH239304   4.921   1.371   2.444
13120TIP3    H139305   4.916   1.438   2.375
13120TIP3    H239306   4.989   1.404   2.504
13121TIP3   OH239307   4.402   0.631   0.770
13121TIP3    H139308   4.391   0.550   0.721
13121TIP3    H239309   4.399   0.605   0.862
13122TIP3   OH239310   7.157   0.559   2.510
13122TIP3    H139311   7.156   0.654   2.514
13122TIP3    H239312   7.092   0.537   2.443
13123TIP3   OH239313   5.533   4.688   0.188
13123TIP3    H139314   5.442   4.716   0.176
13123TIP3    H239315   5.572   4.694   0.101
13124TIP3   OH239316   5.568   4.020   0.298
13124TIP3    H139317   5.509   4.079   0.345
13124TIP3    H239318   5.540   3.932   0.326
13125TIP3   OH239319   3.046   2.609   5.166
13125TIP3    H139320   3.123   2.642   5.119
13125TIP3    H239321   3.023   2.528   5.121
13126TIP3   OH239322   5.296   5.994   4.438
13126TIP3    H139323   5.264   5.928   4.376
13126TIP3    H239324   5.235   6.068   4.428
13127TIP3   OH239325   4.872   5.625   5.090
13127TIP3    H139326   4.829   5.710   5.079
13127TIP3    H239327   4.915   5.608   5.006
13128TIP3   OH239328   0.933   0.502   0.638
13128TIP3    H139329   0.914   0.422   0.589
13128TIP3    H239330   0.849   0.547   0.643
13129TIP3   OH239331   7.306   2.835   3.043
13129TIP3    H139332   7.228   2.889   3.055
13129TIP3    H239333   7.282   2.751   3.083
13130TIP3   OH239334   5.338   2.062   0.189
13130TIP3    H139335   5.342   2.080   0.095
13130TIP3    H239336   5.296   2.140   0.227
13131TIP3   OH239337   3.813   5.937   1.681
13131TIP3    H139338   3.755   5.942   1.605
13131TIP3    H239339   3.901   5.954   1.646
13132TIP3   OH239340   2.555   1.606   3.870
13132TIP3    H139341   2.527   1.528   3.822
13132TIP3    H239342   2.650   1.597   3.878
13133TIP3   OH239343   4.004   3.633   0.744
13133TIP3    H139344   3.941   3.646   0.816
13133TIP3    H239345   4.005   3.717   0.699
13134TIP3   OH239346   0.207   6.889   3.908
13134TIP3    H139347   0.290   6.852   3.939
13134TIP3    H239348   0.233   6.966   3.858
13135TIP3   OH239349   3.688   3.128   1.397
13135TIP3    H139350   3.618   3.146   1.460
13135TIP3    H239351   3.761   3.182   1.427
13136TIP3   OH239352   1.746   3.744   2.697
13136TIP3    H139353   1.755   3.827   2.651
13136TIP3    H239354   1.653   3.723   2.692
13137TIP3   OH239355   0.276   2.979   5.082
13137TIP3    H139356   0.243   3.063   5.051
13137TIP3    H239357   0.197   2.928   5.100
13138TIP3   OH239358   2.725   7.753   0.784
13138TIP3    H139359   2.710   7.802   0.865
13138TIP3    H239360   2.638   7.719   0.761
13139TIP3   OH239361   2.252   5.243   0.202
13139TIP3    H139362   2.159   5.263   0.192
13139TIP3    H239363   2.282   5.302   0.271
13140TIP3   OH239364   0.769   1.659   3.628
13140TIP3    H139365   0.706   1.681   3.559
13140TIP3    H239366   0.843   1.621   3.582
13141TIP3   OH239367   8.227   5.098   1.010
13141TIP3    H139368   8.182   5.123   0.929
13141TIP3    H239369   8.319   5.089   0.985
13142TIP3   OH239370   4.679   2.756   6.745
13142TIP3    H139371   4.763   2.720   6.719
13142TIP3    H239372   4.633   2.771   6.662
13143TIP3   OH239373   2.468   3.763   6.328
13143TIP3    H139374   2.518   3.801   6.401
13143TIP3    H239375   2.535   3.724   6.271
13144TIP3   OH239376   0.170   2.543   2.249
13144TIP3    H139377   0.144   2.495   2.328
13144TIP3    H239378   0.253   2.503   2.224
13145TIP3   OH239379   3.911   4.866   2.235
13145TIP3    H139380   3.863   4.823   2.164
13145TIP3    H239381   3.874   4.954   2.239
13146TIP3   OH239382   6.147   4.445   0.158
13146TIP3    H139383   6.203   4.410   0.227
13146TIP3    H239384   6.058   4.436   0.192
13147TIP3   OH239385   2.050   0.882   0.768
13147TIP3    H139386   2.070   0.970   0.800
13147TIP3    H239387   2.005   0.896   0.684
13148TIP3   OH239388   0.314   3.969   2.383
13148TIP3    H139389   0.360   3.989   2.465
13148TIP3    H239390   0.329   3.876   2.368
13149TIP3   OH239391   4.084   4.646   2.662
13149TIP3    H139392   4.131   4.572   2.624
13149TIP3    H239393   4.001   4.649   2.615
13150TIP3   OH239394   1.902   3.031   5.210
13150TIP3    H139395   1.846   2.963   5.172
13150TIP3    H239396   1.901   3.101   5.145
13151TIP3   OH239397   1.278   3.513   1.762
13151TIP3    H139398   1.356   3.566   1.781
13151TIP3    H239399   1.299   3.468   1.681
13152TIP3   OH239400   1.801   2.440   1.067
13152TIP3    H139401   1.779   2.476   0.982
13152TIP3    H239402   1.730   2.379   1.087
13153TIP3   OH239403   4.567   3.062   2.204
13153TIP3    H139404   4.607   3.103   2.127
13153TIP3    H239405   4.598   2.972   2.202
13154TIP3   OH239406   8.181   1.193   4.050
13154TIP3    H139407   8.123   1.120   4.030
13154TIP3    H239408   8.181   1.247   3.971
13155TIP3   OH239409   2.919   1.257   6.324
13155TIP3    H139410   2.933   1.343   6.283
13155TIP3    H239411   3.006   1.217   6.323
13156TIP3   OH239412   4.278   2.222   6.777
13156TIP3    H139413   4.205   2.189   6.829
13156TIP3    H239414   4.322   2.143   6.744
13157TIP3   OH239415   5.651   4.514   1.897
13157TIP3    H139416   5.609   4.442   1.851
13157TIP3    H239417   5.732   4.530   1.849
13158TIP3   OH239418   5.734   0.131   0.942
13158TIP3    H139419   5.645   0.157   0.966
13158TIP3    H239420   5.754   0.057   1.000
13159TIP3   OH239421   0.243   3.194   5.805
13159TIP3    H139422   0.150   3.178   5.793
13159TIP3    H239423   0.287   3.118   5.768
13160TIP3   OH239424   5.984   3.770   4.864
13160TIP3    H139425   5.907   3.770   4.922
13160TIP3    H239426   5.974   3.691   4.811
13161TIP3   OH239427   0.301   7.720   0.300
13161TIP3    H139428   0.225   7.673   0.333
13161TIP3    H239429   0.265   7.787   0.242
13162TIP3   OH239430   5.560   4.671   3.608
13162TIP3    H139431   5.627   4.721   3.561
13162TIP3    H239432   5.573   4.696   3.700
13163TIP3   OH239433   5.214   7.206   4.939
13163TIP3    H139434   5.201   7.289   4.985
13163TIP3    H239435   5.286   7.222   4.879
13164TIP3   OH239436   6.275   2.773   1.705
13164TIP3    H139437   6.202   2.711   1.700
13164TIP3    H239438   6.271   2.822   1.623
13165TIP3   OH239439   1.848   2.040   4.383
13165TIP3    H139440   1.896   1.961   4.357
13165TIP3    H239441   1.758   2.011   4.397
13166TIP3   OH239442   3.160   3.915   1.157
13166TIP3    H139443   3.140   3.996   1.203
13166TIP3    H239444   3.078   3.892   1.113
13167TIP3   OH239445   4.152   4.424   3.552
13167TIP3    H139446   4.197   4.340   3.564
13167TIP3    H239447   4.193   4.483   3.614
13168TIP3   OH239448   6.953   1.246   2.630
13168TIP3    H139449   6.976   1.206   2.714
13168TIP3    H239450   6.858   1.234   2.624
13169TIP3   OH239451   7.615   3.732   2.591
13169TIP3    H139452   7.688   3.714   2.651
13169TIP3    H239453   7.643   3.696   2.507
13170TIP3   OH239454   4.030   1.178   4.534
13170TIP3    H139455   4.043   1.260   4.580
13170TIP3    H239456   4.021   1.112   4.603
13171TIP3   OH239457   1.560   4.119   5.034
13171TIP3    H139458   1.534   4.102   4.943
13171TIP3    H239459   1.614   4.045   5.058
13172TIP3   OH239460   6.067   5.122   0.604
13172TIP3    H139461   6.105   5.210   0.607
13172TIP3    H239462   6.064   5.100   0.512
13173TIP3   OH239463   7.173   3.117   0.739
13173TIP3    H139464   7.096   3.059   0.738
13173TIP3    H239465   7.178   3.150   0.649
13174TIP3   OH239466   4.241   3.392   1.858
13174TIP3    H139467   4.302   3.425   1.793
13174TIP3    H239468   4.284   3.314   1.894
13175TIP3   OH239469   2.653   5.792   4.008
13175TIP3    H139470   2.598   5.825   4.080
13175TIP3    H239471   2.726   5.854   4.004
13176TIP3   OH239472   0.253   5.432   1.779
13176TIP3    H139473   0.236   5.524   1.798
13176TIP3    H239474   0.263   5.390   1.864
13177TIP3   OH239475   0.798   2.144   1.615
13177TIP3    H139476   0.855   2.087   1.666
13177TIP3    H239477   0.841   2.229   1.616
13178TIP3   OH239478   2.442   1.370   0.538
13178TIP3    H139479   2.386   1.376   0.461
13178TIP3    H239480   2.445   1.276   0.558
13179TIP3   OH239481   7.742   6.909   2.382
13179TIP3    H139482   7.835   6.903   2.405
13179TIP3    H239483   7.731   6.998   2.349
13180TIP3   OH239484   3.375   7.705   5.077
13180TIP3    H139485   3.334   7.701   4.991
13180TIP3    H239486   3.400   7.797   5.088
13181TIP3   OH239487   3.683   5.831   4.820
13181TIP3    H139488   3.636   5.763   4.772
13181TIP3    H239489   3.750   5.861   4.759
13182TIP3   OH239490   6.374   1.690   1.096
13182TIP3    H139491   6.385   1.681   1.191
13182TIP3    H239492   6.342   1.604   1.068
13183TIP3   OH239493   0.491   5.219   5.894
13183TIP3    H139494   0.533   5.171   5.822
13183TIP3    H239495   0.519   5.172   5.973
13184TIP3   OH239496   0.723   3.849   4.270
13184TIP3    H139497   0.644   3.795   4.273
13184TIP3    H239498   0.795   3.787   4.285
13185TIP3   OH239499   5.513   1.365   4.591
13185TIP3    H139500   5.511   1.271   4.572
13185TIP3    H239501   5.606   1.386   4.594
13186TIP3   OH239502   4.731   2.409   5.892
13186TIP3    H139503   4.643   2.428   5.924
13186TIP3    H239504   4.726   2.317   5.864
13187TIP3   OH239505   7.986   6.722   4.738
13187TIP3    H139506   7.935   6.753   4.813
13187TIP3    H239507   8.032   6.645   4.769
13188TIP3   OH239508   1.263   3.477   5.930
13188TIP3    H139509   1.273   3.564   5.890
13188TIP3    H239510   1.232   3.421   5.859
13189TIP3   OH239511   4.493   4.876   4.147
13189TIP3    H139512   4.413   4.883   4.199
13189TIP3    H239513   4.554   4.830   4.204
13190TIP3   OH239514   3.304   3.797   4.316
13190TIP3    H139515   3.254   3.770   4.393
13190TIP3    H239516   3.370   3.858   4.350
13191TIP3   OH239517   0.163   4.222   5.039
13191TIP3    H139518   0.197   4.185   4.957
13191TIP3    H239519   0.092   4.279   5.011
13192TIP3   OH239520   3.162   1.122   0.891
13192TIP3    H139521   3.249   1.156   0.912
13192TIP3    H239522   3.122   1.189   0.835
13193TIP3   OH239523   3.120   3.915   1.622
13193TIP3    H139524   3.040   3.954   1.655
13193TIP3    H239525   3.167   3.885   1.700
13194TIP3   OH239526   0.905   1.042   6.627
13194TIP3    H139527   0.978   1.031   6.567
13194TIP3    H239528   0.828   1.050   6.571
13195TIP3   OH239529   0.025   5.264   5.459
13195TIP3    H139530   0.088   5.196   5.483
13195TIP3    H239531   0.069   5.314   5.390
13196TIP3   OH239532   6.021   7.723   6.278
13196TIP3    H139533   5.956   7.793   6.287
13196TIP3    H239534   6.096   7.753   6.330
13197TIP3   OH239535   6.590   6.702   3.680
13197TIP3    H139536   6.543   6.717   3.762
13197TIP3    H239537   6.522   6.697   3.613
13198TIP3   OH239538   5.561   3.579   4.427
13198TIP3    H139539   5.516   3.640   4.485
13198TIP3    H239540   5.652   3.580   4.457
13199TIP3   OH239541   3.575   4.704   5.930
13199TIP3    H139542   3.613   4.637   5.874
13199TIP3    H239543   3.543   4.771   5.869
13200TIP3   OH239544   2.876   7.635   0.264
13200TIP3    H139545   2.817   7.704   0.232
13200TIP3    H239546   2.930   7.613   0.189
13201TIP3   OH239547   8.196   0.328   3.961
13201TIP3    H139548   8.161   0.239   3.952
13201TIP3    H239549   8.172   0.354   4.050
13202TIP3   OH239550   7.825   3.533   3.250
13202TIP3    H139551   7.733   3.540   3.222
13202TIP3    H239552   7.840   3.612   3.302
13203TIP3   OH239553   0.679   5.716   0.375
13203TIP3    H139554   0.610   5.666   0.417
13203TIP3    H239555   0.692   5.674   0.290
13204TIP3   OH239556   2.223   2.993   3.079
13204TIP3    H139557   2.201   3.081   3.051
13204TIP3    H239558   2.214   2.939   3.000
13205TIP3   OH239559   0.413   1.361   3.568
13205TIP3    H139560   0.346   1.299   3.600
13205TIP3    H239561   0.382   1.387   3.482
13206TIP3   OH239562   1.514   6.506   3.255
13206TIP3    H139563   1.571   6.484   3.182
13206TIP3    H239564   1.428   6.518   3.216
13207TIP3   OH239565   3.890   5.652   3.559
13207TIP3    H139566   3.962   5.635   3.498
13207TIP3    H239567   3.900   5.585   3.627
13208TIP3   OH239568   0.038   2.421   2.519
13208TIP3    H139569  -0.048   2.435   2.480
13208TIP3    H239570   0.023   2.357   2.589
13209TIP3   OH239571   7.319   5.187   5.402
13209TIP3    H139572   7.413   5.203   5.394
13209TIP3    H239573   7.307   5.098   5.368
13210TIP3   OH239574   3.680   4.903   3.013
13210TIP3    H139575   3.674   4.831   3.077
13210TIP3    H239576   3.641   4.867   2.934
13211TIP3   OH239577   6.459   2.545   2.703
13211TIP3    H139578   6.427   2.559   2.614
13211TIP3    H239579   6.407   2.605   2.757
13212TIP3   OH239580   7.386   2.283   3.521
13212TIP3    H139581   7.337   2.349   3.569
13212TIP3    H239582   7.477   2.312   3.525
13213TIP3   OH239583   3.051   7.565   0.051
13213TIP3    H139584   3.130   7.566  -0.003
13213TIP3    H239585   3.019   7.475   0.047
13214TIP3   OH239586   2.685   2.866   4.602
13214TIP3    H139587   2.777   2.845   4.615
13214TIP3    H239588   2.639   2.785   4.623
13215TIP3   OH239589   0.612   3.822   5.537
13215TIP3    H139590   0.536   3.867   5.574
13215TIP3    H239591   0.607   3.733   5.572
13216TIP3   OH239592   2.559   0.340   1.095
13216TIP3    H139593   2.553   0.336   1.190
13216TIP3    H239594   2.580   0.250   1.068
13217TIP3   OH239595   0.829   6.870   4.353
13217TIP3    H139596   0.755   6.929   4.361
13217TIP3    H239597   0.794   6.784   4.376
13218TIP3   OH239598   7.065   4.326   6.736
13218TIP3    H139599   7.130   4.260   6.759
13218TIP3    H239600   7.020   4.291   6.660
13219TIP3   OH239601   4.334   1.297   2.465
13219TIP3    H139602   4.372   1.240   2.398
13219TIP3    H239603   4.376   1.382   2.450
13220TIP3   OH239604   0.688   0.192   5.921
13220TIP3    H139605   0.662   0.200   6.012
13220TIP3    H239606   0.639   0.261   5.876
13221TIP3   OH239607   0.228   5.446   3.077
13221TIP3    H139608   0.202   5.359   3.107
13221TIP3    H239609   0.182   5.459   2.995
13222TIP3   OH239610   7.874   3.072   4.716
13222TIP3    H139611   7.809   3.027   4.769
13222TIP3    H239612   7.926   3.002   4.677
13223TIP3   OH239613   8.273   6.620   2.715
13223TIP3    H139614   8.219   6.545   2.740
13223TIP3    H239615   8.352   6.611   2.769
13224TIP3   OH239616   0.207   2.088   1.378
13224TIP3    H139617   0.196   2.163   1.437
13224TIP3    H239618   0.176   2.120   1.293
13225TIP3   OH239619   4.658   1.752   2.273
13225TIP3    H139620   4.708   1.834   2.278
13225TIP3    H239621   4.568   1.777   2.290
13226TIP3   OH239622   1.415   1.096   0.279
13226TIP3    H139623   1.360   1.038   0.332
13226TIP3    H239624   1.357   1.124   0.208
13227TIP3   OH239625   4.381   0.403   5.970
13227TIP3    H139626   4.458   0.459   5.982
13227TIP3    H239627   4.321   0.456   5.918
13228TIP3   OH239628   0.074   5.793   5.413
13228TIP3    H139629   0.040   5.714   5.372
13228TIP3    H239630   0.168   5.791   5.396
13229TIP3   OH239631   2.151   3.761   1.857
13229TIP3    H139632   2.186   3.684   1.812
13229TIP3    H239633   2.101   3.808   1.790
13230TIP3   OH239634   3.295   6.868   3.042
13230TIP3    H139635   3.253   6.950   3.015
13230TIP3    H239636   3.228   6.823   3.093
13231TIP3   OH239637   4.697   5.129   6.278
13231TIP3    H139638   4.631   5.121   6.209
13231TIP3    H239639   4.757   5.056   6.262
13232TIP3   OH239640   3.311   3.902   5.552
13232TIP3    H139641   3.351   3.990   5.556
13232TIP3    H239642   3.383   3.843   5.574
13233TIP3   OH239643   0.845   0.682   4.639
13233TIP3    H139644   0.780   0.671   4.708
13233TIP3    H239645   0.871   0.774   4.645
13234TIP3   OH239646   2.601   6.869   4.898
13234TIP3    H139647   2.562   6.926   4.832
13234TIP3    H239648   2.602   6.782   4.857
13235TIP3   OH239649   5.608   4.084   5.592
13235TIP3    H139650   5.588   4.064   5.683
13235TIP3    H239651   5.548   4.029   5.541
13236TIP3   OH239652   4.716   2.421   6.663
13236TIP3    H139653   4.784   2.434   6.596
13236TIP3    H239654   4.655   2.494   6.649
13237TIP3   OH239655   8.242   0.582   0.205
13237TIP3    H139656   8.205   0.494   0.208
13237TIP3    H239657   8.267   0.600   0.296
13238TIP3   OH239658   6.205   6.894   3.991
13238TIP3    H139659   6.244   6.816   3.953
13238TIP3    H239660   6.248   6.967   3.947
13239TIP3   OH239661   3.929   5.307   4.673
13239TIP3    H139662   3.865   5.373   4.697
13239TIP3    H239663   3.888   5.224   4.697
13240TIP3   OH239664   7.537   0.767   3.948
13240TIP3    H139665   7.580   0.720   3.876
13240TIP3    H239666   7.597   0.837   3.972
13241TIP3   OH239667   7.708   2.554   3.345
13241TIP3    H139668   7.659   2.480   3.381
13241TIP3    H239669   7.678   2.562   3.255
13242TIP3   OH239670   8.007   5.703   6.292
13242TIP3    H139671   8.082   5.656   6.328
13242TIP3    H239672   7.958   5.636   6.244
13243TIP3   OH239673   0.273   2.694   2.907
13243TIP3    H139674   0.272   2.652   2.821
13243TIP3    H239675   0.335   2.642   2.959
13244TIP3   OH239676   3.936   1.644   6.664
13244TIP3    H139677   3.846   1.676   6.656
13244TIP3    H239678   3.927   1.551   6.686
13245TIP3   OH239679   0.645   4.176   0.337
13245TIP3    H139680   0.653   4.101   0.279
13245TIP3    H239681   0.705   4.158   0.409
13246TIP3   OH239682   5.190   1.621   0.487
13246TIP3    H139683   5.163   1.531   0.507
13246TIP3    H239684   5.285   1.621   0.502
13247TIP3   OH239685   5.691   5.467   0.475
13247TIP3    H139686   5.712   5.373   0.473
13247TIP3    H239687   5.600   5.471   0.444
13248TIP3   OH239688   1.029   7.807   2.388
13248TIP3    H139689   1.016   7.901   2.377
13248TIP3    H239690   0.941   7.771   2.397
13249TIP3   OH239691   5.978   0.440   1.486
13249TIP3    H139692   6.017   0.356   1.465
13249TIP3    H239693   6.039   0.480   1.548
13250TIP3   OH239694   6.550   6.984   3.950
13250TIP3    H139695   6.635   6.985   3.994
13250TIP3    H239696   6.549   6.901   3.902
13251TIP3   OH239697   1.783   6.574   2.307
13251TIP3    H139698   1.843   6.511   2.346
13251TIP3    H239699   1.816   6.586   2.218
13252TIP3   OH239700   3.726   6.423   0.139
13252TIP3    H139701   3.801   6.370   0.167
13252TIP3    H239702   3.765   6.506   0.113
13253TIP3   OH239703   6.190   7.805   2.292
13253TIP3    H139704   6.275   7.770   2.267
13253TIP3    H239705   6.128   7.734   2.272
13254TIP3   OH239706   7.238   6.302   2.450
13254TIP3    H139707   7.150   6.267   2.442
13254TIP3    H239708   7.227   6.397   2.449
13255TIP3   OH239709   6.723   0.895   6.450
13255TIP3    H139710   6.701   0.943   6.530
13255TIP3    H239711   6.818   0.888   6.451
13256TIP3   OH239712   4.159   4.312   2.916
13256TIP3    H139713   4.194   4.401   2.913
13256TIP3    H239714   4.077   4.316   2.867
13257TIP3   OH239715   7.864   1.132   0.935
13257TIP3    H139716   7.913   1.073   0.991
13257TIP3    H239717   7.905   1.122   0.849
13258TIP3   OH239718   2.059   7.369   2.257
13258TIP3    H139719   1.994   7.372   2.327
13258TIP3    H239720   2.013   7.326   2.184
13259TIP3   OH239721   5.473   3.789   0.380
13259TIP3    H139722   5.447   3.727   0.448
13259TIP3    H239723   5.405   3.782   0.313
13260TIP3   OH239724   7.891   7.390   5.126
13260TIP3    H139725   7.796   7.392   5.121
13260TIP3    H239726   7.918   7.479   5.103
13261TIP3   OH239727   0.633   7.167   4.544
13261TIP3    H139728   0.585   7.104   4.491
13261TIP3    H239729   0.565   7.217   4.589
13262TIP3   OH239730   8.177   2.948   3.781
13262TIP3    H139731   8.201   3.003   3.706
13262TIP3    H239732   8.116   2.884   3.745
13263TIP3   OH239733   6.870   5.407   3.235
13263TIP3    H139734   6.863   5.312   3.240
13263TIP3    H239735   6.784   5.436   3.205
13264TIP3   OH239736   4.459   1.493   0.544
13264TIP3    H139737   4.452   1.427   0.613
13264TIP3    H239738   4.505   1.448   0.473
13265TIP3   OH239739   7.350   6.500   0.203
13265TIP3    H139740   7.306   6.420   0.233
13265TIP3    H239741   7.325   6.508   0.111
13266TIP3   OH239742   5.600   5.499   0.861
13266TIP3    H139743   5.549   5.467   0.935
13266TIP3    H239744   5.663   5.561   0.899
13267TIP3   OH239745   7.094   2.847   5.053
13267TIP3    H139746   7.151   2.851   4.976
13267TIP3    H239747   7.033   2.920   5.040
13268TIP3   OH239748   6.199   0.883   1.173
13268TIP3    H139749   6.136   0.845   1.234
13268TIP3    H239750   6.204   0.821   1.101
13269TIP3   OH239751   5.326   1.139   2.225
13269TIP3    H139752   5.269   1.182   2.162
13269TIP3    H239753   5.341   1.204   2.293
13270TIP3   OH239754   3.728   2.037   6.404
13270TIP3    H139755   3.819   2.018   6.423
13270TIP3    H239756   3.729   2.081   6.319
13271TIP3   OH239757   0.498   3.970   1.997
13271TIP3    H139758   0.415   3.924   2.006
13271TIP3    H239759   0.518   3.967   1.904
13272TIP3   OH239760   6.045   1.688   0.291
13272TIP3    H139761   6.077   1.744   0.220
13272TIP3    H239762   6.020   1.749   0.360
13273TIP3   OH239763   5.868   7.413   5.666
13273TIP3    H139764   5.861   7.466   5.746
13273TIP3    H239765   5.817   7.462   5.601
13274TIP3   OH239766   2.859   6.007   5.300
13274TIP3    H139767   2.869   5.960   5.382
13274TIP3    H239768   2.771   6.044   5.304
13275TIP3   OH239769   2.438   3.103   5.524
13275TIP3    H139770   2.411   3.012   5.510
13275TIP3    H239771   2.530   3.104   5.498
13276TIP3   OH239772   4.238   6.566   1.004
13276TIP3    H139773   4.198   6.485   0.971
13276TIP3    H239774   4.311   6.583   0.944
13277TIP3   OH239775   3.926   2.457   4.324
13277TIP3    H139776   3.968   2.427   4.405
13277TIP3    H239777   3.836   2.425   4.331
13278TIP3   OH239778   1.629   3.771   6.375
13278TIP3    H139779   1.606   3.776   6.283
13278TIP3    H239780   1.634   3.677   6.393
13279TIP3   OH239781   0.119   0.076   3.780
13279TIP3    H139782   0.150   0.161   3.747
13279TIP3    H239783   0.075   0.097   3.862
13280TIP3   OH239784   7.544   4.365   0.540
13280TIP3    H139785   7.534   4.270   0.530
13280TIP3    H239786   7.629   4.385   0.500
13281TIP3   OH239787   4.718   3.170   0.781
13281TIP3    H139788   4.686   3.083   0.807
13281TIP3    H239789   4.765   3.202   0.858
13282TIP3   OH239790   4.238   2.813   5.495
13282TIP3    H139791   4.259   2.833   5.587
13282TIP3    H239792   4.196   2.727   5.499
13283TIP3   OH239793   0.960   4.184   6.306
13283TIP3    H139794   1.019   4.182   6.230
13283TIP3    H239795   0.999   4.122   6.367
13284TIP3   OH239796   4.607   4.591   6.632
13284TIP3    H139797   4.701   4.579   6.647
13284TIP3    H239798   4.582   4.661   6.692
13285TIP3   OH239799   0.860   4.173   2.012
13285TIP3    H139800   0.859   4.197   1.919
13285TIP3    H239801   0.923   4.102   2.017
13286TIP3   OH239802   7.495   6.237   2.392
13286TIP3    H139803   7.409   6.250   2.433
13286TIP3    H239804   7.555   6.288   2.446
13287TIP3   OH239805   8.163   0.425   4.747
13287TIP3    H139806   8.105   0.438   4.822
13287TIP3    H239807   8.239   0.380   4.783
13288TIP3   OH239808   5.218   4.830   0.258
13288TIP3    H139809   5.230   4.742   0.294
13288TIP3    H239810   5.130   4.855   0.285
13289TIP3   OH239811   8.222   5.149   2.542
13289TIP3    H139812   8.201   5.065   2.501
13289TIP3    H239813   8.138   5.195   2.545
13290TIP3   OH239814   0.782   5.991   2.921
13290TIP3    H139815   0.731   6.012   2.843
13290TIP3    H239816   0.727   5.931   2.970
13291TIP3   OH239817   2.073   5.404   6.634
13291TIP3    H139818   2.054   5.419   6.727
13291TIP3    H239819   2.164   5.375   6.633
13292TIP3   OH239820   0.950   1.900   0.560
13292TIP3    H139821   1.033   1.852   0.561
13292TIP3    H239822   0.904   1.869   0.638
13293TIP3   OH239823   3.265   0.975   4.049
13293TIP3    H139824   3.202   1.044   4.026
13293TIP3    H239825   3.298   1.001   4.135
13294TIP3   OH239826   6.137   7.325   0.902
13294TIP3    H139827   6.210   7.283   0.947
13294TIP3    H239828   6.088   7.254   0.861
13295TIP3   OH239829   1.839   3.011   6.083
13295TIP3    H139830   1.923   2.998   6.127
13295TIP3    H239831   1.862   3.039   5.995
13296TIP3   OH239832   2.536   5.789   1.607
13296TIP3    H139833   2.539   5.729   1.533
13296TIP3    H239834   2.442   5.807   1.619
13297TIP3   OH239835   4.470   4.836   4.596
13297TIP3    H139836   4.476   4.808   4.504
13297TIP3    H239837   4.430   4.923   4.591
13298TIP3   OH239838   4.332   6.390   4.159
13298TIP3    H139839   4.317   6.309   4.111
13298TIP3    H239840   4.395   6.439   4.106
13299TIP3   OH239841   7.297   3.617   2.038
13299TIP3    H139842   7.381   3.643   2.076
13299TIP3    H239843   7.292   3.523   2.056
13300TIP3   OH239844   6.063   5.899   0.324
13300TIP3    H139845   6.079   5.956   0.399
13300TIP3    H239846   6.115   5.937   0.253
13301TIP3   OH239847   4.381   1.266   2.932
13301TIP3    H139848   4.338   1.182   2.942
13301TIP3    H239849   4.319   1.319   2.881
13302TIP3   OH239850   7.159   6.505   1.376
13302TIP3    H139851   7.216   6.432   1.402
13302TIP3    H239852   7.088   6.463   1.328
13303TIP3   OH239853   3.311   7.108   3.561
13303TIP3    H139854   3.395   7.150   3.580
13303TIP3    H239855   3.262   7.173   3.511
13304TIP3   OH239856   4.856   1.907   5.134
13304TIP3    H139857   4.793   1.877   5.067
13304TIP3    H239858   4.809   1.897   5.217
13305TIP3   OH239859   1.920   7.305   3.524
13305TIP3    H139860   1.825   7.315   3.529
13305TIP3    H239861   1.949   7.313   3.615
13306TIP3   OH239862   0.498   0.731   3.684
13306TIP3    H139863   0.517   0.794   3.614
13306TIP3    H239864   0.404   0.716   3.678
13307TIP3   OH239865   2.063   4.029   1.380
13307TIP3    H139866   2.132   4.024   1.314
13307TIP3    H239867   2.094   4.093   1.443
13308TIP3   OH239868   6.205   5.887   6.214
13308TIP3    H139869   6.229   5.975   6.244
13308TIP3    H239870   6.146   5.902   6.141
13309TIP3   OH239871   6.732   5.132   6.359
13309TIP3    H139872   6.822   5.111   6.386
13309TIP3    H239873   6.719   5.222   6.389
13310TIP3   OH239874   2.050   0.052   2.137
13310TIP3    H139875   2.020   0.024   2.050
13310TIP3    H239876   2.038  -0.024   2.193
13311TIP3   OH239877   4.274   1.499   4.863
13311TIP3    H139878   4.342   1.432   4.857
13311TIP3    H239879   4.247   1.497   4.955
13312TIP3   OH239880   0.516   2.233   4.875
13312TIP3    H139881   0.592   2.190   4.837
13312TIP3    H239882   0.483   2.289   4.804
13313TIP3   OH239883   2.793   4.075   6.157
13313TIP3    H139884   2.866   4.037   6.108
13313TIP3    H239885   2.768   4.153   6.107
13314TIP3   OH239886   2.603   0.675   4.863
13314TIP3    H139887   2.586   0.586   4.896
13314TIP3    H239888   2.635   0.661   4.774
13315TIP3   OH239889   5.916   5.675   1.453
13315TIP3    H139890   5.977   5.686   1.380
13315TIP3    H239891   5.836   5.640   1.413
13316TIP3   OH239892   4.623   2.286   3.692
13316TIP3    H139893   4.538   2.249   3.671
13316TIP3    H239894   4.684   2.245   3.631
13317TIP3   OH239895   3.558   2.816   1.025
13317TIP3    H139896   3.567   2.869   0.946
13317TIP3    H239897   3.514   2.873   1.088
13318TIP3   OH239898   0.314   5.339   1.360
13318TIP3    H139899   0.284   5.265   1.412
13318TIP3    H239900   0.262   5.335   1.280
13319TIP3   OH239901   1.305   1.873   5.559
13319TIP3    H139902   1.224   1.923   5.541
13319TIP3    H239903   1.327   1.896   5.649
13320TIP3   OH239904   2.948   0.088   0.121
13320TIP3    H139905   2.882   0.104   0.054
13320TIP3    H239906   3.009   0.161   0.113
13321TIP3   OH239907   5.868   2.620   5.500
13321TIP3    H139908   5.833   2.554   5.441
13321TIP3    H239909   5.859   2.581   5.587
13322TIP3   OH239910   3.757   6.756   0.114
13322TIP3    H139911   3.732   6.837   0.070
13322TIP3    H239912   3.755   6.777   0.207
13323TIP3   OH239913   0.251   7.094   0.727
13323TIP3    H139914   0.320   7.065   0.787
13323TIP3    H239915   0.275   7.184   0.706
13324TIP3   OH239916   3.737   4.760   2.046
13324TIP3    H139917   3.794   4.705   1.994
13324TIP3    H239918   3.653   4.758   2.001
13325TIP3   OH239919   3.645   5.438   2.661
13325TIP3    H139920   3.618   5.357   2.703
13325TIP3    H239921   3.647   5.502   2.732
13326TIP3   OH239922   6.025   0.878   2.590
13326TIP3    H139923   6.014   0.960   2.638
13326TIP3    H239924   5.954   0.822   2.622
13327TIP3   OH239925   6.239   3.872   1.578
13327TIP3    H139926   6.179   3.829   1.516
13327TIP3    H239927   6.253   3.807   1.647
13328TIP3   OH239928   2.025   2.275   0.658
13328TIP3    H139929   2.086   2.221   0.609
13328TIP3    H239930   2.034   2.245   0.749
13329TIP3   OH239931   4.291   4.772   0.133
13329TIP3    H139932   4.360   4.837   0.151
13329TIP3    H239933   4.339   4.692   0.112
13330TIP3   OH239934   6.340   4.495   5.865
13330TIP3    H139935   6.347   4.475   5.772
13330TIP3    H239936   6.352   4.590   5.870
13331TIP3   OH239937   1.673   6.570   3.474
13331TIP3    H139938   1.606   6.530   3.417
13331TIP3    H239939   1.702   6.647   3.426
13332TIP3   OH239940   0.799   2.425   0.024
13332TIP3    H139941   0.786   2.421   0.119
13332TIP3    H239942   0.711   2.424  -0.012
13333TIP3   OH239943   1.140   1.537   5.829
13333TIP3    H139944   1.115   1.555   5.739
13333TIP3    H239945   1.103   1.451   5.848
13334TIP3   OH239946   4.104   7.038   5.788
13334TIP3    H139947   4.171   7.085   5.737
13334TIP3    H239948   4.066   6.976   5.725
13335TIP3   OH239949   2.772   3.355   4.080
13335TIP3    H139950   2.738   3.265   4.087
13335TIP3    H239951   2.823   3.354   3.998
13336TIP3   OH239952   7.878   2.311   2.406
13336TIP3    H139953   7.870   2.215   2.406
13336TIP3    H239954   7.812   2.340   2.469
13337TIP3   OH239955   3.717   1.879   0.286
13337TIP3    H139956   3.676   1.939   0.349
13337TIP3    H239957   3.776   1.935   0.235
13338TIP3   OH239958   4.618   0.466   0.977
13338TIP3    H139959   4.620   0.431   1.066
13338TIP3    H239960   4.627   0.389   0.921
13339TIP3   OH239961   3.510   4.860   2.799
13339TIP3    H139962   3.448   4.920   2.840
13339TIP3    H239963   3.455   4.790   2.763
13340TIP3   OH239964   7.231   5.217   0.178
13340TIP3    H139965   7.262   5.303   0.207
13340TIP3    H239966   7.189   5.180   0.255
13341TIP3   OH239967   6.165   0.411   3.935
13341TIP3    H139968   6.216   0.450   3.864
13341TIP3    H239969   6.186   0.464   4.012
13342TIP3   OH239970   2.374   6.775   1.680
13342TIP3    H139971   2.442   6.791   1.744
13342TIP3    H239972   2.298   6.824   1.712
13343TIP3   OH239973   4.891   7.292   3.997
13343TIP3    H139974   4.896   7.274   3.903
13343TIP3    H239975   4.931   7.379   4.007
13344TIP3   OH239976   6.776   5.429   1.451
13344TIP3    H139977   6.783   5.473   1.536
13344TIP3    H239978   6.720   5.486   1.399
13345TIP3   OH239979   7.315   1.670   4.357
13345TIP3    H139980   7.290   1.583   4.389
13345TIP3    H239981   7.407   1.662   4.334
13346TIP3   OH239982   6.931   1.213   2.135
13346TIP3    H139983   6.938   1.250   2.223
13346TIP3    H239984   6.841   1.182   2.129
13347TIP3   OH239985   4.452   4.789   6.249
13347TIP3    H139986   4.381   4.795   6.313
13347TIP3    H239987   4.531   4.777   6.301
13348TIP3   OH239988   4.297   5.932   2.500
13348TIP3    H139989   4.221   5.983   2.473
13348TIP3    H239990   4.261   5.850   2.532
13349TIP3   OH239991   2.699   4.401   2.186
13349TIP3    H139992   2.778   4.360   2.149
13349TIP3    H239993   2.727   4.435   2.271
13350TIP3   OH239994   1.478   5.466   0.892
13350TIP3    H139995   1.420   5.406   0.940
13350TIP3    H239996   1.494   5.422   0.808
13351TIP3   OH239997   6.253   5.835   3.466
13351TIP3    H139998   6.330   5.890   3.477
13351TIP3    H239999   6.189   5.871   3.528
13352TIP3   OH240000   2.532   5.555   3.769
13352TIP3    H140001   2.493   5.642   3.761
13352TIP3    H240002   2.610   5.568   3.824
13353TIP3   OH240003   1.924   5.951   1.166
13353TIP3    H140004   2.007   5.904   1.157
13353TIP3    H240005   1.896   5.967   1.076
13354TIP3   OH240006   8.075   2.581   6.202
13354TIP3    H140007   8.018   2.504   6.198
13354TIP3    H240008   8.043   2.630   6.278
13355TIP3   OH240009   5.990   7.044   0.926
13355TIP3    H140010   5.942   6.962   0.912
13355TIP3    H240011   5.933   7.112   0.891
13356TIP3   OH240012   8.018   1.985   6.326
13356TIP3    H140013   8.021   1.970   6.231
13356TIP3    H240014   8.107   1.964   6.355
13357TIP3   OH240015   5.138   5.889   6.042
13357TIP3    H140016   5.211   5.835   6.012
13357TIP3    H240017   5.068   5.827   6.060
13358TIP3   OH240018   3.531   0.857   2.729
13358TIP3    H140019   3.611   0.846   2.779
13358TIP3    H240020   3.517   0.773   2.685
13359TIP3   OH240021   2.610   3.317   3.651
13359TIP3    H140022   2.534   3.264   3.676
13359TIP3    H240023   2.572   3.395   3.610
13360TIP3   OH240024   0.978   3.122   4.104
13360TIP3    H140025   0.988   3.118   4.009
13360TIP3    H240026   1.049   3.068   4.138
13361TIP3   OH240027   2.612   2.876   4.968
13361TIP3    H140028   2.601   2.784   4.942
13361TIP3    H240029   2.538   2.921   4.928
13362TIP3   OH240030   1.941   7.567   6.625
13362TIP3    H140031   1.918   7.654   6.657
13362TIP3    H240032   1.924   7.571   6.531
13363TIP3   OH240033   7.926   1.881   2.060
13363TIP3    H140034   7.955   1.947   1.997
13363TIP3    H240035   8.002   1.825   2.073
13364TIP3   OH240036   5.086   1.006   6.692
13364TIP3    H140037   5.063   0.955   6.615
13364TIP3    H240038   5.177   0.982   6.711
13365TIP3   OH240039   8.159   3.407   5.475
13365TIP3    H140040   8.135   3.365   5.392
13365TIP3    H240041   8.145   3.500   5.459
13366TIP3   OH240042   1.393   0.375   3.409
13366TIP3    H140043   1.483   0.405   3.424
13366TIP3    H240044   1.388   0.289   3.450
13367TIP3   OH240045   2.906   5.397   6.655
13367TIP3    H140046   2.846   5.326   6.632
13367TIP3    H240047   2.921   5.386   6.749
13368TIP3   OH240048   4.484   3.890   0.023
13368TIP3    H140049   4.468   3.906  -0.070
13368TIP3    H240050   4.398   3.870   0.059
13369TIP3   OH240051   3.164   3.025   5.127
13369TIP3    H140052   3.105   3.070   5.067
13369TIP3    H240053   3.106   2.970   5.180
13370TIP3   OH240054   3.061   0.073   2.208
13370TIP3    H140055   3.155   0.088   2.214
13370TIP3    H240056   3.033   0.062   2.299
13371TIP3   OH240057   8.005   0.728   2.397
13371TIP3    H140058   8.085   0.680   2.417
13371TIP3    H240059   7.983   0.702   2.308
13372TIP3   OH240060   3.297   2.367   4.676
13372TIP3    H140061   3.213   2.339   4.640
13372TIP3    H240062   3.279   2.451   4.717
13373TIP3   OH240063   3.508   1.736   1.584
13373TIP3    H140064   3.415   1.755   1.577
13373TIP3    H240065   3.536   1.713   1.495
13374TIP3   OH240066   0.711   1.278   2.817
13374TIP3    H140067   0.749   1.232   2.742
13374TIP3    H240068   0.713   1.213   2.888
13375TIP3   OH240069   5.227   6.319   5.053
13375TIP3    H140070   5.160   6.371   5.098
13375TIP3    H240071   5.211   6.335   4.960
13376TIP3   OH240072   2.952   0.902   1.808
13376TIP3    H140073   2.984   0.876   1.722
13376TIP3    H240074   2.888   0.971   1.791
13377TIP3   OH240075   8.167   3.063   0.882
13377TIP3    H140076   8.187   3.151   0.915
13377TIP3    H240077   8.144   3.013   0.961
13378TIP3   OH240078   5.546   3.073   4.452
13378TIP3    H140079   5.576   3.004   4.511
13378TIP3    H240080   5.619   3.135   4.448
13379TIP3   OH240081   2.172   6.338   6.180
13379TIP3    H140082   2.223   6.416   6.158
13379TIP3    H240083   2.110   6.329   6.108
13380TIP3   OH240084   3.650   0.977   3.126
13380TIP3    H140085   3.586   0.909   3.105
13380TIP3    H240086   3.600   1.044   3.173
13381TIP3   OH240087   7.570   3.048   6.734
13381TIP3    H140088   7.555   3.125   6.788
13381TIP3    H240089   7.502   3.052   6.666
13382TIP3   OH240090   6.956   0.212   6.463
13382TIP3    H140091   6.914   0.147   6.520
13382TIP3    H240092   6.943   0.296   6.508
13383TIP3   OH240093   4.999   2.160   3.780
13383TIP3    H140094   4.953   2.086   3.820
13383TIP3    H240095   5.037   2.207   3.854
13384TIP3   OH240096   7.168   1.986   1.285
13384TIP3    H140097   7.240   1.999   1.224
13384TIP3    H240098   7.112   2.063   1.272
13385TIP3   OH240099   2.908   2.395   3.558
13385TIP3    H140100   2.981   2.437   3.512
13385TIP3    H240101   2.915   2.425   3.648
13386TIP3   OH240102   7.398   5.961   3.954
13386TIP3    H140103   7.476   5.984   3.905
13386TIP3    H240104   7.418   5.876   3.993
13387TIP3   OH240105   2.047   0.811   4.865
13387TIP3    H140106   2.079   0.726   4.895
13387TIP3    H240107   2.080   0.873   4.930
13388TIP3   OH240108   1.091   7.814   4.950
13388TIP3    H140109   1.178   7.795   4.986
13388TIP3    H240110   1.043   7.732   4.957
13389TIP3   OH240111   7.383   2.179   4.128
13389TIP3    H140112   7.381   2.105   4.067
13389TIP3    H240113   7.472   2.178   4.163
13390TIP3   OH240114   5.149   7.009   5.373
13390TIP3    H140115   5.209   6.934   5.378
13390TIP3    H240116   5.074   6.976   5.324
13391TIP3   OH240117   3.689   7.453   1.945
13391TIP3    H140118   3.729   7.539   1.943
13391TIP3    H240119   3.712   7.417   2.031
13392TIP3   OH240120   6.863   4.021   3.527
13392TIP3    H140121   6.845   4.095   3.468
13392TIP3    H240122   6.827   4.049   3.611
13393TIP3   OH240123   5.208   3.408   1.436
13393TIP3    H140124   5.163   3.394   1.352
13393TIP3    H240125   5.298   3.429   1.411
13394TIP3   OH240126   7.799   2.390   5.448
13394TIP3    H140127   7.726   2.387   5.386
13394TIP3    H240128   7.760   2.422   5.529
13395TIP3   OH240129   2.412   3.335   4.598
13395TIP3    H140130   2.350   3.330   4.671
13395TIP3    H240131   2.484   3.388   4.633
13396TIP3   OH240132   6.938   4.209   2.169
13396TIP3    H140133   6.989   4.189   2.248
13396TIP3    H240134   6.857   4.159   2.179
13397TIP3   OH240135   2.498   4.689   5.014
13397TIP3    H140136   2.502   4.596   5.033
13397TIP3    H240137   2.589   4.718   5.012
13398TIP3   OH240138   2.138   4.441   5.617
13398TIP3    H140139   2.050   4.458   5.652
13398TIP3    H240140   2.188   4.410   5.692
13399TIP3   OH240141   3.251   6.128   3.279
13399TIP3    H140142   3.249   6.216   3.241
13399TIP3    H240143   3.164   6.093   3.261
13400TIP3   OH240144   6.566   5.342   2.860
13400TIP3    H140145   6.649   5.301   2.882
13400TIP3    H240146   6.502   5.298   2.916
13401TIP3   OH240147   4.578   2.119   1.705
13401TIP3    H140148   4.603   2.028   1.721
13401TIP3    H240149   4.531   2.145   1.785
13402TIP3   OH240150   3.861   0.275   3.882
13402TIP3    H140151   3.937   0.296   3.828
13402TIP3    H240152   3.807   0.218   3.827
13403TIP3   OH240153   0.506   1.524   2.168
13403TIP3    H140154   0.447   1.558   2.101
13403TIP3    H240155   0.461   1.541   2.250
13404TIP3   OH240156   5.755   4.995   5.112
13404TIP3    H140157   5.845   5.007   5.140
13404TIP3    H240158   5.743   5.057   5.040
13405TIP3   OH240159   1.436   0.554   6.056
13405TIP3    H140160   1.446   0.488   6.125
13405TIP3    H240161   1.344   0.548   6.030
13406TIP3   OH240162   7.012   0.853   3.294
13406TIP3    H140163   7.017   0.949   3.301
13406TIP3    H240164   7.081   0.829   3.233
13407TIP3   OH240165   5.678   2.369   3.693
13407TIP3    H140166   5.650   2.438   3.753
13407TIP3    H240167   5.607   2.305   3.695
13408TIP3   OH240168   7.141   1.011   4.887
13408TIP3    H140169   7.191   0.935   4.859
13408TIP3    H240170   7.141   1.069   4.811
13409TIP3   OH240171   5.508   2.598   4.240
13409TIP3    H140172   5.522   2.572   4.332
13409TIP3    H240173   5.414   2.610   4.234
13410TIP3   OH240174   3.405   4.184   0.330
13410TIP3    H140175   3.425   4.090   0.331
13410TIP3    H240176   3.323   4.191   0.379
13411TIP3   OH240177   6.283   2.508   0.035
13411TIP3    H140178   6.290   2.556  -0.047
13411TIP3    H240179   6.354   2.443   0.031
13412TIP3   OH240180   4.479   3.605   2.385
13412TIP3    H140181   4.448   3.579   2.299
13412TIP3    H240182   4.399   3.623   2.435
13413TIP3   OH240183   5.024   3.562   0.162
13413TIP3    H140184   5.071   3.484   0.134
13413TIP3    H240185   4.940   3.558   0.117
13414TIP3   OH240186   1.124   7.802   2.688
13414TIP3    H140187   1.094   7.806   2.597
13414TIP3    H240188   1.049   7.769   2.737
13415TIP3   OH240189   4.659   0.538   3.223
13415TIP3    H140190   4.617   0.501   3.301
13415TIP3    H240191   4.592   0.530   3.154
13416TIP3   OH240192   3.225   7.682   2.188
13416TIP3    H140193   3.260   7.607   2.141
13416TIP3    H240194   3.228   7.754   2.126
13417TIP3   OH240195   4.059   3.001   4.656
13417TIP3    H140196   3.976   2.980   4.699
13417TIP3    H240197   4.116   3.032   4.726
13418TIP3   OH240198   2.634   0.003   2.370
13418TIP3    H140199   2.539   0.015   2.372
13418TIP3    H240200   2.656  -0.026   2.459
13419TIP3   OH240201   3.850   5.911   2.377
13419TIP3    H140202   3.827   5.867   2.459
13419TIP3    H240203   3.915   5.977   2.403
13420TIP3   OH240204   7.971   5.432   3.540
13420TIP3    H140205   7.900   5.489   3.512
13420TIP3    H240206   7.928   5.349   3.561
13421TIP3   OH240207   7.406   0.503   0.052
13421TIP3    H140208   7.419   0.588   0.012
13421TIP3    H240209   7.450   0.510   0.137
13422TIP3   OH240210   3.143   2.998   6.393
13422TIP3    H140211   3.145   2.915   6.345
13422TIP3    H240212   3.188   3.060   6.335
13423TIP3   OH240213   7.429   0.235   5.515
13423TIP3    H140214   7.484   0.160   5.489
13423TIP3    H240215   7.359   0.237   5.448
13424TIP3   OH240216   3.789   3.951   1.004
13424TIP3    H140217   3.704   3.985   0.975
13424TIP3    H240218   3.847   4.028   1.004
13425TIP3   OH240219   1.650   2.477   1.845
13425TIP3    H140220   1.721   2.440   1.898
13425TIP3    H240221   1.648   2.422   1.766
13426TIP3   OH240222   0.381   0.869   1.000
13426TIP3    H140223   0.298   0.883   0.954
13426TIP3    H240224   0.387   0.941   1.063
13427TIP3   OH240225   1.780   4.035   1.382
13427TIP3    H140226   1.873   4.017   1.396
13427TIP3    H240227   1.776   4.127   1.355
13428TIP3   OH240228   6.949   2.958   0.726
13428TIP3    H140229   6.951   3.009   0.645
13428TIP3    H240230   6.973   2.869   0.700
13429TIP3   OH240231   0.086   5.777   3.913
13429TIP3    H140232   0.154   5.732   3.862
13429TIP3    H240233   0.015   5.713   3.919
13430TIP3   OH240234   2.173   5.826   0.520
13430TIP3    H140235   2.079   5.811   0.529
13430TIP3    H240236   2.188   5.827   0.425
13431TIP3   OH240237   4.106   2.825   0.191
13431TIP3    H140238   4.079   2.909   0.153
13431TIP3    H240239   4.197   2.815   0.166
13432TIP3   OH240240   7.525   4.490   4.203
13432TIP3    H140241   7.607   4.491   4.253
13432TIP3    H240242   7.529   4.409   4.152
13433TIP3   OH240243   7.300   6.441   3.031
13433TIP3    H140244   7.342   6.518   2.993
13433TIP3    H240245   7.237   6.412   2.964
13434TIP3   OH240246   5.911   4.400   3.395
13434TIP3    H140247   6.004   4.380   3.403
13434TIP3    H240248   5.867   4.317   3.409
13435TIP3   OH240249   0.357   7.140   4.395
13435TIP3    H140250   0.340   7.089   4.474
13435TIP3    H240251   0.334   7.229   4.419
13436TIP3   OH240252   4.187   6.980   0.435
13436TIP3    H140253   4.245   7.056   0.432
13436TIP3    H240254   4.111   7.006   0.384
13437TIP3   OH240255   2.344   2.521   5.647
13437TIP3    H140256   2.415   2.582   5.631
13437TIP3    H240257   2.347   2.503   5.741
13438TIP3   OH240258   7.485   5.291   6.188
13438TIP3    H140259   7.492   5.248   6.102
13438TIP3    H240260   7.436   5.228   6.242
13439TIP3   OH240261   5.641   7.716   2.950
13439TIP3    H140262   5.637   7.811   2.943
13439TIP3    H240263   5.627   7.697   3.043
13440TIP3   OH240264   8.132   5.520   5.421
13440TIP3    H140265   8.190   5.518   5.497
13440TIP3    H240266   8.116   5.427   5.401
13441TIP3   OH240267   5.964   1.696   4.470
13441TIP3    H140268   6.001   1.663   4.388
13441TIP3    H240269   6.038   1.697   4.531
13442TIP3   OH240270   7.710   5.842   3.508
13442TIP3    H140271   7.616   5.842   3.495
13442TIP3    H240272   7.723   5.893   3.588
13443TIP3   OH240273   0.733   4.555   0.057
13443TIP3    H140274   0.653   4.571   0.108
13443TIP3    H240275   0.769   4.475   0.093
13444TIP3   OH240276   8.143   0.395   3.576
13444TIP3    H140277   8.079   0.361   3.638
13444TIP3    H240278   8.092   0.454   3.519
13445TIP3   OH240279   0.817   2.511   6.349
13445TIP3    H140280   0.881   2.439   6.345
13445TIP3    H240281   0.871   2.589   6.363
13446TIP3   OH240282   0.793   6.755   3.984
13446TIP3    H140283   0.877   6.718   4.012
13446TIP3    H240284   0.755   6.688   3.928
13447TIP3   OH240285   0.744   3.093   3.318
13447TIP3    H140286   0.802   3.023   3.349
13447TIP3    H240287   0.708   3.061   3.236
13448TIP3   OH240288   7.310   3.697   6.449
13448TIP3    H140289   7.280   3.615   6.410
13448TIP3    H240290   7.371   3.733   6.384
13449TIP3   OH240291   8.203   7.148   2.813
13449TIP3    H140292   8.205   7.086   2.885
13449TIP3    H240293   8.110   7.168   2.801
13450TIP3   OH240294   7.950   3.276   6.255
13450TIP3    H140295   7.867   3.237   6.283
13450TIP3    H240296   7.961   3.247   6.165
13451TIP3   OH240297   0.334   2.197   1.611
13451TIP3    H140298   0.326   2.177   1.704
13451TIP3    H240299   0.349   2.291   1.607
13452TIP3   OH240300   0.354   4.473   6.147
13452TIP3    H140301   0.445   4.452   6.166
13452TIP3    H240302   0.337   4.553   6.196
13453TIP3   OH240303   6.290   3.745   6.085
13453TIP3    H140304   6.248   3.660   6.099
13453TIP3    H240305   6.237   3.788   6.019
13454TIP3   OH240306   6.367   0.507   3.772
13454TIP3    H140307   6.452   0.551   3.776
13454TIP3    H240308   6.323   0.547   3.697
13455TIP3   OH240309   7.824   0.083   0.541
13455TIP3    H140310   7.844   0.065   0.632
13455TIP3    H240311   7.729   0.099   0.540
13456TIP3   OH240312   5.063   7.511   6.061
13456TIP3    H140313   5.100   7.428   6.028
13456TIP3    H240314   5.139   7.564   6.083
13457TIP3   OH240315   2.184   6.157   3.264
13457TIP3    H140316   2.111   6.219   3.266
13457TIP3    H240317   2.241   6.191   3.195
13458TIP3   OH240318   2.184   0.813   5.908
13458TIP3    H140319   2.124   0.878   5.944
13458TIP3    H240320   2.249   0.864   5.861
13459TIP3   OH240321   2.077   2.343   1.032
13459TIP3    H140322   2.067   2.248   1.035
13459TIP3    H240323   1.999   2.377   1.075
13460TIP3   OH240324   4.958   1.298   4.038
13460TIP3    H140325   4.986   1.341   3.957
13460TIP3    H240326   4.969   1.204   4.020
13461TIP3   OH240327   4.647   2.143   6.244
13461TIP3    H140328   4.713   2.074   6.244
13461TIP3    H240329   4.693   2.219   6.209
13462TIP3   OH240330   7.135   1.531   3.044
13462TIP3    H140331   7.068   1.600   3.040
13462TIP3    H240332   7.182   1.538   2.961
13463TIP3   OH240333   4.674   0.772   3.454
13463TIP3    H140334   4.659   0.712   3.380
13463TIP3    H240335   4.769   0.777   3.462
13464TIP3   OH240336   4.041   5.765   3.835
13464TIP3    H140337   3.996   5.680   3.836
13464TIP3    H240338   4.017   5.806   3.918
13465TIP3   OH240339   6.709   5.183   3.239
13465TIP3    H140340   6.719   5.088   3.230
13465TIP3    H240341   6.619   5.194   3.268
13466TIP3   OH240342   6.870   6.665   6.537
13466TIP3    H140343   6.954   6.667   6.583
13466TIP3    H240344   6.834   6.579   6.557
13467TIP3   OH240345   1.009   0.579   2.196
13467TIP3    H140346   1.036   0.643   2.261
13467TIP3    H240347   0.921   0.553   2.222
13468TIP3   OH240348   2.351   1.327   6.013
13468TIP3    H140349   2.366   1.234   5.995
13468TIP3    H240350   2.320   1.328   6.104
13469TIP3   OH240351   7.515   3.371   4.168
13469TIP3    H140352   7.444   3.367   4.232
13469TIP3    H240353   7.474   3.404   4.088
13470TIP3   OH240354   2.395   6.456   0.175
13470TIP3    H140355   2.364   6.467   0.085
13470TIP3    H240356   2.482   6.495   0.176
13471TIP3   OH240357   4.561   1.375   2.233
13471TIP3    H140358   4.611   1.443   2.187
13471TIP3    H240359   4.475   1.377   2.191
13472TIP3   OH240360   4.664   3.161   1.966
13472TIP3    H140361   4.633   3.176   1.877
13472TIP3    H240362   4.740   3.104   1.956
13473TIP3   OH240363   7.771   3.317   3.754
13473TIP3    H140364   7.782   3.222   3.760
13473TIP3    H240365   7.804   3.340   3.667
13474TIP3   OH240366   3.829   1.663   6.309
13474TIP3    H140367   3.812   1.726   6.379
13474TIP3    H240368   3.809   1.578   6.348
13475TIP3   OH240369   3.449   2.266   4.915
13475TIP3    H140370   3.521   2.215   4.879
13475TIP3    H240371   3.394   2.288   4.840
13476TIP3   OH240372   0.662   7.517   4.214
13476TIP3    H140373   0.567   7.504   4.223
13476TIP3    H240374   0.700   7.432   4.239
13477TIP3   OH240375   7.169   4.242   2.687
13477TIP3    H140376   7.138   4.289   2.763
13477TIP3    H240377   7.255   4.281   2.668
13478TIP3   OH240378   3.896   0.290   5.817
13478TIP3    H140379   3.921   0.197   5.819
13478TIP3    H240380   3.972   0.334   5.779
13479TIP3   OH240381   5.550   4.101   4.394
13479TIP3    H140382   5.560   4.128   4.485
13479TIP3    H240383   5.594   4.017   4.389
13480TIP3   OH240384   7.269   2.999   3.288
13480TIP3    H140385   7.314   3.076   3.322
13480TIP3    H240386   7.339   2.940   3.260
13481TIP3   OH240387   7.744   4.994   0.584
13481TIP3    H140388   7.724   5.086   0.602
13481TIP3    H240389   7.682   4.945   0.637
13482TIP3   OH240390   7.566   1.823   6.408
13482TIP3    H140391   7.571   1.909   6.365
13482TIP3    H240392   7.474   1.798   6.398
13483TIP3   OH240393   7.307   1.026   5.938
13483TIP3    H140394   7.216   1.053   5.933
13483TIP3    H240395   7.347   1.057   5.857
13484TIP3   OH240396   1.070   3.309   3.846
13484TIP3    H140397   1.025   3.393   3.845
13484TIP3    H240398   1.004   3.246   3.817
13485TIP3   OH240399   3.393   6.242   0.561
13485TIP3    H140400   3.485   6.229   0.537
13485TIP3    H240401   3.346   6.173   0.515
13486TIP3   OH240402   0.119   3.413   0.963
13486TIP3    H140403   0.154   3.442   0.879
13486TIP3    H240404   0.189   3.361   1.001
13487TIP3   OH240405   2.197   1.918   6.477
13487TIP3    H140406   2.254   1.973   6.529
13487TIP3    H240407   2.246   1.837   6.464
13488TIP3   OH240408   1.158   4.269   1.887
13488TIP3    H140409   1.171   4.324   1.810
13488TIP3    H240410   1.187   4.182   1.861
13489TIP3   OH240411   7.420   2.824   6.183
13489TIP3    H140412   7.433   2.830   6.089
13489TIP3    H240413   7.330   2.793   6.193
13490TIP3   OH240414   2.606   0.736   5.903
13490TIP3    H140415   2.689   0.742   5.856
13490TIP3    H240416   2.563   0.659   5.866
13491TIP3   OH240417   1.682   6.841   0.078
13491TIP3    H140418   1.628   6.916   0.103
13491TIP3    H240419   1.621   6.768   0.072
13492TIP3   OH240420   1.955   1.548   1.877
13492TIP3    H140421   1.921   1.631   1.911
13492TIP3    H240422   1.888   1.483   1.901
13493TIP3   OH240423   0.149   4.642   0.559
13493TIP3    H140424   0.098   4.602   0.630
13493TIP3    H240425   0.231   4.593   0.559
13494TIP3   OH240426   1.031   5.753   0.412
13494TIP3    H140427   1.012   5.767   0.319
13494TIP3    H240428   0.972   5.683   0.438
13495TIP3   OH240429   1.620   2.103   0.977
13495TIP3    H140430   1.625   2.103   0.881
13495TIP3    H240431   1.706   2.071   1.005
13496TIP3   OH240432   4.621   3.350   6.668
13496TIP3    H140433   4.711   3.321   6.657
13496TIP3    H240434   4.613   3.426   6.611
13497TIP3   OH240435   1.343   4.949   4.289
13497TIP3    H140436   1.251   4.930   4.272
13497TIP3    H240437   1.390   4.875   4.250
13498TIP3   OH240438   1.068   4.881   2.750
13498TIP3    H140439   1.019   4.799   2.759
13498TIP3    H240440   1.076   4.894   2.656
13499TIP3   OH240441   0.249   7.042   3.081
13499TIP3    H140442   0.216   6.981   3.015
13499TIP3    H240443   0.328   7.078   3.042
13500TIP3   OH240444   4.616   7.376   3.635
13500TIP3    H140445   4.649   7.287   3.639
13500TIP3    H240446   4.546   7.379   3.701
13501TIP3   OH240447   2.088   5.233   6.220
13501TIP3    H140448   2.047   5.264   6.138
13501TIP3    H240449   2.022   5.250   6.287
13502TIP3   OH240450   8.194   4.367   4.365
13502TIP3    H140451   8.259   4.301   4.342
13502TIP3    H240452   8.221   4.445   4.318
13503TIP3   OH240453   5.907   4.115   4.239
13503TIP3    H140454   5.949   4.107   4.325
13503TIP3    H240455   5.843   4.043   4.238
13504TIP3   OH240456   1.511   3.518   2.994
13504TIP3    H140457   1.480   3.600   2.957
13504TIP3    H240458   1.438   3.486   3.048
13505TIP3   OH240459   2.151   2.186   6.406
13505TIP3    H140460   2.210   2.185   6.482
13505TIP3    H240461   2.117   2.097   6.401
13506TIP3   OH240462   3.619   7.779   0.749
13506TIP3    H140463   3.547   7.833   0.779
13506TIP3    H240464   3.628   7.799   0.656
13507TIP3   OH240465   4.674   7.326   1.573
13507TIP3    H140466   4.611   7.349   1.641
13507TIP3    H240467   4.709   7.409   1.543
13508TIP3   OH240468   8.144   0.194   5.606
13508TIP3    H140469   8.169   0.248   5.681
13508TIP3    H240470   8.227   0.161   5.571
13509TIP3   OH240471   6.840   1.512   0.938
13509TIP3    H140472   6.745   1.497   0.935
13509TIP3    H240473   6.874   1.438   0.988
13510TIP3   OH240474   3.053   1.827   3.373
13510TIP3    H140475   2.997   1.786   3.307
13510TIP3    H240476   3.027   1.919   3.374
13511TIP3   OH240477   4.836   4.918   5.007
13511TIP3    H140478   4.764   4.872   4.963
13511TIP3    H240479   4.823   4.898   5.100
13512TIP3   OH240480   7.530   2.969   3.067
13512TIP3    H140481   7.456   2.910   3.052
13512TIP3    H240482   7.533   3.025   2.990
13513TIP3   OH240483   0.698   4.823   0.413
13513TIP3    H140484   0.715   4.896   0.353
13513TIP3    H240485   0.775   4.821   0.470
13514TIP3   OH240486   7.431   1.979   2.444
13514TIP3    H140487   7.376   1.984   2.366
13514TIP3    H240488   7.452   1.886   2.453
13515TIP3   OH240489   0.563   3.659   4.651
13515TIP3    H140490   0.517   3.592   4.601
13515TIP3    H240491   0.498   3.727   4.665
13516TIP3   OH240492   7.990   6.907   1.107
13516TIP3    H140493   8.014   6.855   1.030
13516TIP3    H240494   7.965   6.842   1.172
13517TIP3   OH240495   6.185   5.863   2.856
13517TIP3    H140496   6.125   5.829   2.922
13517TIP3    H240497   6.209   5.950   2.887
13518TIP3   OH240498   2.263   6.133   0.810
13518TIP3    H140499   2.345   6.181   0.796
13518TIP3    H240500   2.222   6.130   0.724
13519TIP3   OH240501   4.276   5.334   5.479
13519TIP3    H140502   4.276   5.376   5.565
13519TIP3    H240503   4.364   5.297   5.471
13520TIP3   OH240504   3.298   5.974   6.050
13520TIP3    H140505   3.248   5.893   6.057
13520TIP3    H240506   3.281   6.020   6.133
13521TIP3   OH240507   6.338   2.820   3.904
13521TIP3    H140508   6.249   2.851   3.921
13521TIP3    H240509   6.331   2.725   3.908
13522TIP3   OH240510   6.469   5.866   2.848
13522TIP3    H140511   6.479   5.961   2.838
13522TIP3    H240512   6.546   5.829   2.805
13523TIP3   OH240513   5.877   2.827   2.147
13523TIP3    H140514   5.823   2.764   2.194
13523TIP3    H240515   5.828   2.909   2.151
13524TIP3   OH240516   5.336   3.109   4.843
13524TIP3    H140517   5.350   3.183   4.902
13524TIP3    H240518   5.278   3.050   4.891
13525TIP3   OH240519   0.780   3.683   3.185
13525TIP3    H140520   0.706   3.676   3.124
13525TIP3    H240521   0.760   3.761   3.238
13526TIP3   OH240522   1.402   5.979   1.940
13526TIP3    H140523   1.446   5.992   1.856
13526TIP3    H240524   1.318   6.024   1.930
13527TIP3   OH240525   8.217   0.091   2.351
13527TIP3    H140526   8.132   0.048   2.358
13527TIP3    H240527   8.257   0.079   2.437
13528TIP3   OH240528   7.700   4.305   4.640
13528TIP3    H140529   7.691   4.235   4.705
13528TIP3    H240530   7.646   4.377   4.674
13529TIP3   OH240531   0.431   2.377   2.219
13529TIP3    H140532   0.431   2.318   2.295
13529TIP3    H240533   0.520   2.370   2.183
13530TIP3   OH240534   7.043   4.090   1.683
13530TIP3    H140535   7.022   4.111   1.592
13530TIP3    H240536   7.107   4.019   1.677
13531TIP3   OH240537   2.740   4.516   0.490
13531TIP3    H140538   2.816   4.498   0.545
13531TIP3    H240539   2.733   4.439   0.433
13532TIP3   OH240540   8.051   3.260   4.571
13532TIP3    H140541   7.999   3.181   4.588
13532TIP3    H240542   8.032   3.280   4.479
13533TIP3   OH240543   1.658   6.357   2.522
13533TIP3    H140544   1.564   6.356   2.507
13533TIP3    H240545   1.675   6.282   2.578
13534TIP3   OH240546   7.796   5.756   6.619
13534TIP3    H140547   7.786   5.804   6.537
13534TIP3    H240548   7.712   5.769   6.665
13535TIP3   OH240549   1.263   0.753   4.467
13535TIP3    H140550   1.293   0.678   4.518
13535TIP3    H240551   1.343   0.787   4.427
13536TIP3   OH240552   1.636   0.630   3.269
13536TIP3    H140553   1.569   0.659   3.208
13536TIP3    H240554   1.719   0.644   3.222
13537TIP3   OH240555   5.554   1.677   6.633
13537TIP3    H140556   5.587   1.756   6.676
13537TIP3    H240557   5.522   1.622   6.704
13538TIP3   OH240558   0.688   7.460   3.463
13538TIP3    H140559   0.740   7.428   3.389
13538TIP3    H240560   0.604   7.415   3.453
13539TIP3   OH240561   5.009   2.679   4.316
13539TIP3    H140562   4.971   2.653   4.232
13539TIP3    H240563   4.934   2.706   4.369
13540TIP3   OH240564   5.154   5.264   1.736
13540TIP3    H140565   5.233   5.288   1.783
13540TIP3    H240566   5.086   5.258   1.803
13541TIP3   OH240567   1.225   6.911   4.065
13541TIP3    H140568   1.288   6.838   4.071
13541TIP3    H240569   1.204   6.932   4.156
13542TIP3   OH240570   6.458   1.610   2.565
13542TIP3    H140571   6.457   1.628   2.659
13542TIP3    H240572   6.485   1.692   2.525
13543TIP3   OH240573   7.063   4.216   5.313
13543TIP3    H140574   7.003   4.198   5.385
13543TIP3    H240575   7.063   4.136   5.262
13544TIP3   OH240576   0.528   6.508   6.091
13544TIP3    H140577   0.482   6.464   6.163
13544TIP3    H240578   0.474   6.492   6.014
13545TIP3   OH240579   1.245   5.546   5.669
13545TIP3    H140580   1.294   5.573   5.591
13545TIP3    H240581   1.248   5.451   5.669
13546TIP3   OH240582   7.110   7.702   2.992
13546TIP3    H140583   7.190   7.723   3.040
13546TIP3    H240584   7.116   7.754   2.912
13547TIP3   OH240585   3.643   7.782   2.091
13547TIP3    H140586   3.609   7.710   2.143
13547TIP3    H240587   3.733   7.794   2.122
13548TIP3   OH240588   7.454   2.406   4.869
13548TIP3    H140589   7.384   2.379   4.929
13548TIP3    H240590   7.517   2.334   4.872
13549TIP3   OH240591   0.096   4.900   3.656
13549TIP3    H140592   0.118   4.857   3.739
13549TIP3    H240593   0.180   4.921   3.616
13550TIP3   OH240594   3.475   5.595   3.126
13550TIP3    H140595   3.483   5.675   3.177
13550TIP3    H240596   3.527   5.612   3.047
13551TIP3   OH240597   0.095   3.576   2.588
13551TIP3    H140598   0.021   3.584   2.527
13551TIP3    H240599   0.136   3.662   2.589
13552TIP3   OH240600   7.479   2.564   6.383
13552TIP3    H140601   7.395   2.567   6.337
13552TIP3    H240602   7.458   2.589   6.473
13553TIP3   OH240603   1.630   0.999   1.963
13553TIP3    H140604   1.709   1.054   1.960
13553TIP3    H240605   1.603   0.991   1.871
13554TIP3   OH240606   0.363   1.591   6.662
13554TIP3    H140607   0.332   1.656   6.598
13554TIP3    H240608   0.456   1.610   6.672
13555TIP3   OH240609   7.425   5.712   0.037
13555TIP3    H140610   7.502   5.696   0.092
13555TIP3    H240611   7.365   5.641   0.060
13556TIP3   OH240612   0.500   5.303   5.189
13556TIP3    H140613   0.589   5.290   5.157
13556TIP3    H240614   0.450   5.232   5.150
13557TIP3   OH240615   7.419   7.003   1.923
13557TIP3    H140616   7.395   7.086   1.883
13557TIP3    H240617   7.350   6.942   1.897
13558TIP3   OH240618   0.947   7.169   1.490
13558TIP3    H140619   1.007   7.148   1.419
13558TIP3    H240620   0.887   7.095   1.494
13559TIP3   OH240621   3.621   4.868   5.659
13559TIP3    H140622   3.544   4.814   5.639
13559TIP3    H240623   3.591   4.929   5.726
13560TIP3   OH240624   1.036   6.067   1.684
13560TIP3    H140625   1.093   6.087   1.610
13560TIP3    H240626   1.074   6.115   1.758
13561TIP3   OH240627   2.926   7.310   3.296
13561TIP3    H140628   2.900   7.388   3.246
13561TIP3    H240629   2.850   7.290   3.351
13562TIP3   OH240630   5.502   6.960   1.181
13562TIP3    H140631   5.549   7.043   1.176
13562TIP3    H240632   5.567   6.895   1.153
13563TIP3   OH240633   7.726   2.768   3.506
13563TIP3    H140634   7.712   2.683   3.464
13563TIP3    H240635   7.735   2.830   3.433
13564TIP3   OH240636   3.353   6.083   1.479
13564TIP3    H140637   3.372   6.170   1.442
13564TIP3    H240638   3.436   6.035   1.471
13565TIP3   OH240639   1.093   4.070   3.902
13565TIP3    H140640   1.153   4.006   3.864
13565TIP3    H240641   1.030   4.088   3.833
13566TIP3   OH240642   5.857   6.987   3.799
13566TIP3    H140643   5.937   7.013   3.753
13566TIP3    H240644   5.883   6.983   3.891
13567TIP3   OH240645   1.870   0.410   0.117
13567TIP3    H140646   1.889   0.322   0.085
13567TIP3    H240647   1.853   0.461   0.037
13568TIP3   OH240648   2.497   6.183   5.160
13568TIP3    H140649   2.429   6.128   5.122
13568TIP3    H240650   2.551   6.209   5.085
13569TIP3   OH240651   3.195   6.847   6.676
13569TIP3    H140652   3.136   6.848   6.751
13569TIP3    H240653   3.282   6.859   6.714
13570TIP3   OH240654   1.332   6.650   6.713
13570TIP3    H140655   1.268   6.654   6.642
13570TIP3    H240656   1.292   6.702   6.784
13571TIP3   OH240657   7.507   4.818   4.139
13571TIP3    H140658   7.544   4.786   4.221
13571TIP3    H240659   7.579   4.814   4.077
13572TIP3   OH240660   8.215   6.841   0.108
13572TIP3    H140661   8.211   6.930   0.074
13572TIP3    H240662   8.291   6.841   0.166
13573TIP3   OH240663   3.149   3.551   4.241
13573TIP3    H140664   3.084   3.577   4.306
13573TIP3    H240665   3.202   3.629   4.226
13574TIP3   OH240666   8.118   7.075   5.601
13574TIP3    H140667   8.191   7.136   5.590
13574TIP3    H240668   8.043   7.131   5.622
13575TIP3   OH240669   0.321   0.305   5.557
13575TIP3    H140670   0.414   0.303   5.583
13575TIP3    H240671   0.314   0.241   5.486
13576TIP3   OH240672   7.382   2.375   4.577
13576TIP3    H140673   7.358   2.298   4.526
13576TIP3    H240674   7.333   2.367   4.659
13577TIP3   OH240675   6.925   0.195   1.374
13577TIP3    H140676   6.967   0.189   1.459
13577TIP3    H240677   6.831   0.195   1.394
13578TIP3   OH240678   2.160   6.452   4.489
13578TIP3    H140679   2.214   6.373   4.485
13578TIP3    H240680   2.147   6.468   4.582
13579TIP3   OH240681   4.696   2.338   2.788
13579TIP3    H140682   4.727   2.273   2.851
13579TIP3    H240683   4.770   2.396   2.775
13580TIP3   OH240684   2.389   2.698   1.607
13580TIP3    H140685   2.417   2.651   1.529
13580TIP3    H240686   2.325   2.761   1.575
13581TIP3   OH240687   6.345   1.422   4.949
13581TIP3    H140688   6.410   1.417   4.879
13581TIP3    H240689   6.365   1.505   4.994
13582TIP3   OH240690   3.783   0.368   1.937
13582TIP3    H140691   3.701   0.353   1.890
13582TIP3    H240692   3.797   0.288   1.987
13583TIP3   OH240693   2.676   0.227   3.902
13583TIP3    H140694   2.734   0.243   3.977
13583TIP3    H240695   2.705   0.143   3.867
13584TIP3   OH240696   5.914   1.586   1.197
13584TIP3    H140697   5.867   1.516   1.152
13584TIP3    H240698   5.854   1.616   1.265
13585TIP3   OH240699   3.318   0.571   4.886
13585TIP3    H140700   3.266   0.651   4.886
13585TIP3    H240701   3.359   0.568   4.972
13586TIP3   OH240702   1.696   4.956   1.053
13586TIP3    H140703   1.689   4.916   0.967
13586TIP3    H240704   1.718   5.048   1.035
13587TIP3   OH240705   3.400   0.260   5.788
13587TIP3    H140706   3.443   0.334   5.745
13587TIP3    H240707   3.463   0.231   5.854
13588TIP3   OH240708   4.960   3.941   0.410
13588TIP3    H140709   5.015   3.923   0.334
13588TIP3    H240710   4.923   3.855   0.434
13589TIP3   OH240711   2.225   2.815   4.698
13589TIP3    H140712   2.179   2.844   4.777
13589TIP3    H240713   2.259   2.896   4.660
13590TIP3   OH240714   6.648   1.785   0.786
13590TIP3    H140715   6.728   1.787   0.732
13590TIP3    H240716   6.656   1.861   0.843
13591TIP3   OH240717   7.204   4.215   1.967
13591TIP3    H140718   7.174   4.124   1.970
13591TIP3    H240719   7.289   4.210   1.924
13592TIP3   OH240720   5.122   5.437   5.129
13592TIP3    H140721   5.044   5.383   5.119
13592TIP3    H240722   5.089   5.521   5.160
13593TIP3   OH240723   2.253   2.154   5.066
13593TIP3    H140724   2.300   2.236   5.080
13593TIP3    H240725   2.302   2.090   5.118
13594TIP3   OH240726   1.382   1.938   1.062
13594TIP3    H140727   1.467   1.900   1.037
13594TIP3    H240728   1.405   2.017   1.110
13595TIP3   OH240729   5.964   6.925   2.047
13595TIP3    H140730   5.986   6.975   1.969
13595TIP3    H240731   5.887   6.874   2.021
13596TIP3   OH240732   8.006   4.644   2.714
13596TIP3    H140733   8.039   4.640   2.804
13596TIP3    H240734   7.915   4.614   2.721
13597TIP3   OH240735   7.578   1.722   4.282
13597TIP3    H140736   7.614   1.795   4.333
13597TIP3    H240737   7.633   1.717   4.204
13598TIP3   OH240738   0.853   5.041   0.312
13598TIP3    H140739   0.939   5.058   0.272
13598TIP3    H240740   0.790   5.073   0.248
13599TIP3   OH240741   1.311   2.600   0.750
13599TIP3    H140742   1.302   2.639   0.837
13599TIP3    H240743   1.232   2.547   0.739
13600TIP3   OH240744   5.157   3.878   6.571
13600TIP3    H140745   5.129   3.961   6.610
13600TIP3    H240746   5.092   3.860   6.503
13601TIP3   OH240747   3.470   5.403   1.218
13601TIP3    H140748   3.451   5.395   1.125
13601TIP3    H240749   3.385   5.419   1.259
13602TIP3   OH240750   6.447   0.981   0.870
13602TIP3    H140751   6.394   1.026   0.936
13602TIP3    H240752   6.526   0.956   0.916
13603TIP3   OH240753   3.515   5.484   4.991
13603TIP3    H140754   3.593   5.528   5.024
13603TIP3    H240755   3.474   5.548   4.932
13604TIP3   OH240756   6.078   0.964   2.319
13604TIP3    H140757   6.015   1.034   2.302
13604TIP3    H240758   6.059   0.936   2.408
13605TIP3   OH240759   5.110   2.033   5.376
13605TIP3    H140760   5.108   2.120   5.415
13605TIP3    H240761   5.097   2.048   5.283
13606TIP3   OH240762   5.329   1.953   4.307
13606TIP3    H140763   5.253   1.995   4.268
13606TIP3    H240764   5.294   1.900   4.378
13607TIP3   OH240765   4.807   0.142   2.174
13607TIP3    H140766   4.876   0.109   2.117
13607TIP3    H240767   4.854   0.189   2.244
13608TIP3   OH240768   1.809   6.622   5.450
13608TIP3    H140769   1.847   6.648   5.534
13608TIP3    H240770   1.856   6.543   5.425
13609TIP3   OH240771   6.251   7.422   2.010
13609TIP3    H140772   6.286   7.335   2.030
13609TIP3    H240773   6.179   7.433   2.072
13610TIP3   OH240774   4.332   3.999   6.615
13610TIP3    H140775   4.389   4.067   6.581
13610TIP3    H240776   4.370   3.917   6.581
13611TIP3   OH240777   2.398   4.988   2.497
13611TIP3    H140778   2.439   5.067   2.532
13611TIP3    H240779   2.320   5.019   2.451
13612TIP3   OH240780   5.626   3.745   2.069
13612TIP3    H140781   5.653   3.721   2.157
13612TIP3    H240782   5.530   3.749   2.073
13613TIP3   OH240783   3.532   0.876   4.939
13613TIP3    H140784   3.454   0.823   4.927
13613TIP3    H240785   3.501   0.955   4.984
13614TIP3   OH240786   1.471   4.847   5.485
13614TIP3    H140787   1.395   4.854   5.428
13614TIP3    H240788   1.530   4.916   5.456
13615TIP3   OH240789   4.004   7.737   5.389
13615TIP3    H140790   4.035   7.818   5.428
13615TIP3    H240791   4.058   7.668   5.429
13616TIP3   OH240792   6.759   4.621   4.629
13616TIP3    H140793   6.755   4.629   4.724
13616TIP3    H240794   6.720   4.702   4.596
13617TIP3   OH240795   1.714   0.352   2.646
13617TIP3    H140796   1.800   0.382   2.618
13617TIP3    H240797   1.671   0.322   2.565
13618TIP3   OH240798   3.673   3.224   2.607
13618TIP3    H140799   3.647   3.135   2.582
13618TIP3    H240800   3.763   3.232   2.576
13619TIP3   OH240801   8.199   6.572   1.358
13619TIP3    H140802   8.184   6.631   1.432
13619TIP3    H240803   8.261   6.508   1.393
13620TIP3   OH240804   2.804   0.933   2.311
13620TIP3    H140805   2.733   0.898   2.258
13620TIP3    H240806   2.870   0.863   2.313
13621TIP3   OH240807   0.923   6.915   1.831
13621TIP3    H140808   0.909   6.978   1.761
13621TIP3    H240809   0.845   6.859   1.828
13622TIP3   OH240810   6.477   5.049   0.076
13622TIP3    H140811   6.500   4.961   0.047
13622TIP3    H240812   6.500   5.051   0.168
13623TIP3   OH240813   3.704   0.616   4.925
13623TIP3    H140814   3.670   0.539   4.971
13623TIP3    H240815   3.720   0.585   4.835
13624TIP3   OH240816   1.057   0.808   1.805
13624TIP3    H140817   1.125   0.741   1.795
13624TIP3    H240818   0.984   0.762   1.846
13625TIP3   OH240819   7.949   4.776   5.195
13625TIP3    H140820   7.932   4.860   5.238
13625TIP3    H240821   8.040   4.756   5.217
13626TIP3   OH240822   0.634   0.906   0.912
13626TIP3    H140823   0.674   0.911   0.999
13626TIP3    H240824   0.540   0.914   0.928
13627TIP3   OH240825   7.878   1.514   3.847
13627TIP3    H140826   7.936   1.561   3.788
13627TIP3    H240827   7.887   1.422   3.822
13628TIP3   OH240828   7.529   6.137   0.134
13628TIP3    H140829   7.579   6.203   0.086
13628TIP3    H240830   7.438   6.165   0.124
13629TIP3   OH240831   3.940   5.868   1.287
13629TIP3    H140832   3.854   5.879   1.330
13629TIP3    H240833   3.959   5.955   1.251
13630TIP3   OH240834   0.971   0.729   4.410
13630TIP3    H140835   0.933   0.691   4.489
13630TIP3    H240836   1.063   0.746   4.433
13631TIP3   OH240837   1.943   7.614   5.037
13631TIP3    H140838   1.963   7.607   5.130
13631TIP3    H240839   1.879   7.544   5.021
13632TIP3   OH240840   4.371   2.680   5.146
13632TIP3    H140841   4.419   2.755   5.182
13632TIP3    H240842   4.374   2.692   5.051
13633TIP3   OH240843   6.940   7.362   3.491
13633TIP3    H140844   6.945   7.412   3.572
13633TIP3    H240845   6.925   7.272   3.520
13634TIP3   OH240846   1.594   1.704   4.329
13634TIP3    H140847   1.506   1.673   4.348
13634TIP3    H240848   1.580   1.781   4.273
13635TIP3   OH240849   7.921   5.485   0.090
13635TIP3    H140850   7.932   5.517   0.180
13635TIP3    H240851   8.008   5.452   0.066
13636TIP3   OH240852   7.475   6.121   3.111
13636TIP3    H140853   7.542   6.068   3.154
13636TIP3    H240854   7.401   6.121   3.173
13637TIP3   OH240855   5.556   7.318   0.992
13637TIP3    H140856   5.462   7.321   1.010
13637TIP3    H240857   5.573   7.397   0.940
13638TIP3   OH240858   3.861   1.671   0.629
13638TIP3    H140859   3.892   1.762   0.628
13638TIP3    H240860   3.817   1.660   0.545
13639TIP3   OH240861   6.466   6.534   4.910
13639TIP3    H140862   6.415   6.615   4.910
13639TIP3    H240863   6.549   6.558   4.952
13640TIP3   OH240864   0.424   5.457   5.414
13640TIP3    H140865   0.480   5.449   5.491
13640TIP3    H240866   0.456   5.390   5.354
13641TIP3   OH240867   7.390   6.531   3.993
13641TIP3    H140868   7.369   6.537   4.086
13641TIP3    H240869   7.454   6.460   3.987
13642TIP3   OH240870   7.343   6.343   1.784
13642TIP3    H140871   7.361   6.261   1.738
13642TIP3    H240872   7.248   6.353   1.778
13643TIP3   OH240873   4.853   5.107   1.030
13643TIP3    H140874   4.862   5.059   1.112
13643TIP3    H240875   4.814   5.191   1.055
13644TIP3   OH240876   4.342   5.654   0.427
13644TIP3    H140877   4.433   5.673   0.408
13644TIP3    H240878   4.345   5.584   0.493
13645TIP3   OH240879   6.757   1.808   0.358
13645TIP3    H140880   6.669   1.776   0.343
13645TIP3    H240881   6.801   1.738   0.406
13646TIP3   OH240882   4.929   3.591   5.444
13646TIP3    H140883   4.957   3.501   5.427
13646TIP3    H240884   4.864   3.609   5.377
13647TIP3   OH240885   7.279   4.623   0.804
13647TIP3    H140886   7.201   4.601   0.854
13647TIP3    H240887   7.352   4.595   0.860
13648TIP3   OH240888   6.551   0.327   3.045
13648TIP3    H140889   6.510   0.412   3.029
13648TIP3    H240890   6.482   0.274   3.085
13649TIP3   OH240891   2.016   0.361   1.940
13649TIP3    H140892   2.071   0.403   2.007
13649TIP3    H240893   2.033   0.411   1.860
13650TIP3   OH240894   0.312   2.957   0.736
13650TIP3    H140895   0.263   3.002   0.667
13650TIP3    H240896   0.390   3.011   0.749
13651TIP3   OH240897   4.502   7.057   3.364
13651TIP3    H140898   4.434   7.039   3.299
13651TIP3    H240899   4.584   7.050   3.315
13652TIP3   OH240900   3.656   5.635   5.599
13652TIP3    H140901   3.579   5.658   5.547
13652TIP3    H240902   3.730   5.650   5.540
13653TIP3   OH240903   1.156   5.414   3.149
13653TIP3    H140904   1.071   5.374   3.169
13653TIP3    H240905   1.164   5.485   3.213
13654TIP3   OH240906   1.082   4.585   2.407
13654TIP3    H140907   1.076   4.570   2.501
13654TIP3    H240908   1.027   4.517   2.368
13655TIP3   OH240909   3.427   6.467   3.943
13655TIP3    H140910   3.367   6.414   3.892
13655TIP3    H240911   3.412   6.440   4.033
13656TIP3   OH240912   7.060   7.238   4.182
13656TIP3    H140913   7.078   7.185   4.259
13656TIP3    H240914   7.068   7.177   4.108
13657TIP3   OH240915   3.204   2.554   0.967
13657TIP3    H140916   3.113   2.579   0.953
13657TIP3    H240917   3.206   2.459   0.956
13658TIP3   OH240918   4.453   0.218   1.885
13658TIP3    H140919   4.545   0.231   1.862
13658TIP3    H240920   4.418   0.163   1.814
13659TIP3   OH240921   1.990   0.678   0.987
13659TIP3    H140922   1.897   0.655   0.981
13659TIP3    H240923   1.999   0.757   0.932
13660TIP3   OH240924   6.078   3.729   1.402
13660TIP3    H140925   6.023   3.650   1.409
13660TIP3    H240926   6.016   3.800   1.386
13661TIP3   OH240927   6.556   3.303   1.087
13661TIP3    H140928   6.551   3.232   1.152
13661TIP3    H240929   6.646   3.334   1.092
13662TIP3   OH240930   5.897   2.704   3.203
13662TIP3    H140931   5.908   2.610   3.206
13662TIP3    H240932   5.864   2.727   3.290
13663TIP3   OH240933   5.041   5.161   2.550
13663TIP3    H140934   4.957   5.208   2.546
13663TIP3    H240935   5.017   5.072   2.577
13664TIP3   OH240936   5.191   7.294   2.767
13664TIP3    H140937   5.199   7.341   2.851
13664TIP3    H240938   5.249   7.341   2.708
13665TIP3   OH240939   1.447   2.089   2.950
13665TIP3    H140940   1.462   2.182   2.932
13665TIP3    H240941   1.375   2.065   2.892
13666TIP3   OH240942   5.329   5.814   3.356
13666TIP3    H140943   5.386   5.890   3.360
13666TIP3    H240944   5.249   5.846   3.315
13667TIP3   OH240945   0.369   0.031   6.626
13667TIP3    H140946   0.314   0.025   6.547
13667TIP3    H240947   0.413  -0.054   6.630
13668TIP3   OH240948   7.818   4.338   5.167
13668TIP3    H140949   7.860   4.340   5.253
13668TIP3    H240950   7.881   4.380   5.109
13669TIP3   OH240951   5.246   4.115   5.093
13669TIP3    H140952   5.159   4.128   5.131
13669TIP3    H240953   5.254   4.020   5.083
13670TIP3   OH240954   5.351   4.040   1.282
13670TIP3    H140955   5.415   4.082   1.340
13670TIP3    H240956   5.352   4.094   1.203
13671TIP3   OH240957   0.040   6.045   4.920
13671TIP3    H140958   0.094   6.032   4.998
13671TIP3    H240959   0.102   6.064   4.850
13672TIP3   OH240960   7.940   7.779   0.616
13672TIP3    H140961   7.895   7.701   0.587
13672TIP3    H240962   7.958   7.764   0.709
13673TIP3   OH240963   2.804   1.640   0.784
13673TIP3    H140964   2.849   1.641   0.699
13673TIP3    H240965   2.723   1.688   0.768
13674TIP3   OH240966   7.510   3.311   2.584
13674TIP3    H140967   7.434   3.362   2.555
13674TIP3    H240968   7.586   3.364   2.559
13675TIP3   OH240969   3.467   7.530   0.946
13675TIP3    H140970   3.455   7.587   0.870
13675TIP3    H240971   3.475   7.442   0.910
13676TIP3   OH240972   8.129   1.654   2.736
13676TIP3    H140973   8.087   1.716   2.676
13676TIP3    H240974   8.070   1.578   2.737
13677TIP3   OH240975   1.763   7.686   1.695
13677TIP3    H140976   1.803   7.727   1.772
13677TIP3    H240977   1.781   7.592   1.706
13678TIP3   OH240978   0.073   0.990   4.892
13678TIP3    H140979   0.155   1.016   4.851
13678TIP3    H240980   0.098   0.923   4.955
13679TIP3   OH240981   4.501   6.300   2.528
13679TIP3    H140982   4.576   6.295   2.469
13679TIP3    H240983   4.450   6.222   2.510
13680TIP3   OH240984   7.985   4.536   5.003
13680TIP3    H140985   7.958   4.579   4.922
13680TIP3    H240986   7.965   4.600   5.072
13681TIP3   OH240987   3.687   1.806   6.568
13681TIP3    H140988   3.592   1.791   6.569
13681TIP3    H240989   3.698   1.886   6.516
13682TIP3   OH240990   4.423   5.307   3.554
13682TIP3    H140991   4.392   5.306   3.464
13682TIP3    H240992   4.369   5.373   3.597
13683TIP3   OH240993   4.101   2.947   2.596
13683TIP3    H140994   4.151   2.905   2.666
13683TIP3    H240995   4.168   2.980   2.536
13684TIP3   OH240996   2.398   4.047   1.294
13684TIP3    H140997   2.451   4.113   1.340
13684TIP3    H240998   2.371   3.987   1.362
13685TIP3   OH240999   3.555   3.776   5.023
13685TIP3    H141000   3.525   3.866   5.032
13685TIP3    H241001   3.551   3.740   5.111
13686TIP3   OH241002   4.543   2.453   3.205
13686TIP3    H141003   4.449   2.442   3.217
13686TIP3    H241004   4.578   2.364   3.197
13687TIP3   OH241005   1.227   3.964   0.385
13687TIP3    H141006   1.314   3.988   0.352
13687TIP3    H241007   1.171   3.964   0.307
13688TIP3   OH241008   1.978   5.412   3.272
13688TIP3    H141009   1.987   5.423   3.366
13688TIP3    H241010   2.011   5.493   3.234
13689TIP3   OH241011   4.538   2.958   2.482
13689TIP3    H141012   4.532   3.003   2.398
13689TIP3    H241013   4.480   2.882   2.472
13690TIP3   OH241014   1.655   6.073   6.611
13690TIP3    H141015   1.625   6.095   6.699
13690TIP3    H241016   1.586   6.106   6.553
13691TIP3   OH241017   0.351   6.721   1.954
13691TIP3    H141018   0.264   6.732   1.992
13691TIP3    H241019   0.347   6.768   1.871
13692TIP3   OH241020   8.185   5.930   2.709
13692TIP3    H141021   8.166   5.869   2.637
13692TIP3    H241022   8.099   5.957   2.741
13693TIP3   OH241023   1.716   0.012   0.129
13693TIP3    H141024   1.685   0.099   0.106
13693TIP3    H241025   1.680  -0.004   0.217
13694TIP3   OH241026   4.610   1.585   2.015
13694TIP3    H141027   4.599   1.540   1.931
13694TIP3    H241028   4.543   1.653   2.015
13695TIP3   OH241029   0.113   3.066   2.008
13695TIP3    H141030   0.049   3.093   2.074
13695TIP3    H241031   0.148   3.147   1.973
13696TIP3   OH241032   4.080   4.306   6.173
13696TIP3    H141033   4.030   4.385   6.152
13696TIP3    H241034   4.016   4.235   6.168
13697TIP3   OH241035   7.002   6.523   3.831
13697TIP3    H141036   7.040   6.486   3.911
13697TIP3    H241037   6.958   6.449   3.789
13698TIP3   OH241038   7.413   1.253   0.015
13698TIP3    H141039   7.508   1.241   0.008
13698TIP3    H241040   7.393   1.317  -0.054
13699TIP3   OH241041   0.919   2.783   0.372
13699TIP3    H141042   0.972   2.786   0.452
13699TIP3    H241043   0.893   2.691   0.364
13700TIP3   OH241044   4.960   1.006   3.988
13700TIP3    H141045   4.969   0.913   3.967
13700TIP3    H241046   4.880   1.011   4.040
13701TIP3   OH241047   4.082   1.322   0.417
13701TIP3    H141048   4.151   1.264   0.450
13701TIP3    H241049   4.042   1.358   0.496
13702TIP3   OH241050   5.434   1.511   2.252
13702TIP3    H141051   5.489   1.583   2.285
13702TIP3    H241052   5.367   1.555   2.200
13703TIP3   OH241053   5.692   4.748   2.058
13703TIP3    H141054   5.671   4.672   2.004
13703TIP3    H241055   5.663   4.823   2.006
13704TIP3   OH241056   0.780   3.947   0.288
13704TIP3    H141057   0.754   3.876   0.230
13704TIP3    H241058   0.868   3.971   0.257
13705TIP3   OH241059   7.763   7.093   3.042
13705TIP3    H141060   7.803   7.008   3.058
13705TIP3    H241061   7.745   7.095   2.948
13706TIP3   OH241062   8.154   0.473   6.765
13706TIP3    H141063   8.182   0.562   6.744
13706TIP3    H241064   8.194   0.418   6.697
13707TIP3   OH241065   7.337   1.539   1.015
13707TIP3    H141066   7.367   1.564   1.102
13707TIP3    H241067   7.252   1.583   1.005
13708TIP3   OH241068   0.389   0.260   2.276
13708TIP3    H141069   0.414   0.333   2.219
13708TIP3    H241070   0.377   0.186   2.217
13709TIP3   OH241071   3.673   1.734   3.005
13709TIP3    H141072   3.614   1.810   3.006
13709TIP3    H241073   3.755   1.767   3.042
13710TIP3   OH241074   6.464   7.157   4.514
13710TIP3    H141075   6.517   7.128   4.588
13710TIP3    H241076   6.509   7.123   4.437
13711TIP3   OH241077   0.453   1.138   0.633
13711TIP3    H141078   0.502   1.215   0.604
13711TIP3    H241079   0.459   1.140   0.728
13712TIP3   OH241080   0.483   4.638   5.090
13712TIP3    H141081   0.395   4.624   5.126
13712TIP3    H241082   0.536   4.569   5.128
13713TIP3   OH241083   7.597   6.939   0.709
13713TIP3    H141084   7.542   7.017   0.709
13713TIP3    H241085   7.665   6.958   0.644
13714TIP3   OH241086   7.313   0.787   5.019
13714TIP3    H141087   7.355   0.841   5.086
13714TIP3    H241088   7.321   0.697   5.052
13715TIP3   OH241089   4.297   6.428   2.228
13715TIP3    H141090   4.366   6.482   2.190
13715TIP3    H241091   4.260   6.380   2.153
13716TIP3   OH241092   6.829   6.898   1.183
13716TIP3    H141093   6.886   6.828   1.215
13716TIP3    H241094   6.887   6.954   1.132
13717TIP3   OH241095   0.475   7.006   2.361
13717TIP3    H141096   0.555   6.985   2.313
13717TIP3    H241097   0.405   6.960   2.314
13718TIP3   OH241098   6.201   5.711   5.684
13718TIP3    H141099   6.243   5.625   5.692
13718TIP3    H241100   6.200   5.729   5.591
13719TIP3   OH241101   7.857   0.467   0.863
13719TIP3    H141102   7.934   0.447   0.809
13719TIP3    H241103   7.881   0.439   0.951
13720TIP3   OH241104   3.825   0.769   0.006
13720TIP3    H141105   3.850   0.795   0.095
13720TIP3    H241106   3.907   0.735  -0.032
13721TIP3   OH241107   0.628   0.539   0.553
13721TIP3    H141108   0.623   0.464   0.613
13721TIP3    H241109   0.671   0.504   0.475
13722TIP3   OH241110   5.260   4.560   2.314
13722TIP3    H141111   5.247   4.495   2.383
13722TIP3    H241112   5.204   4.633   2.339
13723TIP3   OH241113   2.916   3.309   3.119
13723TIP3    H141114   2.937   3.402   3.106
13723TIP3    H241115   2.842   3.310   3.181
13724TIP3   OH241116   3.732   5.280   6.555
13724TIP3    H141117   3.682   5.261   6.475
13724TIP3    H241118   3.669   5.266   6.626
13725TIP3   OH241119   8.199   3.318   1.309
13725TIP3    H141120   8.166   3.361   1.388
13725TIP3    H241121   8.264   3.256   1.341
13726TIP3   OH241122   2.685   5.633   3.017
13726TIP3    H141123   2.614   5.601   3.074
13726TIP3    H241124   2.727   5.553   2.985
13727TIP3   OH241125   1.926   7.710   5.325
13727TIP3    H141126   1.945   7.616   5.334
13727TIP3    H241127   1.861   7.727   5.393
13728TIP3   OH241128   2.661   0.100   0.992
13728TIP3    H141129   2.676   0.097   0.897
13728TIP3    H241130   2.702   0.020   1.025
13729TIP3   OH241131   2.619   6.806   1.883
13729TIP3    H141132   2.689   6.745   1.906
13729TIP3    H241133   2.662   6.873   1.831
13730TIP3   OH241134   1.272   3.189   3.041
13730TIP3    H141135   1.360   3.150   3.042
13730TIP3    H241136   1.222   3.132   2.983
13731TIP3   OH241137   6.203   1.716   4.630
13731TIP3    H141138   6.263   1.760   4.691
13731TIP3    H241139   6.174   1.638   4.678
13732TIP3   OH241140   0.087   7.707   5.937
13732TIP3    H141141   0.015   7.654   5.971
13732TIP3    H241142   0.079   7.790   5.984
13733TIP3   OH241143   1.688   6.746   0.481
13733TIP3    H141144   1.593   6.734   0.485
13733TIP3    H241145   1.703   6.832   0.521
13734TIP3   OH241146   4.412   1.483   3.803
13734TIP3    H141147   4.410   1.407   3.861
13734TIP3    H241148   4.449   1.553   3.856
13735TIP3   OH241149   3.068   5.254   1.850
13735TIP3    H141150   3.070   5.324   1.915
13735TIP3    H241151   3.160   5.236   1.831
13736TIP3   OH241152   4.767   2.731   4.132
13736TIP3    H141153   4.700   2.697   4.072
13736TIP3    H241154   4.720   2.793   4.188
13737TIP3   OH241155   1.406   6.716   0.488
13737TIP3    H141156   1.316   6.716   0.455
13737TIP3    H241157   1.423   6.806   0.514
13738TIP3   OH241158   8.207   1.209   4.831
13738TIP3    H141159   8.214   1.114   4.844
13738TIP3    H241160   8.159   1.219   4.749
13739TIP3   OH241161   3.838   3.700   2.264
13739TIP3    H141162   3.887   3.622   2.239
13739TIP3    H241163   3.880   3.731   2.344
13740TIP3   OH241164   0.351   3.909   5.571
13740TIP3    H141165   0.338   3.820   5.541
13740TIP3    H241166   0.285   3.921   5.640
13741TIP3   OH241167   3.354   2.081   0.901
13741TIP3    H141168   3.286   2.019   0.927
13741TIP3    H241169   3.431   2.056   0.952
13742TIP3   OH241170   0.175   4.594   5.713
13742TIP3    H141171   0.095   4.637   5.742
13742TIP3    H241172   0.177   4.512   5.764
13743TIP3   OH241173   1.077   2.938   3.551
13743TIP3    H141174   1.124   2.914   3.471
13743TIP3    H241175   0.985   2.918   3.533
13744TIP3   OH241176   3.881   5.289   5.745
13744TIP3    H141177   3.883   5.383   5.725
13744TIP3    H241178   3.788   5.270   5.760
13745TIP3   OH241179   0.228   0.699   3.705
13745TIP3    H141180   0.193   0.788   3.716
13745TIP3    H241181   0.181   0.647   3.770
13746TIP3   OH241182   5.736   6.418   5.191
13746TIP3    H141183   5.668   6.470   5.148
13746TIP3    H241184   5.688   6.353   5.242
13747TIP3   OH241185   6.779   6.036   6.547
13747TIP3    H141186   6.712   6.103   6.563
13747TIP3    H241187   6.729   5.956   6.530
13748TIP3   OH241188   3.150   4.530   2.323
13748TIP3    H141189   3.245   4.527   2.314
13748TIP3    H241190   3.118   4.463   2.263
13749TIP3   OH241191   5.942   7.521   0.625
13749TIP3    H141192   5.968   7.429   0.633
13749TIP3    H241193   5.848   7.521   0.643
13750TIP3   OH241194   4.256   2.420   1.851
13750TIP3    H141195   4.287   2.447   1.765
13750TIP3    H241196   4.332   2.426   1.908
13751TIP3   OH241197   5.146   6.756   1.248
13751TIP3    H141198   5.072   6.696   1.262
13751TIP3    H241199   5.123   6.804   1.168
13752TIP3   OH241200   4.743   0.636   3.697
13752TIP3    H141201   4.736   0.726   3.666
13752TIP3    H241202   4.700   0.636   3.782
13753TIP3   OH241203   1.378   2.044   4.023
13753TIP3    H141204   1.396   1.982   3.952
13753TIP3    H241205   1.461   2.052   4.070
13754TIP3   OH241206   2.591   6.292   5.582
13754TIP3    H141207   2.614   6.323   5.670
13754TIP3    H241208   2.560   6.371   5.537
13755TIP3   OH241209   3.905   0.471   1.533
13755TIP3    H141210   3.993   0.473   1.571
13755TIP3    H241211   3.880   0.379   1.536
13756TIP3   OH241212   0.396   3.454   5.051
13756TIP3    H141213   0.449   3.375   5.043
13756TIP3    H241214   0.457   3.526   5.034
13757TIP3   OH241215   5.776   2.530   6.508
13757TIP3    H141216   5.793   2.436   6.502
13757TIP3    H241217   5.801   2.564   6.422
13758TIP3   OH241218   2.438   7.559   1.762
13758TIP3    H141219   2.503   7.626   1.781
13758TIP3    H241220   2.411   7.576   1.672
13759TIP3   OH241221   1.224   1.262   5.791
13759TIP3    H141222   1.146   1.213   5.814
13759TIP3    H241223   1.250   1.228   5.706
13760TIP3   OH241224   7.180   2.292   6.091
13760TIP3    H141225   7.241   2.233   6.135
13760TIP3    H241226   7.104   2.237   6.071
13761TIP3   OH241227   7.667   3.247   6.226
13761TIP3    H141228   7.671   3.322   6.287
13761TIP3    H241229   7.635   3.285   6.144
13762TIP3   OH241230   2.483   3.478   6.580
13762TIP3    H141231   2.497   3.442   6.667
13762TIP3    H241232   2.437   3.561   6.595
13763TIP3   OH241233   6.611   1.652   3.229
13763TIP3    H141234   6.618   1.577   3.171
13763TIP3    H241235   6.532   1.636   3.280
13764TIP3   OH241236   4.371   4.544   3.698
13764TIP3    H141237   4.461   4.554   3.666
13764TIP3    H241238   4.377   4.559   3.792
13765TIP3   OH241239   4.886   4.780   3.417
13765TIP3    H141240   4.816   4.810   3.476
13765TIP3    H241241   4.945   4.731   3.474
13766TIP3   OH241242   4.140   2.776   0.468
13766TIP3    H141243   4.060   2.736   0.504
13766TIP3    H241244   4.135   2.760   0.374
13767TIP3   OH241245   7.921   6.331   1.131
13767TIP3    H141246   7.943   6.368   1.217
13767TIP3    H241247   7.963   6.245   1.131
13768TIP3   OH241248   2.016   3.631   5.456
13768TIP3    H141249   1.979   3.585   5.532
13768TIP3    H241250   1.960   3.605   5.383
13769TIP3   OH241251   3.392   7.640   6.615
13769TIP3    H141252   3.449   7.699   6.664
13769TIP3    H241253   3.390   7.676   6.526
13770TIP3   OH241254   4.065   3.450   5.183
13770TIP3    H141255   4.015   3.531   5.176
13770TIP3    H241256   4.010   3.384   5.142
13771TIP3   OH241257   6.118   5.930   4.202
13771TIP3    H141258   6.081   6.010   4.239
13771TIP3    H241259   6.076   5.860   4.252
13772TIP3   OH241260   5.401   5.423   0.681
13772TIP3    H141261   5.447   5.455   0.759
13772TIP3    H241262   5.441   5.472   0.609
13773TIP3   OH241263   2.733   5.061   2.018
13773TIP3    H141264   2.643   5.039   1.995
13773TIP3    H241265   2.785   5.033   1.943
13774TIP3   OH241266   1.269   3.518   5.255
13774TIP3    H141267   1.231   3.605   5.266
13774TIP3    H241268   1.244   3.491   5.167
13775TIP3   OH241269   1.379   6.146   6.180
13775TIP3    H141270   1.407   6.157   6.270
13775TIP3    H241271   1.413   6.223   6.134
13776TIP3   OH241272   7.151   6.995   3.000
13776TIP3    H141273   7.238   6.957   3.015
13776TIP3    H241274   7.161   7.087   3.021
13777TIP3   OH241275   2.167   7.460   5.710
13777TIP3    H141276   2.228   7.478   5.638
13777TIP3    H241277   2.223   7.450   5.787
13778TIP3   OH241278   5.100   1.964   1.451
13778TIP3    H141279   5.092   1.872   1.426
13778TIP3    H241280   5.077   1.966   1.544
13779TIP3   OH241281   0.211   1.202   5.770
13779TIP3    H141282   0.178   1.190   5.681
13779TIP3    H241283   0.296   1.159   5.769
13780TIP3   OH241284   2.400   1.630   1.402
13780TIP3    H141285   2.437   1.708   1.444
13780TIP3    H241286   2.457   1.614   1.327
13781TIP3   OH241287   6.590   1.411   2.060
13781TIP3    H141288   6.552   1.478   2.117
13781TIP3    H241289   6.515   1.375   2.013
13782TIP3   OH241290   8.218   6.500   4.173
13782TIP3    H141291   8.279   6.572   4.156
13782TIP3    H241292   8.268   6.421   4.155
13783TIP3   OH241293   5.238   0.420   2.405
13783TIP3    H141294   5.297   0.460   2.342
13783TIP3    H241295   5.245   0.326   2.388
13784TIP3   OH241296   6.267   3.154   6.436
13784TIP3    H141297   6.224   3.172   6.353
13784TIP3    H241298   6.201   3.106   6.486
13785TIP3   OH241299   0.598   3.257   4.980
13785TIP3    H141300   0.602   3.266   4.885
13785TIP3    H241301   0.628   3.168   4.998
13786TIP3   OH241302   0.605   6.102   5.094
13786TIP3    H141303   0.537   6.053   5.139
13786TIP3    H241304   0.600   6.190   5.131
13787TIP3   OH241305   5.451   5.205   6.146
13787TIP3    H141306   5.390   5.134   6.129
13787TIP3    H241307   5.410   5.282   6.106
13788TIP3   OH241308   4.252   3.832   0.169
13788TIP3    H141309   4.299   3.836   0.253
13788TIP3    H241310   4.190   3.760   0.180
13789TIP3   OH241311   0.613   0.177   5.506
13789TIP3    H141312   0.614   0.251   5.566
13789TIP3    H241313   0.602   0.100   5.561
13790TIP3   OH241314   0.747   4.271   5.764
13790TIP3    H141315   0.738   4.310   5.850
13790TIP3    H241316   0.658   4.271   5.728
13791TIP3   OH241317   7.585   1.240   0.656
13791TIP3    H141318   7.675   1.209   0.658
13791TIP3    H241319   7.535   1.167   0.620
13792TIP3   OH241320   2.203   1.603   4.133
13792TIP3    H141321   2.283   1.624   4.085
13792TIP3    H241322   2.177   1.685   4.174
13793TIP3   OH241323   2.288   7.155   1.783
13793TIP3    H141324   2.257   7.186   1.869
13793TIP3    H241325   2.363   7.099   1.804
13794TIP3   OH241326   0.254   0.723   6.131
13794TIP3    H141327   0.234   0.630   6.119
13794TIP3    H241328   0.206   0.748   6.209
13795TIP3   OH241329   3.938   2.453   4.037
13795TIP3    H141330   3.934   2.364   4.003
13795TIP3    H241331   3.975   2.444   4.124
13796TIP3   OH241332   1.845   0.587   5.858
13796TIP3    H141333   1.938   0.567   5.847
13796TIP3    H241334   1.830   0.581   5.952
13797TIP3   OH241335   1.928   4.487   2.183
13797TIP3    H141336   1.999   4.551   2.193
13797TIP3    H241337   1.966   4.418   2.129
13798TIP3   OH241338   4.257   7.652   2.588
13798TIP3    H141339   4.239   7.614   2.674
13798TIP3    H241340   4.206   7.598   2.527
13799TIP3   OH241341   0.960   3.322   5.996
13799TIP3    H141342   0.876   3.310   6.041
13799TIP3    H241343   1.005   3.388   6.048
13800TIP3   OH241344   1.197   1.574   6.127
13800TIP3    H141345   1.142   1.497   6.131
13800TIP3    H241346   1.186   1.608   6.038
13801TIP3   OH241347   0.223   4.475   3.472
13801TIP3    H141348   0.310   4.474   3.512
13801TIP3    H241349   0.212   4.385   3.439
13802TIP3   OH241350   1.537   5.424   5.059
13802TIP3    H141351   1.623   5.399   5.025
13802TIP3    H241352   1.543   5.408   5.153
13803TIP3   OH241353   1.808   4.068   3.360
13803TIP3    H141354   1.728   4.085   3.410
13803TIP3    H241355   1.802   4.128   3.285
13804TIP3   OH241356   3.112   1.572   2.637
13804TIP3    H141357   3.183   1.532   2.688
13804TIP3    H241358   3.139   1.561   2.546
13805TIP3   OH241359   6.202   1.724   0.041
13805TIP3    H141360   6.156   1.640   0.043
13805TIP3    H241361   6.294   1.701   0.050
13806TIP3   OH241362   4.285   7.621   5.108
13806TIP3    H141363   4.224   7.678   5.061
13806TIP3    H241364   4.348   7.593   5.042
13807TIP3   OH241365   0.734   6.796   6.432
13807TIP3    H141366   0.782   6.807   6.350
13807TIP3    H241367   0.763   6.868   6.487
13808TIP3   OH241368   3.583   1.614   2.419
13808TIP3    H141369   3.499   1.634   2.379
13808TIP3    H241370   3.577   1.522   2.445
13809TIP3   OH241371   0.811   1.102   4.871
13809TIP3    H141372   0.855   1.055   4.942
13809TIP3    H241373   0.722   1.066   4.871
13810TIP3   OH241374   6.797   7.065   1.712
13810TIP3    H141375   6.729   7.130   1.696
13810TIP3    H241376   6.821   7.032   1.626
13811TIP3   OH241377   5.426   7.346   3.076
13811TIP3    H141378   5.433   7.273   3.013
13811TIP3    H241379   5.501   7.334   3.135
13812TIP3   OH241380   5.486   0.057   1.046
13812TIP3    H141381   5.473  -0.024   1.095
13812TIP3    H241382   5.469   0.127   1.109
13813TIP3   OH241383   6.829   4.219   4.805
13813TIP3    H141384   6.869   4.277   4.740
13813TIP3    H241385   6.858   4.132   4.780
13814TIP3   OH241386   2.459   0.720   2.192
13814TIP3    H141387   2.521   0.779   2.150
13814TIP3    H241388   2.486   0.633   2.162
13815TIP3   OH241389   0.709   3.004   4.980
13815TIP3    H141390   0.797   2.976   4.955
13815TIP3    H241391   0.653   2.929   4.958
13816TIP3   OH241392   2.056   5.184   5.575
13816TIP3    H141393   2.090   5.097   5.597
13816TIP3    H241394   1.961   5.176   5.582
13817TIP3   OH241395   1.590   5.536   6.680
13817TIP3    H141396   1.601   5.626   6.648
13817TIP3    H241397   1.631   5.537   6.767
13818TIP3   OH241398   7.358   3.113   2.301
13818TIP3    H141399   7.366   3.186   2.239
13818TIP3    H241400   7.448   3.092   2.325
13819TIP3   OH241401   0.005   3.913   1.605
13819TIP3    H141402   0.006   3.972   1.529
13819TIP3    H241403  -0.074   3.937   1.653
13820TIP3   OH241404   3.528   0.871   0.676
13820TIP3    H141405   3.501   0.918   0.597
13820TIP3    H241406   3.567   0.939   0.732
13821TIP3   OH241407   7.716   2.580   3.867
13821TIP3    H141408   7.776   2.626   3.925
13821TIP3    H241409   7.634   2.630   3.873
13822TIP3   OH241410   7.482   6.785   3.326
13822TIP3    H141411   7.571   6.750   3.332
13822TIP3    H241412   7.449   6.783   3.415
13823TIP3   OH241413   1.371   5.894   3.231
13823TIP3    H141414   1.302   5.859   3.287
13823TIP3    H241415   1.449   5.845   3.257
13824TIP3   OH241416   2.702   5.867   4.400
13824TIP3    H141417   2.787   5.912   4.390
13824TIP3    H241418   2.716   5.781   4.359
13825TIP3   OH241419   1.932   5.960   0.219
13825TIP3    H141420   1.909   5.925   0.133
13825TIP3    H241421   1.870   6.032   0.233
13826TIP3   OH241422   2.173   4.808   1.303
13826TIP3    H141423   2.216   4.724   1.293
13826TIP3    H241424   2.173   4.846   1.214
13827TIP3   OH241425   1.405   1.177   0.852
13827TIP3    H141426   1.418   1.117   0.779
13827TIP3    H241427   1.493   1.191   0.887
13828TIP3   OH241428   6.247   0.827   4.845
13828TIP3    H141429   6.251   0.767   4.771
13828TIP3    H241430   6.281   0.910   4.811
13829TIP3   OH241431   2.689   0.954   2.993
13829TIP3    H141432   2.723   0.865   2.987
13829TIP3    H241433   2.766   1.010   2.986
13830TIP3   OH241434   2.563   0.329   5.467
13830TIP3    H141435   2.544   0.358   5.556
13830TIP3    H241436   2.539   0.404   5.412
13831TIP3   OH241437   7.961   7.729   5.624
13831TIP3    H141438   7.970   7.802   5.563
13831TIP3    H241439   7.962   7.651   5.568
13832TIP3   OH241440   0.708   4.971   3.170
13832TIP3    H141441   0.799   4.978   3.197
13832TIP3    H241442   0.707   4.899   3.107
13833TIP3   OH241443   2.029   5.423   3.559
13833TIP3    H141444   2.118   5.432   3.592
13833TIP3    H241445   1.981   5.380   3.630
13834TIP3   OH241446   5.816   3.890   0.694
13834TIP3    H141447   5.864   3.822   0.741
13834TIP3    H241448   5.882   3.932   0.639
13835TIP3   OH241449   2.436   2.913   0.606
13835TIP3    H141450   2.370   2.903   0.674
13835TIP3    H241451   2.405   2.985   0.552
13836TIP3   OH241452   0.722   1.095   4.436
13836TIP3    H141453   0.666   1.170   4.457
13836TIP3    H241454   0.811   1.130   4.441
13837TIP3   OH241455   5.417   2.568   3.441
13837TIP3    H141456   5.337   2.613   3.416
13837TIP3    H241457   5.388   2.492   3.491
13838TIP3   OH241458   2.472   2.849   5.831
13838TIP3    H141459   2.380   2.838   5.806
13838TIP3    H241460   2.484   2.789   5.904
13839TIP3   OH241461   0.018   7.448   5.312
13839TIP3    H141462  -0.059   7.496   5.343
13839TIP3    H241463   0.080   7.454   5.384
13840TIP3   OH241464   3.617   6.239   6.464
13840TIP3    H141465   3.632   6.332   6.443
13840TIP3    H241466   3.695   6.214   6.514
13841TIP3   OH241467   7.468   3.230   4.568
13841TIP3    H141468   7.523   3.166   4.523
13841TIP3    H241469   7.430   3.283   4.498
13842TIP3   OH241470   6.350   5.451   0.862
13842TIP3    H141471   6.413   5.523   0.857
13842TIP3    H241472   6.296   5.461   0.783
13843TIP3   OH241473   2.401   4.589   0.479
13843TIP3    H141474   2.343   4.605   0.404
13843TIP3    H241475   2.446   4.672   0.493
13844TIP3   OH241476   7.480   3.713   4.132
13844TIP3    H141477   7.423   3.694   4.207
13844TIP3    H241478   7.561   3.746   4.172
13845TIP3   OH241479   6.289   1.408   0.704
13845TIP3    H141480   6.371   1.421   0.656
13845TIP3    H241481   6.232   1.478   0.673
13846TIP3   OH241482   1.001   1.409   1.450
13846TIP3    H141483   1.037   1.432   1.536
13846TIP3    H241484   1.064   1.445   1.387
13847TIP3   OH241485   2.152   1.886   4.042
13847TIP3    H141486   2.124   1.839   3.964
13847TIP3    H241487   2.233   1.929   4.017
13848TIP3   OH241488   5.831   7.650   3.936
13848TIP3    H141489   5.790   7.573   3.896
13848TIP3    H241490   5.814   7.641   4.030
13849TIP3   OH241491   6.544   2.494   1.493
13849TIP3    H141492   6.522   2.446   1.413
13849TIP3    H241493   6.633   2.464   1.515
13850TIP3   OH241494   1.631   1.209   6.709
13850TIP3    H141495   1.687   1.190   6.784
13850TIP3    H241496   1.692   1.223   6.636
13851TIP3   OH241497   7.434   2.064   0.246
13851TIP3    H141498   7.357   2.069   0.189
13851TIP3    H241499   7.505   2.038   0.187
13852TIP3   OH241500   1.295   0.220   0.601
13852TIP3    H141501   1.200   0.213   0.616
13852TIP3    H241502   1.318   0.135   0.563
13853TIP3   OH241503   7.163   5.338   6.714
13853TIP3    H141504   7.188   5.255   6.755
13853TIP3    H241505   7.084   5.365   6.761
13854TIP3   OH241506   6.650   3.625   5.065
13854TIP3    H141507   6.733   3.665   5.036
13854TIP3    H241508   6.643   3.544   5.015
13855TIP3   OH241509   0.651   4.878   5.094
13855TIP3    H141510   0.594   4.814   5.051
13855TIP3    H241511   0.629   4.870   5.187
13856TIP3   OH241512   5.088   5.069   5.195
13856TIP3    H141513   5.035   4.992   5.216
13856TIP3    H241514   5.174   5.050   5.233
13857TIP3   OH241515   0.579   4.428   2.204
13857TIP3    H141516   0.526   4.359   2.243
13857TIP3    H241517   0.569   4.415   2.109
13858TIP3   OH241518   6.408   5.272   1.256
13858TIP3    H141519   6.347   5.279   1.183
13858TIP3    H241520   6.425   5.363   1.282
13859TIP3   OH241521   4.771   6.476   3.814
13859TIP3    H141522   4.810   6.545   3.867
13859TIP3    H241523   4.821   6.397   3.837
13860TIP3   OH241524   5.457   3.544   1.373
13860TIP3    H141525   5.490   3.629   1.402
13860TIP3    H241526   5.500   3.528   1.289
13861TIP3   OH241527   0.018   5.712   4.827
13861TIP3    H141528   0.081   5.770   4.870
13861TIP3    H241529  -0.027   5.668   4.899
13862TIP3   OH241530   2.481   7.100   4.324
13862TIP3    H141531   2.407   7.160   4.331
13862TIP3    H241532   2.542   7.143   4.264
13863TIP3   OH241533   7.811   5.540   5.246
13863TIP3    H141534   7.728   5.539   5.198
13863TIP3    H241535   7.836   5.632   5.248
13864TIP3   OH241536   6.083   2.466   0.897
13864TIP3    H141537   6.014   2.403   0.917
13864TIP3    H241538   6.040   2.551   0.899
13865TIP3   OH241539   4.416   6.363   5.880
13865TIP3    H141540   4.416   6.271   5.908
13865TIP3    H241541   4.347   6.404   5.931
13866TIP3   OH241542   3.789   5.728   3.257
13866TIP3    H141543   3.841   5.804   3.280
13866TIP3    H241544   3.837   5.653   3.293
13867TIP3   OH241545   7.893   3.253   1.261
13867TIP3    H141546   7.987   3.269   1.254
13867TIP3    H241547   7.868   3.293   1.344
13868TIP3   OH241548   2.083   5.285   4.662
13868TIP3    H141549   2.090   5.227   4.586
13868TIP3    H241550   2.046   5.231   4.731
13869TIP3   OH241551   0.648   0.652   4.412
13869TIP3    H141552   0.608   0.730   4.449
13869TIP3    H241553   0.689   0.608   4.488
13870TIP3   OH241554   7.467   3.548   3.924
13870TIP3    H141555   7.533   3.592   3.871
13870TIP3    H241556   7.472   3.591   4.010
13871TIP3   OH241557   3.935   4.835   3.354
13871TIP3    H141558   4.022   4.851   3.390
13871TIP3    H241559   3.877   4.836   3.430
13872TIP3   OH241560   6.747   1.919   3.785
13872TIP3    H141561   6.673   1.881   3.738
13872TIP3    H241562   6.824   1.886   3.738
13873TIP3   OH241563   7.362   6.325   6.168
13873TIP3    H141564   7.285   6.325   6.110
13873TIP3    H241565   7.327   6.306   6.255
13874TIP3   OH241566   3.973   1.002   0.659
13874TIP3    H141567   4.034   0.930   0.671
13874TIP3    H241568   3.939   0.991   0.570
13875TIP3   OH241569   4.299   6.532   2.475
13875TIP3    H141570   4.342   6.470   2.535
13875TIP3    H241571   4.282   6.481   2.396
13876TIP3   OH241572   4.670   1.168   6.320
13876TIP3    H141573   4.745   1.200   6.371
13876TIP3    H241574   4.676   1.073   6.325
13877TIP3   OH241575   7.099   0.660   0.494
13877TIP3    H141576   7.135   0.601   0.428
13877TIP3    H241577   7.131   0.747   0.467
13878TIP3   OH241578   6.041   6.776   3.034
13878TIP3    H141579   6.086   6.803   3.114
13878TIP3    H241580   5.952   6.757   3.062
13879TIP3   OH241581   6.660   4.334   5.276
13879TIP3    H141582   6.702   4.264   5.227
13879TIP3    H241583   6.655   4.302   5.366
13880TIP3   OH241584   6.797   0.130   2.875
13880TIP3    H141585   6.823   0.221   2.868
13880TIP3    H241586   6.787   0.100   2.785
13881TIP3   OH241587   5.905   0.899   4.883
13881TIP3    H141588   5.967   0.951   4.832
13881TIP3    H241589   5.940   0.899   4.972
13882TIP3   OH241590   2.568   3.666   2.186
13882TIP3    H141591   2.592   3.625   2.103
13882TIP3    H241592   2.635   3.732   2.200
13883TIP3   OH241593   7.994   0.112   4.067
13883TIP3    H141594   7.926   0.173   4.096
13883TIP3    H241595   7.968   0.088   3.978
13884TIP3   OH241596   0.760   5.300   5.079
13884TIP3    H141597   0.756   5.227   5.018
13884TIP3    H241598   0.736   5.377   5.027
13885TIP3   OH241599   8.145   0.593   3.244
13885TIP3    H141600   8.238   0.572   3.232
13885TIP3    H241601   8.100   0.510   3.233
13886TIP3   OH241602   4.371   4.256   3.497
13886TIP3    H141603   4.388   4.346   3.467
13886TIP3    H241604   4.373   4.204   3.417
13887TIP3   OH241605   8.127   0.088   6.527
13887TIP3    H141606   8.174   0.005   6.527
13887TIP3    H241607   8.035   0.063   6.519
13888TIP3   OH241608   1.198   7.113   0.724
13888TIP3    H141609   1.150   7.111   0.641
13888TIP3    H241610   1.136   7.077   0.787
13889TIP3   OH241611   2.708   7.038   6.076
13889TIP3    H141612   2.689   7.091   5.998
13889TIP3    H241613   2.775   7.088   6.122
13890TIP3   OH241614   4.765   3.473   4.695
13890TIP3    H141615   4.820   3.463   4.618
13890TIP3    H241616   4.686   3.517   4.664
13891TIP3   OH241617   0.629   4.332   4.586
13891TIP3    H141618   0.670   4.245   4.587
13891TIP3    H241619   0.580   4.336   4.669
13892TIP3   OH241620   3.381   0.051   3.515
13892TIP3    H141621   3.316   0.109   3.476
13892TIP3    H241622   3.376   0.069   3.609
13893TIP3   OH241623   1.449   4.513   5.419
13893TIP3    H141624   1.450   4.606   5.443
13893TIP3    H241625   1.512   4.507   5.348
13894TIP3   OH241626   4.067   7.546   4.836
13894TIP3    H141627   4.160   7.568   4.839
13894TIP3    H241628   4.045   7.548   4.743
13895TIP3   OH241629   0.255   7.320   5.772
13895TIP3    H141630   0.237   7.366   5.854
13895TIP3    H241631   0.201   7.365   5.707
13896TIP3   OH241632   7.337   6.241   5.066
13896TIP3    H141633   7.358   6.316   5.123
13896TIP3    H241634   7.386   6.258   4.985
13897TIP3   OH241635   0.004   7.376   1.338
13897TIP3    H141636   0.010   7.423   1.421
13897TIP3    H241637  -0.067   7.312   1.351
13898TIP3   OH241638   5.423   3.947   5.445
13898TIP3    H141639   5.333   3.914   5.442
13898TIP3    H241640   5.440   3.978   5.356
13899TIP3   OH241641   1.357   4.655   0.473
13899TIP3    H141642   1.272   4.610   0.476
13899TIP3    H241643   1.357   4.701   0.390
13900TIP3   OH241644   6.177   0.390   0.221
13900TIP3    H141645   6.145   0.305   0.250
13900TIP3    H241646   6.106   0.451   0.240
13901TIP3   OH241647   4.027   5.533   3.327
13901TIP3    H141648   4.106   5.577   3.297
13901TIP3    H241649   4.028   5.449   3.280
13902TIP3   OH241650   2.746   2.390   1.268
13902TIP3    H141651   2.839   2.368   1.271
13902TIP3    H241652   2.710   2.357   1.350
13903TIP3   OH241653   0.484   3.221   0.766
13903TIP3    H141654   0.461   3.256   0.852
13903TIP3    H241655   0.563   3.268   0.741
13904TIP3   OH241656   3.307   1.169   5.932
13904TIP3    H141657   3.304   1.090   5.876
13904TIP3    H241658   3.388   1.160   5.982
13905TIP3   OH241659   2.235   5.388   5.516
13905TIP3    H141660   2.198   5.300   5.522
13905TIP3    H241661   2.277   5.391   5.430
13906TIP3   OH241662   1.940   5.625   4.036
13906TIP3    H141663   1.865   5.642   4.093
13906TIP3    H241664   2.010   5.596   4.095
13907TIP3   OH241665   6.816   7.534   5.371
13907TIP3    H141666   6.722   7.535   5.351
13907TIP3    H241667   6.856   7.499   5.292
13908TIP3   OH241668   4.707   4.740   3.694
13908TIP3    H141669   4.645   4.770   3.629
13908TIP3    H241670   4.720   4.816   3.752
13909TIP3   OH241671   6.979   6.011   4.857
13909TIP3    H141672   6.935   5.926   4.856
13909TIP3    H241673   7.065   5.993   4.817
13910TIP3   OH241674   6.649   4.025   6.460
13910TIP3    H141675   6.698   3.942   6.460
13910TIP3    H241676   6.653   4.055   6.551
13911TIP3   OH241677   3.825   0.568   5.845
13911TIP3    H141678   3.834   0.473   5.856
13911TIP3    H241679   3.810   0.601   5.933
13912TIP3   OH241680   2.817   0.319   5.118
13912TIP3    H141681   2.886   0.380   5.144
13912TIP3    H241682   2.739   0.374   5.110
13913TIP3   OH241683   5.810   1.063   1.010
13913TIP3    H141684   5.848   0.992   0.958
13913TIP3    H241685   5.866   1.070   1.087
13914TIP3   OH241686   4.612   0.243   5.407
13914TIP3    H141687   4.608   0.277   5.318
13914TIP3    H241688   4.526   0.261   5.444
13915TIP3   OH241689   1.289   3.206   2.642
13915TIP3    H141690   1.344   3.284   2.650
13915TIP3    H241691   1.350   3.133   2.644
13916TIP3   OH241692   2.079   4.626   4.917
13916TIP3    H141693   2.103   4.574   4.994
13916TIP3    H241694   2.048   4.561   4.853
13917TIP3   OH241695   3.270   6.022   1.752
13917TIP3    H141696   3.279   6.054   1.662
13917TIP3    H241697   3.345   5.964   1.765
13918TIP3   OH241698   8.308   3.542   6.495
13918TIP3    H141699   8.262   3.459   6.484
13918TIP3    H241700   8.251   3.607   6.453
13919TIP3   OH241701   7.811   1.088   2.748
13919TIP3    H141702   7.885   1.143   2.723
13919TIP3    H241703   7.775   1.057   2.665
13920TIP3   OH241704   6.190   1.357   0.131
13920TIP3    H141705   6.167   1.434   0.079
13920TIP3    H241706   6.110   1.334   0.177
13921TIP3   OH241707   2.479   1.395   3.242
13921TIP3    H141708   2.535   1.369   3.169
13921TIP3    H241709   2.452   1.485   3.220
13922TIP3   OH241710   2.874   7.168   4.493
13922TIP3    H141711   2.787   7.143   4.523
13922TIP3    H241712   2.914   7.085   4.464
13923TIP3   OH241713   0.905   0.326   5.648
13923TIP3    H141714   0.879   0.234   5.645
13923TIP3    H241715   0.823   0.373   5.660
13924TIP3   OH241716   1.758   2.482   0.100
13924TIP3    H141717   1.760   2.438   0.185
13924TIP3    H241718   1.850   2.500   0.080
13925TIP3   OH241719   6.156   4.479   1.017
13925TIP3    H141720   6.101   4.479   1.095
13925TIP3    H241721   6.197   4.392   1.016
13926TIP3   OH241722   0.214   5.474   4.880
13926TIP3    H141723   0.204   5.440   4.791
13926TIP3    H241724   0.215   5.569   4.869
13927TIP3   OH241725   6.531   1.644   1.577
13927TIP3    H141726   6.526   1.733   1.541
13927TIP3    H241727   6.513   1.587   1.503
13928TIP3   OH241728   2.372   2.581   6.538
13928TIP3    H141729   2.408   2.593   6.625
13928TIP3    H241730   2.415   2.502   6.505
13929TIP3   OH241731   1.011   3.614   1.445
13929TIP3    H141732   1.002   3.521   1.428
13929TIP3    H241733   1.097   3.637   1.410
13930TIP3   OH241734   6.857   6.695   3.660
13930TIP3    H141735   6.762   6.687   3.656
13930TIP3    H241736   6.882   6.643   3.736
13931TIP3   OH241737   6.157   1.227   4.175
13931TIP3    H141738   6.075   1.232   4.127
13931TIP3    H241739   6.186   1.137   4.165
13932TIP3   OH241740   5.902   6.586   5.516
13932TIP3    H141741   5.982   6.602   5.566
13932TIP3    H241742   5.915   6.633   5.434
13933TIP3   OH241743   1.410   1.529   0.122
13933TIP3    H141744   1.481   1.579   0.164
13933TIP3    H241745   1.389   1.460   0.184
13934TIP3   OH241746   3.976   5.262   2.776
13934TIP3    H141747   3.971   5.226   2.687
13934TIP3    H241748   3.900   5.225   2.820
13935TIP3   OH241749   5.782   3.464   2.945
13935TIP3    H141750   5.802   3.480   2.852
13935TIP3    H241751   5.805   3.546   2.988
13936TIP3   OH241752   4.426   0.641   3.059
13936TIP3    H141753   4.427   0.735   3.079
13936TIP3    H241754   4.336   0.623   3.034
13937TIP3   OH241755   3.435   1.282   3.545
13937TIP3    H141756   3.425   1.306   3.637
13937TIP3    H241757   3.522   1.244   3.540
13938TIP3   OH241758   4.923   4.734   1.793
13938TIP3    H141759   4.849   4.736   1.854
13938TIP3    H241760   4.979   4.806   1.822
13939TIP3   OH241761   4.871   0.399   0.656
13939TIP3    H141762   4.916   0.383   0.573
13939TIP3    H241763   4.780   0.415   0.632
13940TIP3   OH241764   1.111   3.876   5.640
13940TIP3    H141765   1.084   3.840   5.724
13940TIP3    H241766   1.030   3.910   5.602
13941TIP3   OH241767   0.632   3.681   2.047
13941TIP3    H141768   0.667   3.699   2.134
13941TIP3    H241769   0.687   3.733   1.988
13942TIP3   OH241770   7.066   6.202   6.593
13942TIP3    H141771   7.156   6.200   6.626
13942TIP3    H241772   7.030   6.284   6.628
13943TIP3   OH241773   2.049   6.761   5.965
13943TIP3    H141774   1.994   6.810   6.026
13943TIP3    H241775   2.038   6.670   5.990
13944TIP3   OH241776   5.369   6.835   4.844
13944TIP3    H141777   5.285   6.856   4.804
13944TIP3    H241778   5.367   6.740   4.856
13945TIP3   OH241779   5.846   6.763   0.918
13945TIP3    H141780   5.801   6.731   0.996
13945TIP3    H241781   5.779   6.764   0.850
13946TIP3   OH241782   2.774   7.034   3.105
13946TIP3    H141783   2.738   7.121   3.084
13946TIP3    H241784   2.784   7.035   3.200
13947TIP3   OH241785   4.970   2.427   4.651
13947TIP3    H141786   4.880   2.453   4.636
13947TIP3    H241787   4.979   2.343   4.606
13948TIP3   OH241788   1.736   1.889   3.975
13948TIP3    H141789   1.830   1.884   3.994
13948TIP3    H241790   1.707   1.798   3.972
13949TIP3   OH241791   5.269   3.544   4.507
13949TIP3    H141792   5.176   3.553   4.525
13949TIP3    H241793   5.303   3.634   4.509
13950TIP3   OH241794   7.477   0.540   1.337
13950TIP3    H141795   7.520   0.569   1.418
13950TIP3    H241796   7.387   0.523   1.364
13951TIP3   OH241797   7.833   0.787   3.912
13951TIP3    H141798   7.828   0.859   3.976
13951TIP3    H241799   7.811   0.709   3.962
13952TIP3   OH241800   6.991   1.652   3.399
13952TIP3    H141801   6.912   1.682   3.355
13952TIP3    H241802   7.062   1.701   3.357
13953TIP3   OH241803   3.027   5.908   5.512
13953TIP3    H141804   3.080   5.964   5.456
13953TIP3    H241805   3.058   5.925   5.600
13954TIP3   OH241806   4.427   6.508   1.216
13954TIP3    H141807   4.354   6.498   1.155
13954TIP3    H241808   4.387   6.540   1.297
13955TIP3   OH241809   6.009   4.428   5.638
13955TIP3    H141810   5.920   4.392   5.648
13955TIP3    H241811   5.998   4.522   5.650
13956TIP3   OH241812   3.016   2.153   2.227
13956TIP3    H141813   3.087   2.186   2.172
13956TIP3    H241814   3.002   2.063   2.196
13957TIP3   OH241815   0.827   4.832   4.707
13957TIP3    H141816   0.901   4.891   4.712
13957TIP3    H241817   0.814   4.801   4.797
13958TIP3   OH241818   7.810   1.793   2.734
13958TIP3    H141819   7.768   1.865   2.688
13958TIP3    H241820   7.890   1.830   2.769
13959TIP3   OH241821   5.779   5.097   0.161
13959TIP3    H141822   5.782   5.193   0.158
13959TIP3    H241823   5.720   5.073   0.090
13960TIP3   OH241824   6.115   1.238   5.058
13960TIP3    H141825   6.095   1.195   4.975
13960TIP3    H241826   6.104   1.169   5.123
13961TIP3   OH241827   4.959   0.791   1.036
13961TIP3    H141828   4.933   0.882   1.022
13961TIP3    H241829   4.968   0.755   0.947
13962TIP3   OH241830   0.686   6.525   1.654
13962TIP3    H141831   0.625   6.451   1.655
13962TIP3    H241832   0.757   6.498   1.713
13963TIP3   OH241833   4.197   6.083   3.286
13963TIP3    H141834   4.242   6.150   3.233
13963TIP3    H241835   4.151   6.133   3.353
13964TIP3   OH241836   8.215   1.560   6.552
13964TIP3    H141837   8.184   1.470   6.542
13964TIP3    H241838   8.294   1.553   6.606
13965TIP3   OH241839   1.209   4.888   4.862
13965TIP3    H141840   1.271   4.925   4.925
13965TIP3    H241841   1.130   4.941   4.872
13966TIP3   OH241842   2.079   4.613   6.421
13966TIP3    H141843   2.027   4.561   6.483
13966TIP3    H241844   2.022   4.687   6.399
13967TIP3   OH241845   8.022   1.210   2.434
13967TIP3    H141846   8.017   1.124   2.392
13967TIP3    H241847   8.046   1.269   2.362
13968TIP3   OH241848   2.910   4.232   3.761
13968TIP3    H141849   2.943   4.163   3.818
13968TIP3    H241850   2.908   4.310   3.816
13969TIP3   OH241851   0.219   2.511   0.513
13969TIP3    H141852   0.131   2.548   0.518
13969TIP3    H241853   0.263   2.544   0.592
13970TIP3   OH241854   7.955   2.784   3.686
13970TIP3    H141855   7.912   2.780   3.771
13970TIP3    H241856   7.888   2.815   3.626
13971TIP3   OH241857   4.370   0.026   0.939
13971TIP3    H141858   4.294   0.051   0.992
13971TIP3    H241859   4.401  -0.056   0.979
13972TIP3   OH241860   1.524   5.513   4.157
13972TIP3    H141861   1.510   5.441   4.218
13972TIP3    H241862   1.436   5.547   4.140
13973TIP3   OH241863   5.558   3.973   4.739
13973TIP3    H141864   5.603   3.962   4.822
13973TIP3    H241865   5.590   4.056   4.704
13974TIP3   OH241866   0.071   2.370   3.933
13974TIP3    H141867  -0.001   2.368   3.871
13974TIP3    H241868   0.056   2.450   3.985
13975TIP3   OH241869   4.048   6.798   2.634
13975TIP3    H141870   3.965   6.827   2.597
13975TIP3    H241871   4.107   6.792   2.559
13976TIP3   OH241872   5.045   4.907   6.370
13976TIP3    H141873   4.986   4.915   6.295
13976TIP3    H241874   4.988   4.904   6.446
13977TIP3   OH241875   2.054   5.534   0.648
13977TIP3    H141876   2.058   5.617   0.696
13977TIP3    H241877   2.004   5.556   0.569
13978TIP3   OH241878   1.732   0.807   3.908
13978TIP3    H141879   1.766   0.745   3.972
13978TIP3    H241880   1.678   0.754   3.849
13979TIP3   OH241881   0.142   3.466   0.064
13979TIP3    H141882   0.115   3.407  -0.006
13979TIP3    H241883   0.080   3.450   0.135
13980TIP3   OH241884   5.021   2.575   0.558
13980TIP3    H141885   4.934   2.539   0.574
13980TIP3    H241886   5.080   2.501   0.571
13981TIP3   OH241887   2.233   3.624   0.198
13981TIP3    H141888   2.227   3.605   0.291
13981TIP3    H241889   2.165   3.690   0.183
13982TIP3   OH241890   0.516   5.663   6.566
13982TIP3    H141891   0.518   5.583   6.620
13982TIP3    H241892   0.453   5.720   6.610
13983TIP3   OH241893   7.505   5.307   1.120
13983TIP3    H141894   7.573   5.255   1.078
13983TIP3    H241895   7.547   5.391   1.139
13984TIP3   OH241896   7.163   0.590   2.108
13984TIP3    H141897   7.193   0.521   2.050
13984TIP3    H241898   7.068   0.592   2.096
13985TIP3   OH241899   3.909   1.037   2.036
13985TIP3    H141900   3.813   1.042   2.038
13985TIP3    H241901   3.928   0.944   2.044
13986TIP3   OH241902   7.711   5.979   4.475
13986TIP3    H141903   7.700   5.936   4.560
13986TIP3    H241904   7.706   5.907   4.411
13987TIP3   OH241905   3.155   4.485   0.920
13987TIP3    H141906   3.179   4.407   0.869
13987TIP3    H241907   3.067   4.507   0.889
13988TIP3   OH241908   8.056   0.448   2.071
13988TIP3    H141909   8.085   0.534   2.100
13988TIP3    H241910   8.112   0.427   1.996
13989TIP3   OH241911   7.446   4.466   0.075
13989TIP3    H141912   7.531   4.486   0.034
13989TIP3    H241913   7.447   4.515   0.157
13990TIP3   OH241914   4.159   5.611   5.864
13990TIP3    H141915   4.147   5.698   5.826
13990TIP3    H241916   4.155   5.625   5.958
13991TIP3   OH241917   6.316   2.269   6.044
13991TIP3    H141918   6.227   2.262   6.010
13991TIP3    H241919   6.305   2.280   6.138
13992TIP3   OH241920   0.982   3.028   4.527
13992TIP3    H141921   1.057   3.075   4.565
13992TIP3    H241922   1.004   2.935   4.538
13993TIP3   OH241923   7.721   7.096   4.816
13993TIP3    H141924   7.754   7.186   4.807
13993TIP3    H241925   7.723   7.062   4.727
13994TIP3   OH241926   4.328   4.373   0.888
13994TIP3    H141927   4.372   4.398   0.807
13994TIP3    H241928   4.320   4.278   0.882
13995TIP3   OH241929   1.044   7.574   4.828
13995TIP3    H141930   0.970   7.605   4.775
13995TIP3    H241931   1.045   7.479   4.814
13996TIP3   OH241932   6.825   5.601   2.109
13996TIP3    H141933   6.911   5.632   2.080
13996TIP3    H241934   6.825   5.617   2.204
13997TIP3   OH241935   6.609   4.447   1.143
13997TIP3    H141936   6.569   4.412   1.063
13997TIP3    H241937   6.640   4.534   1.118
13998TIP3   OH241938   8.097   1.356   4.286
13998TIP3    H141939   8.144   1.301   4.224
13998TIP3    H241940   8.137   1.337   4.371
13999TIP3   OH241941   6.272   5.645   4.977
13999TIP3    H141942   6.228   5.560   4.980
13999TIP3    H241943   6.349   5.631   4.922
14000TIP3   OH241944   6.572   0.432   4.249
14000TIP3    H141945   6.567   0.339   4.273
14000TIP3    H241946   6.652   0.463   4.291
14001TIP3   OH241947   1.010   6.998   0.959
14001TIP3    H141948   0.968   6.958   1.035
14001TIP3    H241949   1.040   6.924   0.906
14002TIP3   OH241950   0.584   0.739   1.916
14002TIP3    H141951   0.526   0.738   1.840
14002TIP3    H241952   0.550   0.670   1.973
14003TIP3   OH241953   1.397   1.863   3.834
14003TIP3    H141954   1.360   1.804   3.899
14003TIP3    H241955   1.410   1.808   3.756
14004TIP3   OH241956   6.568   6.130   4.197
14004TIP3    H141957   6.483   6.116   4.155
14004TIP3    H241958   6.559   6.087   4.283
14005TIP3   OH241959   7.140   1.290   1.547
14005TIP3    H141960   7.213   1.350   1.538
14005TIP3    H241961   7.123   1.285   1.641
14006TIP3   OH241962   1.968   2.067   2.352
14006TIP3    H141963   1.955   2.139   2.414
14006TIP3    H241964   1.996   1.994   2.406
14007TIP3   OH241965   3.566   6.624   4.515
14007TIP3    H141966   3.643   6.593   4.562
14007TIP3    H241967   3.579   6.594   4.425
14008TIP3   OH241968   0.941   5.618   5.159
14008TIP3    H141969   0.870   5.619   5.223
14008TIP3    H241970   0.903   5.656   5.080
14009TIP3   OH241971   5.781   1.080   0.459
14009TIP3    H141972   5.824   1.055   0.541
14009TIP3    H241973   5.698   1.119   0.486
14010TIP3   OH241974   7.666   5.764   5.690
14010TIP3    H141975   7.687   5.680   5.649
14010TIP3    H241976   7.571   5.770   5.687
14011TIP3   OH241977   4.108   4.124   3.768
14011TIP3    H141978   4.017   4.154   3.765
14011TIP3    H241979   4.154   4.192   3.819
14012TIP3   OH241980   0.169   3.782   5.019
14012TIP3    H141981   0.117   3.704   5.038
14012TIP3    H241982   0.104   3.851   5.003
14013TIP3   OH241983   1.184   5.392   3.897
14013TIP3    H141984   1.244   5.465   3.880
14013TIP3    H241985   1.204   5.364   3.986
14014TIP3   OH241986   1.743   0.784   2.154
14014TIP3    H141987   1.810   0.771   2.087
14014TIP3    H241988   1.674   0.832   2.110
14015TIP3   OH241989   2.384   2.555   4.146
14015TIP3    H141990   2.288   2.548   4.145
14015TIP3    H241991   2.403   2.626   4.083
14016TIP3   OH241992   5.970   4.687   5.163
14016TIP3    H141993   5.878   4.668   5.142
14016TIP3    H241994   5.968   4.774   5.203
14017TIP3   OH241995   1.313   5.679   6.775
14017TIP3    H141996   1.345   5.768   6.793
14017TIP3    H241997   1.393   5.626   6.767
14018TIP3   OH241998   2.250   4.138   2.677
14018TIP3    H141999   2.240   4.192   2.599
14018TIP3    H242000   2.269   4.050   2.643
14019TIP3   OH242001   5.335   3.748   2.079
14019TIP3    H142002   5.344   3.812   2.150
14019TIP3    H242003   5.257   3.776   2.032
14020TIP3   OH242004   7.169   7.356   4.998
14020TIP3    H142005   7.241   7.366   4.936
14020TIP3    H242006   7.092   7.390   4.952
14021TIP3   OH242007   5.384   2.283   2.715
14021TIP3    H142008   5.473   2.246   2.715
14021TIP3    H242009   5.397   2.377   2.718
14022TIP3   OH242010   0.758   4.773   5.670
14022TIP3    H142011   0.748   4.848   5.728
14022TIP3    H242012   0.779   4.811   5.585
14023TIP3   OH242013   5.027   0.486   4.683
14023TIP3    H142014   4.988   0.571   4.704
14023TIP3    H242015   4.959   0.422   4.705
14024TIP3   OH242016   4.195   1.922   1.839
14024TIP3    H142017   4.185   1.939   1.933
14024TIP3    H242018   4.152   1.996   1.797
14025TIP3   OH242019   3.249   0.599   6.520
14025TIP3    H142020   3.310   0.603   6.594
14025TIP3    H242021   3.182   0.537   6.548
14026TIP3   OH242022   1.692   4.282   5.648
14026TIP3    H142023   1.702   4.202   5.699
14026TIP3    H242024   1.670   4.252   5.560
14027TIP3   OH242025   1.823   7.811   4.817
14027TIP3    H142026   1.864   7.874   4.876
14027TIP3    H242027   1.826   7.728   4.865
14028TIP3   OH242028   4.511   0.222   2.467
14028TIP3    H142029   4.441   0.159   2.448
14028TIP3    H242030   4.591   0.176   2.445
14029TIP3   OH242031   5.730   4.006   1.147
14029TIP3    H142032   5.657   3.987   1.089
14029TIP3    H242033   5.780   4.073   1.101
14030TIP3   OH242034   0.183   5.242   3.349
14030TIP3    H142035   0.196   5.233   3.443
14030TIP3    H242036   0.096   5.280   3.340
14031TIP3   OH242037   5.871   5.166   2.615
14031TIP3    H142038   5.792   5.120   2.585
14031TIP3    H242039   5.943   5.113   2.582
14032TIP3   OH242040   2.952   1.599   6.448
14032TIP3    H142041   3.023   1.538   6.428
14032TIP3    H242042   2.922   1.573   6.536
14033TIP3   OH242043   6.928   0.053   2.069
14033TIP3    H142044   7.023   0.038   2.064
14033TIP3    H242045   6.918   0.148   2.061
14034TIP3   OH242046   3.926   2.433   6.638
14034TIP3    H142047   3.832   2.452   6.632
14034TIP3    H242048   3.930   2.341   6.664
14035TIP3   OH242049   2.089   6.508   4.735
14035TIP3    H142050   2.056   6.528   4.823
14035TIP3    H242051   2.030   6.440   4.702
14036TIP3   OH242052   4.688   1.811   6.540
14036TIP3    H142053   4.686   1.860   6.622
14036TIP3    H242054   4.610   1.756   6.543
14037TIP3   OH242055   6.013   6.841   5.622
14037TIP3    H142056   5.997   6.876   5.534
14037TIP3    H242057   6.107   6.848   5.634
14038TIP3   OH242058   7.778   4.145   2.229
14038TIP3    H142059   7.867   4.143   2.193
14038TIP3    H242060   7.721   4.128   2.154
14039TIP3   OH242061   0.090   6.338   3.042
14039TIP3    H142062   0.014   6.359   3.096
14039TIP3    H242063   0.101   6.244   3.051
14040TIP3   OH242064   5.436   2.827   6.389
14040TIP3    H142065   5.490   2.892   6.435
14040TIP3    H242066   5.362   2.877   6.356
14041TIP3   OH242067   2.804   7.155   2.159
14041TIP3    H142068   2.712   7.178   2.142
14041TIP3    H242069   2.838   7.230   2.207
14042TIP3   OH242070   4.430   7.590   2.981
14042TIP3    H142071   4.462   7.564   2.894
14042TIP3    H242072   4.488   7.544   3.042
14043TIP3   OH242073   8.174   1.288   2.206
14043TIP3    H142074   8.216   1.210   2.240
14043TIP3    H242075   8.224   1.361   2.244
14044TIP3   OH242076   2.783   6.888   2.119
14044TIP3    H142077   2.694   6.871   2.150
14044TIP3    H242078   2.796   6.981   2.134
14045TIP3   OH242079   6.546   1.756   4.822
14045TIP3    H142080   6.607   1.830   4.833
14045TIP3    H242081   6.602   1.679   4.818
14046TIP3   OH242082   6.753   5.547   5.442
14046TIP3    H142083   6.762   5.459   5.406
14046TIP3    H242084   6.843   5.580   5.450
14047TIP3   OH242085   3.594   1.374   2.539
14047TIP3    H142086   3.660   1.389   2.607
14047TIP3    H242087   3.543   1.299   2.571
14048TIP3   OH242088   3.793   6.052   3.515
14048TIP3    H142089   3.800   6.114   3.587
14048TIP3    H242090   3.771   5.969   3.556
14049TIP3   OH242091   6.933   1.057   6.301
14049TIP3    H142092   6.865   1.121   6.284
14049TIP3    H242093   6.927   0.995   6.229
14050TIP3   OH242094   4.452   5.815   4.184
14050TIP3    H142095   4.357   5.805   4.180
14050TIP3    H242096   4.482   5.788   4.097
14051TIP3   OH242097   3.831   1.073   2.436
14051TIP3    H142098   3.837   0.990   2.483
14051TIP3    H242099   3.909   1.121   2.462
14052TIP3   OH242100   5.920   5.479   2.003
14052TIP3    H142101   5.975   5.411   2.042
14052TIP3    H242102   5.977   5.555   1.997
14053TIP3   OH242103   3.038   7.794   1.132
14053TIP3    H142104   3.132   7.777   1.135
14053TIP3    H242105   2.998   7.714   1.167
14054TIP3   OH242106   5.882   7.267   3.388
14054TIP3    H142107   5.864   7.239   3.478
14054TIP3    H242108   5.927   7.351   3.396
14055TIP3   OH242109   8.194   5.849   4.171
14055TIP3    H142110   8.266   5.825   4.228
14055TIP3    H242111   8.115   5.820   4.217
14056TIP3   OH242112   8.091   6.849   5.283
14056TIP3    H142113   8.078   6.931   5.236
14056TIP3    H242114   8.026   6.789   5.246
14057TIP3   OH242115   5.114   0.388   6.247
14057TIP3    H142116   5.181   0.328   6.279
14057TIP3    H242117   5.098   0.360   6.156
14058TIP3   OH242118   5.453   1.777   5.352
14058TIP3    H142119   5.388   1.747   5.288
14058TIP3    H242120   5.521   1.818   5.299
14059TIP3   OH242121   6.924   3.386   6.423
14059TIP3    H142122   6.851   3.442   6.395
14059TIP3    H242123   6.897   3.353   6.508
14060TIP3   OH242124   0.421   5.266   2.255
14060TIP3    H142125   0.430   5.205   2.328
14060TIP3    H242126   0.333   5.302   2.264
14061TIP3   OH242127   0.668   0.821   0.631
14061TIP3    H142128   0.645   0.843   0.722
14061TIP3    H242129   0.638   0.731   0.620
14062TIP3   OH242130   3.289   2.129   3.592
14062TIP3    H142131   3.309   2.134   3.498
14062TIP3    H242132   3.306   2.217   3.625
14063TIP3   OH242133   7.285   7.402   6.245
14063TIP3    H142134   7.355   7.340   6.226
14063TIP3    H242135   7.208   7.367   6.199
14064TIP3   OH242136   6.835   5.675   5.980
14064TIP3    H142137   6.819   5.602   5.920
14064TIP3    H242138   6.749   5.717   5.989
14065TIP3   OH242139   0.373   5.315   6.487
14065TIP3    H142140   0.288   5.271   6.481
14065TIP3    H242141   0.436   5.251   6.455
14066TIP3   OH242142   5.240   0.940   5.811
14066TIP3    H142143   5.181   0.906   5.878
14066TIP3    H242144   5.304   0.993   5.859
14067TIP3   OH242145   5.709   0.960   1.862
14067TIP3    H142146   5.637   0.958   1.925
14067TIP3    H242147   5.674   1.010   1.788
14068TIP3   OH242148   2.089   6.110   4.479
14068TIP3    H142149   2.173   6.147   4.454
14068TIP3    H242150   2.108   6.056   4.556
14069TIP3   OH242151   5.518   6.037   1.246
14069TIP3    H142152   5.604   6.012   1.212
14069TIP3    H242153   5.472   5.954   1.259
14070TIP3   OH242154   5.668   7.282   0.312
14070TIP3    H142155   5.748   7.290   0.261
14070TIP3    H242156   5.689   7.220   0.382
14071TIP3   OH242157   5.304   0.305   2.949
14071TIP3    H142158   5.337   0.224   2.910
14071TIP3    H242159   5.211   0.307   2.924
14072TIP3   OH242160   4.357   0.533   4.811
14072TIP3    H142161   4.374   0.600   4.877
14072TIP3    H242162   4.415   0.460   4.835
14073TIP3   OH242163   5.503   7.399   6.309
14073TIP3    H142164   5.409   7.408   6.321
14073TIP3    H242165   5.514   7.379   6.216
14074TIP3   OH242166   2.349   3.791   0.962
14074TIP3    H142167   2.395   3.707   0.966
14074TIP3    H242168   2.401   3.844   0.901
14075TIP3   OH242169   7.053   6.260   4.965
14075TIP3    H142170   7.149   6.255   4.959
14075TIP3    H242171   7.022   6.184   4.917
14076TIP3   OH242172   4.247   1.144   4.341
14076TIP3    H142173   4.191   1.173   4.269
14076TIP3    H242174   4.199   1.169   4.420
14077TIP3   OH242175   2.164   5.963   3.045
14077TIP3    H142176   2.091   5.965   2.983
14077TIP3    H242177   2.136   5.905   3.115
14078TIP3   OH242178   1.791   4.665   2.009
14078TIP3    H142179   1.695   4.665   2.003
14078TIP3    H242180   1.810   4.614   2.088
14079TIP3   OH242181   8.249   7.759   0.145
14079TIP3    H142182   8.261   7.665   0.161
14079TIP3    H242183   8.332   7.799   0.170
14080TIP3   OH242184   5.941   1.963   4.952
14080TIP3    H142185   5.863   1.944   4.899
14080TIP3    H242186   5.977   1.878   4.974
14081TIP3   OH242187   2.390   5.426   2.268
14081TIP3    H142188   2.355   5.339   2.252
14081TIP3    H242189   2.368   5.444   2.360
14082TIP3   OH242190   4.902   3.425   1.828
14082TIP3    H142191   4.892   3.344   1.780
14082TIP3    H242192   4.901   3.493   1.761
14083TIP3   OH242193   1.116   3.943   4.618
14083TIP3    H142194   1.201   3.901   4.628
14083TIP3    H242195   1.067   3.884   4.560
14084TIP3   OH242196   1.323   1.890   6.687
14084TIP3    H142197   1.365   1.891   6.601
14084TIP3    H242198   1.344   1.804   6.724
14085TIP3   OH242199   0.366   5.879   3.852
14085TIP3    H142200   0.352   5.945   3.920
14085TIP3    H242201   0.413   5.808   3.897
14086TIP3   OH242202   0.626   6.636   0.383
14086TIP3    H142203   0.718   6.662   0.376
14086TIP3    H242204   0.579   6.698   0.327
14087TIP3   OH242205   3.197   5.156   4.587
14087TIP3    H142206   3.284   5.132   4.619
14087TIP3    H242207   3.145   5.167   4.666
14088TIP3   OH242208   5.482   1.589   5.114
14088TIP3    H142209   5.443   1.614   5.030
14088TIP3    H242210   5.545   1.658   5.133
14089TIP3   OH242211   6.111   2.551   1.555
14089TIP3    H142212   6.150   2.535   1.641
14089TIP3    H242213   6.037   2.609   1.573
14090TIP3   OH242214   1.910   5.370   0.831
14090TIP3    H142215   1.931   5.284   0.792
14090TIP3    H242216   1.946   5.433   0.769
14091TIP3   OH242217   6.769   5.218   2.978
14091TIP3    H142218   6.756   5.226   3.072
14091TIP3    H242219   6.798   5.128   2.965
14092TIP3   OH242220   5.076   4.660   3.591
14092TIP3    H142221   5.094   4.703   3.674
14092TIP3    H242222   5.162   4.635   3.557
14093TIP3   OH242223   8.028   4.352   4.110
14093TIP3    H142224   8.092   4.288   4.078
14093TIP3    H242225   8.006   4.405   4.033
14094TIP3   OH242226   5.919   1.646   5.176
14094TIP3    H142227   5.992   1.708   5.175
14094TIP3    H242228   5.957   1.564   5.210
14095TIP3   OH242229   5.252   3.872   3.554
14095TIP3    H142230   5.175   3.873   3.497
14095TIP3    H242231   5.280   3.781   3.555
14096TIP3   OH242232   0.860   1.814   5.129
14096TIP3    H142233   0.859   1.903   5.164
14096TIP3    H242234   0.768   1.793   5.112
14097TIP3   OH242235   1.432   2.756   5.946
14097TIP3    H142236   1.396   2.744   6.034
14097TIP3    H242237   1.527   2.759   5.959
14098TIP3   OH242238   6.549   4.818   0.437
14098TIP3    H142239   6.466   4.856   0.466
14098TIP3    H242240   6.555   4.735   0.484
14099TIP3   OH242241   5.547   0.518   1.195
14099TIP3    H142242   5.633   0.507   1.157
14099TIP3    H242243   5.519   0.605   1.167
14100TIP3   OH242244   0.558   1.921   5.084
14100TIP3    H142245   0.569   2.013   5.106
14100TIP3    H242246   0.497   1.920   5.011
14101TIP3   OH242247   6.666   0.960   1.549
14101TIP3    H142248   6.659   0.869   1.519
14101TIP3    H242249   6.745   0.993   1.506
14102TIP3   OH242250   0.475   6.861   6.651
14102TIP3    H142251   0.475   6.772   6.686
14102TIP3    H242252   0.529   6.911   6.712
14103TIP3   OH242253   3.060   6.698   3.545
14103TIP3    H142254   3.011   6.662   3.619
14103TIP3    H242255   3.086   6.786   3.573
14104TIP3   OH242256   1.289   2.761   3.796
14104TIP3    H142257   1.223   2.743   3.864
14104TIP3    H242258   1.301   2.856   3.799
14105TIP3   OH242259   1.277   3.861   1.876
14105TIP3    H142260   1.358   3.850   1.826
14105TIP3    H242261   1.302   3.839   1.966
14106TIP3   OH242262   2.820   0.291   4.146
14106TIP3    H142263   2.819   0.349   4.222
14106TIP3    H242264   2.872   0.215   4.175
14107TIP3   OH242265   5.457   0.184   5.679
14107TIP3    H142266   5.552   0.182   5.683
14107TIP3    H242267   5.428   0.105   5.724
14108TIP3   OH242268   6.872   0.389   2.594
14108TIP3    H142269   6.823   0.309   2.615
14108TIP3    H242270   6.962   0.370   2.622
14109TIP3   OH242271   5.266   3.821   5.781
14109TIP3    H142272   5.350   3.785   5.808
14109TIP3    H242273   5.256   3.793   5.689
14110TIP3   OH242274   4.653   3.845   2.429
14110TIP3    H142275   4.740   3.817   2.401
14110TIP3    H242276   4.599   3.767   2.423
14111TIP3   OH242277   4.082   2.341   1.459
14111TIP3    H142278   4.032   2.416   1.492
14111TIP3    H242279   4.025   2.266   1.473
14112TIP3   OH242280   5.706   1.952   4.813
14112TIP3    H142281   5.618   1.932   4.844
14112TIP3    H242282   5.716   1.898   4.734
14113TIP3   OH242283   3.632   3.026   6.669
14113TIP3    H142284   3.663   2.941   6.639
14113TIP3    H242285   3.646   3.025   6.764
14114TIP3   OH242286   5.550   2.972   4.207
14114TIP3    H142287   5.460   2.968   4.177
14114TIP3    H242288   5.544   3.003   4.298
14115TIP3   OH242289   1.901   0.181   2.911
14115TIP3    H142290   1.932   0.097   2.944
14115TIP3    H242291   1.940   0.188   2.824
14116TIP3   OH242292   7.504   3.225   2.039
14116TIP3    H142293   7.530   3.133   2.039
14116TIP3    H242294   7.580   3.271   2.075
14117TIP3   OH242295   7.492   3.609   3.327
14117TIP3    H142296   7.503   3.589   3.234
14117TIP3    H242297   7.458   3.528   3.366
14118TIP3   OH242298   2.288   6.657   2.778
14118TIP3    H142299   2.298   6.752   2.787
14118TIP3    H242300   2.196   6.640   2.799
14119TIP3   OH242301   0.956   2.356   1.715
14119TIP3    H142302   1.020   2.380   1.648
14119TIP3    H242303   1.008   2.347   1.795
14120TIP3   OH242304   3.569   6.791   1.098
14120TIP3    H142305   3.661   6.776   1.121
14120TIP3    H242306   3.534   6.703   1.081
14121TIP3   OH242307   3.527   4.461   4.723
14121TIP3    H142308   3.515   4.531   4.786
14121TIP3    H242309   3.610   4.481   4.680
14122TIP3   OH242310   3.403   0.457   5.511
14122TIP3    H142311   3.405   0.403   5.433
14122TIP3    H242312   3.483   0.434   5.559
14123TIP3   OH242313   1.576   0.820   3.044
14123TIP3    H142314   1.579   0.879   2.968
14123TIP3    H242315   1.650   0.761   3.030
14124TIP3   OH242316   7.739   7.530   0.141
14124TIP3    H142317   7.660   7.476   0.139
14124TIP3    H242318   7.802   7.480   0.192
14125TIP3   OH242319   2.832   1.556   1.318
14125TIP3    H142320   2.819   1.566   1.412
14125TIP3    H242321   2.912   1.504   1.309
14126TIP3   OH242322   0.623   0.643   3.108
14126TIP3    H142323   0.569   0.621   3.033
14126TIP3    H242324   0.610   0.738   3.120
14127TIP3   OH242325   5.811   3.100   5.303
14127TIP3    H142326   5.891   3.151   5.296
14127TIP3    H242327   5.819   3.052   5.385
14128TIP3   OH242328   4.830   7.562   2.038
14128TIP3    H142329   4.863   7.611   2.113
14128TIP3    H242330   4.902   7.560   1.976
14129TIP3   OH242331   3.876   1.307   5.576
14129TIP3    H142332   3.883   1.402   5.583
14129TIP3    H242333   3.782   1.290   5.568
14130TIP3   OH242334   4.360   7.634   3.874
14130TIP3    H142335   4.377   7.548   3.836
14130TIP3    H242336   4.360   7.619   3.968
14131TIP3   OH242337   5.238   5.662   5.564
14131TIP3    H142338   5.179   5.731   5.592
14131TIP3    H242339   5.255   5.680   5.472
14132TIP3   OH242340   0.753   7.078   5.563
14132TIP3    H142341   0.808   7.001   5.575
14132TIP3    H242342   0.685   7.070   5.630
14133TIP3   OH242343   3.052   4.446   1.245
14133TIP3    H142344   3.046   4.514   1.178
14133TIP3    H242345   3.034   4.492   1.328
14134TIP3   OH242346   6.132   6.166   4.991
14134TIP3    H142347   6.042   6.171   5.021
14134TIP3    H242348   6.150   6.252   4.953
14135TIP3   OH242349   2.932   1.679   5.376
14135TIP3    H142350   2.949   1.757   5.323
14135TIP3    H242351   2.979   1.695   5.457
14136TIP3   OH242352   7.122   6.322   2.841
14136TIP3    H142353   7.051   6.277   2.886
14136TIP3    H242354   7.084   6.406   2.814
14137TIP3   OH242355   4.859   5.914   1.045
14137TIP3    H142356   4.791   5.867   1.093
14137TIP3    H242357   4.900   5.847   0.990
14138TIP3   OH242358   2.772   4.972   6.771
14138TIP3    H142359   2.794   4.985   6.863
14138TIP3    H242360   2.853   4.940   6.732
14139TIP3   OH242361   1.676   5.430   1.190
14139TIP3    H142362   1.586   5.423   1.222
14139TIP3    H242363   1.729   5.393   1.260
14140TIP3   OH242364   6.884   7.707   0.312
14140TIP3    H142365   6.931   7.678   0.234
14140TIP3    H242366   6.938   7.776   0.349
14141TIP3   OH242367   7.923   1.934   0.050
14141TIP3    H142368   7.993   1.990   0.084
14141TIP3    H242369   7.963   1.886  -0.022
14142TIP3   OH242370   5.434   6.996   4.021
14142TIP3    H142371   5.482   7.003   3.938
14142TIP3    H242372   5.477   6.924   4.067
14143TIP3   OH242373   7.979   0.305   3.761
14143TIP3    H142374   7.970   0.375   3.826
14143TIP3    H242375   7.895   0.260   3.763
14144TIP3   OH242376   2.090   0.108   3.645
14144TIP3    H142377   2.009   0.158   3.643
14144TIP3    H242378   2.156   0.171   3.674
14145TIP3   OH242379   6.965   5.373   2.871
14145TIP3    H142380   7.013   5.316   2.811
14145TIP3    H242381   6.891   5.320   2.901
14146TIP3   OH242382   4.979   1.982   0.185
14146TIP3    H142383   5.021   1.930   0.253
14146TIP3    H242384   5.003   2.072   0.205
14147TIP3   OH242385   6.413   0.178   6.578
14147TIP3    H142386   6.449   0.116   6.641
14147TIP3    H242387   6.362   0.239   6.631
14148TIP3   OH242388   4.000   6.372   5.619
14148TIP3    H142389   4.005   6.277   5.620
14148TIP3    H242390   3.911   6.393   5.645
14149TIP3   OH242391   4.517   7.624   6.254
14149TIP3    H142392   4.494   7.586   6.169
14149TIP3    H242393   4.451   7.691   6.269
14150TIP3   OH242394   7.430   2.443   4.149
14150TIP3    H142395   7.379   2.367   4.121
14150TIP3    H242396   7.393   2.516   4.100
14151TIP3   OH242397   3.722   4.550   2.750
14151TIP3    H142398   3.752   4.522   2.837
14151TIP3    H242399   3.711   4.468   2.701
14152TIP3   OH242400   6.939   4.275   5.545
14152TIP3    H142401   6.870   4.307   5.604
14152TIP3    H242402   7.017   4.323   5.572
14153TIP3   OH242403   0.475   0.987   6.656
14153TIP3    H142404   0.490   0.914   6.716
14153TIP3    H242405   0.514   1.063   6.700
14154TIP3   OH242406   3.848   6.448   2.539
14154TIP3    H142407   3.881   6.421   2.453
14154TIP3    H242408   3.921   6.431   2.599
14155TIP3   OH242409   8.284   6.022   6.067
14155TIP3    H142410   8.229   6.009   6.145
14155TIP3    H242411   8.281   6.116   6.051
14156TIP3   OH242412   6.934   4.112   6.409
14156TIP3    H142413   6.988   4.153   6.342
14156TIP3    H242414   6.987   4.040   6.443
14157TIP3   OH242415   1.677   1.602   5.685
14157TIP3    H142416   1.670   1.697   5.696
14157TIP3    H242417   1.587   1.570   5.696
14158TIP3   OH242418   6.583   0.293   0.565
14158TIP3    H142419   6.580   0.323   0.474
14158TIP3    H242420   6.492   0.300   0.595
14159TIP3   OH242421   7.688   0.474   1.104
14159TIP3    H142422   7.601   0.436   1.093
14159TIP3    H242423   7.743   0.400   1.130
14160TIP3   OH242424   7.695   3.083   1.177
14160TIP3    H142425   7.682   3.152   1.112
14160TIP3    H242426   7.752   3.123   1.243
14161TIP3   OH242427   2.302   1.289   6.564
14161TIP3    H142428   2.371   1.352   6.584
14161TIP3    H242429   2.265   1.267   6.649
14162TIP3   OH242430   5.346   4.912   5.340
14162TIP3    H142431   5.408   4.888   5.409
14162TIP3    H242432   5.271   4.854   5.354
14163TIP3   OH242433   5.169   1.547   4.690
14163TIP3    H142434   5.158   1.551   4.594
14163TIP3    H242435   5.103   1.484   4.719
14164TIP3   OH242436   6.706   5.829   2.482
14164TIP3    H142437   6.703   5.814   2.576
14164TIP3    H242438   6.650   5.905   2.467
14165TIP3   OH242439   1.448   2.557   2.034
14165TIP3    H142440   1.525   2.546   2.090
14165TIP3    H242441   1.473   2.518   1.951
14166TIP3   OH242442   1.808   5.597   2.754
14166TIP3    H142443   1.856   5.563   2.678
14166TIP3    H242444   1.744   5.657   2.717
14167TIP3   OH242445   0.649   1.074   1.413
14167TIP3    H142446   0.717   1.083   1.479
14167TIP3    H242447   0.587   1.144   1.433
14168TIP3   OH242448   8.217   4.419   5.107
14168TIP3    H142449   8.145   4.447   5.049
14168TIP3    H242450   8.207   4.474   5.184
14169TIP3   OH242451   3.674   2.262   0.307
14169TIP3    H142452   3.626   2.299   0.232
14169TIP3    H242453   3.665   2.328   0.375
14170TIP3   OH242454   7.102   5.552   6.164
14170TIP3    H142455   7.016   5.520   6.136
14170TIP3    H242456   7.157   5.544   6.086
14171TIP3   OH242457   4.401   6.138   6.271
14171TIP3    H142458   4.489   6.159   6.240
14171TIP3    H242459   4.399   6.042   6.271
14172TIP3   OH242460   7.274   7.177   6.496
14172TIP3    H142461   7.324   7.159   6.416
14172TIP3    H242462   7.338   7.220   6.554
14173TIP3   OH242463   6.647   4.014   4.182
14173TIP3    H142464   6.579   4.074   4.152
14173TIP3    H242465   6.661   4.037   4.273
14174TIP3   OH242466   0.888   6.143   0.337
14174TIP3    H142467   0.817   6.079   0.325
14174TIP3    H242468   0.873   6.208   0.269
14175TIP3   OH242469   3.539   5.746   4.525
14175TIP3    H142470   3.473   5.815   4.518
14175TIP3    H242471   3.524   5.689   4.451
14176TIP3   OH242472   6.036   0.362   3.686
14176TIP3    H142473   6.000   0.450   3.670
14176TIP3    H242474   6.045   0.357   3.781
14177TIP3   OH242475   4.975   5.600   2.055
14177TIP3    H142476   5.062   5.638   2.062
14177TIP3    H242477   4.918   5.658   2.106
14178TIP3   OH242478   3.915   4.240   2.797
14178TIP3    H142479   3.864   4.305   2.845
14178TIP3    H242480   3.850   4.192   2.746
14179TIP3   OH242481   3.940   2.630   3.816
14179TIP3    H142482   3.850   2.600   3.803
14179TIP3    H242483   3.965   2.596   3.902
14180TIP3   OH242484   7.888   3.558   0.902
14180TIP3    H142485   7.846   3.473   0.912
14180TIP3    H242486   7.838   3.601   0.832
14181TIP3   OH242487   7.307   4.793   3.012
14181TIP3    H142488   7.226   4.800   3.064
14181TIP3    H242489   7.309   4.701   2.985
14182TIP3   OH242490   0.660   2.134   2.948
14182TIP3    H142491   0.619   2.055   2.910
14182TIP3    H242492   0.660   2.118   3.042
14183TIP3   OH242493   7.702   5.852   4.745
14183TIP3    H142494   7.674   5.869   4.835
14183TIP3    H242495   7.712   5.757   4.740
14184TIP3   OH242496   6.092   0.533   2.054
14184TIP3    H142497   6.165   0.583   2.017
14184TIP3    H242498   6.043   0.598   2.105
14185TIP3   OH242499   0.563   3.792   0.222
14185TIP3    H142500   0.540   3.732   0.151
14185TIP3    H242501   0.490   3.855   0.225
14186TIP3   OH242502   1.793   2.425   0.398
14186TIP3    H142503   1.793   2.519   0.411
14186TIP3    H242504   1.833   2.390   0.478
14187TIP3   OH242505   2.965   2.724   6.252
14187TIP3    H142506   3.055   2.705   6.278
14187TIP3    H242507   2.967   2.724   6.156
14188TIP3   OH242508   4.352   5.447   0.625
14188TIP3    H142509   4.409   5.473   0.697
14188TIP3    H242510   4.407   5.392   0.570
14189TIP3   OH242511   1.367   4.807   3.645
14189TIP3    H142512   1.451   4.802   3.691
14189TIP3    H242513   1.303   4.772   3.708
14190TIP3   OH242514   7.656   5.669   0.218
14190TIP3    H142515   7.737   5.637   0.258
14190TIP3    H242516   7.632   5.745   0.270
14191TIP3   OH242517   2.702   1.538   4.854
14191TIP3    H142518   2.733   1.537   4.763
14191TIP3    H242519   2.618   1.583   4.850
14192TIP3   OH242520   4.868   6.351   1.730
14192TIP3    H142521   4.785   6.397   1.736
14192TIP3    H242522   4.843   6.258   1.726
14193TIP3   OH242523   5.150   5.635   4.870
14193TIP3    H142524   5.129   5.542   4.862
14193TIP3    H242525   5.246   5.638   4.862
14194TIP3   OH242526   3.427   7.807   3.688
14194TIP3    H142527   3.409   7.719   3.719
14194TIP3    H242528   3.452   7.856   3.766
14195TIP3   OH242529   1.497   2.439   0.437
14195TIP3    H142530   1.584   2.403   0.422
14195TIP3    H242531   1.492   2.515   0.380
14196TIP3   OH242532   5.570   0.035   3.267
14196TIP3    H142533   5.530   0.109   3.222
14196TIP3    H242534   5.554   0.050   3.360
14197TIP3   OH242535   5.807   5.042   3.292
14197TIP3    H142536   5.873   5.090   3.241
14197TIP3    H242537   5.758   4.992   3.226
14198TIP3   OH242538   3.608   2.257   1.756
14198TIP3    H142539   3.614   2.247   1.661
14198TIP3    H242540   3.683   2.209   1.790
14199TIP3   OH242541   6.029   0.221   2.521
14199TIP3    H142542   6.010   0.135   2.483
14199TIP3    H242543   5.989   0.284   2.461
14200TIP3   OH242544   5.058   1.456   3.835
14200TIP3    H142545   5.138   1.500   3.807
14200TIP3    H242546   5.023   1.416   3.756
14201TIP3   OH242547   1.168   5.323   5.312
14201TIP3    H142548   1.075   5.303   5.325
14201TIP3    H242549   1.168   5.414   5.284
14202TIP3   OH242550   4.936   6.678   0.816
14202TIP3    H142551   4.895   6.591   0.810
14202TIP3    H242552   4.890   6.731   0.751
14203TIP3   OH242553   5.368   4.017   0.000
14203TIP3    H142554   5.341   4.043   0.088
14203TIP3    H242555   5.377   4.099  -0.047
14204TIP3   OH242556   6.944   2.114   5.992
14204TIP3    H142557   6.925   2.050   5.924
14204TIP3    H242558   6.881   2.095   6.061
14205TIP3   OH242559   2.962   4.928   0.712
14205TIP3    H142560   3.006   4.994   0.659
14205TIP3    H242561   3.000   4.939   0.800
14206TIP3   OH242562   5.165   2.092   6.250
14206TIP3    H142563   5.192   2.018   6.305
14206TIP3    H242564   5.247   2.135   6.226
14207TIP3   OH242565   8.195   0.890   6.070
14207TIP3    H142566   8.105   0.913   6.047
14207TIP3    H242567   8.235   0.973   6.097
14208TIP3   OH242568   2.711   1.407   5.967
14208TIP3    H142569   2.678   1.360   6.043
14208TIP3    H242570   2.646   1.390   5.899
14209TIP3   OH242571   7.077   0.930   0.909
14209TIP3    H142572   7.034   0.846   0.925
14209TIP3    H242573   7.170   0.910   0.913
14210TIP3   OH242574   7.256   6.658   3.782
14210TIP3    H142575   7.299   6.612   3.854
14210TIP3    H242576   7.167   6.623   3.781
14211TIP3   OH242577   3.162   4.719   2.553
14211TIP3    H142578   3.109   4.798   2.551
14211TIP3    H242579   3.152   4.681   2.466
14212TIP3   OH242580   7.988   7.320   5.624
14212TIP3    H142581   8.043   7.386   5.667
14212TIP3    H242582   7.961   7.361   5.542
14213TIP3   OH242583   3.660   7.616   3.529
14213TIP3    H142584   3.658   7.601   3.624
14213TIP3    H242585   3.666   7.529   3.491
14214TIP3   OH242586   7.281   0.637   6.540
14214TIP3    H142587   7.333   0.576   6.489
14214TIP3    H242588   7.192   0.603   6.535
14215TIP3   OH242589   7.944   5.514   4.234
14215TIP3    H142590   7.951   5.482   4.145
14215TIP3    H242591   7.868   5.468   4.271
14216TIP3   OH242592   5.319   1.970   3.596
14216TIP3    H142593   5.299   1.879   3.571
14216TIP3    H242594   5.388   1.996   3.535
14217TIP3   OH242595   8.279   7.282   1.841
14217TIP3    H142596   8.349   7.326   1.793
14217TIP3    H242597   8.252   7.346   1.907
14218TIP3   OH242598   2.351   4.215   2.254
14218TIP3    H142599   2.380   4.304   2.232
14218TIP3    H242600   2.268   4.228   2.300
14219TIP3   OH242601   7.686   6.212   1.066
14219TIP3    H142602   7.672   6.165   1.149
14219TIP3    H242603   7.762   6.268   1.083
14220TIP3   OH242604   1.601   7.595   3.300
14220TIP3    H142605   1.563   7.675   3.337
14220TIP3    H242606   1.582   7.601   3.206
14221TIP3   OH242607   1.080   0.492   2.777
14221TIP3    H142608   1.038   0.426   2.832
14221TIP3    H242609   1.028   0.571   2.791
14222TIP3   OH242610   8.305   1.913   5.308
14222TIP3    H142611   8.288   1.822   5.334
14222TIP3    H242612   8.227   1.961   5.337
14223TIP3   OH242613   3.398   6.629   3.317
14223TIP3    H142614   3.331   6.573   3.358
14223TIP3    H242615   3.471   6.628   3.379
14224TIP3   OH242616   4.196   5.391   1.163
14224TIP3    H142617   4.111   5.397   1.207
14224TIP3    H242618   4.253   5.347   1.227
14225TIP3   OH242619   6.407   2.959   0.464
14225TIP3    H142620   6.453   2.963   0.380
14225TIP3    H242621   6.469   2.995   0.527
14226TIP3   OH242622   3.728   7.587   4.254
14226TIP3    H142623   3.657   7.548   4.202
14226TIP3    H242624   3.796   7.606   4.190
14227TIP3   OH242625   0.403   7.449   3.105
14227TIP3    H142626   0.347   7.431   3.030
14227TIP3    H242627   0.437   7.537   3.089
14228TIP3   OH242628   3.608   5.832   6.568
14228TIP3    H142629   3.567   5.747   6.581
14228TIP3    H242630   3.702   5.814   6.576
14229TIP3   OH242631   3.435   7.596   0.225
14229TIP3    H142632   3.499   7.587   0.295
14229TIP3    H242633   3.396   7.509   0.215
14230TIP3   OH242634   5.635   0.265   4.446
14230TIP3    H142635   5.691   0.204   4.494
14230TIP3    H242636   5.580   0.210   4.391
14231TIP3   OH242637   0.517   0.844   6.102
14231TIP3    H142638   0.428   0.809   6.101
14231TIP3    H242639   0.569   0.775   6.143
14232TIP3   OH242640   5.359   0.377   1.865
14232TIP3    H142641   5.263   0.370   1.871
14232TIP3    H242642   5.382   0.323   1.790
14233TIP3   OH242643   0.646   7.638   1.756
14233TIP3    H142644   0.645   7.557   1.807
14233TIP3    H242645   0.716   7.624   1.691
14234TIP3   OH242646   5.951   0.603   3.566
14234TIP3    H142647   5.959   0.585   3.472
14234TIP3    H242648   5.864   0.642   3.575
14235TIP3   OH242649   1.654   2.363   5.355
14235TIP3    H142650   1.606   2.307   5.416
14235TIP3    H242651   1.588   2.392   5.292
14236TIP3   OH242652   1.032   5.608   4.316
14236TIP3    H142653   0.952   5.639   4.359
14236TIP3    H242654   1.000   5.549   4.248
14237TIP3   OH242655   4.417   5.463   4.713
14237TIP3    H142656   4.412   5.372   4.741
14237TIP3    H242657   4.496   5.466   4.659
14238TIP3   OH242658   3.512   0.381   1.055
14238TIP3    H142659   3.431   0.429   1.071
14238TIP3    H242660   3.557   0.382   1.140
14239TIP3   OH242661   0.313   2.908   0.153
14239TIP3    H142662   0.367   2.936   0.226
14239TIP3    H242663   0.234   2.961   0.159
14240TIP3   OH242664   0.197   1.139   4.005
14240TIP3    H142665   0.189   1.234   4.016
14240TIP3    H242666   0.276   1.128   3.951
14241TIP3   OH242667   5.250   1.257   6.517
14241TIP3    H142668   5.156   1.277   6.524
14241TIP3    H242669   5.291   1.341   6.499
14242TIP3   OH242670   0.782   0.033   5.176
14242TIP3    H142671   0.689   0.023   5.197
14242TIP3    H242672   0.802  -0.040   5.118
14243TIP3   OH242673   5.572   3.640   6.516
14243TIP3    H142674   5.592   3.558   6.561
14243TIP3    H242675   5.488   3.667   6.552
14244TIP3   OH242676   6.178   3.493   1.599
14244TIP3    H142677   6.200   3.565   1.657
14244TIP3    H242678   6.086   3.475   1.618
14245TIP3   OH242679   5.648   6.662   3.942
14245TIP3    H142680   5.698   6.585   3.913
14245TIP3    H242681   5.637   6.714   3.862
14246TIP3   OH242682   5.509   7.116   3.578
14246TIP3    H142683   5.495   7.116   3.483
14246TIP3    H242684   5.527   7.208   3.599
14247TIP3   OH242685   1.780   3.181   5.815
14247TIP3    H142686   1.698   3.180   5.864
14247TIP3    H242687   1.842   3.225   5.873
14248TIP3   OH242688   6.209   0.667   0.967
14248TIP3    H142689   6.192   0.732   0.899
14248TIP3    H242690   6.162   0.589   0.939
14249TIP3   OH242691   4.895   5.159   2.966
14249TIP3    H142692   4.884   5.234   2.907
14249TIP3    H242693   4.956   5.189   3.033
14250TIP3   OH242694   8.262   1.270   4.486
14250TIP3    H142695   8.296   1.213   4.417
14250TIP3    H242696   8.320   1.255   4.560
14251TIP3   OH242697   3.053   0.710   3.617
14251TIP3    H142698   3.122   0.690   3.554
14251TIP3    H242699   2.973   0.676   3.577
14252TIP3   OH242700   5.511   6.197   1.655
14252TIP3    H142701   5.581   6.134   1.638
14252TIP3    H242702   5.450   6.150   1.712
14253TIP3   OH242703   6.298   4.380   2.100
14253TIP3    H142704   6.367   4.447   2.108
14253TIP3    H242705   6.217   4.430   2.089
14254TIP3   OH242706   7.966   7.643   5.087
14254TIP3    H142707   7.985   7.656   4.994
14254TIP3    H242708   8.017   7.710   5.131
14255TIP3   OH242709   0.481   3.707   4.181
14255TIP3    H142710   0.468   3.639   4.247
14255TIP3    H242711   0.395   3.748   4.172
14256TIP3   OH242712   3.786   1.597   5.246
14256TIP3    H142713   3.750   1.686   5.241
14256TIP3    H242714   3.709   1.541   5.258
14257TIP3   OH242715   1.066   7.196   2.846
14257TIP3    H142716   1.065   7.250   2.925
14257TIP3    H242717   1.050   7.258   2.774
14258TIP3   OH242718   7.664   0.140   5.939
14258TIP3    H142719   7.616   0.080   5.997
14258TIP3    H242720   7.720   0.190   5.998
14259TIP3   OH242721   0.664   4.239   3.941
14259TIP3    H142722   0.569   4.247   3.944
14259TIP3    H242723   0.683   4.159   3.990
14260TIP3   OH242724   5.347   4.657   4.983
14260TIP3    H142725   5.364   4.742   5.022
14260TIP3    H242726   5.264   4.668   4.937
14261TIP3   OH242727   3.704   7.150   0.280
14261TIP3    H142728   3.648   7.072   0.286
14261TIP3    H242729   3.715   7.178   0.371
14262TIP3   OH242730   0.045   3.280   6.009
14262TIP3    H142731   0.089   3.285   5.924
14262TIP3    H242732   0.107   3.319   6.071
14263TIP3   OH242733   4.083   7.484   0.130
14263TIP3    H142734   4.175   7.458   0.139
14263TIP3    H242735   4.057   7.508   0.219
14264TIP3   OH242736   1.882   2.521   0.694
14264TIP3    H142737   1.925   2.437   0.681
14264TIP3    H242738   1.953   2.585   0.699
14265TIP3   OH242739   4.300   1.840   5.255
14265TIP3    H142740   4.376   1.885   5.218
14265TIP3    H242741   4.234   1.909   5.264
14266TIP3   OH242742   6.068   3.720   3.494
14266TIP3    H142743   6.142   3.709   3.554
14266TIP3    H242744   6.098   3.785   3.430
14267TIP3   OH242745   3.569   0.554   5.996
14267TIP3    H142746   3.625   0.508   6.057
14267TIP3    H242747   3.481   0.548   6.034
14268TIP3   OH242748   3.751   6.092   4.474
14268TIP3    H142749   3.778   6.104   4.383
14268TIP3    H242750   3.714   6.004   4.477
14269TIP3   OH242751   8.270   0.673   0.793
14269TIP3    H142752   8.291   0.723   0.714
14269TIP3    H242753   8.206   0.727   0.839
14270TIP3   OH242754   7.100   6.933   4.689
14270TIP3    H142755   7.041   6.858   4.679
14270TIP3    H242756   7.047   7.000   4.733
14271TIP3   OH242757   2.137   6.778   4.631
14271TIP3    H142758   2.088   6.799   4.552
14271TIP3    H242759   2.113   6.688   4.651
14272TIP3   OH242760   6.302   0.355   0.540
14272TIP3    H142761   6.263   0.335   0.625
14272TIP3    H242762   6.231   0.395   0.490
14273TIP3   OH242763   6.164   3.325   2.928
14273TIP3    H142764   6.183   3.231   2.926
14273TIP3    H242765   6.133   3.341   3.017
14274TIP3   OH242766   3.198   6.134   2.280
14274TIP3    H142767   3.277   6.156   2.329
14274TIP3    H242768   3.181   6.210   2.224
14275TIP3   OH242769   2.306   2.485   5.921
14275TIP3    H142770   2.343   2.528   5.998
14275TIP3    H242771   2.216   2.517   5.916
14276TIP3   OH242772   7.990   1.301   6.031
14276TIP3    H142773   8.064   1.327   5.976
14276TIP3    H242774   8.028   1.242   6.096
14277TIP3   OH242775   1.909   2.018   2.810
14277TIP3    H142776   1.951   2.001   2.894
14277TIP3    H242777   1.840   1.952   2.803
14278TIP3   OH242778   6.028   4.938   1.104
14278TIP3    H142779   5.945   4.943   1.150
14278TIP3    H242780   6.004   4.919   1.013
14279TIP3   OH242781   6.863   2.059   0.288
14279TIP3    H142782   6.790   2.106   0.248
14279TIP3    H242783   6.828   1.972   0.306
14280TIP3   OH242784   1.835   2.497   6.066
14280TIP3    H142785   1.755   2.446   6.056
14280TIP3    H242786   1.805   2.588   6.072
14281TIP3   OH242787   8.005   0.943   1.963
14281TIP3    H142788   8.099   0.947   1.944
14281TIP3    H242789   7.964   0.947   1.877
14282TIP3   OH242790   7.223   1.264   2.128
14282TIP3    H142791   7.234   1.270   2.223
14282TIP3    H242792   7.129   1.247   2.117
14283TIP3   OH242793   4.383   3.431   5.006
14283TIP3    H142794   4.310   3.369   4.996
14283TIP3    H242795   4.379   3.457   5.099
14284TIP3   OH242796   3.698   0.519   0.131
14284TIP3    H142797   3.667   0.442   0.082
14284TIP3    H242798   3.670   0.594   0.079
14285TIP3   OH242799   1.650   0.396   0.290
14285TIP3    H142800   1.694   0.479   0.269
14285TIP3    H242801   1.714   0.329   0.271
14286TIP3   OH242802   3.092   1.141   5.184
14286TIP3    H142803   3.061   1.082   5.252
14286TIP3    H242804   3.098   1.226   5.226
14287TIP3   OH242805   7.572   1.569   0.105
14287TIP3    H142806   7.655   1.603   0.138
14287TIP3    H242807   7.521   1.550   0.184
14288TIP3   OH242808   4.145   3.319   5.719
14288TIP3    H142809   4.206   3.360   5.781
14288TIP3    H242810   4.098   3.255   5.772
14289TIP3   OH242811   1.873   4.148   0.420
14289TIP3    H142812   1.960   4.188   0.423
14289TIP3    H242813   1.862   4.107   0.506
14290TIP3   OH242814   2.592   4.644   6.186
14290TIP3    H142815   2.525   4.700   6.224
14290TIP3    H242816   2.589   4.564   6.238
14291TIP3   OH242817   5.611   0.460   4.250
14291TIP3    H142818   5.632   0.397   4.319
14291TIP3    H242819   5.575   0.536   4.297
14292TIP3   OH242820   1.284   3.580   5.556
14292TIP3    H142821   1.274   3.608   5.465
14292TIP3    H242822   1.313   3.489   5.550
14293TIP3   OH242823   7.457   5.464   1.513
14293TIP3    H142824   7.548   5.465   1.544
14293TIP3    H242825   7.440   5.553   1.484
14294TIP3   OH242826   2.221   3.347   3.333
14294TIP3    H142827   2.270   3.342   3.415
14294TIP3    H242828   2.288   3.339   3.265
14295TIP3   OH242829   6.692   3.348   1.691
14295TIP3    H142830   6.724   3.315   1.607
14295TIP3    H242831   6.746   3.425   1.708
14296TIP3   OH242832   0.453   4.952   0.115
14296TIP3    H142833   0.401   5.032   0.106
14296TIP3    H242834   0.538   4.975   0.078
14297TIP3   OH242835   7.653   6.360   4.058
14297TIP3    H142836   7.658   6.306   4.137
14297TIP3    H242837   7.705   6.438   4.080
14298TIP3   OH242838   6.510   1.343   4.732
14298TIP3    H142839   6.590   1.294   4.749
14298TIP3    H242840   6.521   1.376   4.643
14299TIP3   OH242841   0.597   0.147   3.122
14299TIP3    H142842   0.513   0.192   3.112
14299TIP3    H242843   0.635   0.147   3.035
14300TIP3   OH242844   4.507   7.803   3.734
14300TIP3    H142845   4.448   7.749   3.787
14300TIP3    H242846   4.535   7.873   3.793
14301TIP3   OH242847   3.818   5.019   5.494
14301TIP3    H142848   3.759   5.093   5.477
14301TIP3    H242849   3.765   4.958   5.544
14302TIP3   OH242850   2.798   5.290   2.687
14302TIP3    H142851   2.872   5.251   2.733
14302TIP3    H242852   2.799   5.249   2.601
14303TIP3   OH242853   4.071   2.152   2.383
14303TIP3    H142854   4.026   2.188   2.460
14303TIP3    H242855   4.039   2.062   2.377
14304TIP3   OH242856   0.879   6.147   5.168
14304TIP3    H142857   0.797   6.132   5.121
14304TIP3    H242858   0.914   6.227   5.130
14305TIP3   OH242859   6.109   1.152   5.567
14305TIP3    H142860   6.159   1.217   5.616
14305TIP3    H242861   6.023   1.192   5.553
14306TIP3   OH242862   4.316   7.594   4.135
14306TIP3    H142863   4.238   7.646   4.154
14306TIP3    H242864   4.356   7.578   4.220
14307TIP3   OH242865   3.409   4.358   5.064
14307TIP3    H142866   3.407   4.411   5.143
14307TIP3    H242867   3.353   4.282   5.084
14308TIP3   OH242868   7.693   1.863   3.872
14308TIP3    H142869   7.693   1.959   3.875
14308TIP3    H242870   7.754   1.841   3.802
14309TIP3   OH242871   1.483   5.932   5.256
14309TIP3    H142872   1.531   6.014   5.247
14309TIP3    H242873   1.453   5.932   5.347
14310TIP3   OH242874   2.195   1.056   1.162
14310TIP3    H142875   2.130   1.058   1.092
14310TIP3    H242876   2.247   1.135   1.150
14311TIP3   OH242877   2.166   3.004   5.175
14311TIP3    H142878   2.084   3.016   5.224
14311TIP3    H242879   2.221   3.077   5.202
14312TIP3   OH242880   8.282   4.761   1.217
14312TIP3    H142881   8.319   4.782   1.302
14312TIP3    H242882   8.196   4.804   1.217
14313TIP3   OH242883   0.528   6.251   1.687
14313TIP3    H142884   0.483   6.207   1.759
14313TIP3    H242885   0.609   6.201   1.674
14314TIP3   OH242886   6.230   2.196   6.289
14314TIP3    H142887   6.176   2.272   6.268
14314TIP3    H242888   6.243   2.201   6.384
14315TIP3   OH242889   2.714   7.202   0.480
14315TIP3    H142890   2.770   7.242   0.414
14315TIP3    H242891   2.626   7.206   0.443
14316TIP3   OH242892  -0.003   1.153   0.483
14316TIP3    H142893   0.007   1.089   0.554
14316TIP3    H242894   0.064   1.219   0.502
14317TIP3   OH242895   6.482   2.410   4.663
14317TIP3    H142896   6.434   2.368   4.591
14317TIP3    H242897   6.570   2.423   4.630
14318TIP3   OH242898   4.527   4.585   0.164
14318TIP3    H142899   4.561   4.646   0.230
14318TIP3    H242900   4.523   4.501   0.209
14319TIP3   OH242901   4.892   1.654   6.184
14319TIP3    H142902   4.868   1.562   6.194
14319TIP3    H242903   4.959   1.654   6.115
14320TIP3   OH242904   0.219   3.622   1.823
14320TIP3    H142905   0.218   3.571   1.742
14320TIP3    H242906   0.311   3.624   1.849
14321TIP3   OH242907   0.959   7.716   2.886
14321TIP3    H142908   0.987   7.718   2.978
14321TIP3    H242909   0.894   7.785   2.879
14322TIP3   OH242910   7.646   1.085   2.284
14322TIP3    H142911   7.570   1.029   2.271
14322TIP3    H242912   7.721   1.031   2.257
14323TIP3   OH242913   7.014   0.681   0.206
14323TIP3    H142914   6.994   0.692   0.113
14323TIP3    H242915   7.099   0.723   0.217
14324TIP3   OH242916   6.251   3.952   5.297
14324TIP3    H142917   6.198   4.006   5.238
14324TIP3    H242918   6.305   3.899   5.239
14325TIP3   OH242919   0.809   0.285   0.495
14325TIP3    H142920   0.816   0.236   0.413
14325TIP3    H242921   0.764   0.224   0.555
14326TIP3   OH242922   0.267   2.190   2.114
14326TIP3    H142923   0.197   2.182   2.178
14326TIP3    H242924   0.335   2.240   2.159
14327TIP3   OH242925   0.898   6.525   1.043
14327TIP3    H142926   0.834   6.581   1.087
14327TIP3    H242927   0.974   6.525   1.101
14328TIP3   OH242928   4.133   6.857   2.914
14328TIP3    H142929   4.089   6.797   2.853
14328TIP3    H242930   4.115   6.820   3.000
14329TIP3   OH242931   2.456   3.122   2.941
14329TIP3    H142932   2.421   3.115   2.852
14329TIP3    H242933   2.505   3.041   2.954
14330TIP3   OH242934   4.071   0.261   3.661
14330TIP3    H142935   4.095   0.170   3.676
14330TIP3    H242936   4.141   0.296   3.606
14331TIP3   OH242937   6.908   3.861   4.430
14331TIP3    H142938   6.842   3.876   4.362
14331TIP3    H242939   6.991   3.876   4.386
14332TIP3   OH242940   2.154   1.805   1.362
14332TIP3    H142941   2.073   1.796   1.412
14332TIP3    H242942   2.197   1.720   1.370
14333TIP3   OH242943   0.599   2.875   6.631
14333TIP3    H142944   0.603   2.948   6.570
14333TIP3    H242945   0.505   2.857   6.641
14334TIP3   OH242946   2.374   7.391   4.514
14334TIP3    H142947   2.462   7.412   4.482
14334TIP3    H242948   2.330   7.354   4.437
14335TIP3   OH242949   3.384   7.420   1.400
14335TIP3    H142950   3.475   7.389   1.399
14335TIP3    H242951   3.351   7.401   1.312
14336TIP3   OH242952   1.775   7.787   5.532
14336TIP3    H142953   1.791   7.830   5.616
14336TIP3    H242954   1.684   7.758   5.537
14337TIP3   OH242955   0.565   4.187   6.717
14337TIP3    H142956   0.563   4.244   6.794
14337TIP3    H242957   0.480   4.143   6.719
14338TIP3   OH242958   4.249   3.020   4.836
14338TIP3    H142959   4.257   2.934   4.876
14338TIP3    H242960   4.313   3.020   4.765
14339TIP3   OH242961   7.951   1.934   2.985
14339TIP3    H142962   8.002   1.868   3.032
14339TIP3    H242963   7.872   1.946   3.037
14340TIP3   OH242964   3.586   0.093   5.024
14340TIP3    H142965   3.665   0.048   4.994
14340TIP3    H242966   3.550   0.036   5.092
14341TIP3   OH242967   3.789   0.811   2.828
14341TIP3    H142968   3.834   0.744   2.878
14341TIP3    H242969   3.799   0.891   2.880
14342TIP3   OH242970   6.340   6.186   6.128
14342TIP3    H142971   6.357   6.278   6.108
14342TIP3    H242972   6.261   6.165   6.079
14343TIP3   OH242973   5.375   0.557   6.161
14343TIP3    H142974   5.307   0.593   6.217
14343TIP3    H242975   5.404   0.631   6.108
14344TIP3   OH242976   1.165   4.950   0.553
14344TIP3    H142977   1.089   4.895   0.574
14344TIP3    H242978   1.130   5.020   0.499
14345TIP3   OH242979   6.622   6.120   4.984
14345TIP3    H142980   6.556   6.188   4.969
14345TIP3    H242981   6.574   6.038   4.979
14346TIP3   OH242982   4.349   0.922   2.514
14346TIP3    H142983   4.370   0.846   2.568
14346TIP3    H242984   4.415   0.920   2.444
14347TIP3   OH242985   3.348   7.362   5.777
14347TIP3    H142986   3.273   7.310   5.748
14347TIP3    H242987   3.368   7.328   5.864
14348TIP3   OH242988   3.504   2.008   6.015
14348TIP3    H142989   3.520   2.102   6.025
14348TIP3    H242990   3.431   1.990   6.074
14349TIP3   OH242991   3.675   5.673   6.209
14349TIP3    H142992   3.766   5.701   6.219
14349TIP3    H242993   3.681   5.585   6.173
14350TIP3   OH242994   1.795   0.339   5.302
14350TIP3    H142995   1.813   0.258   5.254
14350TIP3    H242996   1.719   0.317   5.357
14351TIP3   OH242997   0.286   1.269   2.205
14351TIP3    H142998   0.232   1.274   2.284
14351TIP3    H242999   0.263   1.347   2.155
14352TIP3   OH243000   7.830   6.891   6.767
14352TIP3    H143001   7.792   6.808   6.796
14352TIP3    H243002   7.865   6.872   6.680
14353TIP3   OH243003   7.329   5.967   3.336
14353TIP3    H143004   7.318   5.942   3.428
14353TIP3    H243005   7.307   6.060   3.334
14354TIP3   OH243006   3.270   2.729   0.758
14354TIP3    H143007   3.252   2.680   0.839
14354TIP3    H243008   3.365   2.725   0.748
14355TIP3   OH243009   5.338   7.512   4.456
14355TIP3    H143010   5.360   7.590   4.405
14355TIP3    H243011   5.373   7.530   4.544
14356TIP3   OH243012   1.291   5.857   3.994
14356TIP3    H143013   1.273   5.943   3.957
14356TIP3    H243014   1.270   5.867   4.087
14357TIP3   OH243015   0.070   0.602   5.030
14357TIP3    H143016   0.088   0.686   5.071
14357TIP3    H243017   0.032   0.548   5.100
14358TIP3   OH243018   3.497   3.279   5.755
14358TIP3    H143019   3.553   3.214   5.711
14358TIP3    H243020   3.479   3.344   5.687
14359TIP3   OH243021   6.789   6.422   2.866
14359TIP3    H143022   6.798   6.327   2.870
14359TIP3    H243023   6.753   6.446   2.951
14360TIP3   OH243024   5.849   0.653   5.565
14360TIP3    H143025   5.822   0.741   5.592
14360TIP3    H243026   5.944   0.652   5.576
14361TIP3   OH243027   1.166   6.645   5.907
14361TIP3    H143028   1.160   6.601   5.822
14361TIP3    H243029   1.189   6.735   5.886
14362TIP3   OH243030   6.686   0.863   5.780
14362TIP3    H143031   6.634   0.880   5.701
14362TIP3    H243032   6.622   0.866   5.851
14363TIP3   OH243033   2.715   6.466   2.630
14363TIP3    H143034   2.682   6.454   2.541
14363TIP3    H243035   2.757   6.553   2.628
14364TIP3   OH243036   0.117   3.691   1.411
14364TIP3    H143037   0.167   3.612   1.393
14364TIP3    H243038   0.161   3.759   1.360
14365TIP3   OH243039   1.076   6.870   3.783
14365TIP3    H143040   1.100   6.867   3.876
14365TIP3    H243041   1.014   6.799   3.772
14366TIP3   OH243042   7.510   3.242   0.995
14366TIP3    H143043   7.511   3.200   0.909
14366TIP3    H243044   7.417   3.254   1.014
14367TIP3   OH243045   1.400   7.647   4.262
14367TIP3    H143046   1.413   7.725   4.317
14367TIP3    H243047   1.441   7.576   4.311
14368TIP3   OH243048   7.860   5.373   4.576
14368TIP3    H143049   7.801   5.371   4.500
14368TIP3    H243050   7.851   5.286   4.615
14369TIP3   OH243051   0.430   5.570   3.343
14369TIP3    H143052   0.488   5.606   3.411
14369TIP3    H243053   0.342   5.578   3.381
14370TIP3   OH243054   4.810   4.225   1.906
14370TIP3    H143055   4.737   4.223   1.843
14370TIP3    H243056   4.853   4.308   1.890
14371TIP3   OH243057   1.577   0.007   3.869
14371TIP3    H143058   1.521  -0.035   3.804
14371TIP3    H243059   1.558  -0.040   3.951
14372TIP3   OH243060   1.713   0.843   5.712
14372TIP3    H143061   1.677   0.930   5.695
14372TIP3    H243062   1.710   0.835   5.808
14373TIP3   OH243063   1.192   7.385   0.430
14373TIP3    H143064   1.115   7.361   0.483
14373TIP3    H243065   1.266   7.350   0.479
14374TIP3   OH243066   1.171   5.713   2.248
14374TIP3    H143067   1.199   5.756   2.328
14374TIP3    H243068   1.102   5.654   2.275
14375TIP3   OH243069   4.971   1.252   0.210
14375TIP3    H143070   4.899   1.309   0.182
14375TIP3    H243071   5.037   1.312   0.245
14376TIP3   OH243072   0.762   4.658   3.712
14376TIP3    H143073   0.782   4.663   3.619
14376TIP3    H243074   0.812   4.583   3.743
14377TIP3   OH243075   5.167   1.952   2.964
14377TIP3    H143076   5.127   2.028   2.921
14377TIP3    H243077   5.094   1.891   2.978
14378TIP3   OH243078   3.994   0.428   2.237
14378TIP3    H143079   4.017   0.515   2.269
14378TIP3    H243080   4.072   0.375   2.252
14379TIP3   OH243081   6.664   6.910   3.215
14379TIP3    H143082   6.718   6.834   3.232
14379TIP3    H243083   6.725   6.984   3.214
14380TIP3   OH243084   7.775   2.581   6.739
14380TIP3    H143085   7.763   2.525   6.662
14380TIP3    H243086   7.783   2.669   6.703
14381TIP3   OH243087   1.557   3.503   3.976
14381TIP3    H143088   1.571   3.411   3.953
14381TIP3    H243089   1.462   3.511   3.983
14382TIP3   OH243090   3.754   6.805   5.461
14382TIP3    H143091   3.798   6.776   5.541
14382TIP3    H243092   3.713   6.888   5.485
14383TIP3   OH243093   7.956   4.359   5.417
14383TIP3    H143094   7.946   4.361   5.513
14383TIP3    H243095   8.050   4.369   5.403
14384TIP3   OH243096   1.321   5.957   5.982
14384TIP3    H143097   1.257   5.899   6.023
14384TIP3    H243098   1.331   6.029   6.045
14385TIP3   OH243099   4.494   1.145   5.079
14385TIP3    H143100   4.456   1.119   5.163
14385TIP3    H243101   4.445   1.094   5.014
14386TIP3   OH243102   6.379   3.438   4.964
14386TIP3    H143103   6.296   3.419   5.006
14386TIP3    H243104   6.357   3.493   4.889
14387TIP3   OH243105   4.786   2.860   2.618
14387TIP3    H143106   4.722   2.917   2.575
14387TIP3    H243107   4.871   2.897   2.595
14388TIP3   OH243108   4.481   5.827   2.215
14388TIP3    H143109   4.483   5.778   2.132
14388TIP3    H243110   4.453   5.915   2.189
14389TIP3   OH243111   4.669   3.527   0.980
14389TIP3    H143112   4.718   3.588   1.036
14389TIP3    H243113   4.734   3.463   0.952
14390TIP3   OH243114   6.821   1.556   5.816
14390TIP3    H143115   6.813   1.467   5.784
14390TIP3    H243116   6.810   1.549   5.911
14391TIP3   OH243117   2.661   3.300   1.910
14391TIP3    H143118   2.681   3.388   1.939
14391TIP3    H243119   2.666   3.304   1.814
14392TIP3   OH243120   7.961   2.721   6.402
14392TIP3    H143121   8.038   2.778   6.409
14392TIP3    H243122   7.901   2.753   6.469
14393TIP3   OH243123   3.295   5.236   0.406
14393TIP3    H143124   3.366   5.230   0.343
14393TIP3    H243125   3.232   5.296   0.365
14394TIP3   OH243126   4.239   2.271   5.305
14394TIP3    H143127   4.252   2.252   5.213
14394TIP3    H243128   4.218   2.364   5.307
14395TIP3   OH243129   6.091   2.445   6.601
14395TIP3    H143130   6.181   2.470   6.624
14395TIP3    H243131   6.091   2.349   6.604
14396TIP3   OH243132   0.775   5.476   4.888
14396TIP3    H143133   0.799   5.481   4.796
14396TIP3    H243134   0.684   5.505   4.891
14397TIP3   OH243135   1.867   1.770   5.445
14397TIP3    H143136   1.825   1.849   5.479
14397TIP3    H243137   1.942   1.802   5.395
14398TIP3   OH243138   5.227   0.153   2.319
14398TIP3    H143139   5.257   0.183   2.233
14398TIP3    H243140   5.199   0.063   2.305
14399TIP3   OH243141   2.774   2.902   6.055
14399TIP3    H143142   2.829   2.950   5.993
14399TIP3    H243143   2.803   2.811   6.046
14400TIP3   OH243144   1.906   1.354   5.387
14400TIP3    H143145   1.852   1.320   5.458
14400TIP3    H243146   1.954   1.427   5.426
14401TIP3   OH243147   5.812   4.139   6.229
14401TIP3    H143148   5.890   4.123   6.282
14401TIP3    H243149   5.801   4.058   6.179
14402TIP3   OH243150   4.125   3.318   0.347
14402TIP3    H143151   4.114   3.277   0.433
14402TIP3    H243152   4.193   3.267   0.304
14403TIP3   OH243153   7.502   7.723   2.947
14403TIP3    H143154   7.596   7.709   2.933
14403TIP3    H243155   7.461   7.686   2.869
14404TIP3   OH243156   1.668   6.460   1.499
14404TIP3    H143157   1.739   6.439   1.439
14404TIP3    H243158   1.680   6.401   1.573
14405TIP3   OH243159   7.694   7.718   2.535
14405TIP3    H143160   7.618   7.665   2.562
14405TIP3    H243161   7.758   7.653   2.506
14406TIP3   OH243162   8.057   1.259   1.971
14406TIP3    H143163   7.987   1.200   1.999
14406TIP3    H243164   8.114   1.266   2.048
14407TIP3   OH243165   5.824   5.143   1.692
14407TIP3    H143166   5.729   5.150   1.676
14407TIP3    H243167   5.864   5.174   1.611
14408TIP3   OH243168   5.959   5.658   4.309
14408TIP3    H143169   6.012   5.629   4.383
14408TIP3    H243170   5.872   5.622   4.327
14409TIP3   OH243171   6.457   2.218   3.070
14409TIP3    H143172   6.484   2.257   2.986
14409TIP3    H243173   6.524   2.152   3.088
14410TIP3   OH243174   0.503   7.702   3.039
14410TIP3    H143175   0.564   7.716   2.967
14410TIP3    H243176   0.546   7.739   3.116
14411TIP3   OH243177   2.813   0.675   0.547
14411TIP3    H143178   2.752   0.716   0.609
14411TIP3    H243179   2.757   0.634   0.482
14412TIP3   OH243180   1.707   1.253   2.252
14412TIP3    H143181   1.757   1.182   2.291
14412TIP3    H243182   1.740   1.332   2.295
14413TIP3   OH243183   8.257   4.948   4.457
14413TIP3    H143184   8.178   5.000   4.463
14413TIP3    H243185   8.227   4.857   4.463
14414TIP3   OH243186   0.180   6.309   2.440
14414TIP3    H143187   0.087   6.295   2.428
14414TIP3    H243188   0.193   6.307   2.535
14415TIP3   OH243189   7.217   1.496   0.483
14415TIP3    H143190   7.187   1.505   0.393
14415TIP3    H243191   7.184   1.411   0.511
14416TIP3   OH243192   0.423   7.167   2.073
14416TIP3    H143193   0.518   7.168   2.072
14416TIP3    H243194   0.399   7.245   2.124
14417TIP3   OH243195   5.967   2.228   0.839
14417TIP3    H143196   5.883   2.193   0.810
14417TIP3    H243197   6.010   2.154   0.882
14418TIP3   OH243198   0.716   6.362   1.255
14418TIP3    H143199   0.741   6.326   1.340
14418TIP3    H243200   0.674   6.446   1.276
14419TIP3   OH243201   2.632   3.272   1.632
14419TIP3    H143202   2.623   3.340   1.565
14419TIP3    H243203   2.627   3.190   1.583
14420TIP3   OH243204   3.360   3.443   1.340
14420TIP3    H143205   3.423   3.452   1.412
14420TIP3    H243206   3.290   3.389   1.376
14421TIP3   OH243207   4.010   7.158   2.176
14421TIP3    H143208   3.971   7.159   2.089
14421TIP3    H243209   4.023   7.065   2.195
14422TIP3   OH243210   8.194   3.058   2.548
14422TIP3    H143211   8.258   3.127   2.568
14422TIP3    H243212   8.137   3.054   2.625
14423TIP3   OH243213   3.919   4.954   4.088
14423TIP3    H143214   3.953   4.864   4.091
14423TIP3    H243215   3.897   4.974   4.179
14424TIP3   OH243216   5.944   5.052   4.308
14424TIP3    H143217   5.967   5.027   4.218
14424TIP3    H243218   5.849   5.047   4.311
14425TIP3   OH243219   4.733   1.979   4.779
14425TIP3    H143220   4.647   2.013   4.804
14425TIP3    H243221   4.713   1.905   4.722
14426TIP3   OH243222   0.371   6.482   5.866
14426TIP3    H143223   0.294   6.435   5.834
14426TIP3    H243224   0.414   6.514   5.787
14427TIP3   OH243225   3.582   7.113   1.152
14427TIP3    H143226   3.586   7.085   1.243
14427TIP3    H243227   3.490   7.102   1.127
14428TIP3   OH243228   5.344   7.145   1.542
14428TIP3    H143229   5.292   7.127   1.463
14428TIP3    H243230   5.308   7.086   1.608
14429TIP3   OH243231   6.151   6.589   4.723
14429TIP3    H143232   6.109   6.527   4.665
14429TIP3    H243233   6.087   6.606   4.792
14430TIP3   OH243234   5.187   0.861   2.598
14430TIP3    H143235   5.272   0.818   2.587
14430TIP3    H243236   5.197   0.946   2.555
14431TIP3   OH243237   7.116   1.009   6.526
14431TIP3    H143238   7.069   1.062   6.462
14431TIP3    H243239   7.194   0.980   6.479
14432TIP3   OH243240   5.038   0.390   3.570
14432TIP3    H143241   5.080   0.423   3.490
14432TIP3    H243242   5.110   0.358   3.624
14433TIP3   OH243243   3.410   2.922   4.777
14433TIP3    H143244   3.459   2.898   4.855
14433TIP3    H243245   3.366   3.004   4.800
14434TIP3   OH243246   4.748   0.679   2.936
14434TIP3    H143247   4.710   0.765   2.952
14434TIP3    H243248   4.690   0.617   2.981
14435TIP3   OH243249   2.325   4.972   4.809
14435TIP3    H143250   2.365   4.973   4.896
14435TIP3    H243251   2.368   5.044   4.763
14436TIP3   OH243252   3.637   1.864   5.421
14436TIP3    H143253   3.674   1.791   5.469
14436TIP3    H243254   3.640   1.938   5.482
14437TIP3   OH243255   0.406   3.514   0.124
14437TIP3    H143256   0.314   3.513   0.098
14437TIP3    H243257   0.454   3.515   0.042
14438TIP3   OH243258   7.625   6.051   1.278
14438TIP3    H143259   7.663   6.118   1.334
14438TIP3    H243260   7.550   6.018   1.326
14439TIP3   OH243261   6.076   4.110   2.850
14439TIP3    H143262   6.067   4.073   2.937
14439TIP3    H243263   6.061   4.035   2.791
14440TIP3   OH243264   0.851   1.052   1.819
14440TIP3    H143265   0.914   0.985   1.793
14440TIP3    H243266   0.840   1.106   1.741
14441TIP3   OH243267   1.316   6.789   2.157
14441TIP3    H143268   1.337   6.864   2.213
14441TIP3    H243269   1.285   6.827   2.075
14442TIP3   OH243270   4.604   7.037   2.590
14442TIP3    H143271   4.577   7.091   2.516
14442TIP3    H243272   4.539   7.058   2.658
14443TIP3   OH243273   6.159   2.254   2.668
14443TIP3    H143274   6.189   2.251   2.759
14443TIP3    H243275   6.162   2.346   2.645
14444TIP3   OH243276   7.122   4.888   0.203
14444TIP3    H143277   7.077   4.813   0.242
14444TIP3    H243278   7.162   4.934   0.277
14445TIP3   OH243279   2.195   0.931   6.308
14445TIP3    H143280   2.248   0.864   6.264
14445TIP3    H243281   2.153   0.978   6.236
14446TIP3   OH243282   2.688   1.148   3.418
14446TIP3    H143283   2.673   1.236   3.452
14446TIP3    H243284   2.619   1.095   3.458
14447TIP3   OH243285   8.293   2.976   0.463
14447TIP3    H143286   8.285   2.888   0.499
14447TIP3    H243287   8.372   3.012   0.504
14448TIP3   OH243288   6.571   3.329   2.310
14448TIP3    H143289   6.522   3.369   2.382
14448TIP3    H243290   6.619   3.401   2.270
14449TIP3   OH243291   3.932   3.858   2.820
14449TIP3    H143292   3.976   3.776   2.843
14449TIP3    H243293   3.911   3.898   2.904
14450TIP3   OH243294   4.381   5.212   0.245
14450TIP3    H143295   4.292   5.246   0.253
14450TIP3    H243296   4.371   5.117   0.245
14451TIP3   OH243297   6.539   5.393   2.591
14451TIP3    H143298   6.543   5.372   2.685
14451TIP3    H243299   6.532   5.308   2.548
14452TIP3   OH243300   2.158   0.157   5.990
14452TIP3    H143301   2.198   0.168   5.903
14452TIP3    H243302   2.064   0.154   5.973
14453TIP3   OH243303   3.724   7.703   5.311
14453TIP3    H143304   3.709   7.615   5.277
14453TIP3    H243305   3.817   7.705   5.333
14454TIP3   OH243306   7.974   6.828   5.580
14454TIP3    H143307   7.943   6.911   5.617
14454TIP3    H243308   8.012   6.852   5.495
14455TIP3   OH243309   5.191   2.036   0.578
14455TIP3    H143310   5.229   1.986   0.506
14455TIP3    H243311   5.152   1.971   0.635
14456TIP3   OH243312   5.154   1.113   0.988
14456TIP3    H143313   5.175   1.200   1.022
14456TIP3    H243314   5.064   1.098   1.017
14457TIP3   OH243315   6.905   7.672   1.319
14457TIP3    H143316   6.985   7.638   1.360
14457TIP3    H243317   6.935   7.716   1.239
14458TIP3   OH243318   0.661   0.166   4.291
14458TIP3    H143319   0.754   0.174   4.273
14458TIP3    H243320   0.631   0.256   4.304
14459TIP3   OH243321   1.701   4.509   2.712
14459TIP3    H143322   1.679   4.439   2.651
14459TIP3    H243323   1.796   4.515   2.709
14460TIP3   OH243324   6.338   7.410   4.042
14460TIP3    H143325   6.395   7.486   4.045
14460TIP3    H243326   6.253   7.445   4.015
14461TIP3   OH243327   5.735   3.315   4.104
14461TIP3    H143328   5.698   3.395   4.141
14461TIP3    H243329   5.829   3.323   4.120
14462TIP3   OH243330   4.098   2.810   5.025
14462TIP3    H143331   4.188   2.786   5.005
14462TIP3    H243332   4.097   2.823   5.120
14463TIP3   OH243333   0.597   5.498   5.989
14463TIP3    H143334   0.545   5.423   5.962
14463TIP3    H243335   0.673   5.459   6.033
14464TIP3   OH243336   4.379   6.872   2.751
14464TIP3    H143337   4.318   6.801   2.771
14464TIP3    H243338   4.333   6.951   2.776
14465TIP3   OH243339   3.521   4.962   1.857
14465TIP3    H143340   3.470   4.882   1.850
14465TIP3    H243341   3.587   4.955   1.788
14466TIP3   OH243342   0.581   7.397   5.339
14466TIP3    H143343   0.569   7.302   5.339
14466TIP3    H243344   0.492   7.432   5.347
14467TIP3   OH243345   1.138   1.282   3.143
14467TIP3    H143346   1.085   1.325   3.075
14467TIP3    H243347   1.075   1.265   3.213
14468TIP3   OH243348   3.816   1.708   1.918
14468TIP3    H143349   3.882   1.673   1.977
14468TIP3    H243350   3.865   1.732   1.839
14469TIP3   OH243351   5.622   4.254   4.990
14469TIP3    H143352   5.714   4.274   5.010
14469TIP3    H243353   5.573   4.329   5.025
14470TIP3   OH243354   8.077   2.348   0.932
14470TIP3    H143355   8.002   2.288   0.934
14470TIP3    H243356   8.146   2.301   0.978
14471TIP3   OH243357   4.343   6.660   0.676
14471TIP3    H143358   4.284   6.723   0.717
14471TIP3    H243359   4.351   6.690   0.585
14472TIP3   OH243360   5.743   0.056   2.908
14472TIP3    H143361   5.823   0.067   2.857
14472TIP3    H243362   5.771   0.069   2.999
14473TIP3   OH243363   5.404   2.120   1.170
14473TIP3    H143364   5.376   2.037   1.130
14473TIP3    H243365   5.408   2.181   1.097
14474TIP3   OH243366   1.691   7.361   6.105
14474TIP3    H143367   1.744   7.440   6.106
14474TIP3    H243368   1.754   7.289   6.096
14475TIP3   OH243369   2.766   6.256   1.000
14475TIP3    H143370   2.768   6.336   0.947
14475TIP3    H243371   2.857   6.226   1.002
14476TIP3   OH243372   8.275   6.505   4.623
14476TIP3    H143373   8.181   6.507   4.606
14476TIP3    H243374   8.315   6.497   4.537
14477TIP3   OH243375   6.188   7.446   6.428
14477TIP3    H143376   6.244   7.468   6.353
14477TIP3    H243377   6.239   7.383   6.479
14478TIP3   OH243378   6.894   0.986   5.060
14478TIP3    H143379   6.968   0.976   5.001
14478TIP3    H243380   6.880   0.899   5.096
14479TIP3   OH243381   0.867   2.757   4.529
14479TIP3    H143382   0.811   2.692   4.572
14479TIP3    H243383   0.835   2.761   4.439
14480TIP3   OH243384   7.938   0.365   2.542
14480TIP3    H143385   7.986   0.368   2.459
14480TIP3    H243386   8.006   0.373   2.609
14481TIP3   OH243387   4.808   4.176   0.112
14481TIP3    H143388   4.772   4.088   0.128
14481TIP3    H243389   4.903   4.163   0.112
14482TIP3   OH243390   6.982   4.577   4.098
14482TIP3    H143391   6.987   4.672   4.090
14482TIP3    H243392   7.060   4.554   4.150
14483TIP3   OH243393   5.866   6.421   4.827
14483TIP3    H143394   5.933   6.368   4.783
14483TIP3    H243395   5.916   6.490   4.872
14484TIP3   OH243396   7.915   2.258   2.125
14484TIP3    H143397   8.004   2.290   2.112
14484TIP3    H243398   7.891   2.287   2.213
14485TIP3   OH243399   3.861   3.828   4.379
14485TIP3    H143400   3.912   3.903   4.411
14485TIP3    H243401   3.798   3.811   4.449
14486TIP3   OH243402   2.774   6.465   0.221
14486TIP3    H143403   2.800   6.547   0.263
14486TIP3    H243404   2.816   6.467   0.135
14487TIP3   OH243405   8.063   6.031   4.944
14487TIP3    H143406   8.059   6.127   4.941
14487TIP3    H243407   8.149   6.009   4.907
14488TIP3   OH243408   0.098   4.252   3.925
14488TIP3    H143409   0.117   4.343   3.903
14488TIP3    H243410   0.138   4.201   3.855
14489TIP3   OH243411   2.414   7.737   3.981
14489TIP3    H143412   2.414   7.782   4.065
14489TIP3    H243413   2.336   7.681   3.983
14490TIP3   OH243414   4.926   6.395   0.736
14490TIP3    H143415   4.999   6.419   0.679
14490TIP3    H243416   4.907   6.304   0.714
14491TIP3   OH243417   4.182   4.619   0.966
14491TIP3    H143418   4.223   4.534   0.953
14491TIP3    H243419   4.149   4.616   1.056
14492TIP3   OH243420   1.432   3.734   3.211
14492TIP3    H143421   1.427   3.646   3.174
14492TIP3    H243422   1.349   3.745   3.259
14493TIP3   OH243423   6.627   7.281   2.797
14493TIP3    H143424   6.614   7.372   2.822
14493TIP3    H243425   6.622   7.232   2.879
14494TIP3   OH243426   6.993   4.210   1.123
14494TIP3    H143427   6.929   4.281   1.129
14494TIP3    H243428   7.068   4.248   1.077
14495TIP3   OH243429   5.885   6.407   6.314
14495TIP3    H143430   5.896   6.429   6.221
14495TIP3    H243431   5.798   6.367   6.318
14496TIP3   OH243432   5.425   2.900   0.189
14496TIP3    H143433   5.473   2.873   0.111
14496TIP3    H243434   5.423   2.996   0.185
14497TIP3   OH243435   0.136   5.710   6.247
14497TIP3    H143436   0.152   5.793   6.203
14497TIP3    H243437   0.206   5.653   6.218
14498TIP3   OH243438   6.992   2.627   6.407
14498TIP3    H143439   7.036   2.579   6.478
14498TIP3    H243440   6.901   2.597   6.410
14499TIP3   OH243441   7.306   3.202   6.552
14499TIP3    H143442   7.328   3.109   6.551
14499TIP3    H243443   7.326   3.232   6.463
14500TIP3   OH243444   0.571   6.809   2.125
14500TIP3    H143445   0.504   6.767   2.070
14500TIP3    H243446   0.651   6.804   2.072
14501TIP3   OH243447   6.250   7.698   6.756
14501TIP3    H143448   6.324   7.712   6.815
14501TIP3    H243449   6.254   7.605   6.735
14502TIP3   OH243450   0.661   2.831   1.809
14502TIP3    H143451   0.597   2.767   1.838
14502TIP3    H243452   0.645   2.908   1.865
14503TIP3   OH243453   1.260   6.697   3.043
14503TIP3    H143454   1.196   6.762   3.014
14503TIP3    H243455   1.247   6.690   3.137
14504TIP3   OH243456   2.207   4.499   3.133
14504TIP3    H143457   2.134   4.525   3.189
14504TIP3    H243458   2.184   4.532   3.046
14505TIP3   OH243459   1.029   6.303   2.248
14505TIP3    H143460   0.973   6.228   2.225
14505TIP3    H243461   1.105   6.264   2.292
14506TIP3   OH243462   5.971   6.126   2.757
14506TIP3    H143463   5.951   6.034   2.772
14506TIP3    H243464   5.973   6.135   2.662
14507TIP3   OH243465   1.966   4.503   4.698
14507TIP3    H143466   2.021   4.558   4.643
14507TIP3    H243467   1.877   4.534   4.684
14508TIP3   OH243468   1.627   0.220   5.551
14508TIP3    H143469   1.643   0.266   5.633
14508TIP3    H243470   1.531   0.223   5.541
14509TIP3   OH243471   4.984   4.511   1.308
14509TIP3    H143472   4.987   4.592   1.257
14509TIP3    H243473   5.042   4.528   1.383
14510TIP3   OH243474   5.926   1.594   5.926
14510TIP3    H143475   5.896   1.685   5.930
14510TIP3    H243476   5.882   1.558   5.849
14511TIP3   OH243477   3.250   4.067   3.693
14511TIP3    H143478   3.341   4.095   3.684
14511TIP3    H243479   3.252   3.999   3.760
14512TIP3   OH243480   5.601   5.740   6.749
14512TIP3    H143481   5.573   5.726   6.658
14512TIP3    H243482   5.692   5.770   6.741
14513TIP3   OH243483   6.816   3.410   4.346
14513TIP3    H143484   6.820   3.321   4.310
14513TIP3    H243485   6.827   3.398   4.440
14514TIP3   OH243486   4.188   3.789   5.273
14514TIP3    H143487   4.229   3.859   5.222
14514TIP3    H243488   4.262   3.742   5.312
14515TIP3   OH243489   5.406   2.337   0.776
14515TIP3    H143490   5.478   2.319   0.836
14515TIP3    H243491   5.436   2.412   0.724
14516TIP3   OH243492   2.899   3.524   5.215
14516TIP3    H143493   2.859   3.505   5.130
14516TIP3    H243494   2.834   3.579   5.260
14517TIP3   OH243495   4.035   5.251   5.072
14517TIP3    H143496   4.064   5.202   4.995
14517TIP3    H243497   4.020   5.184   5.139
14518TIP3   OH243498   6.048   0.900   4.301
14518TIP3    H143499   6.026   0.855   4.219
14518TIP3    H243500   6.091   0.833   4.354
14519TIP3   OH243501   4.325   3.516   5.562
14519TIP3    H143502   4.325   3.465   5.482
14519TIP3    H243503   4.308   3.453   5.632
14520TIP3   OH243504   2.819   6.906   5.155
14520TIP3    H143505   2.761   6.943   5.089
14520TIP3    H243506   2.906   6.905   5.114
14521TIP3   OH243507   7.785   4.874   1.787
14521TIP3    H143508   7.790   4.872   1.692
14521TIP3    H243509   7.698   4.907   1.807
14522TIP3   OH243510   3.250   4.147   5.823
14522TIP3    H143511   3.216   4.075   5.769
14522TIP3    H243512   3.230   4.226   5.772
14523TIP3   OH243513   4.015   6.920   4.082
14523TIP3    H143514   3.993   6.927   3.990
14523TIP3    H243515   4.104   6.885   4.083
14524TIP3   OH243516   0.102   6.443   1.087
14524TIP3    H143517   0.098   6.391   1.007
14524TIP3    H243518   0.095   6.533   1.058
14525TIP3   OH243519   0.040   0.560   4.220
14525TIP3    H143520  -0.055   0.547   4.229
14525TIP3    H243521   0.075   0.471   4.212
14526TIP3   OH243522   4.513   4.992   1.185
14526TIP3    H143523   4.532   4.960   1.097
14526TIP3    H243524   4.596   5.029   1.215
14527TIP3   OH243525   0.330   3.658   5.376
14527TIP3    H143526   0.421   3.639   5.352
14527TIP3    H243527   0.299   3.577   5.418
14528TIP3   OH243528   5.496   7.728   4.371
14528TIP3    H143529   5.545   7.810   4.377
14528TIP3    H243530   5.451   7.733   4.287
14529TIP3   OH243531   3.405   5.279   3.542
14529TIP3    H143532   3.433   5.361   3.500
14529TIP3    H243533   3.486   5.229   3.554
14530TIP3   OH243534   2.473   6.815   3.786
14530TIP3    H143535   2.520   6.785   3.709
14530TIP3    H243536   2.437   6.734   3.825
14531TIP3   OH243537   3.550   3.086   4.199
14531TIP3    H143538   3.498   3.040   4.134
14531TIP3    H243539   3.489   3.103   4.272
14532TIP3   OH243540   1.200   6.829   6.306
14532TIP3    H143541   1.182   6.851   6.397
14532TIP3    H243542   1.234   6.910   6.268
14533TIP3   OH243543   1.481   3.674   1.128
14533TIP3    H143544   1.425   3.694   1.053
14533TIP3    H243545   1.498   3.760   1.168
14534TIP3   OH243546   6.483   0.637   0.501
14534TIP3    H143547   6.517   0.669   0.417
14534TIP3    H243548   6.425   0.565   0.478
14535TIP3   OH243549   2.469   0.172   5.139
14535TIP3    H143550   2.440   0.261   5.125
14535TIP3    H243551   2.511   0.147   5.056
14536TIP3   OH243552   5.832   3.745   6.434
14536TIP3    H143553   5.747   3.708   6.455
14536TIP3    H243554   5.813   3.827   6.390
14537TIP3   OH243555   0.502   5.749   4.755
14537TIP3    H143556   0.543   5.665   4.734
14537TIP3    H243557   0.531   5.808   4.685
14538TIP3   OH243558   2.190   0.417   3.004
14538TIP3    H143559   2.154   0.385   2.921
14538TIP3    H243560   2.240   0.342   3.039
14539TIP3   OH243561   0.801   7.822   0.186
14539TIP3    H143562   0.870   7.794   0.246
14539TIP3    H243563   0.731   7.855   0.244
14540TIP3   OH243564   7.000   0.656   5.369
14540TIP3    H143565   6.990   0.747   5.397
14540TIP3    H243566   7.093   0.638   5.381
14541TIP3   OH243567   4.512   1.100   0.346
14541TIP3    H143568   4.550   1.049   0.275
14541TIP3    H243569   4.561   1.073   0.424
14542TIP3   OH243570   0.086   5.988   2.324
14542TIP3    H143571   0.021   5.920   2.306
14542TIP3    H243572   0.041   6.047   2.385
14543TIP3   OH243573   0.667   0.265   3.727
14543TIP3    H143574   0.604   0.335   3.745
14543TIP3    H243575   0.686   0.274   3.633
14544TIP3   OH243576   5.798   2.457   1.890
14544TIP3    H143577   5.760   2.423   1.808
14544TIP3    H243578   5.742   2.422   1.959
14545TIP3   OH243579   3.030   5.095   0.483
14545TIP3    H143580   3.056   5.019   0.431
14545TIP3    H243581   3.104   5.155   0.477
14546TIP3   OH243582   2.371   7.756   1.563
14546TIP3    H143583   2.379   7.740   1.469
14546TIP3    H243584   2.280   7.735   1.584
14547TIP3   OH243585   5.117   7.654   1.082
14547TIP3    H143586   5.111   7.625   1.173
14547TIP3    H243587   5.189   7.717   1.081
14548TIP3   OH243588   0.822   3.805   2.222
14548TIP3    H143589   0.903   3.836   2.263
14548TIP3    H243590   0.757   3.872   2.244
14549TIP3   OH243591   5.178   6.201   2.781
14549TIP3    H143592   5.243   6.149   2.829
14549TIP3    H243593   5.108   6.139   2.762
14550TIP3   OH243594   0.996   2.094   2.502
14550TIP3    H143595   1.088   2.110   2.481
14550TIP3    H243596   0.951   2.101   2.418
14551TIP3   OH243597   4.799   1.949   1.211
14551TIP3    H143598   4.741   1.968   1.285
14551TIP3    H243599   4.831   2.035   1.183
14552TIP3   OH243600   4.429   4.874   5.349
14552TIP3    H143601   4.341   4.904   5.371
14552TIP3    H243602   4.417   4.819   5.271
14553TIP3   OH243603   4.199   4.852   3.197
14553TIP3    H143604   4.281   4.814   3.230
14553TIP3    H243605   4.158   4.890   3.275
14554TIP3   OH243606   1.626   1.655   0.202
14554TIP3    H143607   1.647   1.666   0.295
14554TIP3    H243608   1.702   1.609   0.167
14555TIP3   OH243609   0.748   5.934   0.195
14555TIP3    H143610   0.790   5.922   0.110
14555TIP3    H243611   0.773   5.857   0.245
14556TIP3   OH243612   4.701   0.706   0.793
14556TIP3    H143613   4.761   0.640   0.825
14556TIP3    H243614   4.614   0.670   0.810
14557TIP3   OH243615   5.416   0.840   1.189
14557TIP3    H143616   5.505   0.870   1.207
14557TIP3    H243617   5.385   0.803   1.272
14558TIP3   OH243618   0.243   7.182   4.052
14558TIP3    H143619   0.174   7.146   4.109
14558TIP3    H243620   0.196   7.217   3.977
14559TIP3   OH243621   2.991   4.321   5.997
14559TIP3    H143622   2.975   4.416   5.995
14559TIP3    H243623   3.046   4.305   5.920
14560TIP3   OH243624   2.700   7.550   3.857
14560TIP3    H143625   2.608   7.525   3.860
14560TIP3    H243626   2.747   7.467   3.847
14561TIP3   OH243627   5.394   4.599   2.983
14561TIP3    H143628   5.438   4.664   2.928
14561TIP3    H243629   5.445   4.598   3.064
14562TIP3   OH243630   1.066   3.589   6.543
14562TIP3    H143631   1.094   3.524   6.478
14562TIP3    H243632   1.130   3.659   6.538
14563TIP3   OH243633   4.023   0.556   4.343
14563TIP3    H143634   3.935   0.568   4.307
14563TIP3    H243635   4.011   0.496   4.416
14564TIP3   OH243636   6.279   2.548   3.811
14564TIP3    H143637   6.203   2.573   3.758
14564TIP3    H243638   6.307   2.465   3.774
14565TIP3   OH243639   5.506   2.150   3.693
14565TIP3    H143640   5.442   2.079   3.684
14565TIP3    H243641   5.578   2.110   3.742
14566TIP3   OH243642   2.581   5.386   4.010
14566TIP3    H143643   2.612   5.300   4.038
14566TIP3    H243644   2.623   5.400   3.925
14567TIP3   OH243645   2.524   6.216   6.734
14567TIP3    H143646   2.429   6.228   6.728
14567TIP3    H243647   2.559   6.262   6.657
14568TIP3   OH243648   2.587   2.795   2.239
14568TIP3    H143649   2.592   2.853   2.315
14568TIP3    H243650   2.539   2.845   2.173
14569TIP3   OH243651   2.579   4.211   3.738
14569TIP3    H143652   2.637   4.207   3.663
14569TIP3    H243653   2.491   4.203   3.701
14570TIP3   OH243654   3.796   4.926   6.753
14570TIP3    H143655   3.821   4.843   6.712
14570TIP3    H243656   3.720   4.904   6.807
14571TIP3   OH243657   2.745   6.062   5.837
14571TIP3    H143658   2.781   5.975   5.821
14571TIP3    H243659   2.741   6.103   5.751
14572TIP3   OH243660   1.941   6.371   2.706
14572TIP3    H143661   1.906   6.336   2.788
14572TIP3    H243662   1.893   6.452   2.692
14573TIP3   OH243663   3.344   1.528   4.365
14573TIP3    H143664   3.374   1.615   4.390
14573TIP3    H243665   3.277   1.506   4.431
14574TIP3   OH243666   1.471   1.149   2.125
14574TIP3    H143667   1.497   1.083   2.061
14574TIP3    H243668   1.554   1.180   2.162
14575TIP3   OH243669   6.588   5.083   4.005
14575TIP3    H143670   6.637   5.010   3.967
14575TIP3    H243671   6.584   5.148   3.936
14576TIP3   OH243672   2.522   3.912   0.771
14576TIP3    H143673   2.542   3.878   0.684
14576TIP3    H243674   2.589   3.978   0.788
14577TIP3   OH243675   2.911   7.810   5.602
14577TIP3    H143676   2.875   7.815   5.691
14577TIP3    H243677   2.994   7.856   5.607
14578TIP3   OH243678   0.319   1.041   1.748
14578TIP3    H143679   0.279   1.103   1.687
14578TIP3    H243680   0.286   1.068   1.834
14579TIP3   OH243681   5.875   2.282   2.429
14579TIP3    H143682   5.893   2.344   2.358
14579TIP3    H243683   5.861   2.337   2.506
14580TIP3   OH243684   0.321   7.109   3.755
14580TIP3    H143685   0.256   7.179   3.758
14580TIP3    H243686   0.400   7.147   3.792
14581TIP3   OH243687   1.914   0.926   3.727
14581TIP3    H143688   1.975   0.958   3.794
14581TIP3    H243689   1.828   0.931   3.769
14582TIP3   OH243690   4.202   5.233   1.438
14582TIP3    H143691   4.219   5.160   1.379
14582TIP3    H243692   4.113   5.262   1.416
14583TIP3   OH243693   7.689   1.021   5.689
14583TIP3    H143694   7.660   0.995   5.601
14583TIP3    H243695   7.740   0.945   5.720
14584TIP3   OH243696   3.842   2.664   0.824
14584TIP3    H143697   3.818   2.756   0.811
14584TIP3    H243698   3.816   2.645   0.914
14585TIP3   OH243699   5.538   2.866   4.641
14585TIP3    H143700   5.587   2.784   4.644
14585TIP3    H243701   5.577   2.919   4.711
14586TIP3   OH243702   4.059   1.940   0.593
14586TIP3    H143703   4.040   2.004   0.524
14586TIP3    H243704   3.981   1.942   0.650
14587TIP3   OH243705   8.035   6.618   3.495
14587TIP3    H143706   7.983   6.694   3.467
14587TIP3    H243707   7.970   6.550   3.513
14588TIP3   OH243708   5.515   7.574   0.863
14588TIP3    H143709   5.423   7.551   0.879
14588TIP3    H243710   5.511   7.660   0.821
14589TIP3   OH243711   0.288   7.706   4.472
14589TIP3    H143712   0.372   7.748   4.455
14589TIP3    H243713   0.277   7.709   4.567
14590TIP3   OH243714   4.509   6.180   3.167
14590TIP3    H143715   4.482   6.185   3.259
14590TIP3    H243716   4.434   6.215   3.118
14591TIP3   OH243717   1.749   0.576   4.047
14591TIP3    H143718   1.664   0.532   4.045
14591TIP3    H243719   1.762   0.599   4.139
14592TIP3   OH243720   2.881   4.924   3.154
14592TIP3    H143721   2.851   4.833   3.152
14592TIP3    H243722   2.918   4.936   3.241
14593TIP3   OH243723   4.829   0.792   1.628
14593TIP3    H143724   4.763   0.812   1.695
14593TIP3    H243725   4.843   0.876   1.584
14594TIP3   OH243726   8.076   6.184   0.027
14594TIP3    H143727   8.085   6.123   0.100
14594TIP3    H243728   7.985   6.212   0.030
14595TIP3   OH243729   1.973   6.341   6.366
14595TIP3    H143730   1.988   6.296   6.449
14595TIP3    H243731   2.052   6.325   6.315
14596TIP3   OH243732   3.082   6.580   6.343
14596TIP3    H143733   3.102   6.491   6.373
14596TIP3    H243734   3.090   6.575   6.248
14597TIP3   OH243735   5.918   0.412   4.570
14597TIP3    H143736   5.999   0.377   4.533
14597TIP3    H243737   5.897   0.487   4.515
14598TIP3   OH243738   1.893   3.308   0.169
14598TIP3    H143739   1.805   3.274   0.156
14598TIP3    H243740   1.880   3.398   0.196
14599TIP3   OH243741   5.423   2.685   1.974
14599TIP3    H143742   5.383   2.761   2.016
14599TIP3    H243743   5.393   2.610   2.026
14600TIP3   OH243744   1.913   3.314   4.485
14600TIP3    H143745   1.823   3.343   4.471
14600TIP3    H243746   1.967   3.387   4.455
14601TIP3   OH243747   0.902   7.660   6.485
14601TIP3    H143748   0.862   7.654   6.398
14601TIP3    H243749   0.995   7.646   6.470
14602TIP3   OH243750   4.760   0.269   1.764
14602TIP3    H143751   4.844   0.248   1.723
14602TIP3    H243752   4.752   0.364   1.755
14603TIP3   OH243753   1.961   2.302   5.729
14603TIP3    H143754   2.044   2.322   5.686
14603TIP3    H243755   1.973   2.329   5.820
14604TIP3   OH243756   2.387   1.968   5.290
14604TIP3    H143757   2.388   2.045   5.348
14604TIP3    H243758   2.404   1.895   5.349
14605TIP3   OH243759   2.226   6.580   1.195
14605TIP3    H143760   2.240   6.623   1.280
14605TIP3    H243761   2.213   6.488   1.217
14606TIP3   OH243762   4.913   1.007   6.071
14606TIP3    H143763   4.843   1.026   6.134
14606TIP3    H243764   4.881   0.930   6.023
14607TIP3   OH243765   1.414   4.461   0.651
14607TIP3    H143766   1.487   4.494   0.703
14607TIP3    H243767   1.380   4.538   0.606
14608TIP3   OH243768   3.590   0.453   0.797
14608TIP3    H143769   3.598   0.448   0.892
14608TIP3    H243770   3.496   0.464   0.781
14609TIP3   OH243771   2.369   1.698   0.362
14609TIP3    H143772   2.370   1.615   0.315
14609TIP3    H243773   2.284   1.699   0.407
14610TIP3   OH243774   5.620   3.408   1.184
14610TIP3    H143775   5.656   3.344   1.122
14610TIP3    H243776   5.666   3.489   1.164
14611TIP3   OH243777   3.186   7.765   0.285
14611TIP3    H143778   3.268   7.723   0.260
14611TIP3    H243779   3.123   7.736   0.219
14612TIP3   OH243780   5.805   4.275   2.542
14612TIP3    H143781   5.880   4.255   2.487
14612TIP3    H243782   5.729   4.268   2.484
14613TIP3   OH243783   6.580   7.049   2.081
14613TIP3    H143784   6.553   7.033   1.990
14613TIP3    H243785   6.616   7.138   2.079
14614TIP3   OH243786   4.779   0.008   1.881
14614TIP3    H143787   4.767   0.099   1.854
14614TIP3    H243788   4.856   0.009   1.937
14615TIP3   OH243789   3.292   5.381   3.023
14615TIP3    H143790   3.222   5.423   2.973
14615TIP3    H243791   3.352   5.452   3.044
14616TIP3   OH243792   5.902   0.033   6.518
14616TIP3    H143793   5.905  -0.060   6.496
14616TIP3    H243794   5.985   0.069   6.484
14617TIP3   OH243795   3.538   1.856   4.035
14617TIP3    H143796   3.577   1.907   3.963
14617TIP3    H243797   3.447   1.843   4.009
14618TIP3   OH243798   6.259   2.159   0.309
14618TIP3    H143799   6.351   2.184   0.309
14618TIP3    H243800   6.213   2.239   0.338
14619TIP3   OH243801   1.668   4.739   2.356
14619TIP3    H143802   1.601   4.709   2.295
14619TIP3    H243803   1.621   4.753   2.438
14620TIP3   OH243804   6.791   1.917   1.472
14620TIP3    H143805   6.818   1.904   1.381
14620TIP3    H243806   6.695   1.925   1.467
14621TIP3   OH243807   2.731   6.184   0.224
14621TIP3    H143808   2.742   6.279   0.229
14621TIP3    H243809   2.670   6.162   0.294
14622TIP3   OH243810   5.013   4.171   0.841
14622TIP3    H143811   5.010   4.147   0.934
14622TIP3    H243812   4.921   4.174   0.814
14623TIP3   OH243813   5.674   6.069   0.536
14623TIP3    H143814   5.689   5.993   0.592
14623TIP3    H243815   5.622   6.035   0.463
14624TIP3   OH243816   2.234   4.900   2.893
14624TIP3    H143817   2.219   4.985   2.852
14624TIP3    H243818   2.317   4.870   2.857
14625TIP3   OH243819   3.604   0.794   4.066
14625TIP3    H143820   3.620   0.742   3.988
14625TIP3    H243821   3.581   0.881   4.034
14626TIP3   OH243822   8.122   0.094   3.506
14626TIP3    H143823   8.170   0.172   3.531
14626TIP3    H243824   8.128   0.090   3.411
14627TIP3   OH243825   0.803   4.556   4.357
14627TIP3    H143826   0.833   4.635   4.402
14627TIP3    H243827   0.730   4.524   4.412
14628TIP3   OH243828   3.405   4.669   3.068
14628TIP3    H143829   3.321   4.657   3.114
14628TIP3    H243830   3.405   4.602   3.000
14629TIP3   OH243831   0.686   0.715   5.831
14629TIP3    H143832   0.666   0.636   5.781
14629TIP3    H243833   0.759   0.756   5.784
14630TIP3   OH243834   4.346   5.209   5.237
14630TIP3    H143835   4.351   5.116   5.257
14630TIP3    H243836   4.301   5.248   5.312
14631TIP3   OH243837   5.776   2.646   6.265
14631TIP3    H143838   5.817   2.589   6.200
14631TIP3    H243839   5.732   2.714   6.214
14632TIP3   OH243840   1.321   2.772   6.211
14632TIP3    H143841   1.296   2.768   6.303
14632TIP3    H243842   1.364   2.857   6.201
14633TIP3   OH243843   0.629   1.885   6.086
14633TIP3    H143844   0.696   1.847   6.030
14633TIP3    H243845   0.573   1.811   6.110
14634TIP3   OH243846   4.325   7.354   6.628
14634TIP3    H143847   4.247   7.379   6.578
14634TIP3    H243848   4.372   7.294   6.570
14635TIP3   OH243849   0.878   0.490   6.341
14635TIP3    H143850   0.969   0.507   6.316
14635TIP3    H243851   0.884   0.422   6.408
14636TIP3   OH243852   2.119   2.952   5.492
14636TIP3    H143853   2.178   2.881   5.465
14636TIP3    H243854   2.157   3.030   5.453
14637TIP3   OH243855   0.328   6.379   3.217
14637TIP3    H143856   0.336   6.474   3.213
14637TIP3    H243857   0.244   6.360   3.176
14638TIP3   OH243858   3.102   1.428   6.163
14638TIP3    H143859   3.082   1.357   6.102
14638TIP3    H243860   3.178   1.472   6.125
14639TIP3   OH243861   1.574   6.716   6.097
14639TIP3    H143862   1.549   6.702   6.005
14639TIP3    H243863   1.600   6.808   6.101
14640TIP3   OH243864   5.917   6.546   1.978
14640TIP3    H143865   5.873   6.492   1.912
14640TIP3    H243866   5.888   6.510   2.062
14641TIP3   OH243867   5.436   0.731   6.482
14641TIP3    H143868   5.423   0.819   6.445
14641TIP3    H243869   5.360   0.717   6.538
14642TIP3   OH243870   4.275   7.565   2.145
14642TIP3    H143871   4.288   7.545   2.238
14642TIP3    H243872   4.329   7.643   2.130
14643TIP3   OH243873   5.838   5.753   0.340
14643TIP3    H143874   5.911   5.809   0.366
14643TIP3    H243875   5.815   5.704   0.419
14644TIP3   OH243876   2.342   6.261   4.494
14644TIP3    H143877   2.391   6.225   4.419
14644TIP3    H243878   2.410   6.293   4.553
14645TIP3   OH243879   1.106   4.548   4.675
14645TIP3    H143880   1.125   4.635   4.638
14645TIP3    H243881   1.010   4.541   4.671
14646TIP3   OH243882   5.988   2.033   6.317
14646TIP3    H143883   6.000   1.951   6.365
14646TIP3    H243884   6.077   2.065   6.303
14647TIP3   OH243885   2.850   2.871   6.451
14647TIP3    H143886   2.898   2.834   6.376
14647TIP3    H243887   2.758   2.865   6.425
14648TIP3   OH243888   3.451   4.830   0.271
14648TIP3    H143889   3.521   4.891   0.294
14648TIP3    H243890   3.466   4.809   0.179
14649TIP3   OH243891   8.038   0.985   1.141
14649TIP3    H143892   8.096   1.060   1.150
14649TIP3    H243893   8.016   0.960   1.230
14650TIP3   OH243894   0.075   0.028   0.125
14650TIP3    H143895   0.049   0.054   0.213
14650TIP3    H243896  -0.002   0.045   0.071
14651TIP3   OH243897   1.914   3.605   0.159
14651TIP3    H143898   1.828   3.601   0.117
14651TIP3    H243899   1.945   3.694   0.144
14652TIP3   OH243900   2.979   4.540   1.514
14652TIP3    H143901   2.991   4.632   1.536
14652TIP3    H243902   2.936   4.502   1.590
14653TIP3   OH243903   2.256   5.519   5.018
14653TIP3    H143904   2.200   5.484   5.088
14653TIP3    H243905   2.279   5.442   4.966
14654TIP3   OH243906   7.243   5.746   2.792
14654TIP3    H143907   7.308   5.779   2.729
14654TIP3    H243908   7.161   5.788   2.766
14655TIP3   OH243909   0.161   4.792   3.909
14655TIP3    H143910   0.089   4.824   3.963
14655TIP3    H243911   0.157   4.696   3.918
14656TIP3   OH243912   7.189   1.208   1.844
14656TIP3    H143913   7.097   1.190   1.827
14656TIP3    H243914   7.191   1.247   1.931
14657TIP3   OH243915   1.248   6.150   2.434
14657TIP3    H143916   1.324   6.116   2.482
14657TIP3    H243917   1.178   6.088   2.452
14658TIP3   OH243918   5.262   3.601   3.792
14658TIP3    H143919   5.280   3.509   3.813
14658TIP3    H243920   5.171   3.601   3.762
14659TIP3   OH243921   2.899   5.702   1.520
14659TIP3    H143922   2.852   5.701   1.436
14659TIP3    H243923   2.897   5.794   1.547
14660TIP3   OH243924   1.263   7.609   4.661
14660TIP3    H143925   1.180   7.624   4.706
14660TIP3    H243926   1.323   7.582   4.730
14661TIP3   OH243927   6.653   5.433   1.106
14661TIP3    H143928   6.654   5.499   1.176
14661TIP3    H243929   6.587   5.465   1.044
14662TIP3   OH243930   0.549   1.499   4.257
14662TIP3    H143931   0.543   1.521   4.350
14662TIP3    H243932   0.602   1.569   4.219
14663TIP3   OH243933   6.792   2.768   2.157
14663TIP3    H143934   6.811   2.674   2.164
14663TIP3    H243935   6.861   2.810   2.208
14664TIP3   OH243936   7.448   6.719   2.223
14664TIP3    H143937   7.409   6.657   2.161
14664TIP3    H243938   7.373   6.757   2.268
14665TIP3   OH243939   2.599   4.666   5.467
14665TIP3    H143940   2.611   4.597   5.402
14665TIP3    H243941   2.530   4.722   5.431
14666TIP3   OH243942   1.269   3.174   4.039
14666TIP3    H143943   1.295   3.110   3.973
14666TIP3    H243944   1.230   3.245   3.989
14667TIP3   OH243945   1.179   2.716   4.957
14667TIP3    H143946   1.255   2.693   4.902
14667TIP3    H243947   1.212   2.787   5.013
14668TIP3   OH243948   5.206   7.282   6.081
14668TIP3    H143949   5.232   7.253   6.168
14668TIP3    H243950   5.143   7.216   6.051
14669TIP3   OH243951   7.613   7.392   1.642
14669TIP3    H143952   7.667   7.387   1.721
14669TIP3    H243953   7.622   7.307   1.601
14670TIP3   OH243954   5.696   0.839   1.202
14670TIP3    H143955   5.764   0.777   1.231
14670TIP3    H243956   5.732   0.879   1.123
14671TIP3   OH243957   7.962   0.796   2.871
14671TIP3    H143958   7.873   0.831   2.880
14671TIP3    H243959   7.960   0.715   2.923
14672TIP3   OH243960   3.748   1.383   6.392
14672TIP3    H143961   3.818   1.366   6.330
14672TIP3    H243962   3.773   1.336   6.471
14673TIP3   OH243963   8.152   7.658   5.430
14673TIP3    H143964   8.205   7.687   5.504
14673TIP3    H243965   8.162   7.727   5.364
14674TIP3   OH243966   7.513   0.332   4.154
14674TIP3    H143967   7.448   0.264   4.172
14674TIP3    H243968   7.528   0.328   4.060
14675TIP3   OH243969   0.359   5.215   0.042
14675TIP3    H143970   0.418   5.252  -0.023
14675TIP3    H243971   0.324   5.290   0.089
14676TIP3   OH243972   5.985   1.277   0.803
14676TIP3    H143973   6.063   1.222   0.809
14676TIP3    H243974   6.016   1.358   0.763
14677TIP3   OH243975   4.007   5.201   6.575
14677TIP3    H143976   3.912   5.198   6.571
14677TIP3    H243977   4.034   5.214   6.484
14678TIP3   OH243978   5.714   3.384   0.157
14678TIP3    H143979   5.769   3.305   0.164
14678TIP3    H243980   5.749   3.431   0.081
14679TIP3   OH243981   2.706   2.701   4.352
14679TIP3    H143982   2.651   2.775   4.376
14679TIP3    H243983   2.647   2.625   4.352
14680TIP3   OH243984   0.069   7.661   0.453
14680TIP3    H143985  -0.019   7.640   0.422
14680TIP3    H243986   0.060   7.665   0.549
14681TIP3   OH243987   7.255   4.742   6.331
14681TIP3    H143988   7.247   4.764   6.424
14681TIP3    H243989   7.345   4.765   6.309
14682TIP3   OH243990   6.807   7.547   1.859
14682TIP3    H143991   6.813   7.460   1.819
14682TIP3    H243992   6.896   7.583   1.853
14683TIP3   OH243993   6.758   6.393   6.260
14683TIP3    H143994   6.842   6.433   6.284
14683TIP3    H243995   6.739   6.334   6.333
14684TIP3   OH243996   6.897   1.747   6.251
14684TIP3    H143997   6.812   1.765   6.291
14684TIP3    H243998   6.938   1.833   6.242
14685TIP3   OH243999   1.756   1.540   1.487
14685TIP3    H144000   1.733   1.483   1.561
14685TIP3    H244001   1.683   1.530   1.426
14686TIP3   OH244002   3.426   7.089   1.722
14686TIP3    H144003   3.340   7.051   1.736
14686TIP3    H244004   3.481   7.016   1.696
14687TIP3   OH244005   3.279   2.435   0.626
14687TIP3    H144006   3.251   2.399   0.541
14687TIP3    H244007   3.264   2.529   0.618
14688TIP3   OH244008   6.593   1.193   6.473
14688TIP3    H144009   6.638   1.120   6.429
14688TIP3    H244010   6.557   1.153   6.552
14689TIP3   OH244011   0.341   1.473   5.896
14689TIP3    H144012   0.272   1.539   5.906
14689TIP3    H244013   0.358   1.471   5.801
14690TIP3   OH244014   8.073   5.490   1.166
14690TIP3    H144015   8.125   5.498   1.246
14690TIP3    H244016   7.986   5.463   1.196
14691TIP3   OH244017   2.685   3.532   3.187
14691TIP3    H144018   2.615   3.580   3.142
14691TIP3    H244019   2.647   3.445   3.204
14692TIP3   OH244020   1.107   2.229   3.072
14692TIP3    H144021   1.132   2.318   3.046
14692TIP3    H244022   1.013   2.235   3.088
14693TIP3   OH244023   8.286   1.466   0.144
14693TIP3    H144024   8.261   1.540   0.200
14693TIP3    H244025   8.224   1.397   0.167
14694TIP3   OH244026   1.768   1.473   2.395
14694TIP3    H144027   1.798   1.525   2.470
14694TIP3    H244028   1.757   1.536   2.324
14695TIP3   OH244029   6.283   6.704   6.557
14695TIP3    H144030   6.238   6.648   6.494
14695TIP3    H244031   6.325   6.644   6.618
14696TIP3   OH244032   1.734   3.034   0.075
14696TIP3    H144033   1.713   3.093   0.147
14696TIP3    H244034   1.653   3.026   0.025
14697TIP3   OH244035   7.935   4.316   0.543
14697TIP3    H144036   7.910   4.407   0.559
14697TIP3    H244037   8.019   4.306   0.588
14698TIP3   OH244038   6.700   6.958   5.577
14698TIP3    H144039   6.632   6.949   5.644
14698TIP3    H244040   6.772   6.903   5.609
14699TIP3   OH244041   3.156   1.945   1.007
14699TIP3    H144042   3.150   1.854   1.037
14699TIP3    H244043   3.073   1.961   0.963
14700TIP3   OH244044   1.441   5.090   4.921
14700TIP3    H144045   1.410   5.114   4.834
14700TIP3    H244046   1.375   5.126   4.981
14701TIP3   OH244047   6.110   6.412   2.656
14701TIP3    H144048   6.175   6.478   2.675
14701TIP3    H244049   6.145   6.331   2.694
14702TIP3   OH244050   3.496   4.928   6.360
14702TIP3    H144051   3.427   4.992   6.348
14702TIP3    H244052   3.515   4.929   6.454
14703TIP3   OH244053   0.033   6.935   5.004
14703TIP3    H144054   0.036   6.842   5.028
14703TIP3    H244055   0.086   6.941   4.925
14704TIP3   OH244056   2.266   6.101   0.526
14704TIP3    H144057   2.272   6.007   0.512
14704TIP3    H244058   2.352   6.135   0.502
14705TIP3   OH244059   3.953   5.950   5.003
14705TIP3    H144060   3.943   5.900   4.922
14705TIP3    H244061   4.037   5.920   5.040
14706TIP3   OH244062   7.629   0.968   5.424
14706TIP3    H144063   7.591   0.883   5.403
14706TIP3    H244064   7.589   1.029   5.362
14707TIP3   OH244065   0.414   1.826   5.743
14707TIP3    H144066   0.498   1.865   5.767
14707TIP3    H244067   0.365   1.822   5.825
14708TIP3   OH244068   7.000   0.199   3.729
14708TIP3    H144069   7.089   0.179   3.701
14708TIP3    H244070   6.993   0.161   3.817
14709TIP3   OH244071   2.597   2.108   4.179
14709TIP3    H144072   2.653   2.171   4.224
14709TIP3    H244073   2.651   2.028   4.176
14710TIP3   OH244074   4.056   2.996   3.244
14710TIP3    H144075   4.096   3.027   3.325
14710TIP3    H244076   4.015   2.913   3.268
14711TIP3   OH244077   3.712   6.527   0.671
14711TIP3    H144078   3.734   6.483   0.754
14711TIP3    H244079   3.782   6.502   0.612
14712TIP3   OH244080   3.084   0.722   2.680
14712TIP3    H144081   3.034   0.802   2.696
14712TIP3    H244082   3.103   0.687   2.767
14713TIP3   OH244083   6.449   0.835   2.425
14713TIP3    H144084   6.358   0.860   2.411
14713TIP3    H244085   6.464   0.763   2.364
14714TIP3   OH244086   4.432   6.412   0.556
14714TIP3    H144087   4.482   6.446   0.631
14714TIP3    H244088   4.491   6.421   0.481
14715TIP3   OH244089   4.554   3.103   2.707
14715TIP3    H144090   4.479   3.163   2.712
14715TIP3    H244091   4.538   3.052   2.627
14716TIP3   OH244092   2.371   6.193   2.999
14716TIP3    H144093   2.280   6.223   3.000
14716TIP3    H244094   2.418   6.263   2.955
14717TIP3   OH244095   1.119   3.276   6.373
14717TIP3    H144096   1.169   3.275   6.291
14717TIP3    H244097   1.028   3.268   6.345
14718TIP3   OH244098   4.810   6.744   0.118
14718TIP3    H144099   4.798   6.837   0.138
14718TIP3    H244100   4.781   6.735   0.028
14719TIP3   OH244101   5.913   7.795   0.856
14719TIP3    H144102   5.975   7.858   0.894
14719TIP3    H244103   5.947   7.709   0.882
14720TIP3   OH244104   0.116   3.330   3.468
14720TIP3    H144105   0.118   3.294   3.379
14720TIP3    H244106   0.202   3.371   3.478
14721TIP3   OH244107   3.796   6.863   6.704
14721TIP3    H144108   3.861   6.794   6.717
14721TIP3    H244109   3.827   6.937   6.755
14722TIP3   OH244110   0.754   1.723   5.900
14722TIP3    H144111   0.810   1.746   5.825
14722TIP3    H244112   0.813   1.723   5.975
14723TIP3   OH244113   5.496   7.070   0.508
14723TIP3    H144114   5.586   7.086   0.536
14723TIP3    H244115   5.444   7.132   0.559
14724TIP3   OH244116   0.534   2.447   2.885
14724TIP3    H144117   0.532   2.508   2.959
14724TIP3    H244118   0.500   2.365   2.921
14725TIP3   OH244119   5.629   1.599   4.311
14725TIP3    H144120   5.708   1.563   4.269
14725TIP3    H244121   5.646   1.693   4.317
14726TIP3   OH244122   1.681   6.930   5.383
14726TIP3    H144123   1.690   6.893   5.471
14726TIP3    H244124   1.760   6.905   5.337
14727TIP3   OH244125   6.094   4.129   0.132
14727TIP3    H144126   6.017   4.175   0.167
14727TIP3    H244127   6.093   4.044   0.177
14728TIP3   OH244128   1.999   4.802   0.857
14728TIP3    H144129   1.946   4.850   0.794
14728TIP3    H244130   2.084   4.793   0.814
14729TIP3   OH244131   5.706   3.420   1.543
14729TIP3    H144132   5.614   3.399   1.558
14729TIP3    H244133   5.712   3.432   1.448
14730TIP3   OH244134   7.690   5.512   1.810
14730TIP3    H144135   7.714   5.477   1.895
14730TIP3    H244136   7.691   5.607   1.821
14731TIP3   OH244137   4.914   3.232   5.830
14731TIP3    H144138   4.945   3.143   5.850
14731TIP3    H244139   4.859   3.255   5.905
14732TIP3   OH244140   0.937   0.108   6.367
14732TIP3    H144141   1.018   0.065   6.393
14732TIP3    H244142   0.868   0.054   6.405
14733TIP3   OH244143   0.342   0.072   0.239
14733TIP3    H144144   0.377  -0.001   0.289
14733TIP3    H244145   0.250   0.049   0.224
14734TIP3   OH244146   1.336   0.031   0.865
14734TIP3    H144147   1.336   0.121   0.830
14734TIP3    H244148   1.372  -0.022   0.795
14735TIP3   OH244149   3.884   4.572   3.798
14735TIP3    H144150   3.916   4.516   3.869
14735TIP3    H244151   3.962   4.615   3.764
14736TIP3   OH244152   8.132   3.926   4.665
14736TIP3    H144153   8.108   4.014   4.638
14736TIP3    H244154   8.227   3.924   4.662
14737TIP3   OH244155   2.112   0.685   3.023
14737TIP3    H144156   2.173   0.731   2.965
14737TIP3    H244157   2.142   0.594   3.022
14738TIP3   OH244158   3.112   0.324   2.847
14738TIP3    H144159   3.085   0.273   2.771
14738TIP3    H244160   3.142   0.257   2.910
14739TIP3   OH244161   7.620   7.066   6.702
14739TIP3    H144162   7.697   7.014   6.723
14739TIP3    H244163   7.588   7.097   6.786
14740TIP3   OH244164   2.175   5.155   2.833
14740TIP3    H144165   2.128   5.228   2.873
14740TIP3    H244166   2.181   5.177   2.740
14741TIP3   OH244167   6.123   0.634   5.573
14741TIP3    H144168   6.167   0.561   5.616
14741TIP3    H244169   6.187   0.705   5.576
14742TIP3   OH244170   7.802   5.464   5.565
14742TIP3    H144171   7.828   5.450   5.474
14742TIP3    H244172   7.829   5.383   5.609
14743TIP3   OH244173   7.719   2.964   4.932
14743TIP3    H144174   7.629   2.981   4.958
14743TIP3    H244175   7.713   2.897   4.865
14744TIP3   OH244176   1.775   6.345   5.025
14744TIP3    H144177   1.810   6.433   5.006
14744TIP3    H244178   1.846   6.300   5.070
14745TIP3   OH244179   7.378   5.412   1.936
14745TIP3    H144180   7.438   5.381   1.868
14745TIP3    H244181   7.415   5.378   2.018
14746TIP3   OH244182   7.629   4.160   4.869
14746TIP3    H144183   7.583   4.216   4.931
14746TIP3    H244184   7.699   4.119   4.920
14747TIP3   OH244185   5.623   4.603   6.224
14747TIP3    H144186   5.688   4.546   6.182
14747TIP3    H244187   5.564   4.629   6.153
14748TIP3   OH244188   3.703   7.504   3.788
14748TIP3    H144189   3.753   7.530   3.865
14748TIP3    H244190   3.722   7.410   3.778
14749TIP3   OH244191   5.580   2.960   5.224
14749TIP3    H144192   5.536   3.025   5.169
14749TIP3    H244193   5.644   3.010   5.274
14750TIP3   OH244194   7.808   2.991   6.150
14750TIP3    H144195   7.739   2.936   6.186
14750TIP3    H244196   7.774   3.080   6.156
14751TIP3   OH244197   6.831   5.467   3.727
14751TIP3    H144198   6.747   5.477   3.772
14751TIP3    H244199   6.855   5.556   3.702
14752TIP3   OH244200   5.446   5.438   0.384
14752TIP3    H144201   5.449   5.380   0.308
14752TIP3    H244202   5.360   5.478   0.381
14753TIP3   OH244203   1.597   6.626   5.033
14753TIP3    H144204   1.674   6.595   4.985
14753TIP3    H244205   1.528   6.630   4.966
14754TIP3   OH244206   3.182   5.561   3.283
14754TIP3    H144207   3.189   5.482   3.230
14754TIP3    H244208   3.266   5.606   3.272
14755TIP3   OH244209   7.739   4.040   0.152
14755TIP3    H144210   7.665   4.086   0.113
14755TIP3    H244211   7.715   3.947   0.147
14756TIP3   OH244212   8.286   0.585   0.502
14756TIP3    H144213   8.364   0.553   0.549
14756TIP3    H244214   8.212   0.556   0.557
14757TIP3   OH244215   7.919   5.721   4.423
14757TIP3    H144216   7.970   5.704   4.502
14757TIP3    H244217   7.935   5.644   4.368
14758TIP3   OH244218   2.447   0.487   6.756
14758TIP3    H144219   2.492   0.447   6.831
14758TIP3    H244220   2.416   0.412   6.704
14759TIP3   OH244221   5.475   6.211   0.361
14759TIP3    H144222   5.535   6.218   0.288
14759TIP3    H244223   5.439   6.299   0.372
14760TIP3   OH244224   2.177   4.638   4.273
14760TIP3    H144225   2.195   4.730   4.256
14760TIP3    H244226   2.255   4.592   4.241
14761TIP3   OH244227   0.907   0.300   2.888
14761TIP3    H144228   0.879   0.288   2.798
14761TIP3    H244229   0.950   0.218   2.912
14762TIP3   OH244230   7.910   6.698   3.129
14762TIP3    H144231   7.883   6.609   3.109
14762TIP3    H244232   7.887   6.748   3.051
14763TIP3   OH244233   5.893   1.384   6.328
14763TIP3    H144234   5.835   1.421   6.394
14763TIP3    H244235   5.912   1.296   6.359
14764TIP3   OH244236   4.360   5.008   2.422
14764TIP3    H144237   4.281   4.968   2.384
14764TIP3    H244238   4.363   4.974   2.511
14765TIP3   OH244239   6.393   1.296   1.723
14765TIP3    H144240   6.393   1.258   1.635
14765TIP3    H244241   6.375   1.223   1.781
14766TIP3   OH244242   8.126   4.225   3.242
14766TIP3    H144243   8.184   4.252   3.170
14766TIP3    H244244   8.144   4.288   3.312
14767TIP3   OH244245   3.652   7.155   2.471
14767TIP3    H144246   3.605   7.222   2.520
14767TIP3    H244247   3.589   7.124   2.406
14768TIP3   OH244248   7.031   5.319   4.072
14768TIP3    H144249   7.067   5.401   4.105
14768TIP3    H244250   6.944   5.342   4.041
14769TIP3   OH244251   7.190   1.088   3.160
14769TIP3    H144252   7.237   1.044   3.231
14769TIP3    H244253   7.184   1.022   3.090
14770TIP3   OH244254   2.391   3.680   3.835
14770TIP3    H144255   2.337   3.665   3.758
14770TIP3    H244256   2.457   3.744   3.807
14771TIP3   OH244257   4.974   7.450   3.409
14771TIP3    H144258   5.067   7.441   3.386
14771TIP3    H244259   4.949   7.363   3.440
14772TIP3   OH244260   3.773   0.503   4.043
14772TIP3    H144261   3.727   0.549   3.973
14772TIP3    H244262   3.813   0.428   4.000
14773TIP3   OH244263   7.863   4.758   6.440
14773TIP3    H144264   7.901   4.799   6.517
14773TIP3    H244265   7.876   4.664   6.454
14774TIP3   OH244266   7.899   4.503   6.004
14774TIP3    H144267   7.891   4.416   6.044
14774TIP3    H244268   7.959   4.550   6.062
14775TIP3   OH244269   8.174   7.767   4.063
14775TIP3    H144270   8.182   7.847   4.115
14775TIP3    H244271   8.220   7.787   3.981
14776TIP3   OH244272   4.267   3.262   0.098
14776TIP3    H144273   4.200   3.331   0.095
14776TIP3    H244274   4.259   3.217   0.013
14777TIP3   OH244275   5.558   4.875   0.738
14777TIP3    H144276   5.522   4.937   0.675
14777TIP3    H244277   5.653   4.889   0.735
14778TIP3   OH244278   2.912   3.725   3.646
14778TIP3    H144279   2.885   3.808   3.684
14778TIP3    H244280   2.837   3.697   3.594
14779TIP3   OH244281   0.199   5.779   0.479
14779TIP3    H144282   0.246   5.813   0.402
14779TIP3    H244283   0.109   5.766   0.449
14780TIP3   OH244284   0.287   7.739   3.922
14780TIP3    H144285   0.257   7.769   3.836
14780TIP3    H244286   0.311   7.820   3.967
14781TIP3   OH244287   7.618   7.316   5.040
14781TIP3    H144288   7.525   7.299   5.051
14781TIP3    H244289   7.659   7.229   5.041
14782TIP3   OH244290   6.333   0.491   2.916
14782TIP3    H144291   6.365   0.492   2.825
14782TIP3    H244292   6.367   0.572   2.954
14783TIP3   OH244293   5.176   1.716   0.741
14783TIP3    H144294   5.188   1.666   0.660
14783TIP3    H244295   5.248   1.687   0.798
14784TIP3   OH244296   7.201   5.434   1.640
14784TIP3    H144297   7.294   5.454   1.636
14784TIP3    H244298   7.176   5.417   1.549
14785TIP3   OH244299   8.112   5.290   0.427
14785TIP3    H144300   8.031   5.240   0.433
14785TIP3    H244301   8.119   5.314   0.335
14786TIP3   OH244302   4.808   5.882   5.124
14786TIP3    H144303   4.752   5.897   5.048
14786TIP3    H244304   4.828   5.970   5.157
14787TIP3   OH244305   4.428   2.450   4.670
14787TIP3    H144306   4.459   2.388   4.736
14787TIP3    H244307   4.342   2.478   4.703
14788TIP3   OH244308   2.536   0.935   3.508
14788TIP3    H144309   2.572   0.934   3.596
14788TIP3    H244310   2.469   0.867   3.508
14789TIP3   OH244311   2.624   6.456   6.123
14789TIP3    H144312   2.718   6.457   6.143
14789TIP3    H244313   2.613   6.528   6.061
14790TIP3   OH244314   5.226   2.312   4.975
14790TIP3    H144315   5.223   2.361   5.057
14790TIP3    H244316   5.216   2.378   4.907
14791TIP3   OH244317   1.693   3.497   1.197
14791TIP3    H144318   1.716   3.492   1.104
14791TIP3    H244319   1.639   3.576   1.204
14792TIP3   OH244320   4.458   1.517   6.035
14792TIP3    H144321   4.517   1.542   5.964
14792TIP3    H244322   4.461   1.421   6.036
14793TIP3   OH244323   5.499   3.299   6.388
14793TIP3    H144324   5.568   3.345   6.436
14793TIP3    H244325   5.419   3.319   6.436
14794TIP3   OH244326   0.416   0.747   1.272
14794TIP3    H144327   0.498   0.790   1.298
14794TIP3    H244328   0.384   0.799   1.199
14795TIP3   OH244329   3.160   3.843   0.405
14795TIP3    H144330   3.125   3.932   0.399
14795TIP3    H244331   3.084   3.789   0.424
14796TIP3   OH244332   1.482   4.166   4.753
14796TIP3    H144333   1.462   4.129   4.667
14796TIP3    H244334   1.424   4.241   4.761
14797TIP3   OH244335   8.178   2.614   5.608
14797TIP3    H144336   8.168   2.633   5.701
14797TIP3    H244337   8.132   2.532   5.595
14798TIP3   OH244338   7.145   5.388   2.473
14798TIP3    H144339   7.145   5.328   2.398
14798TIP3    H244340   7.187   5.467   2.441
14799TIP3   OH244341   1.290   1.116   1.196
14799TIP3    H144342   1.204   1.077   1.212
14799TIP3    H244343   1.343   1.044   1.162
14800TIP3   OH244344   4.132   2.996   2.116
14800TIP3    H144345   4.062   2.969   2.176
14800TIP3    H244346   4.132   2.929   2.048
14801TIP3   OH244347   2.738   3.166   0.056
14801TIP3    H144348   2.752   3.176  -0.038
14801TIP3    H244349   2.771   3.079   0.076
14802TIP3   OH244350   4.318   3.904   2.609
14802TIP3    H144351   4.264   3.886   2.532
14802TIP3    H244352   4.278   3.852   2.679
14803TIP3   OH244353   0.930   5.592   2.339
14803TIP3    H144354   0.947   5.516   2.395
14803TIP3    H244355   0.882   5.558   2.265
14804TIP3   OH244356   6.606   5.282   6.139
14804TIP3    H144357   6.515   5.285   6.166
14804TIP3    H244358   6.648   5.223   6.202
14805TIP3   OH244359   6.473   5.019   1.310
14805TIP3    H144360   6.531   5.051   1.379
14805TIP3    H244361   6.421   5.095   1.285
14806TIP3   OH244362   0.097   3.267   3.723
14806TIP3    H144363   0.068   3.296   3.636
14806TIP3    H244364   0.087   3.345   3.778
14807TIP3   OH244365   1.294   3.897   2.194
14807TIP3    H144366   1.326   3.807   2.193
14807TIP3    H244367   1.370   3.949   2.218
14808TIP3   OH244368   4.985   6.453   2.731
14808TIP3    H144369   4.896   6.446   2.697
14808TIP3    H244370   4.993   6.380   2.792
14809TIP3   OH244371   4.776   5.140   3.374
14809TIP3    H144372   4.698   5.158   3.322
14809TIP3    H244373   4.809   5.057   3.341
14810TIP3   OH244374   3.480   5.294   6.736
14810TIP3    H144375   3.402   5.308   6.790
14810TIP3    H244376   3.553   5.325   6.790
14811TIP3   OH244377   0.438   6.333   4.909
14811TIP3    H144378   0.526   6.365   4.931
14811TIP3    H244379   0.391   6.412   4.880
14812TIP3   OH244380   7.383   6.018   2.086
14812TIP3    H144381   7.320   5.982   2.024
14812TIP3    H244382   7.468   6.000   2.048
14813TIP3   OH244383   5.438   7.794   4.123
14813TIP3    H144384   5.419   7.708   4.087
14813TIP3    H244385   5.360   7.846   4.106
14814TIP3   OH244386   7.947   2.802   2.440
14814TIP3    H144387   7.985   2.831   2.523
14814TIP3    H244388   7.866   2.758   2.465
14815TIP3   OH244389   7.894   2.039   5.037
14815TIP3    H144390   7.800   2.048   5.053
14815TIP3    H244391   7.916   2.113   4.981
14816TIP3   OH244392   3.104   3.978   3.462
14816TIP3    H144393   3.160   4.006   3.535
14816TIP3    H244394   3.016   4.004   3.488
14817TIP3   OH244395   2.595   4.221   6.593
14817TIP3    H144396   2.532   4.290   6.570
14817TIP3    H244397   2.669   4.236   6.534
14818TIP3   OH244398   6.989   5.873   6.126
14818TIP3    H144399   7.033   5.789   6.114
14818TIP3    H244400   6.896   5.853   6.121
14819TIP3   OH244401   1.751   0.998   1.171
14819TIP3    H144402   1.786   1.087   1.182
14819TIP3    H244403   1.760   0.959   1.258
14820TIP3   OH244404   4.105   7.105   4.958
14820TIP3    H144405   4.128   7.053   5.035
14820TIP3    H244406   4.175   7.170   4.950
14821TIP3   OH244407   4.348   0.803   3.920
14821TIP3    H144408   4.423   0.854   3.952
14821TIP3    H244409   4.306   0.770   4.000
14822TIP3   OH244410   1.218   0.562   0.596
14822TIP3    H144411   1.129   0.545   0.628
14822TIP3    H244412   1.253   0.475   0.575
14823TIP3   OH244413   4.614   4.079   5.207
14823TIP3    H144414   4.590   4.037   5.124
14823TIP3    H244415   4.601   4.172   5.191
14824TIP3   OH244416   4.265   6.792   1.752
14824TIP3    H144417   4.204   6.839   1.809
14824TIP3    H244418   4.267   6.843   1.671
14825TIP3   OH244419   7.045   4.924   5.831
14825TIP3    H144420   6.987   4.919   5.907
14825TIP3    H244421   7.112   4.987   5.857
14826TIP3   OH244422   1.806   4.885   2.596
14826TIP3    H144423   1.878   4.885   2.533
14826TIP3    H244424   1.802   4.976   2.627
14827TIP3   OH244425   0.229   0.687   2.715
14827TIP3    H144426   0.209   0.593   2.710
14827TIP3    H244427   0.157   0.724   2.767
14828TIP3   OH244428   2.319   3.601   1.435
14828TIP3    H144429   2.356   3.679   1.394
14828TIP3    H244430   2.298   3.543   1.362
14829TIP3   OH244431   3.349   0.625   6.239
14829TIP3    H144432   3.319   0.630   6.330
14829TIP3    H244433   3.388   0.711   6.222
14830TIP3   OH244434   2.814   5.970   2.942
14830TIP3    H144435   2.745   5.911   2.910
14830TIP3    H244436   2.892   5.916   2.945
14831TIP3   OH244437   1.432   6.065   2.640
14831TIP3    H144438   1.521   6.099   2.650
14831TIP3    H244439   1.428   5.991   2.701
14832TIP3   OH244440   4.162   2.219   4.673
14832TIP3    H144441   4.113   2.139   4.656
14832TIP3    H244442   4.228   2.194   4.738
14833TIP3   OH244443   7.470   5.064   0.198
14833TIP3    H144444   7.444   5.154   0.177
14833TIP3    H244445   7.428   5.046   0.282
14834TIP3   OH244446   1.404   2.188   1.143
14834TIP3    H144447   1.457   2.216   1.069
14834TIP3    H244448   1.316   2.176   1.107
14835TIP3   OH244449   2.804   4.495   2.875
14835TIP3    H144450   2.751   4.441   2.816
14835TIP3    H244451   2.843   4.433   2.936
14836TIP3   OH244452   0.147   0.352   4.765
14836TIP3    H144453   0.122   0.435   4.805
14836TIP3    H244454   0.225   0.325   4.813
14837TIP3   OH244455   4.493   0.138   2.146
14837TIP3    H144456   4.472   0.173   2.059
14837TIP3    H244457   4.579   0.097   2.135
14838TIP3   OH244458   6.642   3.744   1.706
14838TIP3    H144459   6.615   3.728   1.616
14838TIP3    H244460   6.633   3.838   1.717
14839TIP3   OH244461   0.815   3.419   1.619
14839TIP3    H144462   0.860   3.490   1.665
14839TIP3    H244463   0.883   3.378   1.567
   8.30293   7.82808   6.77931   0.00000   0.00000  -2.76764   0.00000  -2.76764  -3.91404
