Title t= 342.00000 step= 171000
19942
    1ASP      N    1   0.884   1.812   3.681
    1ASP    HT1    2   0.809   1.766   3.627
    1ASP    HT2    3   0.845   1.870   3.757
    1ASP    HT3    4   0.933   1.736   3.734
    1ASP     CA    5   0.995   1.884   3.610
    1ASP     HA    6   0.943   1.964   3.560
    1ASP     CB    7   1.081   1.944   3.726
    1ASP    HB1    8   1.111   1.877   3.809
    1ASP    HB2    9   1.020   2.019   3.780
    1ASP     CG   10   1.199   2.020   3.663
    1ASP    OD1   11   1.302   2.032   3.733
    1ASP    OD2   12   1.190   2.066   3.546
    1ASP      C   13   1.060   1.795   3.507
    1ASP      O   14   1.072   1.820   3.390
    2ALA      N   15   1.120   1.680   3.549
    2ALA     HN   16   1.102   1.660   3.645
    2ALA     CA   17   1.190   1.576   3.470
    2ALA     HA   18   1.272   1.628   3.423
    2ALA     CB   19   1.250   1.472   3.574
    2ALA    HB1   20   1.313   1.530   3.645
    2ALA    HB2   21   1.308   1.386   3.536
    2ALA    HB3   22   1.169   1.417   3.626
    2ALA      C   23   1.105   1.499   3.365
    2ALA      O   24   0.978   1.504   3.365
    3ASP      N   25   1.179   1.459   3.259
    3ASP     HN   26   1.277   1.474   3.259
    3ASP     CA   27   1.138   1.428   3.120
    3ASP     HA   28   1.144   1.515   3.057
    3ASP     CB   29   1.231   1.319   3.062
    3ASP    HB1   30   1.216   1.301   2.954
    3ASP    HB2   31   1.205   1.223   3.114
    3ASP     CG   32   1.380   1.345   3.079
    3ASP    OD1   33   1.455   1.276   3.151
    3ASP    OD2   34   1.426   1.442   3.019
    3ASP      C   35   0.992   1.378   3.087
    3ASP      O   36   0.926   1.300   3.163
    4GLY      N   37   0.938   1.422   2.976
    4GLY     HN   38   0.990   1.488   2.923
    4GLY     CA   39   0.811   1.378   2.923
    4GLY    HA1   40   0.794   1.452   2.846
    4GLY    HA2   41   0.722   1.381   2.985
    4GLY      C   42   0.817   1.249   2.844
    4GLY      O   43   0.915   1.172   2.849
    5PRO      N   44   0.717   1.215   2.770
    5PRO     CD   45   0.582   1.275   2.775
    5PRO    HD1   46   0.581   1.368   2.716
    5PRO    HD2   47   0.537   1.291   2.875
    5PRO     CA   48   0.729   1.106   2.676
    5PRO     HA   49   0.744   1.013   2.730
    5PRO     CB   50   0.588   1.099   2.608
    5PRO    HB1   51   0.554   0.997   2.579
    5PRO    HB2   52   0.600   1.156   2.513
    5PRO     CG   53   0.493   1.172   2.701
    5PRO    HG1   54   0.406   1.217   2.648
    5PRO    HG2   55   0.455   1.099   2.776
    5PRO      C   56   0.840   1.110   2.576
    5PRO      O   57   0.888   1.224   2.539
    6GLY      N   58   0.884   0.988   2.536
    6GLY     HN   59   0.841   0.903   2.566
    6GLY     CA   60   0.975   0.962   2.425
    6GLY    HA1   61   0.997   0.857   2.417
    6GLY    HA2   62   1.066   1.016   2.448
    6GLY      C   63   0.933   1.016   2.292
    6GLY      O   64   0.816   1.048   2.267
    7ASP      N   65   1.030   1.044   2.201
    7ASP     HN   66   1.120   1.007   2.221
    7ASP     CA   67   1.008   1.093   2.066
    7ASP     HA   68   0.959   1.188   2.076
    7ASP     CB   69   1.144   1.114   1.993
    7ASP    HB1   70   1.114   1.171   1.902
    7ASP    HB2   71   1.197   1.019   1.972
    7ASP     CG   72   1.242   1.198   2.068
    7ASP    OD1   73   1.366   1.166   2.059
    7ASP    OD2   74   1.202   1.304   2.130
    7ASP      C   75   0.916   1.010   1.978
    7ASP      O   76   0.929   0.887   1.997
    8PRO      N   77   0.827   1.056   1.887
    8PRO     CD   78   0.812   1.206   1.863
    8PRO    HD1   79   0.892   1.241   1.794
    8PRO    HD2   80   0.826   1.269   1.953
    8PRO     CA   81   0.719   0.977   1.833
    8PRO     HA   82   0.653   0.942   1.911
    8PRO     CB   83   0.640   1.075   1.738
    8PRO    HB1   84   0.537   1.035   1.729
    8PRO    HB2   85   0.688   1.080   1.638
    8PRO     CG   86   0.673   1.220   1.793
    8PRO    HG1   87   0.677   1.289   1.706
    8PRO    HG2   88   0.601   1.257   1.870
    8PRO      C   89   0.766   0.845   1.764
    8PRO      O   90   0.706   0.737   1.789
    9ASP      N   91   0.877   0.854   1.681
    9ASP     HN   92   0.931   0.937   1.669
    9ASP     CA   93   0.923   0.750   1.593
    9ASP     HA   94   0.848   0.673   1.584
    9ASP     CB   95   0.951   0.815   1.457
    9ASP    HB1   96   1.023   0.753   1.399
    9ASP    HB2   97   1.004   0.912   1.465
    9ASP     CG   98   0.831   0.834   1.372
    9ASP    OD1   99   0.853   0.846   1.246
    9ASP    OD2  100   0.714   0.847   1.418
    9ASP      C  101   1.050   0.681   1.655
    9ASP      O  102   1.105   0.592   1.591
   10ALA      N  103   1.088   0.722   1.783
   10ALA     HN  104   1.037   0.798   1.823
   10ALA     CA  105   1.193   0.646   1.852
   10ALA     HA  106   1.268   0.615   1.781
   10ALA     CB  107   1.254   0.727   1.964
   10ALA    HB1  108   1.329   0.670   2.023
   10ALA    HB2  109   1.181   0.754   2.044
   10ALA    HB3  110   1.307   0.815   1.920
   10ALA      C  111   1.146   0.504   1.902
   10ALA      O  112   1.063   0.490   1.987
   11GLY      N  113   1.218   0.407   1.857
   11GLY     HN  114   1.295   0.426   1.796
   11GLY     CA  115   1.207   0.270   1.899
   11GLY    HA1  116   1.111   0.224   1.886
   11GLY    HA2  117   1.237   0.258   2.002
   11GLY      C  118   1.301   0.179   1.819
   11GLY    OT1  119   1.256   0.125   1.711
   11GLY    OT2  120   1.423   0.164   1.852
   12LIT    LIT  121   2.098   1.850   0.271
   13LIT    LIT  122   0.903   3.103   1.093
   14LIT    LIT  123   2.214   0.356   3.297
   15LIT    LIT  124   2.148   2.043   1.302
   16LIT    LIT  125   4.419   5.896   2.748
   17LIT    LIT  126   2.335   4.232   3.272
   18LIT    LIT  127   6.148   5.118   1.863
   19LIT    LIT  128   0.275   0.700   0.518
   20LIT    LIT  129   4.471   4.285   0.108
   21LIT    LIT  130   2.582   5.143   3.390
   22LIT    LIT  131   3.450   2.843   0.935
   23LIT    LIT  132   1.709   2.665   3.337
   24LIT    LIT  133   2.060   5.682   3.946
   25LIT    LIT  134   4.344   0.951   1.000
   26LIT    LIT  135   4.529   4.231   0.640
   27LIT    LIT  136   1.127   0.125   2.325
   28LIT    LIT  137   1.393   2.072   3.884
   29LIT    LIT  138   2.671   3.951   4.242
   30LIT    LIT  139   1.841   2.399   2.357
   31LIT    LIT  140   4.687   1.348   4.220
   32LIT    LIT  141   3.344   3.515   2.145
   33LIT    LIT  142   5.267   1.789   3.036
   34CLA    CLA  143   5.878   2.927   2.212
   35CLA    CLA  144   5.390   0.068   3.889
   36CLA    CLA  145   4.266   1.444   4.876
   37CLA    CLA  146   6.296   5.715   3.773
   38CLA    CLA  147   1.474   4.190   5.118
   39CLA    CLA  148   1.923   3.112   1.687
   40CLA    CLA  149   2.072   0.909   4.205
   41CLA    CLA  150   1.132   2.876   1.370
   42CLA    CLA  151   2.502   3.477   1.614
   43CLA    CLA  152   2.181   3.065   2.419
   44CLA    CLA  153   4.844   4.437   3.830
   45CLA    CLA  154   0.173   5.370   2.664
   46CLA    CLA  155   3.884   5.493   3.088
   47CLA    CLA  156   4.602   4.096   0.807
   48CLA    CLA  157   3.005   3.960   3.872
   49CLA    CLA  158   0.066   5.360   0.839
   50CLA    CLA  159   2.977   2.068   3.663
   51CLA    CLA  160   2.357   0.395   1.660
   52TIP3   OH2  161   5.285   1.855   2.690
   52TIP3    H1  162   5.239   1.778   2.724
   52TIP3    H2  163   5.342   1.821   2.621
   53TIP3   OH2  164   3.218   4.579   0.343
   53TIP3    H1  165   3.134   4.582   0.389
   53TIP3    H2  166   3.231   4.486   0.324
   54TIP3   OH2  167   6.362   1.312   5.079
   54TIP3    H1  168   6.340   1.404   5.089
   54TIP3    H2  169   6.358   1.276   5.168
   55TIP3   OH2  170   3.082   2.882   0.602
   55TIP3    H1  171   3.003   2.855   0.648
   55TIP3    H2  172   3.065   2.861   0.510
   56TIP3   OH2  173   5.078   0.936   1.054
   56TIP3    H1  174   5.077   0.981   0.970
   56TIP3    H2  175   5.168   0.906   1.065
   57TIP3   OH2  176   0.804   4.477   0.709
   57TIP3    H1  177   0.880   4.419   0.711
   57TIP3    H2  178   0.842   4.565   0.706
   58TIP3   OH2  179   0.403   2.746   2.949
   58TIP3    H1  180   0.388   2.656   2.980
   58TIP3    H2  181   0.438   2.735   2.861
   59TIP3   OH2  182   2.008   5.664   1.175
   59TIP3    H1  183   2.064   5.599   1.134
   59TIP3    H2  184   1.989   5.630   1.262
   60TIP3   OH2  185   2.092   0.217   2.278
   60TIP3    H1  186   2.049   0.179   2.354
   60TIP3    H2  187   2.162   0.155   2.257
   61TIP3   OH2  188   4.029   3.758   1.375
   61TIP3    H1  189   3.977   3.679   1.361
   61TIP3    H2  190   4.014   3.779   1.468
   62TIP3   OH2  191   4.691   3.529   4.356
   62TIP3    H1  192   4.663   3.457   4.411
   62TIP3    H2  193   4.663   3.505   4.268
   63TIP3   OH2  194   5.876   3.628   0.009
   63TIP3    H1  195   5.854   3.660   0.097
   63TIP3    H2  196   5.915   3.542   0.024
   64TIP3   OH2  197   3.947   4.706   1.479
   64TIP3    H1  198   4.040   4.694   1.494
   64TIP3    H2  199   3.936   4.799   1.462
   65TIP3   OH2  200   4.391   4.028   4.017
   65TIP3    H1  201   4.300   4.000   4.023
   65TIP3    H2  202   4.391   4.092   3.945
   66TIP3   OH2  203   3.170   1.493   3.399
   66TIP3    H1  204   3.120   1.575   3.400
   66TIP3    H2  205   3.104   1.424   3.403
   67TIP3   OH2  206   1.628   4.929   0.295
   67TIP3    H1  207   1.571   4.882   0.357
   67TIP3    H2  208   1.568   4.985   0.246
   68TIP3   OH2  209   2.874   0.973   0.561
   68TIP3    H1  210   2.849   0.961   0.469
   68TIP3    H2  211   2.794   0.953   0.610
   69TIP3   OH2  212   1.788   4.973   3.432
   69TIP3    H1  213   1.698   4.947   3.451
   69TIP3    H2  214   1.787   5.000   3.340
   70TIP3   OH2  215   2.687   5.887   1.626
   70TIP3    H1  216   2.676   5.859   1.535
   70TIP3    H2  217   2.638   5.969   1.632
   71TIP3   OH2  218   4.626   4.209   2.483
   71TIP3    H1  219   4.533   4.213   2.507
   71TIP3    H2  220   4.628   4.161   2.401
   72TIP3   OH2  221   4.276   0.336   4.844
   72TIP3    H1  222   4.196   0.340   4.792
   72TIP3    H2  223   4.345   0.366   4.785
   73TIP3   OH2  224   1.494   5.368   2.159
   73TIP3    H1  225   1.421   5.418   2.194
   73TIP3    H2  226   1.490   5.382   2.064
   74TIP3   OH2  227   3.729   1.865   4.350
   74TIP3    H1  228   3.744   1.790   4.408
   74TIP3    H2  229   3.638   1.858   4.324
   75TIP3   OH2  230   4.955   0.068   3.781
   75TIP3    H1  231   4.958  -0.021   3.747
   75TIP3    H2  232   4.999   0.064   3.865
   76TIP3   OH2  233   0.049   1.518   0.507
   76TIP3    H1  234  -0.025   1.467   0.474
   76TIP3    H2  235   0.098   1.458   0.562
   77TIP3   OH2  236   0.913   0.093   4.319
   77TIP3    H1  237   0.980   0.063   4.381
   77TIP3    H2  238   0.832   0.055   4.352
   78TIP3   OH2  239   0.394   2.102   0.324
   78TIP3    H1  240   0.419   2.070   0.238
   78TIP3    H2  241   0.394   2.197   0.316
   79TIP3   OH2  242   5.235   1.326   2.465
   79TIP3    H1  243   5.152   1.281   2.449
   79TIP3    H2  244   5.302   1.262   2.441
   80TIP3   OH2  245   4.108   1.821   4.591
   80TIP3    H1  246   4.142   1.813   4.680
   80TIP3    H2  247   4.155   1.753   4.542
   81TIP3   OH2  248   5.636   3.116   3.427
   81TIP3    H1  249   5.667   3.184   3.367
   81TIP3    H2  250   5.716   3.077   3.462
   82TIP3   OH2  251   1.785   1.065   1.786
   82TIP3    H1  252   1.736   1.133   1.741
   82TIP3    H2  253   1.729   1.040   1.860
   83TIP3   OH2  254   0.491   1.886   3.587
   83TIP3    H1  255   0.412   1.896   3.535
   83TIP3    H2  256   0.557   1.857   3.524
   84TIP3   OH2  257   2.730   0.609   4.981
   84TIP3    H1  258   2.809   0.659   5.002
   84TIP3    H2  259   2.670   0.628   5.053
   85TIP3   OH2  260   1.248   4.737   4.453
   85TIP3    H1  261   1.219   4.647   4.442
   85TIP3    H2  262   1.327   4.730   4.507
   86TIP3   OH2  263   0.305   1.913   2.383
   86TIP3    H1  264   0.339   1.953   2.462
   86TIP3    H2  265   0.281   1.824   2.409
   87TIP3   OH2  266   3.397   5.617   0.251
   87TIP3    H1  267   3.440   5.534   0.268
   87TIP3    H2  268   3.406   5.666   0.333
   88TIP3   OH2  269   4.962   1.982   1.711
   88TIP3    H1  270   4.926   1.992   1.799
   88TIP3    H2  271   5.001   1.895   1.710
   89TIP3   OH2  272   0.139   1.967   3.783
   89TIP3    H1  273   0.185   1.947   3.701
   89TIP3    H2  274   0.088   2.045   3.764
   90TIP3   OH2  275   4.667   5.696   1.977
   90TIP3    H1  276   4.648   5.630   2.044
   90TIP3    H2  277   4.707   5.647   1.905
   91TIP3   OH2  278   3.775   4.729   3.728
   91TIP3    H1  279   3.785   4.660   3.663
   91TIP3    H2  280   3.716   4.793   3.687
   92TIP3   OH2  281   1.332   4.712   4.815
   92TIP3    H1  282   1.381   4.639   4.853
   92TIP3    H2  283   1.391   4.750   4.749
   93TIP3   OH2  284   4.413   3.711   1.288
   93TIP3    H1  285   4.407   3.618   1.267
   93TIP3    H2  286   4.500   3.737   1.256
   94TIP3   OH2  287   0.027   0.035   2.358
   94TIP3    H1  288   0.081   0.110   2.332
   94TIP3    H2  289   0.039  -0.029   2.288
   95TIP3   OH2  290   3.808   0.939   4.577
   95TIP3    H1  291   3.777   0.973   4.661
   95TIP3    H2  292   3.894   0.978   4.566
   96TIP3   OH2  293   6.394   4.521   0.335
   96TIP3    H1  294   6.303   4.529   0.366
   96TIP3    H2  295   6.388   4.530   0.240
   97TIP3   OH2  296   4.564   2.626   3.946
   97TIP3    H1  297   4.570   2.539   3.985
   97TIP3    H2  298   4.600   2.685   4.012
   98TIP3   OH2  299   2.311   0.855   4.821
   98TIP3    H1  300   2.335   0.872   4.730
   98TIP3    H2  301   2.316   0.759   4.829
   99TIP3   OH2  302   3.159   1.867   4.015
   99TIP3    H1  303   3.170   1.957   3.985
   99TIP3    H2  304   3.085   1.833   3.964
  100TIP3   OH2  305   4.916   1.037   3.492
  100TIP3    H1  306   4.999   0.991   3.479
  100TIP3    H2  307   4.855   0.994   3.433
  101TIP3   OH2  308   5.709   5.081   3.688
  101TIP3    H1  309   5.696   5.072   3.593
  101TIP3    H2  310   5.685   5.171   3.707
  102TIP3   OH2  311   5.762   2.776   4.481
  102TIP3    H1  312   5.742   2.823   4.561
  102TIP3    H2  313   5.826   2.831   4.435
  103TIP3   OH2  314   4.277   2.432   3.366
  103TIP3    H1  315   4.365   2.397   3.376
  103TIP3    H2  316   4.283   2.492   3.292
  104TIP3   OH2  317   4.601   2.215   2.656
  104TIP3    H1  318   4.661   2.175   2.592
  104TIP3    H2  319   4.583   2.302   2.620
  105TIP3   OH2  320   1.068   2.934   0.511
  105TIP3    H1  321   0.980   2.951   0.475
  105TIP3    H2  322   1.055   2.865   0.576
  106TIP3   OH2  323   0.075   3.025   1.602
  106TIP3    H1  324   0.095   2.931   1.608
  106TIP3    H2  325   0.060   3.052   1.692
  107TIP3   OH2  326   4.757   1.253   0.007
  107TIP3    H1  327   4.820   1.252   0.079
  107TIP3    H2  328   4.695   1.183   0.029
  108TIP3   OH2  329   5.822   2.542   2.819
  108TIP3    H1  330   5.779   2.483   2.882
  108TIP3    H2  331   5.807   2.629   2.854
  109TIP3   OH2  332   5.894   2.423   0.368
  109TIP3    H1  333   5.937   2.391   0.289
  109TIP3    H2  334   5.956   2.485   0.407
  110TIP3   OH2  335   3.881   4.355   4.893
  110TIP3    H1  336   3.840   4.436   4.921
  110TIP3    H2  337   3.913   4.315   4.974
  111TIP3   OH2  338   1.490   3.258   0.685
  111TIP3    H1  339   1.530   3.171   0.688
  111TIP3    H2  340   1.563   3.317   0.665
  112TIP3   OH2  341   1.169   2.592   2.552
  112TIP3    H1  342   1.128   2.520   2.600
  112TIP3    H2  343   1.248   2.611   2.602
  113TIP3   OH2  344   0.198   3.200   0.419
  113TIP3    H1  345   0.206   3.266   0.487
  113TIP3    H2  346   0.131   3.235   0.359
  114TIP3   OH2  347   1.703   4.255   2.305
  114TIP3    H1  348   1.700   4.350   2.303
  114TIP3    H2  349   1.629   4.227   2.250
  115TIP3   OH2  350   0.087   0.910   4.525
  115TIP3    H1  351   0.011   0.963   4.552
  115TIP3    H2  352   0.051   0.848   4.461
  116TIP3   OH2  353   2.509   0.345   0.878
  116TIP3    H1  354   2.570   0.313   0.945
  116TIP3    H2  355   2.436   0.381   0.927
  117TIP3   OH2  356   1.700   4.560   1.938
  117TIP3    H1  357   1.795   4.548   1.936
  117TIP3    H2  358   1.680   4.607   1.857
  118TIP3   OH2  359   2.744   3.715   2.047
  118TIP3    H1  360   2.708   3.640   2.000
  118TIP3    H2  361   2.672   3.747   2.101
  119TIP3   OH2  362   3.526   4.988   2.888
  119TIP3    H1  363   3.521   4.899   2.924
  119TIP3    H2  364   3.435   5.017   2.884
  120TIP3   OH2  365   5.871   3.620   1.557
  120TIP3    H1  366   5.934   3.568   1.507
  120TIP3    H2  367   5.788   3.575   1.545
  121TIP3   OH2  368   3.969   0.313   1.588
  121TIP3    H1  369   4.011   0.235   1.550
  121TIP3    H2  370   3.878   0.308   1.561
  122TIP3   OH2  371   6.220   5.819   2.416
  122TIP3    H1  372   6.241   5.751   2.479
  122TIP3    H2  373   6.238   5.901   2.462
  123TIP3   OH2  374   1.655   5.298   1.842
  123TIP3    H1  375   1.626   5.253   1.921
  123TIP3    H2  376   1.678   5.385   1.872
  124TIP3   OH2  377   2.241   5.047   1.072
  124TIP3    H1  378   2.295   4.987   1.020
  124TIP3    H2  379   2.263   5.134   1.038
  125TIP3   OH2  380   1.601   2.151   5.046
  125TIP3    H1  381   1.588   2.118   4.958
  125TIP3    H2  382   1.696   2.159   5.056
  126TIP3   OH2  383   0.484   3.329   0.760
  126TIP3    H1  384   0.391   3.320   0.777
  126TIP3    H2  385   0.501   3.423   0.766
  127TIP3   OH2  386   1.709   4.068   3.938
  127TIP3    H1  387   1.660   3.986   3.933
  127TIP3    H2  388   1.668   4.125   3.873
  128TIP3   OH2  389   2.094   0.478   4.918
  128TIP3    H1  390   2.058   0.536   4.851
  128TIP3    H2  391   2.022   0.464   4.979
  129TIP3   OH2  392   0.783   1.932   2.428
  129TIP3    H1  393   0.878   1.936   2.425
  129TIP3    H2  394   0.755   2.014   2.387
  130TIP3   OH2  395   5.789   3.273   5.142
  130TIP3    H1  396   5.793   3.208   5.071
  130TIP3    H2  397   5.827   3.352   5.104
  131TIP3   OH2  398   2.135   5.154   3.191
  131TIP3    H1  399   2.053   5.144   3.240
  131TIP3    H2  400   2.140   5.248   3.172
  132TIP3   OH2  401   1.941   4.936   1.209
  132TIP3    H1  402   1.916   5.015   1.162
  132TIP3    H2  403   1.879   4.931   1.282
  133TIP3   OH2  404   1.497   2.000   4.233
  133TIP3    H1  405   1.422   1.944   4.252
  133TIP3    H2  406   1.479   2.081   4.281
  134TIP3   OH2  407   4.310   3.477   0.634
  134TIP3    H1  408   4.345   3.446   0.718
  134TIP3    H2  409   4.215   3.480   0.648
  135TIP3   OH2  410   0.642   2.895   2.925
  135TIP3    H1  411   0.568   2.853   2.968
  135TIP3    H2  412   0.717   2.840   2.946
  136TIP3   OH2  413   5.662   3.655   2.188
  136TIP3    H1  414   5.653   3.750   2.197
  136TIP3    H2  415   5.601   3.619   2.253
  137TIP3   OH2  416   4.122   0.825   0.579
  137TIP3    H1  417   4.066   0.824   0.657
  137TIP3    H2  418   4.128   0.918   0.556
  138TIP3   OH2  419   0.939   1.640   4.256
  138TIP3    H1  420   0.906   1.656   4.345
  138TIP3    H2  421   0.974   1.725   4.228
  139TIP3   OH2  422   0.391   3.941   3.576
  139TIP3    H1  423   0.382   3.930   3.482
  139TIP3    H2  424   0.302   3.930   3.610
  140TIP3   OH2  425   0.797   4.112   4.033
  140TIP3    H1  426   0.733   4.142   4.097
  140TIP3    H2  427   0.752   4.120   3.949
  141TIP3   OH2  428   6.004   3.830   1.224
  141TIP3    H1  429   6.005   3.915   1.269
  141TIP3    H2  430   5.922   3.831   1.174
  142TIP3   OH2  431   1.982   0.142   0.188
  142TIP3    H1  432   1.973   0.053   0.152
  142TIP3    H2  433   1.930   0.196   0.129
  143TIP3   OH2  434   0.264   0.734   1.841
  143TIP3    H1  435   0.278   0.659   1.782
  143TIP3    H2  436   0.353   0.760   1.867
  144TIP3   OH2  437   1.604   2.146   0.247
  144TIP3    H1  438   1.578   2.168   0.337
  144TIP3    H2  439   1.538   2.188   0.192
  145TIP3   OH2  440   1.150   4.876   2.847
  145TIP3    H1  441   1.060   4.866   2.877
  145TIP3    H2  442   1.159   4.813   2.776
  146TIP3   OH2  443   1.875   4.623   4.013
  146TIP3    H1  444   1.819   4.662   4.080
  146TIP3    H2  445   1.814   4.579   3.953
  147TIP3   OH2  446   2.035   3.008   0.766
  147TIP3    H1  447   1.974   2.939   0.742
  147TIP3    H2  448   2.119   2.979   0.729
  148TIP3   OH2  449   4.948   3.117   2.274
  148TIP3    H1  450   4.930   3.211   2.274
  148TIP3    H2  451   5.034   3.110   2.233
  149TIP3   OH2  452   6.129   5.737   2.784
  149TIP3    H1  453   6.105   5.646   2.764
  149TIP3    H2  454   6.045   5.781   2.798
  150TIP3   OH2  455   1.818   5.619   3.212
  150TIP3    H1  456   1.765   5.561   3.158
  150TIP3    H2  457   1.783   5.609   3.300
  151TIP3   OH2  458   4.645   1.848   1.974
  151TIP3    H1  459   4.731   1.873   1.939
  151TIP3    H2  460   4.651   1.867   2.068
  152TIP3   OH2  461   2.822   1.187   1.967
  152TIP3    H1  462   2.915   1.180   1.949
  152TIP3    H2  463   2.810   1.141   2.050
  153TIP3   OH2  464   5.459   4.426   3.295
  153TIP3    H1  465   5.484   4.432   3.387
  153TIP3    H2  466   5.501   4.502   3.254
  154TIP3   OH2  467   0.705   2.891   4.888
  154TIP3    H1  468   0.645   2.948   4.840
  154TIP3    H2  469   0.723   2.939   4.969
  155TIP3   OH2  470   0.291   4.083   2.775
  155TIP3    H1  471   0.373   4.034   2.769
  155TIP3    H2  472   0.272   4.109   2.685
  156TIP3   OH2  473   1.693   4.512   1.486
  156TIP3    H1  474   1.644   4.497   1.405
  156TIP3    H2  475   1.666   4.440   1.543
  157TIP3   OH2  476   3.092   5.771   1.208
  157TIP3    H1  477   3.008   5.730   1.228
  157TIP3    H2  478   3.072   5.863   1.196
  158TIP3   OH2  479   3.503   5.547   3.228
  158TIP3    H1  480   3.585   5.525   3.271
  158TIP3    H2  481   3.529   5.592   3.148
  159TIP3   OH2  482   2.704   5.424   1.251
  159TIP3    H1  483   2.698   5.427   1.156
  159TIP3    H2  484   2.651   5.349   1.276
  160TIP3   OH2  485   0.776   3.692   0.346
  160TIP3    H1  486   0.757   3.665   0.436
  160TIP3    H2  487   0.690   3.700   0.304
  161TIP3   OH2  488   2.252   5.283   1.409
  161TIP3    H1  489   2.225   5.194   1.387
  161TIP3    H2  490   2.209   5.301   1.492
  162TIP3   OH2  491   5.082   5.456   0.462
  162TIP3    H1  492   5.064   5.520   0.531
  162TIP3    H2  493   4.999   5.444   0.417
  163TIP3   OH2  494   3.432   5.237   2.746
  163TIP3    H1  495   3.510   5.241   2.801
  163TIP3    H2  496   3.401   5.328   2.741
  164TIP3   OH2  497   5.070   0.604   4.134
  164TIP3    H1  498   4.998   0.560   4.089
  164TIP3    H2  499   5.038   0.693   4.148
  165TIP3   OH2  500   2.084   3.284   3.048
  165TIP3    H1  501   2.037   3.368   3.052
  165TIP3    H2  502   2.050   3.241   2.969
  166TIP3   OH2  503   2.731   5.743   0.150
  166TIP3    H1  504   2.761   5.778   0.234
  166TIP3    H2  505   2.692   5.659   0.172
  167TIP3   OH2  506   6.205   1.811   2.381
  167TIP3    H1  507   6.110   1.819   2.371
  167TIP3    H2  508   6.237   1.793   2.293
  168TIP3   OH2  509   6.182   3.447   0.245
  168TIP3    H1  510   6.251   3.445   0.178
  168TIP3    H2  511   6.227   3.431   0.327
  169TIP3   OH2  512   3.122   5.549   3.728
  169TIP3    H1  513   3.164   5.631   3.754
  169TIP3    H2  514   3.116   5.498   3.808
  170TIP3   OH2  515   5.187   0.174   2.324
  170TIP3    H1  516   5.189   0.100   2.264
  170TIP3    H2  517   5.127   0.147   2.394
  171TIP3   OH2  518   2.921   3.279   0.591
  171TIP3    H1  519   2.828   3.275   0.616
  171TIP3    H2  520   2.951   3.363   0.626
  172TIP3   OH2  521   0.691   5.239   5.102
  172TIP3    H1  522   0.720   5.166   5.047
  172TIP3    H2  523   0.619   5.279   5.053
  173TIP3   OH2  524   4.168   3.648   3.642
  173TIP3    H1  525   4.102   3.614   3.581
  173TIP3    H2  526   4.161   3.592   3.719
  174TIP3   OH2  527   0.437   4.030   0.054
  174TIP3    H1  528   0.410   4.105   0.001
  174TIP3    H2  529   0.404   4.049   0.142
  175TIP3   OH2  530   3.050   3.448   1.418
  175TIP3    H1  531   2.974   3.503   1.400
  175TIP3    H2  532   3.114   3.508   1.457
  176TIP3   OH2  533   1.426   1.617   2.805
  176TIP3    H1  534   1.456   1.568   2.729
  176TIP3    H2  535   1.419   1.552   2.875
  177TIP3   OH2  536   5.877   1.991   5.180
  177TIP3    H1  537   5.924   2.047   5.242
  177TIP3    H2  538   5.921   2.006   5.096
  178TIP3   OH2  539   6.156   1.837   2.076
  178TIP3    H1  540   6.106   1.863   1.999
  178TIP3    H2  541   6.224   1.903   2.085
  179TIP3   OH2  542   3.490   2.922   1.107
  179TIP3    H1  543   3.563   2.968   1.148
  179TIP3    H2  544   3.430   2.903   1.179
  180TIP3   OH2  545   0.022   5.089   0.215
  180TIP3    H1  546   0.078   5.084   0.293
  180TIP3    H2  547   0.068   5.038   0.149
  181TIP3   OH2  548   3.003   0.150   2.168
  181TIP3    H1  549   3.015   0.133   2.075
  181TIP3    H2  550   3.042   0.074   2.211
  182TIP3   OH2  551   2.884   0.304   1.855
  182TIP3    H1  552   2.849   0.339   1.773
  182TIP3    H2  553   2.900   0.381   1.910
  183TIP3   OH2  554   4.576  -0.029   0.555
  183TIP3    H1  555   4.583   0.066   0.549
  183TIP3    H2  556   4.563  -0.047   0.648
  184TIP3   OH2  557   2.004   1.607   1.038
  184TIP3    H1  558   2.075   1.587   0.977
  184TIP3    H2  559   2.023   1.556   1.116
  185TIP3   OH2  560   1.952   4.470   2.251
  185TIP3    H1  561   1.949   4.375   2.242
  185TIP3    H2  562   1.978   4.501   2.164
  186TIP3   OH2  563   2.032   5.069   1.849
  186TIP3    H1  564   1.960   5.073   1.786
  186TIP3    H2  565   2.102   5.024   1.802
  187TIP3   OH2  566   1.948   3.276   4.629
  187TIP3    H1  567   2.006   3.335   4.582
  187TIP3    H2  568   1.929   3.206   4.566
  188TIP3   OH2  569   0.838   0.203   1.890
  188TIP3    H1  570   0.903   0.155   1.837
  188TIP3    H2  571   0.832   0.289   1.847
  189TIP3   OH2  572   5.275   1.844   1.310
  189TIP3    H1  573   5.192   1.799   1.327
  189TIP3    H2  574   5.272   1.923   1.364
  190TIP3   OH2  575   0.548   1.453   4.785
  190TIP3    H1  576   0.491   1.379   4.762
  190TIP3    H2  577   0.498   1.530   4.759
  191TIP3   OH2  578   2.334   5.242   2.326
  191TIP3    H1  579   2.351   5.312   2.264
  191TIP3    H2  580   2.267   5.278   2.385
  192TIP3   OH2  581   5.236   5.053   3.736
  192TIP3    H1  582   5.170   5.050   3.666
  192TIP3    H2  583   5.251   4.961   3.758
  193TIP3   OH2  584   5.442   3.068   4.790
  193TIP3    H1  585   5.434   3.135   4.858
  193TIP3    H2  586   5.527   3.084   4.750
  194TIP3   OH2  587   5.640   0.835   0.450
  194TIP3    H1  588   5.641   0.899   0.379
  194TIP3    H2  589   5.678   0.756   0.412
  195TIP3   OH2  590   3.920   1.233   1.694
  195TIP3    H1  591   3.890   1.263   1.780
  195TIP3    H2  592   3.955   1.145   1.711
  196TIP3   OH2  593   3.129   5.720   0.708
  196TIP3    H1  594   3.070   5.795   0.705
  196TIP3    H2  595   3.118   5.684   0.796
  197TIP3   OH2  596   3.160   2.011   4.392
  197TIP3    H1  597   3.143   2.104   4.381
  197TIP3    H2  598   3.254   2.006   4.413
  198TIP3   OH2  599   5.171   4.975   3.233
  198TIP3    H1  600   5.111   5.045   3.257
  198TIP3    H2  601   5.177   4.981   3.138
  199TIP3   OH2  602   1.395   0.725   3.366
  199TIP3    H1  603   1.311   0.762   3.392
  199TIP3    H2  604   1.423   0.673   3.441
  200TIP3   OH2  605   4.589   0.641   0.428
  200TIP3    H1  606   4.666   0.642   0.370
  200TIP3    H2  607   4.615   0.585   0.501
  201TIP3   OH2  608   6.139   3.239   3.123
  201TIP3    H1  609   6.131   3.295   3.200
  201TIP3    H2  610   6.227   3.258   3.089
  202TIP3   OH2  611   1.063   3.659   2.266
  202TIP3    H1  612   1.066   3.667   2.361
  202TIP3    H2  613   1.051   3.566   2.249
  203TIP3   OH2  614   4.000   3.046   1.274
  203TIP3    H1  615   4.069   2.984   1.298
  203TIP3    H2  616   4.012   3.120   1.333
  204TIP3   OH2  617   3.939   3.653   0.960
  204TIP3    H1  618   3.900   3.707   1.030
  204TIP3    H2  619   3.914   3.564   0.983
  205TIP3   OH2  620   2.880   1.382   4.455
  205TIP3    H1  621   2.871   1.288   4.443
  205TIP3    H2  622   2.851   1.420   4.372
  206TIP3   OH2  623   4.365   0.151   2.043
  206TIP3    H1  624   4.416   0.163   2.123
  206TIP3    H2  625   4.314   0.231   2.035
  207TIP3   OH2  626   2.713   0.656   1.084
  207TIP3    H1  627   2.647   0.651   1.153
  207TIP3    H2  628   2.689   0.734   1.034
  208TIP3   OH2  629   4.421   2.001   0.871
  208TIP3    H1  630   4.364   1.970   0.800
  208TIP3    H2  631   4.493   1.938   0.874
  209TIP3   OH2  632   0.990   3.827   1.019
  209TIP3    H1  633   1.060   3.810   1.082
  209TIP3    H2  634   0.922   3.872   1.069
  210TIP3   OH2  635   2.034   1.461   4.723
  210TIP3    H1  636   1.987   1.531   4.679
  210TIP3    H2  637   2.067   1.405   4.652
  211TIP3   OH2  638   2.759   5.117   0.856
  211TIP3    H1  639   2.703   5.043   0.877
  211TIP3    H2  640   2.816   5.126   0.933
  212TIP3   OH2  641   3.703   5.818   2.846
  212TIP3    H1  642   3.785   5.865   2.831
  212TIP3    H2  643   3.644   5.850   2.777
  213TIP3   OH2  644   0.149   1.575   4.415
  213TIP3    H1  645   0.074   1.515   4.415
  213TIP3    H2  646   0.183   1.571   4.326
  214TIP3   OH2  647   2.930   5.133   1.417
  214TIP3    H1  648   2.924   5.221   1.454
  214TIP3    H2  649   2.845   5.118   1.376
  215TIP3   OH2  650   2.828   3.500   0.859
  215TIP3    H1  651   2.741   3.481   0.895
  215TIP3    H2  652   2.887   3.444   0.909
  216TIP3   OH2  653   2.898   0.917   0.279
  216TIP3    H1  654   2.891   0.821   0.280
  216TIP3    H2  655   2.971   0.935   0.220
  217TIP3   OH2  656   5.997   2.947   4.022
  217TIP3    H1  657   5.920   2.903   3.986
  217TIP3    H2  658   6.063   2.878   4.030
  218TIP3   OH2  659   3.203   0.018   1.278
  218TIP3    H1  660   3.212   0.113   1.288
  218TIP3    H2  661   3.127  -0.004   1.332
  219TIP3   OH2  662   1.016   5.294   1.614
  219TIP3    H1  663   0.963   5.286   1.535
  219TIP3    H2  664   1.071   5.370   1.599
  220TIP3   OH2  665   5.063   2.093   3.738
  220TIP3    H1  666   5.032   2.148   3.810
  220TIP3    H2  667   5.155   2.078   3.758
  221TIP3   OH2  668   5.655   3.889   3.763
  221TIP3    H1  669   5.740   3.904   3.720
  221TIP3    H2  670   5.596   3.950   3.720
  222TIP3   OH2  671   6.021   1.446   3.823
  222TIP3    H1  672   6.019   1.529   3.872
  222TIP3    H2  673   6.092   1.397   3.862
  223TIP3   OH2  674   2.542   5.609   1.488
  223TIP3    H1  675   2.572   5.676   1.426
  223TIP3    H2  676   2.563   5.526   1.446
  224TIP3   OH2  677   3.951   2.252   1.414
  224TIP3    H1  678   3.891   2.321   1.441
  224TIP3    H2  679   3.980   2.278   1.327
  225TIP3   OH2  680   5.513   4.268   3.926
  225TIP3    H1  681   5.579   4.230   3.983
  225TIP3    H2  682   5.442   4.293   3.985
  226TIP3   OH2  683   1.737   1.169   3.869
  226TIP3    H1  684   1.673   1.139   3.804
  226TIP3    H2  685   1.808   1.106   3.863
  227TIP3   OH2  686   0.041   0.554   2.350
  227TIP3    H1  687   0.088   0.595   2.278
  227TIP3    H2  688   0.085   0.470   2.363
  228TIP3   OH2  689   5.719   0.855   4.832
  228TIP3    H1  690   5.703   0.777   4.885
  228TIP3    H2  691   5.651   0.854   4.765
  229TIP3   OH2  692   3.429   1.759   2.166
  229TIP3    H1  693   3.361   1.799   2.221
  229TIP3    H2  694   3.478   1.833   2.130
  230TIP3   OH2  695   4.691   4.344   3.566
  230TIP3    H1  696   4.699   4.249   3.571
  230TIP3    H2  697   4.721   4.375   3.652
  231TIP3   OH2  698   4.607   3.798   2.401
  231TIP3    H1  699   4.529   3.771   2.450
  231TIP3    H2  700   4.640   3.716   2.363
  232TIP3   OH2  701   1.100   3.921   2.422
  232TIP3    H1  702   1.022   3.906   2.369
  232TIP3    H2  703   1.168   3.945   2.359
  233TIP3   OH2  704   3.969   2.383   3.133
  233TIP3    H1  705   3.926   2.430   3.204
  233TIP3    H2  706   4.034   2.328   3.176
  234TIP3   OH2  707   4.340   4.085   4.963
  234TIP3    H1  708   4.374   4.076   4.874
  234TIP3    H2  709   4.245   4.086   4.952
  235TIP3   OH2  710   3.693   4.562   1.279
  235TIP3    H1  711   3.640   4.490   1.246
  235TIP3    H2  712   3.637   4.605   1.344
  236TIP3   OH2  713   0.497   3.786   3.944
  236TIP3    H1  714   0.535   3.845   3.879
  236TIP3    H2  715   0.490   3.839   4.024
  237TIP3   OH2  716   1.519   4.235   2.843
  237TIP3    H1  717   1.554   4.324   2.832
  237TIP3    H2  718   1.506   4.204   2.754
  238TIP3   OH2  719   1.313   4.220   3.599
  238TIP3    H1  720   1.336   4.199   3.508
  238TIP3    H2  721   1.346   4.145   3.649
  239TIP3   OH2  722   3.689   4.156   3.419
  239TIP3    H1  723   3.718   4.226   3.360
  239TIP3    H2  724   3.734   4.174   3.502
  240TIP3   OH2  725   3.091   0.317   2.567
  240TIP3    H1  726   3.147   0.278   2.634
  240TIP3    H2  727   3.108   0.265   2.489
  241TIP3   OH2  728   0.568   4.286   4.921
  241TIP3    H1  729   0.541   4.283   5.013
  241TIP3    H2  730   0.527   4.365   4.886
  242TIP3   OH2  731   4.545   5.074   1.369
  242TIP3    H1  732   4.605   5.037   1.304
  242TIP3    H2  733   4.587   5.156   1.396
  243TIP3   OH2  734   5.927   5.528   4.619
  243TIP3    H1  735   5.915   5.436   4.641
  243TIP3    H2  736   6.020   5.545   4.635
  244TIP3   OH2  737   5.077   1.977   0.364
  244TIP3    H1  738   5.172   1.970   0.352
  244TIP3    H2  739   5.041   1.974   0.275
  245TIP3   OH2  740   3.094   4.636   4.913
  245TIP3    H1  741   3.165   4.686   4.872
  245TIP3    H2  742   3.044   4.702   4.962
  246TIP3   OH2  743   2.321   5.310   0.980
  246TIP3    H1  744   2.278   5.310   0.895
  246TIP3    H2  745   2.415   5.305   0.959
  247TIP3   OH2  746   3.160   2.549   4.445
  247TIP3    H1  747   3.200   2.572   4.529
  247TIP3    H2  748   3.084   2.608   4.438
  248TIP3   OH2  749   4.215   2.874   4.712
  248TIP3    H1  750   4.147   2.815   4.745
  248TIP3    H2  751   4.251   2.915   4.790
  249TIP3   OH2  752   6.241   0.977   2.059
  249TIP3    H1  753   6.204   0.940   1.978
  249TIP3    H2  754   6.191   0.934   2.129
  250TIP3   OH2  755   0.001   4.875   1.368
  250TIP3    H1  756   0.038   4.895   1.455
  250TIP3    H2  757   0.076   4.851   1.315
  251TIP3   OH2  758   4.625   4.932   5.095
  251TIP3    H1  759   4.708   4.943   5.048
  251TIP3    H2  760   4.625   4.840   5.122
  252TIP3   OH2  761   4.162   4.087   1.874
  252TIP3    H1  762   4.080   4.121   1.837
  252TIP3    H2  763   4.192   4.022   1.810
  253TIP3   OH2  764   3.468   3.771   0.954
  253TIP3    H1  765   3.428   3.685   0.941
  253TIP3    H2  766   3.465   3.812   0.867
  254TIP3   OH2  767   1.451   5.752   1.440
  254TIP3    H1  768   1.508   5.742   1.364
  254TIP3    H2  769   1.367   5.718   1.411
  255TIP3   OH2  770   2.852   1.364   4.123
  255TIP3    H1  771   2.909   1.295   4.089
  255TIP3    H2  772   2.876   1.442   4.074
  256TIP3   OH2  773   1.738   0.050   2.244
  256TIP3    H1  774   1.797   0.014   2.310
  256TIP3    H2  775   1.721   0.139   2.273
  257TIP3   OH2  776   1.541   4.481   4.187
  257TIP3    H1  777   1.461   4.521   4.154
  257TIP3    H2  778   1.538   4.391   4.153
  258TIP3   OH2  779   4.085   4.364   0.156
  258TIP3    H1  780   4.115   4.282   0.197
  258TIP3    H2  781   4.014   4.336   0.098
  259TIP3   OH2  782   1.594   1.603   3.533
  259TIP3    H1  783   1.584   1.550   3.454
  259TIP3    H2  784   1.607   1.539   3.603
  260TIP3   OH2  785   3.459   5.059   2.494
  260TIP3    H1  786   3.454   4.965   2.512
  260TIP3    H2  787   3.457   5.099   2.581
  261TIP3   OH2  788   3.330   3.379   3.384
  261TIP3    H1  789   3.276   3.399   3.460
  261TIP3    H2  790   3.292   3.431   3.313
  262TIP3   OH2  791   1.029   4.536   3.029
  262TIP3    H1  792   1.099   4.479   2.996
  262TIP3    H2  793   0.985   4.483   3.096
  263TIP3   OH2  794   2.600   2.391   2.800
  263TIP3    H1  795   2.667   2.457   2.784
  263TIP3    H2  796   2.649   2.311   2.822
  264TIP3   OH2  797   5.238   5.168   2.755
  264TIP3    H1  798   5.241   5.144   2.662
  264TIP3    H2  799   5.330   5.179   2.779
  265TIP3   OH2  800   1.405   5.039   0.444
  265TIP3    H1  801   1.422   5.012   0.535
  265TIP3    H2  802   1.313   5.017   0.430
  266TIP3   OH2  803   1.599   1.405   3.343
  266TIP3    H1  804   1.548   1.352   3.283
  266TIP3    H2  805   1.651   1.342   3.394
  267TIP3   OH2  806   0.724   3.323   4.574
  267TIP3    H1  807   0.695   3.264   4.505
  267TIP3    H2  808   0.769   3.394   4.527
  268TIP3   OH2  809   4.040   4.023   4.879
  268TIP3    H1  810   4.020   4.002   4.970
  268TIP3    H2  811   3.955   4.035   4.837
  269TIP3   OH2  812   1.768   3.211   4.023
  269TIP3    H1  813   1.849   3.163   4.004
  269TIP3    H2  814   1.740   3.179   4.108
  270TIP3   OH2  815   6.004   0.647   2.893
  270TIP3    H1  816   6.008   0.735   2.857
  270TIP3    H2  817   6.095   0.620   2.902
  271TIP3   OH2  818   4.352   5.437   2.099
  271TIP3    H1  819   4.398   5.354   2.085
  271TIP3    H2  820   4.422   5.499   2.120
  272TIP3   OH2  821   3.895   4.153   1.711
  272TIP3    H1  822   3.837   4.140   1.786
  272TIP3    H2  823   3.842   4.201   1.648
  273TIP3   OH2  824   6.300   3.021   1.344
  273TIP3    H1  825   6.217   3.032   1.391
  273TIP3    H2  826   6.364   3.004   1.413
  274TIP3   OH2  827   5.091   5.593   1.012
  274TIP3    H1  828   5.072   5.680   0.976
  274TIP3    H2  829   5.174   5.568   0.971
  275TIP3   OH2  830   5.533   4.906   2.434
  275TIP3    H1  831   5.445   4.886   2.467
  275TIP3    H2  832   5.536   4.862   2.349
  276TIP3   OH2  833   4.117   1.972   3.983
  276TIP3    H1  834   4.117   2.066   3.969
  276TIP3    H2  835   4.026   1.951   4.007
  277TIP3   OH2  836   3.827   4.807   0.719
  277TIP3    H1  837   3.785   4.833   0.801
  277TIP3    H2  838   3.919   4.831   0.729
  278TIP3   OH2  839   6.324   4.084   2.059
  278TIP3    H1  840   6.368   4.004   2.029
  278TIP3    H2  841   6.284   4.121   1.980
  279TIP3   OH2  842   6.147   5.536   0.861
  279TIP3    H1  843   6.121   5.582   0.941
  279TIP3    H2  844   6.235   5.505   0.879
  280TIP3   OH2  845   2.580   5.326   1.875
  280TIP3    H1  846   2.553   5.413   1.846
  280TIP3    H2  847   2.667   5.314   1.836
  281TIP3   OH2  848   2.131   5.770   4.696
  281TIP3    H1  849   2.223   5.772   4.672
  281TIP3    H2  850   2.085   5.793   4.615
  282TIP3   OH2  851   2.815   4.703   0.240
  282TIP3    H1  852   2.821   4.777   0.300
  282TIP3    H2  853   2.876   4.724   0.169
  283TIP3   OH2  854   2.537   4.842   2.148
  283TIP3    H1  855   2.563   4.786   2.221
  283TIP3    H2  856   2.467   4.897   2.184
  284TIP3   OH2  857   5.337   5.358   3.419
  284TIP3    H1  858   5.368   5.354   3.510
  284TIP3    H2  859   5.375   5.438   3.384
  285TIP3   OH2  860   1.986   5.750   4.470
  285TIP3    H1  861   2.053   5.682   4.475
  285TIP3    H2  862   1.906   5.707   4.502
  286TIP3   OH2  863   1.153   5.332   2.287
  286TIP3    H1  864   1.114   5.245   2.294
  286TIP3    H2  865   1.079   5.391   2.271
  287TIP3   OH2  866   5.883   5.713   1.884
  287TIP3    H1  867   5.809   5.774   1.876
  287TIP3    H2  868   5.954   5.766   1.919
  288TIP3   OH2  869   4.041   4.680   2.411
  288TIP3    H1  870   4.091   4.650   2.487
  288TIP3    H2  871   4.030   4.774   2.425
  289TIP3   OH2  872   0.194   2.416   2.807
  289TIP3    H1  873   0.192   2.384   2.898
  289TIP3    H2  874   0.286   2.438   2.792
  290TIP3   OH2  875   4.501   1.055   3.669
  290TIP3    H1  876   4.413   1.077   3.700
  290TIP3    H2  877   4.512   0.963   3.690
  291TIP3   OH2  878   1.459   3.426   2.043
  291TIP3    H1  879   1.531   3.375   2.080
  291TIP3    H2  880   1.403   3.361   2.000
  292TIP3   OH2  881   1.186   0.875   3.124
  292TIP3    H1  882   1.241   0.937   3.171
  292TIP3    H2  883   1.152   0.924   3.049
  293TIP3   OH2  884   4.746   1.275   1.989
  293TIP3    H1  885   4.687   1.284   1.914
  293TIP3    H2  886   4.757   1.181   1.999
  294TIP3   OH2  887   6.255   5.253   1.776
  294TIP3    H1  888   6.332   5.246   1.719
  294TIP3    H2  889   6.212   5.333   1.748
  295TIP3   OH2  890   3.442   5.979   2.210
  295TIP3    H1  891   3.509   5.911   2.214
  295TIP3    H2  892   3.372   5.947   2.267
  296TIP3   OH2  893   3.255   2.917   4.426
  296TIP3    H1  894   3.194   2.889   4.494
  296TIP3    H2  895   3.329   2.856   4.434
  297TIP3   OH2  896   4.747   5.658   0.818
  297TIP3    H1  897   4.751   5.729   0.881
  297TIP3    H2  898   4.672   5.605   0.846
  298TIP3   OH2  899   5.253   0.510   1.914
  298TIP3    H1  900   5.221   0.599   1.927
  298TIP3    H2  901   5.179   0.454   1.939
  299TIP3   OH2  902   0.654   2.987   2.660
  299TIP3    H1  903   0.623   2.950   2.743
  299TIP3    H2  904   0.698   3.068   2.685
  300TIP3   OH2  905   4.406   3.437   1.249
  300TIP3    H1  906   4.434   3.367   1.307
  300TIP3    H2  907   4.315   3.414   1.227
  301TIP3   OH2  908   1.207   3.749   4.434
  301TIP3    H1  909   1.175   3.756   4.344
  301TIP3    H2  910   1.210   3.655   4.451
  302TIP3   OH2  911   2.011   5.350   4.313
  302TIP3    H1  912   2.005   5.269   4.363
  302TIP3    H2  913   2.032   5.322   4.224
  303TIP3   OH2  914   5.457   1.098   3.047
  303TIP3    H1  915   5.375   1.127   3.087
  303TIP3    H2  916   5.510   1.068   3.120
  304TIP3   OH2  917   2.494   2.554   2.442
  304TIP3    H1  918   2.495   2.631   2.498
  304TIP3    H2  919   2.586   2.535   2.425
  305TIP3   OH2  920   3.757   5.554   1.630
  305TIP3    H1  921   3.687   5.594   1.682
  305TIP3    H2  922   3.795   5.488   1.688
  306TIP3   OH2  923   5.308   4.775   3.830
  306TIP3    H1  924   5.229   4.733   3.863
  306TIP3    H2  925   5.354   4.705   3.783
  307TIP3   OH2  926   5.548   0.451   1.874
  307TIP3    H1  927   5.538   0.356   1.885
  307TIP3    H2  928   5.465   0.487   1.903
  308TIP3   OH2  929   2.755   0.796   2.401
  308TIP3    H1  930   2.803   0.796   2.319
  308TIP3    H2  931   2.731   0.888   2.415
  309TIP3   OH2  932   3.056   5.139   2.406
  309TIP3    H1  933   3.003   5.103   2.335
  309TIP3    H2  934   3.090   5.062   2.452
  310TIP3   OH2  935   3.531   1.437   0.075
  310TIP3    H1  936   3.575   1.387   0.144
  310TIP3    H2  937   3.569   1.403  -0.006
  311TIP3   OH2  938   5.280   2.819   0.434
  311TIP3    H1  939   5.249   2.809   0.344
  311TIP3    H2  940   5.248   2.906   0.461
  312TIP3   OH2  941   2.994   0.694   0.841
  312TIP3    H1  942   2.936   0.711   0.915
  312TIP3    H2  943   3.011   0.600   0.843
  313TIP3   OH2  944   4.936   4.764   1.964
  313TIP3    H1  945   4.899   4.714   2.037
  313TIP3    H2  946   5.004   4.817   2.004
  314TIP3   OH2  947   4.840   3.964   1.213
  314TIP3    H1  948   4.902   4.015   1.265
  314TIP3    H2  949   4.794   4.029   1.160
  315TIP3   OH2  950   3.745   2.938   2.263
  315TIP3    H1  951   3.739   2.942   2.167
  315TIP3    H2  952   3.722   2.848   2.285
  316TIP3   OH2  953   5.063   2.643   4.873
  316TIP3    H1  954   5.054   2.610   4.783
  316TIP3    H2  955   4.973   2.654   4.904
  317TIP3   OH2  956   1.623   1.832   4.965
  317TIP3    H1  957   1.573   1.751   4.959
  317TIP3    H2  958   1.564   1.900   4.932
  318TIP3   OH2  959   0.473   5.564   2.318
  318TIP3    H1  960   0.458   5.517   2.236
  318TIP3    H2  961   0.516   5.646   2.292
  319TIP3   OH2  962   4.251   2.145   1.250
  319TIP3    H1  963   4.305   2.162   1.172
  319TIP3    H2  964   4.204   2.065   1.230
  320TIP3   OH2  965   0.033   3.099   1.097
  320TIP3    H1  966  -0.006   3.070   1.180
  320TIP3    H2  967   0.055   3.018   1.051
  321TIP3   OH2  968   5.000   3.355   1.933
  321TIP3    H1  969   4.926   3.316   1.887
  321TIP3    H2  970   5.066   3.285   1.936
  322TIP3   OH2  971   5.900   4.359   0.292
  322TIP3    H1  972   5.823   4.311   0.260
  322TIP3    H2  973   5.871   4.450   0.299
  323TIP3   OH2  974   0.309   3.388   4.126
  323TIP3    H1  975   0.329   3.438   4.205
  323TIP3    H2  976   0.246   3.322   4.156
  324TIP3   OH2  977   0.093   3.583   3.222
  324TIP3    H1  978   0.064   3.633   3.298
  324TIP3    H2  979   0.033   3.508   3.219
  325TIP3   OH2  980   4.930   5.562   1.527
  325TIP3    H1  981   4.961   5.557   1.436
  325TIP3    H2  982   4.935   5.655   1.549
  326TIP3   OH2  983   1.176   5.535   2.671
  326TIP3    H1  984   1.215   5.623   2.676
  326TIP3    H2  985   1.248   5.479   2.641
  327TIP3   OH2  986   5.214   4.762   0.308
  327TIP3    H1  987   5.274   4.727   0.243
  327TIP3    H2  988   5.168   4.832   0.263
  328TIP3   OH2  989   5.933   1.504   2.936
  328TIP3    H1  990   5.935   1.510   2.840
  328TIP3    H2  991   5.865   1.566   2.962
  329TIP3   OH2  992   3.070   4.150   0.553
  329TIP3    H1  993   2.999   4.211   0.572
  329TIP3    H2  994   3.124   4.196   0.488
  330TIP3   OH2  995  -0.039   4.217   1.409
  330TIP3    H1  996  -0.021   4.309   1.425
  330TIP3    H2  997   0.025   4.171   1.464
  331TIP3   OH2  998   2.812   2.287   0.866
  331TIP3    H1  999   2.851   2.210   0.824
  331TIP3    H2 1000   2.762   2.251   0.939
  332TIP3   OH2 1001   3.584   0.592   3.786
  332TIP3    H1 1002   3.513   0.530   3.767
  332TIP3    H2 1003   3.550   0.677   3.757
  333TIP3   OH2 1004  -0.004   4.040   0.879
  333TIP3    H1 1005   0.030   4.128   0.890
  333TIP3    H2 1006  -0.046   4.041   0.793
  334TIP3   OH2 1007   1.253   2.257   5.000
  334TIP3    H1 1008   1.244   2.288   5.090
  334TIP3    H2 1009   1.164   2.260   4.965
  335TIP3   OH2 1010   3.559   2.480   1.237
  335TIP3    H1 1011   3.476   2.452   1.200
  335TIP3    H2 1012   3.538   2.504   1.327
  336TIP3   OH2 1013   3.521   0.447   1.472
  336TIP3    H1 1014   3.602   0.397   1.462
  336TIP3    H2 1015   3.500   0.477   1.384
  337TIP3   OH2 1016   3.558   2.931   4.048
  337TIP3    H1 1017   3.613   2.884   3.985
  337TIP3    H2 1018   3.470   2.896   4.033
  338TIP3   OH2 1019   5.471   1.817   2.476
  338TIP3    H1 1020   5.539   1.758   2.510
  338TIP3    H2 1021   5.407   1.758   2.437
  339TIP3   OH2 1022   5.418   4.250   4.971
  339TIP3    H1 1023   5.497   4.198   4.985
  339TIP3    H2 1024   5.384   4.265   5.059
  340TIP3   OH2 1025   2.675   1.689   3.597
  340TIP3    H1 1026   2.662   1.651   3.683
  340TIP3    H2 1027   2.637   1.625   3.536
  341TIP3   OH2 1028   4.428   3.378   2.124
  341TIP3    H1 1029   4.410   3.365   2.031
  341TIP3    H2 1030   4.379   3.457   2.147
  342TIP3   OH2 1031   0.648   1.589   1.921
  342TIP3    H1 1032   0.566   1.542   1.907
  342TIP3    H2 1033   0.677   1.561   2.008
  343TIP3   OH2 1034   2.636   3.995   0.599
  343TIP3    H1 1035   2.667   4.040   0.521
  343TIP3    H2 1036   2.544   3.976   0.580
  344TIP3   OH2 1037   0.047   1.864   0.074
  344TIP3    H1 1038   0.059   1.828   0.162
  344TIP3    H2 1039   0.051   1.787   0.016
  345TIP3   OH2 1040   0.431   2.628   0.836
  345TIP3    H1 1041   0.372   2.604   0.907
  345TIP3    H2 1042   0.382   2.609   0.756
  346TIP3   OH2 1043   2.201   3.290   4.828
  346TIP3    H1 1044   2.204   3.292   4.923
  346TIP3    H2 1045   2.109   3.276   4.807
  347TIP3   OH2 1046   1.387   4.796   2.999
  347TIP3    H1 1047   1.310   4.853   3.005
  347TIP3    H2 1048   1.363   4.718   3.050
  348TIP3   OH2 1049   2.282   2.111   1.703
  348TIP3    H1 1050   2.334   2.065   1.768
  348TIP3    H2 1051   2.191   2.091   1.726
  349TIP3   OH2 1052   1.220   0.545   2.716
  349TIP3    H1 1053   1.241   0.455   2.742
  349TIP3    H2 1054   1.144   0.535   2.658
  350TIP3   OH2 1055   4.242   1.727   1.295
  350TIP3    H1 1056   4.188   1.782   1.238
  350TIP3    H2 1057   4.321   1.711   1.245
  351TIP3   OH2 1058   3.856   0.121   2.431
  351TIP3    H1 1059   3.768   0.140   2.463
  351TIP3    H2 1060   3.914   0.151   2.500
  352TIP3   OH2 1061   1.094   1.172   4.307
  352TIP3    H1 1062   1.005   1.179   4.341
  352TIP3    H2 1063   1.109   1.255   4.261
  353TIP3   OH2 1064   4.881   0.837   0.391
  353TIP3    H1 1065   4.967   0.799   0.377
  353TIP3    H2 1066   4.853   0.803   0.476
  354TIP3   OH2 1067   5.819   1.469   4.565
  354TIP3    H1 1068   5.753   1.399   4.557
  354TIP3    H2 1069   5.841   1.470   4.658
  355TIP3   OH2 1070   2.515   3.274   1.865
  355TIP3    H1 1071   2.451   3.203   1.870
  355TIP3    H2 1072   2.519   3.296   1.772
  356TIP3   OH2 1073   5.102   0.586   0.931
  356TIP3    H1 1074   5.049   0.520   0.887
  356TIP3    H2 1075   5.100   0.662   0.873
  357TIP3   OH2 1076   4.761   0.448   3.811
  357TIP3    H1 1077   4.690   0.421   3.870
  357TIP3    H2 1078   4.787   0.369   3.765
  358TIP3   OH2 1079   1.697   5.295   4.298
  358TIP3    H1 1080   1.761   5.354   4.258
  358TIP3    H2 1081   1.726   5.207   4.273
  359TIP3   OH2 1082   3.947   3.423   0.441
  359TIP3    H1 1083   3.894   3.345   0.427
  359TIP3    H2 1084   3.966   3.455   0.353
  360TIP3   OH2 1085   0.944   2.202   4.931
  360TIP3    H1 1086   0.940   2.134   4.863
  360TIP3    H2 1087   0.885   2.169   4.999
  361TIP3   OH2 1088   3.163   3.428   2.798
  361TIP3    H1 1089   3.148   3.515   2.762
  361TIP3    H2 1090   3.225   3.387   2.737
  362TIP3   OH2 1091   2.635   4.993   1.927
  362TIP3    H1 1092   2.712   4.945   1.897
  362TIP3    H2 1093   2.636   4.982   2.022
  363TIP3   OH2 1094   4.314   5.438   4.937
  363TIP3    H1 1095   4.369   5.370   4.976
  363TIP3    H2 1096   4.272   5.481   5.012
  364TIP3   OH2 1097   1.348   3.347   2.722
  364TIP3    H1 1098   1.360   3.343   2.817
  364TIP3    H2 1099   1.259   3.316   2.707
  365TIP3   OH2 1100   3.074   3.371   0.951
  365TIP3    H1 1101   3.067   3.355   1.045
  365TIP3    H2 1102   3.086   3.284   0.913
  366TIP3   OH2 1103   2.543   3.254   0.876
  366TIP3    H1 1104   2.547   3.347   0.898
  366TIP3    H2 1105   2.568   3.209   0.958
  367TIP3   OH2 1106   3.822   3.574   5.000
  367TIP3    H1 1107   3.907   3.554   5.038
  367TIP3    H2 1108   3.840   3.590   4.907
  368TIP3   OH2 1109   3.246   3.954   0.712
  368TIP3    H1 1110   3.223   3.862   0.700
  368TIP3    H2 1111   3.199   4.001   0.642
  369TIP3   OH2 1112   1.248   1.544   3.927
  369TIP3    H1 1113   1.319   1.595   3.888
  369TIP3    H2 1114   1.274   1.453   3.913
  370TIP3   OH2 1115   3.671   1.938   2.549
  370TIP3    H1 1116   3.700   1.870   2.488
  370TIP3    H2 1117   3.711   2.018   2.515
  371TIP3   OH2 1118   1.766   2.426   0.440
  371TIP3    H1 1119   1.763   2.468   0.354
  371TIP3    H2 1120   1.675   2.409   0.463
  372TIP3   OH2 1121   4.102   3.848   0.315
  372TIP3    H1 1122   4.041   3.918   0.335
  372TIP3    H2 1123   4.107   3.796   0.395
  373TIP3   OH2 1124   0.043   5.391   2.351
  373TIP3    H1 1125   0.087   5.360   2.430
  373TIP3    H2 1126   0.092   5.352   2.279
  374TIP3   OH2 1127   1.543   4.943   5.162
  374TIP3    H1 1128   1.491   4.990   5.096
  374TIP3    H2 1129   1.579   4.867   5.115
  375TIP3   OH2 1130   2.001   0.759   0.954
  375TIP3    H1 1131   1.923   0.771   0.901
  375TIP3    H2 1132   1.989   0.673   0.995
  376TIP3   OH2 1133   0.022   1.443   1.796
  376TIP3    H1 1134  -0.004   1.352   1.784
  376TIP3    H2 1135   0.093   1.457   1.733
  377TIP3   OH2 1136   1.549   1.393   0.282
  377TIP3    H1 1137   1.533   1.298   0.278
  377TIP3    H2 1138   1.580   1.408   0.371
  378TIP3   OH2 1139   3.827   1.060   0.626
  378TIP3    H1 1140   3.763   0.990   0.615
  378TIP3    H2 1141   3.779   1.129   0.672
  379TIP3   OH2 1142   3.648   5.109   0.595
  379TIP3    H1 1143   3.727   5.104   0.650
  379TIP3    H2 1144   3.681   5.093   0.506
  380TIP3   OH2 1145   4.421   2.487   3.738
  380TIP3    H1 1146   4.338   2.508   3.780
  380TIP3    H2 1147   4.488   2.516   3.800
  381TIP3   OH2 1148   4.655   5.000   2.158
  381TIP3    H1 1149   4.562   5.000   2.137
  381TIP3    H2 1150   4.663   5.059   2.233
  382TIP3   OH2 1151   2.453   2.029   3.477
  382TIP3    H1 1152   2.458   2.118   3.512
  382TIP3    H2 1153   2.544   1.999   3.477
  383TIP3   OH2 1154   2.408   1.513   0.982
  383TIP3    H1 1155   2.316   1.503   1.007
  383TIP3    H2 1156   2.409   1.588   0.922
  384TIP3   OH2 1157   2.938   2.338   3.821
  384TIP3    H1 1158   2.958   2.262   3.767
  384TIP3    H2 1159   2.845   2.355   3.804
  385TIP3   OH2 1160   0.517   0.296   2.843
  385TIP3    H1 1161   0.591   0.345   2.879
  385TIP3    H2 1162   0.501   0.335   2.757
  386TIP3   OH2 1163   5.201   5.657   0.723
  386TIP3    H1 1164   5.205   5.745   0.686
  386TIP3    H2 1165   5.273   5.610   0.682
  387TIP3   OH2 1166   1.362   4.960   3.885
  387TIP3    H1 1167   1.355   4.944   3.979
  387TIP3    H2 1168   1.272   4.971   3.856
  388TIP3   OH2 1169   5.190   0.978   3.876
  388TIP3    H1 1170   5.217   0.939   3.959
  388TIP3    H2 1171   5.151   1.062   3.900
  389TIP3   OH2 1172   5.769   0.180   0.700
  389TIP3    H1 1173   5.780   0.156   0.792
  389TIP3    H2 1174   5.749   0.097   0.656
  390TIP3   OH2 1175   1.360   0.484   0.673
  390TIP3    H1 1176   1.374   0.392   0.648
  390TIP3    H2 1177   1.318   0.479   0.759
  391TIP3   OH2 1178   5.967   5.143   1.783
  391TIP3    H1 1179   5.910   5.219   1.793
  391TIP3    H2 1180   5.937   5.100   1.703
  392TIP3   OH2 1181   3.663   5.806   4.382
  392TIP3    H1 1182   3.626   5.723   4.413
  392TIP3    H2 1183   3.714   5.838   4.456
  393TIP3   OH2 1184   1.791   1.243   0.103
  393TIP3    H1 1185   1.834   1.322   0.070
  393TIP3    H2 1186   1.783   1.258   0.198
  394TIP3   OH2 1187   4.905   2.411   3.481
  394TIP3    H1 1188   4.813   2.403   3.507
  394TIP3    H2 1189   4.901   2.430   3.387
  395TIP3   OH2 1190   4.849   2.043   1.944
  395TIP3    H1 1191   4.770   2.088   1.975
  395TIP3    H2 1192   4.918   2.073   2.002
  396TIP3   OH2 1193  -0.022   3.278   4.382
  396TIP3    H1 1194  -0.053   3.325   4.305
  396TIP3    H2 1195   0.050   3.224   4.350
  397TIP3   OH2 1196   2.214   2.812   2.041
  397TIP3    H1 1197   2.285   2.754   2.016
  397TIP3    H2 1198   2.252   2.870   2.107
  398TIP3   OH2 1199   4.266   3.067   3.361
  398TIP3    H1 1200   4.327   3.027   3.423
  398TIP3    H2 1201   4.232   2.993   3.310
  399TIP3   OH2 1202   3.074   1.584   0.876
  399TIP3    H1 1203   3.106   1.673   0.892
  399TIP3    H2 1204   2.986   1.584   0.913
  400TIP3   OH2 1205   3.419   5.955   1.551
  400TIP3    H1 1206   3.360   5.916   1.487
  400TIP3    H2 1207   3.361   5.995   1.617
  401TIP3   OH2 1208   4.666   1.314   5.094
  401TIP3    H1 1209   4.716   1.367   5.157
  401TIP3    H2 1210   4.581   1.356   5.089
  402TIP3   OH2 1211   0.906   5.374   1.371
  402TIP3    H1 1212   0.958   5.425   1.309
  402TIP3    H2 1213   0.927   5.283   1.351
  403TIP3   OH2 1214   4.898   2.447   3.136
  403TIP3    H1 1215   4.949   2.505   3.080
  403TIP3    H2 1216   4.932   2.360   3.117
  404TIP3   OH2 1217   4.217   4.977   0.515
  404TIP3    H1 1218   4.145   4.995   0.454
  404TIP3    H2 1219   4.294   4.968   0.459
  405TIP3   OH2 1220   1.816   4.714   2.316
  405TIP3    H1 1221   1.740   4.656   2.311
  405TIP3    H2 1222   1.891   4.656   2.316
  406TIP3   OH2 1223   2.146   2.921   0.497
  406TIP3    H1 1224   2.099   2.852   0.449
  406TIP3    H2 1225   2.208   2.873   0.553
  407TIP3   OH2 1226   2.735   2.636   3.381
  407TIP3    H1 1227   2.711   2.710   3.436
  407TIP3    H2 1228   2.828   2.649   3.363
  408TIP3   OH2 1229   0.129   5.348   3.194
  408TIP3    H1 1230   0.089   5.345   3.107
  408TIP3    H2 1231   0.056   5.332   3.254
  409TIP3   OH2 1232   2.075   3.656   1.485
  409TIP3    H1 1233   2.083   3.581   1.544
  409TIP3    H2 1234   2.157   3.657   1.435
  410TIP3   OH2 1235   3.515   2.917   3.157
  410TIP3    H1 1236   3.517   2.851   3.087
  410TIP3    H2 1237   3.560   2.875   3.230
  411TIP3   OH2 1238   4.642   4.799   0.307
  411TIP3    H1 1239   4.572   4.758   0.256
  411TIP3    H2 1240   4.637   4.758   0.393
  412TIP3   OH2 1241   1.642   2.738   3.502
  412TIP3    H1 1242   1.675   2.819   3.541
  412TIP3    H2 1243   1.553   2.728   3.538
  413TIP3   OH2 1244   1.469   4.823   0.966
  413TIP3    H1 1245   1.374   4.814   0.968
  413TIP3    H2 1246   1.501   4.736   0.941
  414TIP3   OH2 1247   2.765   4.871   4.412
  414TIP3    H1 1248   2.680   4.863   4.368
  414TIP3    H2 1249   2.809   4.942   4.365
  415TIP3   OH2 1250   0.667   0.476   4.396
  415TIP3    H1 1251   0.620   0.431   4.326
  415TIP3    H2 1252   0.611   0.465   4.473
  416TIP3   OH2 1253   5.128   5.764   0.243
  416TIP3    H1 1254   5.113   5.836   0.182
  416TIP3    H2 1255   5.207   5.721   0.211
  417TIP3   OH2 1256   2.766   2.272   4.671
  417TIP3    H1 1257   2.842   2.315   4.712
  417TIP3    H2 1258   2.785   2.275   4.577
  418TIP3   OH2 1259   0.002   3.539   0.060
  418TIP3    H1 1260   0.077   3.551   0.003
  418TIP3    H2 1261   0.013   3.606   0.128
  419TIP3   OH2 1262   1.638   1.718   4.372
  419TIP3    H1 1263   1.624   1.812   4.377
  419TIP3    H2 1264   1.722   1.708   4.328
  420TIP3   OH2 1265   6.321   0.066   2.930
  420TIP3    H1 1266   6.278  -0.019   2.937
  420TIP3    H2 1267   6.391   0.063   2.995
  421TIP3   OH2 1268   0.536   5.945   0.327
  421TIP3    H1 1269   0.567   6.035   0.332
  421TIP3    H2 1270   0.451   5.946   0.371
  422TIP3   OH2 1271   3.944   4.515   4.678
  422TIP3    H1 1272   3.872   4.576   4.668
  422TIP3    H2 1273   3.909   4.444   4.731
  423TIP3   OH2 1274   4.675   0.206   0.447
  423TIP3    H1 1275   4.586   0.218   0.412
  423TIP3    H2 1276   4.732   0.228   0.374
  424TIP3   OH2 1277   2.605   2.510   4.363
  424TIP3    H1 1278   2.627   2.575   4.430
  424TIP3    H2 1279   2.533   2.549   4.314
  425TIP3   OH2 1280   5.241   2.205   4.671
  425TIP3    H1 1281   5.154   2.166   4.661
  425TIP3    H2 1282   5.272   2.220   4.582
  426TIP3   OH2 1283   0.368   5.671   2.835
  426TIP3    H1 1284   0.346   5.668   2.742
  426TIP3    H2 1285   0.440   5.735   2.840
  427TIP3   OH2 1286   0.299   4.890   0.838
  427TIP3    H1 1287   0.275   4.966   0.890
  427TIP3    H2 1288   0.394   4.896   0.830
  428TIP3   OH2 1289   6.220   2.094   4.741
  428TIP3    H1 1290   6.249   2.025   4.800
  428TIP3    H2 1291   6.138   2.060   4.703
  429TIP3   OH2 1292   2.586   4.570   2.951
  429TIP3    H1 1293   2.647   4.539   3.017
  429TIP3    H2 1294   2.532   4.636   2.996
  430TIP3   OH2 1295   0.790   0.090   1.079
  430TIP3    H1 1296   0.768   0.012   1.028
  430TIP3    H2 1297   0.834   0.057   1.157
  431TIP3   OH2 1298   3.518   0.813   2.032
  431TIP3    H1 1299   3.507   0.731   1.983
  431TIP3    H2 1300   3.537   0.785   2.122
  432TIP3   OH2 1301   0.408   4.847   1.856
  432TIP3    H1 1302   0.399   4.782   1.786
  432TIP3    H2 1303   0.501   4.870   1.855
  433TIP3   OH2 1304   3.237   2.147   5.090
  433TIP3    H1 1305   3.143   2.131   5.085
  433TIP3    H2 1306   3.265   2.098   5.168
  434TIP3   OH2 1307   1.514   4.059   1.081
  434TIP3    H1 1308   1.423   4.046   1.106
  434TIP3    H2 1309   1.545   3.971   1.058
  435TIP3   OH2 1310   1.703   4.304   0.304
  435TIP3    H1 1311   1.640   4.376   0.301
  435TIP3    H2 1312   1.743   4.311   0.390
  436TIP3   OH2 1313   2.518   4.297   2.906
  436TIP3    H1 1314   2.533   4.388   2.932
  436TIP3    H2 1315   2.565   4.288   2.824
  437TIP3   OH2 1316   6.057   2.555   4.648
  437TIP3    H1 1317   5.987   2.551   4.714
  437TIP3    H2 1318   6.121   2.490   4.678
  438TIP3   OH2 1319   0.302   2.624   4.449
  438TIP3    H1 1320   0.341   2.661   4.529
  438TIP3    H2 1321   0.354   2.662   4.378
  439TIP3   OH2 1322   4.606   0.331   4.834
  439TIP3    H1 1323   4.593   0.419   4.800
  439TIP3    H2 1324   4.666   0.342   4.908
  440TIP3   OH2 1325   4.477   2.875   0.425
  440TIP3    H1 1326   4.504   2.963   0.397
  440TIP3    H2 1327   4.522   2.861   0.507
  441TIP3   OH2 1328   3.644   4.486   0.342
  441TIP3    H1 1329   3.683   4.401   0.359
  441TIP3    H2 1330   3.611   4.515   0.427
  442TIP3   OH2 1331   1.176   5.476   3.622
  442TIP3    H1 1332   1.250   5.428   3.584
  442TIP3    H2 1333   1.170   5.443   3.711
  443TIP3   OH2 1334   5.868   1.592   2.630
  443TIP3    H1 1335   5.777   1.619   2.618
  443TIP3    H2 1336   5.885   1.532   2.558
  444TIP3   OH2 1337   0.061   3.926   3.269
  444TIP3    H1 1338  -0.007   3.955   3.330
  444TIP3    H2 1339   0.142   3.937   3.318
  445TIP3   OH2 1340   0.573   3.733   4.947
  445TIP3    H1 1341   0.623   3.746   4.867
  445TIP3    H2 1342   0.607   3.798   5.008
  446TIP3   OH2 1343   4.824   0.990   1.477
  446TIP3    H1 1344   4.898   1.023   1.425
  446TIP3    H2 1345   4.863   0.931   1.541
  447TIP3   OH2 1346   1.328   4.655   2.698
  447TIP3    H1 1347   1.355   4.650   2.790
  447TIP3    H2 1348   1.241   4.615   2.697
  448TIP3   OH2 1349   3.923   4.142   0.324
  448TIP3    H1 1350   3.957   4.175   0.407
  448TIP3    H2 1351   3.835   4.180   0.317
  449TIP3   OH2 1352   4.676   3.116   4.099
  449TIP3    H1 1353   4.665   3.079   4.011
  449TIP3    H2 1354   4.603   3.177   4.109
  450TIP3   OH2 1355   4.926   1.180   2.564
  450TIP3    H1 1356   4.885   1.240   2.626
  450TIP3    H2 1357   4.855   1.153   2.505
  451TIP3   OH2 1358   3.820   4.602   3.482
  451TIP3    H1 1359   3.825   4.628   3.390
  451TIP3    H2 1360   3.906   4.623   3.517
  452TIP3   OH2 1361   1.004   3.533   0.230
  452TIP3    H1 1362   0.933   3.554   0.170
  452TIP3    H2 1363   1.003   3.604   0.295
  453TIP3   OH2 1364   3.392   1.913   2.576
  453TIP3    H1 1365   3.483   1.939   2.565
  453TIP3    H2 1366   3.396   1.830   2.624
  454TIP3   OH2 1367   1.648   4.241   1.312
  454TIP3    H1 1368   1.606   4.189   1.244
  454TIP3    H2 1369   1.740   4.218   1.308
  455TIP3   OH2 1370   5.265   0.982   4.753
  455TIP3    H1 1371   5.288   0.891   4.771
  455TIP3    H2 1372   5.170   0.985   4.762
  456TIP3   OH2 1373   1.646   5.426   3.608
  456TIP3    H1 1374   1.602   5.396   3.687
  456TIP3    H2 1375   1.724   5.370   3.602
  457TIP3   OH2 1376   0.320   2.408   0.627
  457TIP3    H1 1377   0.352   2.319   0.611
  457TIP3    H2 1378   0.228   2.396   0.653
  458TIP3   OH2 1379   0.990   5.479   3.874
  458TIP3    H1 1380   1.018   5.557   3.826
  458TIP3    H2 1381   0.898   5.495   3.894
  459TIP3   OH2 1382   5.418   3.302   3.066
  459TIP3    H1 1383   5.381   3.214   3.067
  459TIP3    H2 1384   5.381   3.343   2.988
  460TIP3   OH2 1385   1.931   3.795   0.446
  460TIP3    H1 1386   1.967   3.721   0.494
  460TIP3    H2 1387   1.836   3.784   0.454
  461TIP3   OH2 1388   3.566   1.650   0.237
  461TIP3    H1 1389   3.536   1.587   0.172
  461TIP3    H2 1390   3.490   1.663   0.294
  462TIP3   OH2 1391   4.418   4.060   3.632
  462TIP3    H1 1392   4.478   4.018   3.571
  462TIP3    H2 1393   4.461   4.143   3.655
  463TIP3   OH2 1394   2.230   0.300   3.472
  463TIP3    H1 1395   2.274   0.230   3.520
  463TIP3    H2 1396   2.205   0.363   3.539
  464TIP3   OH2 1397   3.220   2.733   2.182
  464TIP3    H1 1398   3.160   2.669   2.146
  464TIP3    H2 1399   3.181   2.818   2.160
  465TIP3   OH2 1400   5.151   0.234   0.931
  465TIP3    H1 1401   5.246   0.244   0.932
  465TIP3    H2 1402   5.131   0.197   0.845
  466TIP3   OH2 1403   1.804   5.448   0.461
  466TIP3    H1 1404   1.745   5.377   0.438
  466TIP3    H2 1405   1.765   5.526   0.421
  467TIP3   OH2 1406   3.665   2.646   2.222
  467TIP3    H1 1407   3.730   2.575   2.218
  467TIP3    H2 1408   3.656   2.665   2.316
  468TIP3   OH2 1409   5.490   3.635   2.441
  468TIP3    H1 1410   5.493   3.731   2.449
  468TIP3    H2 1411   5.412   3.609   2.489
  469TIP3   OH2 1412   4.755   4.902   1.664
  469TIP3    H1 1413   4.756   4.927   1.757
  469TIP3    H2 1414   4.665   4.870   1.650
  470TIP3   OH2 1415   4.169   3.524   2.319
  470TIP3    H1 1416   4.138   3.506   2.408
  470TIP3    H2 1417   4.145   3.446   2.270
  471TIP3   OH2 1418   1.406   2.662   1.382
  471TIP3    H1 1419   1.403   2.721   1.307
  471TIP3    H2 1420   1.315   2.634   1.395
  472TIP3   OH2 1421   3.102   4.757   4.520
  472TIP3    H1 1422   3.065   4.821   4.580
  472TIP3    H2 1423   3.184   4.730   4.561
  473TIP3   OH2 1424   0.055   5.702   2.615
  473TIP3    H1 1425   0.059   5.776   2.676
  473TIP3    H2 1426   0.146   5.679   2.597
  474TIP3   OH2 1427   4.091   2.300   2.885
  474TIP3    H1 1428   4.177   2.258   2.890
  474TIP3    H2 1429   4.064   2.312   2.976
  475TIP3   OH2 1430   3.068   5.601   1.556
  475TIP3    H1 1431   3.086   5.611   1.463
  475TIP3    H2 1432   3.045   5.689   1.586
  476TIP3   OH2 1433   2.603   2.579   2.038
  476TIP3    H1 1434   2.622   2.500   2.088
  476TIP3    H2 1435   2.588   2.547   1.948
  477TIP3   OH2 1436   5.546   5.302   2.127
  477TIP3    H1 1437   5.583   5.333   2.210
  477TIP3    H2 1438   5.538   5.381   2.073
  478TIP3   OH2 1439   5.629   2.826   4.194
  478TIP3    H1 1440   5.666   2.904   4.236
  478TIP3    H2 1441   5.617   2.764   4.265
  479TIP3   OH2 1442   1.115   3.272   2.595
  479TIP3    H1 1443   1.115   3.201   2.531
  479TIP3    H2 1444   1.023   3.281   2.621
  480TIP3   OH2 1445   0.941   1.854   4.103
  480TIP3    H1 1446   0.896   1.924   4.150
  480TIP3    H2 1447   0.870   1.806   4.059
  481TIP3   OH2 1448   2.040   3.691   4.662
  481TIP3    H1 1449   2.098   3.628   4.619
  481TIP3    H2 1450   2.100   3.757   4.698
  482TIP3   OH2 1451   5.069   4.328   1.149
  482TIP3    H1 1452   5.050   4.416   1.116
  482TIP3    H2 1453   5.029   4.269   1.085
  483TIP3   OH2 1454   2.717   1.922   3.473
  483TIP3    H1 1455   2.722   1.836   3.516
  483TIP3    H2 1456   2.770   1.979   3.528
  484TIP3   OH2 1457   0.425   1.474   4.007
  484TIP3    H1 1458   0.425   1.537   3.936
  484TIP3    H2 1459   0.472   1.398   3.972
  485TIP3   OH2 1460   3.553   5.121   4.681
  485TIP3    H1 1461   3.543   5.038   4.633
  485TIP3    H2 1462   3.472   5.169   4.662
  486TIP3   OH2 1463   2.815   2.176   3.092
  486TIP3    H1 1464   2.750   2.159   3.024
  486TIP3    H2 1465   2.834   2.090   3.130
  487TIP3   OH2 1466   6.097   0.046   1.367
  487TIP3    H1 1467   6.047   0.004   1.436
  487TIP3    H2 1468   6.076  -0.005   1.288
  488TIP3   OH2 1469   0.587   5.588   1.563
  488TIP3    H1 1470   0.523   5.659   1.565
  488TIP3    H2 1471   0.536   5.510   1.541
  489TIP3   OH2 1472   1.840   4.651   4.828
  489TIP3    H1 1473   1.789   4.636   4.908
  489TIP3    H2 1474   1.840   4.567   4.783
  490TIP3   OH2 1475   4.490   1.169   2.128
  490TIP3    H1 1476   4.577   1.130   2.137
  490TIP3    H2 1477   4.431   1.107   2.171
  491TIP3   OH2 1478   3.593   0.785   2.287
  491TIP3    H1 1479   3.687   0.781   2.306
  491TIP3    H2 1480   3.551   0.763   2.370
  492TIP3   OH2 1481   1.895   5.845   3.043
  492TIP3    H1 1482   1.815   5.896   3.057
  492TIP3    H2 1483   1.911   5.801   3.127
  493TIP3   OH2 1484   5.200   2.556   1.686
  493TIP3    H1 1485   5.210   2.557   1.591
  493TIP3    H2 1486   5.236   2.639   1.715
  494TIP3   OH2 1487   2.199   5.404   3.073
  494TIP3    H1 1488   2.212   5.476   3.134
  494TIP3    H2 1489   2.125   5.432   3.018
  495TIP3   OH2 1490   2.998   5.132   1.907
  495TIP3    H1 1491   3.064   5.076   1.949
  495TIP3    H2 1492   3.047   5.208   1.877
  496TIP3   OH2 1493   5.974   3.293   1.440
  496TIP3    H1 1494   6.065   3.321   1.450
  496TIP3    H2 1495   5.933   3.363   1.389
  497TIP3   OH2 1496   5.301   1.827   4.617
  497TIP3    H1 1497   5.362   1.877   4.561
  497TIP3    H2 1498   5.350   1.811   4.697
  498TIP3   OH2 1499   4.065   4.707   4.023
  498TIP3    H1 1500   4.033   4.657   3.949
  498TIP3    H2 1501   4.148   4.744   3.994
  499TIP3   OH2 1502   2.679   5.606   2.267
  499TIP3    H1 1503   2.676   5.699   2.247
  499TIP3    H2 1504   2.772   5.582   2.258
  500TIP3   OH2 1505   5.009   5.738   0.491
  500TIP3    H1 1506   5.034   5.746   0.399
  500TIP3    H2 1507   5.078   5.783   0.539
  501TIP3   OH2 1508   1.743   1.633   1.713
  501TIP3    H1 1509   1.701   1.626   1.628
  501TIP3    H2 1510   1.812   1.699   1.701
  502TIP3   OH2 1511   2.985   1.799   3.794
  502TIP3    H1 1512   2.972   1.752   3.712
  502TIP3    H2 1513   2.960   1.889   3.774
  503TIP3   OH2 1514   0.936   3.509   0.672
  503TIP3    H1 1515   0.966   3.441   0.611
  503TIP3    H2 1516   1.004   3.576   0.668
  504TIP3   OH2 1517   0.450   5.138   2.022
  504TIP3    H1 1518   0.467   5.071   1.956
  504TIP3    H2 1519   0.506   5.113   2.096
  505TIP3   OH2 1520   0.720   2.030   3.708
  505TIP3    H1 1521   0.697   2.104   3.764
  505TIP3    H2 1522   0.639   2.011   3.660
  506TIP3   OH2 1523   5.723   1.189   3.905
  506TIP3    H1 1524   5.752   1.245   3.977
  506TIP3    H2 1525   5.651   1.237   3.865
  507TIP3   OH2 1526   3.245   0.958   2.711
  507TIP3    H1 1527   3.322   0.902   2.720
  507TIP3    H2 1528   3.210   0.936   2.624
  508TIP3   OH2 1529   6.103   3.724   0.254
  508TIP3    H1 1530   6.127   3.634   0.279
  508TIP3    H2 1531   6.008   3.727   0.266
  509TIP3   OH2 1532   1.234   2.857   3.440
  509TIP3    H1 1533   1.240   2.950   3.463
  509TIP3    H2 1534   1.167   2.854   3.372
  510TIP3   OH2 1535   3.515   1.236   2.502
  510TIP3    H1 1536   3.481   1.319   2.471
  510TIP3    H2 1537   3.599   1.226   2.457
  511TIP3   OH2 1538   2.022   2.177   1.394
  511TIP3    H1 1539   2.022   2.270   1.414
  511TIP3    H2 1540   1.934   2.147   1.419
  512TIP3   OH2 1541   1.347   4.039   2.948
  512TIP3    H1 1542   1.373   3.970   2.887
  512TIP3    H2 1543   1.400   4.114   2.924
  513TIP3   OH2 1544   3.700   4.233   2.346
  513TIP3    H1 1545   3.793   4.243   2.323
  513TIP3    H2 1546   3.656   4.305   2.301
  514TIP3   OH2 1547   4.698   3.630   3.832
  514TIP3    H1 1548   4.606   3.653   3.817
  514TIP3    H2 1549   4.698   3.591   3.919
  515TIP3   OH2 1550   2.415   0.171   2.427
  515TIP3    H1 1551   2.419   0.076   2.434
  515TIP3    H2 1552   2.485   0.194   2.367
  516TIP3   OH2 1553   1.887   0.396   1.754
  516TIP3    H1 1554   1.827   0.414   1.827
  516TIP3    H2 1555   1.880   0.302   1.739
  517TIP3   OH2 1556   4.660   1.275   3.711
  517TIP3    H1 1557   4.600   1.204   3.690
  517TIP3    H2 1558   4.614   1.355   3.684
  518TIP3   OH2 1559   5.154   5.558   2.953
  518TIP3    H1 1560   5.229   5.539   2.896
  518TIP3    H2 1561   5.132   5.474   2.992
  519TIP3   OH2 1562   0.521   2.954   3.290
  519TIP3    H1 1563   0.508   2.859   3.294
  519TIP3    H2 1564   0.616   2.964   3.283
  520TIP3   OH2 1565   4.313   4.318   3.433
  520TIP3    H1 1566   4.236   4.368   3.404
  520TIP3    H2 1567   4.282   4.228   3.437
  521TIP3   OH2 1568   1.568   5.610   0.619
  521TIP3    H1 1569   1.610   5.524   0.627
  521TIP3    H2 1570   1.593   5.641   0.533
  522TIP3   OH2 1571   6.049   3.762   3.630
  522TIP3    H1 1572   5.970   3.710   3.612
  522TIP3    H2 1573   6.077   3.733   3.717
  523TIP3   OH2 1574   5.667   0.252   0.341
  523TIP3    H1 1575   5.641   0.297   0.421
  523TIP3    H2 1576   5.704   0.169   0.370
  524TIP3   OH2 1577   1.498   5.227   4.056
  524TIP3    H1 1578   1.415   5.205   4.098
  524TIP3    H2 1579   1.550   5.146   4.063
  525TIP3   OH2 1580   1.383   0.768   2.655
  525TIP3    H1 1581   1.322   0.841   2.643
  525TIP3    H2 1582   1.329   0.697   2.689
  526TIP3   OH2 1583   1.372   0.472   2.427
  526TIP3    H1 1584   1.447   0.478   2.486
  526TIP3    H2 1585   1.387   0.541   2.362
  527TIP3   OH2 1586   3.414   1.755   4.616
  527TIP3    H1 1587   3.371   1.714   4.541
  527TIP3    H2 1588   3.347   1.758   4.684
  528TIP3   OH2 1589   0.025   5.038   1.086
  528TIP3    H1 1590   0.071   4.963   1.124
  528TIP3    H2 1591  -0.055   5.001   1.049
  529TIP3   OH2 1592   3.416   4.092   3.686
  529TIP3    H1 1593   3.482   4.026   3.707
  529TIP3    H2 1594   3.377   4.061   3.604
  530TIP3   OH2 1595   3.572   3.900   4.503
  530TIP3    H1 1596   3.556   3.995   4.509
  530TIP3    H2 1597   3.507   3.869   4.440
  531TIP3   OH2 1598   1.078   1.528   2.036
  531TIP3    H1 1599   1.131   1.462   2.080
  531TIP3    H2 1600   0.988   1.499   2.048
  532TIP3   OH2 1601   3.882   2.516   1.384
  532TIP3    H1 1602   3.826   2.593   1.377
  532TIP3    H2 1603   3.969   2.547   1.361
  533TIP3   OH2 1604   1.145   3.768   1.257
  533TIP3    H1 1605   1.094   3.834   1.303
  533TIP3    H2 1606   1.191   3.721   1.326
  534TIP3   OH2 1607   5.424   1.730   5.136
  534TIP3    H1 1608   5.442   1.668   5.207
  534TIP3    H2 1609   5.491   1.798   5.146
  535TIP3   OH2 1610   2.397   4.069   0.223
  535TIP3    H1 1611   2.405   3.984   0.180
  535TIP3    H2 1612   2.423   4.133   0.157
  536TIP3   OH2 1613   4.840   0.016   1.019
  536TIP3    H1 1614   4.787   0.095   1.004
  536TIP3    H2 1615   4.864   0.021   1.112
  537TIP3   OH2 1616   6.210   3.410   2.394
  537TIP3    H1 1617   6.185   3.318   2.404
  537TIP3    H2 1618   6.236   3.437   2.482
  538TIP3   OH2 1619   3.403   5.681   2.473
  538TIP3    H1 1620   3.382   5.595   2.438
  538TIP3    H2 1621   3.484   5.668   2.522
  539TIP3   OH2 1622   5.376   3.469   2.784
  539TIP3    H1 1623   5.283   3.486   2.793
  539TIP3    H2 1624   5.382   3.408   2.710
  540TIP3   OH2 1625   6.161   0.253   1.637
  540TIP3    H1 1626   6.087   0.314   1.644
  540TIP3    H2 1627   6.239   0.308   1.648
  541TIP3   OH2 1628   4.131   3.892   4.611
  541TIP3    H1 1629   4.078   3.943   4.549
  541TIP3    H2 1630   4.122   3.939   4.694
  542TIP3   OH2 1631   2.621   1.637   2.821
  542TIP3    H1 1632   2.636   1.544   2.804
  542TIP3    H2 1633   2.528   1.643   2.840
  543TIP3   OH2 1634   1.502   3.592   2.745
  543TIP3    H1 1635   1.440   3.522   2.724
  543TIP3    H2 1636   1.585   3.563   2.706
  544TIP3   OH2 1637   0.595   5.269   1.464
  544TIP3    H1 1638   0.575   5.337   1.400
  544TIP3    H2 1639   0.654   5.210   1.419
  545TIP3   OH2 1640   3.329   3.912   1.886
  545TIP3    H1 1641   3.353   3.921   1.793
  545TIP3    H2 1642   3.239   3.945   1.891
  546TIP3   OH2 1643   6.364   5.352   2.934
  546TIP3    H1 1644   6.372   5.387   2.845
  546TIP3    H2 1645   6.400   5.263   2.928
  547TIP3   OH2 1646   2.442   2.944   3.273
  547TIP3    H1 1647   2.452   2.854   3.303
  547TIP3    H2 1648   2.514   2.956   3.211
  548TIP3   OH2 1649   1.822   2.778   5.004
  548TIP3    H1 1650   1.907   2.822   5.010
  548TIP3    H2 1651   1.786   2.785   5.093
  549TIP3   OH2 1652   0.551   4.742   4.189
  549TIP3    H1 1653   0.566   4.827   4.148
  549TIP3    H2 1654   0.508   4.690   4.121
  550TIP3   OH2 1655   0.790   5.494   3.438
  550TIP3    H1 1656   0.750   5.446   3.366
  550TIP3    H2 1657   0.729   5.483   3.511
  551TIP3   OH2 1658   1.407   2.872   3.095
  551TIP3    H1 1659   1.454   2.927   3.032
  551TIP3    H2 1660   1.372   2.933   3.159
  552TIP3   OH2 1661   0.914   3.162   3.976
  552TIP3    H1 1662   0.884   3.252   3.986
  552TIP3    H2 1663   0.834   3.110   3.970
  553TIP3   OH2 1664   5.704   0.933   0.742
  553TIP3    H1 1665   5.776   0.996   0.733
  553TIP3    H2 1666   5.662   0.933   0.656
  554TIP3   OH2 1667   1.076   3.880   2.688
  554TIP3    H1 1668   1.061   3.937   2.613
  554TIP3    H2 1669   1.014   3.808   2.676
  555TIP3   OH2 1670   1.042   4.672   4.796
  555TIP3    H1 1671   1.130   4.664   4.832
  555TIP3    H2 1672   1.054   4.709   4.709
  556TIP3   OH2 1673   6.092   4.938   1.342
  556TIP3    H1 1674   6.087   5.031   1.363
  556TIP3    H2 1675   6.185   4.916   1.352
  557TIP3   OH2 1676   5.882   3.332   2.492
  557TIP3    H1 1677   5.944   3.271   2.452
  557TIP3    H2 1678   5.799   3.317   2.446
  558TIP3   OH2 1679   0.224   0.416   1.388
  558TIP3    H1 1680   0.246   0.335   1.434
  558TIP3    H2 1681   0.307   0.445   1.350
  559TIP3   OH2 1682   5.934   5.369   3.467
  559TIP3    H1 1683   6.009   5.426   3.484
  559TIP3    H2 1684   5.951   5.292   3.520
  560TIP3   OH2 1685   2.930   0.954   2.664
  560TIP3    H1 1686   2.973   0.927   2.583
  560TIP3    H2 1687   2.912   0.871   2.710
  561TIP3   OH2 1688   4.151   3.930   1.218
  561TIP3    H1 1689   4.114   3.863   1.275
  561TIP3    H2 1690   4.206   3.882   1.156
  562TIP3   OH2 1691   1.799   3.676   1.572
  562TIP3    H1 1692   1.886   3.696   1.538
  562TIP3    H2 1693   1.780   3.588   1.539
  563TIP3   OH2 1694   4.962   5.251   0.972
  563TIP3    H1 1695   4.965   5.320   0.906
  563TIP3    H2 1696   4.870   5.247   0.998
  564TIP3   OH2 1697   3.442   0.005   3.639
  564TIP3    H1 1698   3.530  -0.028   3.618
  564TIP3    H2 1699   3.434   0.087   3.590
  565TIP3   OH2 1700   6.196   0.474   1.922
  565TIP3    H1 1701   6.270   0.432   1.878
  565TIP3    H2 1702   6.222   0.479   2.014
  566TIP3   OH2 1703   2.110   2.347   1.015
  566TIP3    H1 1704   2.106   2.434   1.053
  566TIP3    H2 1705   2.052   2.350   0.939
  567TIP3   OH2 1706   3.466   5.722   1.085
  567TIP3    H1 1707   3.409   5.768   1.024
  567TIP3    H2 1708   3.477   5.635   1.045
  568TIP3   OH2 1709   5.998   3.761   4.679
  568TIP3    H1 1710   5.942   3.758   4.601
  568TIP3    H2 1711   6.087   3.759   4.644
  569TIP3   OH2 1712   2.359   2.323   0.904
  569TIP3    H1 1713   2.270   2.329   0.937
  569TIP3    H2 1714   2.350   2.289   0.815
  570TIP3   OH2 1715   6.006   3.036  -0.005
  570TIP3    H1 1716   5.956   3.117  -0.006
  570TIP3    H2 1717   5.957   2.978   0.054
  571TIP3   OH2 1718   1.932   3.246   4.918
  571TIP3    H1 1719   1.911   3.334   4.948
  571TIP3    H2 1720   1.888   3.239   4.833
  572TIP3   OH2 1721   0.936   0.400   4.397
  572TIP3    H1 1722   0.844   0.395   4.374
  572TIP3    H2 1723   0.940   0.463   4.469
  573TIP3   OH2 1724   4.042   0.437   5.088
  573TIP3    H1 1725   4.116   0.456   5.146
  573TIP3    H2 1726   4.083   0.415   5.004
  574TIP3   OH2 1727   1.383   5.662   3.823
  574TIP3    H1 1728   1.296   5.701   3.835
  574TIP3    H2 1729   1.366   5.580   3.777
  575TIP3   OH2 1730   4.838   3.206   1.529
  575TIP3    H1 1731   4.850   3.299   1.508
  575TIP3    H2 1732   4.827   3.164   1.443
  576TIP3   OH2 1733   5.843   5.634   4.156
  576TIP3    H1 1734   5.913   5.660   4.095
  576TIP3    H2 1735   5.861   5.541   4.174
  577TIP3   OH2 1736   1.548   3.620   1.306
  577TIP3    H1 1737   1.601   3.555   1.353
  577TIP3    H2 1738   1.460   3.611   1.343
  578TIP3   OH2 1739   4.829   3.658   3.007
  578TIP3    H1 1740   4.851   3.704   2.926
  578TIP3    H2 1741   4.820   3.728   3.072
  579TIP3   OH2 1742   6.093   4.750   1.640
  579TIP3    H1 1743   6.029   4.775   1.574
  579TIP3    H2 1744   6.095   4.654   1.636
  580TIP3   OH2 1745   0.911   4.525   4.603
  580TIP3    H1 1746   0.958   4.593   4.652
  580TIP3    H2 1747   0.886   4.461   4.669
  581TIP3   OH2 1748   5.707   3.818   2.817
  581TIP3    H1 1749   5.703   3.759   2.742
  581TIP3    H2 1750   5.617   3.819   2.852
  582TIP3   OH2 1751   1.743   1.289   1.148
  582TIP3    H1 1752   1.784   1.205   1.171
  582TIP3    H2 1753   1.761   1.299   1.055
  583TIP3   OH2 1754   0.684   3.452   0.201
  583TIP3    H1 1755   0.732   3.399   0.265
  583TIP3    H2 1756   0.604   3.478   0.247
  584TIP3   OH2 1757   0.180   0.889   3.319
  584TIP3    H1 1758   0.151   0.820   3.380
  584TIP3    H2 1759   0.275   0.876   3.312
  585TIP3   OH2 1760   2.128   2.011   4.935
  585TIP3    H1 1761   2.106   1.957   5.012
  585TIP3    H2 1762   2.054   1.998   4.875
  586TIP3   OH2 1763   5.156   1.946   3.039
  586TIP3    H1 1764   5.071   1.921   3.002
  586TIP3    H2 1765   5.155   2.041   3.040
  587TIP3   OH2 1766   3.540   5.923   2.634
  587TIP3    H1 1767   3.597   5.937   2.559
  587TIP3    H2 1768   3.482   5.999   2.636
  588TIP3   OH2 1769   5.344   0.245   2.896
  588TIP3    H1 1770   5.261   0.247   2.848
  588TIP3    H2 1771   5.331   0.306   2.968
  589TIP3   OH2 1772   0.733   0.245   3.782
  589TIP3    H1 1773   0.798   0.185   3.819
  589TIP3    H2 1774   0.649   0.202   3.797
  590TIP3   OH2 1775   3.461   2.133   0.577
  590TIP3    H1 1776   3.377   2.091   0.598
  590TIP3    H2 1777   3.515   2.061   0.543
  591TIP3   OH2 1778   0.545   4.522   4.383
  591TIP3    H1 1779   0.452   4.544   4.379
  591TIP3    H2 1780   0.589   4.607   4.378
  592TIP3   OH2 1781   4.554   0.872   0.603
  592TIP3    H1 1782   4.588   0.815   0.534
  592TIP3    H2 1783   4.586   0.959   0.580
  593TIP3   OH2 1784   0.447   1.268   4.216
  593TIP3    H1 1785   0.382   1.311   4.272
  593TIP3    H2 1786   0.451   1.323   4.138
  594TIP3   OH2 1787   5.932   2.688   4.224
  594TIP3    H1 1788   5.928   2.762   4.285
  594TIP3    H2 1789   6.007   2.707   4.168
  595TIP3   OH2 1790   0.469   2.685   3.302
  595TIP3    H1 1791   0.446   2.619   3.236
  595TIP3    H2 1792   0.386   2.709   3.342
  596TIP3   OH2 1793   0.373   4.418   2.548
  596TIP3    H1 1794   0.429   4.494   2.532
  596TIP3    H2 1795   0.286   4.454   2.563
  597TIP3   OH2 1796   2.884   5.448   3.211
  597TIP3    H1 1797   2.800   5.442   3.165
  597TIP3    H2 1798   2.940   5.382   3.169
  598TIP3   OH2 1799   5.130   2.926   1.646
  598TIP3    H1 1800   5.175   3.006   1.618
  598TIP3    H2 1801   5.048   2.957   1.685
  599TIP3   OH2 1802   4.414   5.524   3.686
  599TIP3    H1 1803   4.393   5.597   3.745
  599TIP3    H2 1804   4.458   5.565   3.611
  600TIP3   OH2 1805   3.912   0.218   0.578
  600TIP3    H1 1806   3.883   0.295   0.627
  600TIP3    H2 1807   3.991   0.246   0.532
  601TIP3   OH2 1808   4.957   2.363   0.366
  601TIP3    H1 1809   4.904   2.320   0.298
  601TIP3    H2 1810   4.911   2.345   0.448
  602TIP3   OH2 1811   0.817   5.237   1.818
  602TIP3    H1 1812   0.797   5.259   1.726
  602TIP3    H2 1813   0.912   5.243   1.824
  603TIP3   OH2 1814   2.211   1.638   0.830
  603TIP3    H1 1815   2.189   1.731   0.836
  603TIP3    H2 1816   2.151   1.604   0.763
  604TIP3   OH2 1817   3.965   4.471   2.992
  604TIP3    H1 1818   3.916   4.391   2.973
  604TIP3    H2 1819   4.056   4.442   2.999
  605TIP3   OH2 1820   6.344   2.677   1.011
  605TIP3    H1 1821   6.298   2.658   1.093
  605TIP3    H2 1822   6.403   2.602   0.999
  606TIP3   OH2 1823   0.764   1.461   2.141
  606TIP3    H1 1824   0.719   1.376   2.150
  606TIP3    H2 1825   0.831   1.460   2.209
  607TIP3   OH2 1826   6.168   1.263   3.429
  607TIP3    H1 1827   6.083   1.235   3.463
  607TIP3    H2 1828   6.220   1.284   3.507
  608TIP3   OH2 1829   0.175   2.862   0.659
  608TIP3    H1 1830   0.131   2.809   0.593
  608TIP3    H2 1831   0.103   2.902   0.709
  609TIP3   OH2 1832   3.633   5.005   4.252
  609TIP3    H1 1833   3.555   5.004   4.197
  609TIP3    H2 1834   3.600   5.014   4.341
  610TIP3   OH2 1835   5.289   4.844   2.520
  610TIP3    H1 1836   5.281   4.752   2.496
  610TIP3    H2 1837   5.330   4.842   2.607
  611TIP3   OH2 1838   3.757   5.333   2.596
  611TIP3    H1 1839   3.820   5.332   2.524
  611TIP3    H2 1840   3.736   5.241   2.611
  612TIP3   OH2 1841   3.954   1.387   1.083
  612TIP3    H1 1842   3.865   1.388   1.120
  612TIP3    H2 1843   4.009   1.353   1.154
  613TIP3   OH2 1844   6.119   3.215   0.553
  613TIP3    H1 1845   6.142   3.206   0.645
  613TIP3    H2 1846   6.157   3.139   0.511
  614TIP3   OH2 1847   4.483   5.275   0.276
  614TIP3    H1 1848   4.523   5.316   0.353
  614TIP3    H2 1849   4.554   5.226   0.235
  615TIP3   OH2 1850   1.574   2.406   3.024
  615TIP3    H1 1851   1.660   2.398   3.066
  615TIP3    H2 1852   1.516   2.434   3.093
  616TIP3   OH2 1853   1.447   0.660   2.233
  616TIP3    H1 1854   1.375   0.722   2.222
  616TIP3    H2 1855   1.518   0.712   2.269
  617TIP3   OH2 1856   4.834   1.443   1.602
  617TIP3    H1 1857   4.880   1.527   1.608
  617TIP3    H2 1858   4.904   1.377   1.603
  618TIP3   OH2 1859   2.959   1.095   4.422
  618TIP3    H1 1860   3.008   1.022   4.384
  618TIP3    H2 1861   3.020   1.134   4.485
  619TIP3   OH2 1862   2.662   3.138   1.092
  619TIP3    H1 1863   2.616   3.075   1.147
  619TIP3    H2 1864   2.732   3.087   1.052
  620TIP3   OH2 1865   3.319   1.646   4.386
  620TIP3    H1 1866   3.237   1.695   4.383
  620TIP3    H2 1867   3.293   1.555   4.392
  621TIP3   OH2 1868   0.115   4.842   4.717
  621TIP3    H1 1869   0.208   4.826   4.707
  621TIP3    H2 1870   0.073   4.765   4.680
  622TIP3   OH2 1871   0.757   2.688   1.582
  622TIP3    H1 1872   0.691   2.626   1.614
  622TIP3    H2 1873   0.841   2.648   1.605
  623TIP3   OH2 1874   0.140   4.025   0.585
  623TIP3    H1 1875   0.109   4.106   0.545
  623TIP3    H2 1876   0.091   3.956   0.541
  624TIP3   OH2 1877   3.589   5.897   0.161
  624TIP3    H1 1878   3.563   5.865   0.074
  624TIP3    H2 1879   3.673   5.941   0.145
  625TIP3   OH2 1880   1.435   0.300   3.286
  625TIP3    H1 1881   1.502   0.360   3.319
  625TIP3    H2 1882   1.352   0.347   3.299
  626TIP3   OH2 1883   0.766   4.864   0.397
  626TIP3    H1 1884   0.743   4.899   0.483
  626TIP3    H2 1885   0.778   4.941   0.342
  627TIP3   OH2 1886   2.240   3.910   4.771
  627TIP3    H1 1887   2.289   3.954   4.702
  627TIP3    H2 1888   2.196   3.981   4.818
  628TIP3   OH2 1889   3.068   4.117   4.797
  628TIP3    H1 1890   2.979   4.151   4.809
  628TIP3    H2 1891   3.116   4.146   4.875
  629TIP3   OH2 1892   1.020   1.605   2.756
  629TIP3    H1 1893   1.102   1.643   2.723
  629TIP3    H2 1894   0.951   1.649   2.707
  630TIP3   OH2 1895   2.168   3.353   0.514
  630TIP3    H1 1896   2.085   3.304   0.515
  630TIP3    H2 1897   2.230   3.294   0.471
  631TIP3   OH2 1898   1.838   4.700   4.473
  631TIP3    H1 1899   1.767   4.635   4.473
  631TIP3    H2 1900   1.894   4.675   4.546
  632TIP3   OH2 1901   0.652   0.267   3.289
  632TIP3    H1 1902   0.709   0.228   3.355
  632TIP3    H2 1903   0.670   0.361   3.295
  633TIP3   OH2 1904   1.740   2.472   3.356
  633TIP3    H1 1905   1.816   2.441   3.405
  633TIP3    H2 1906   1.702   2.393   3.318
  634TIP3   OH2 1907   2.947   3.468   0.199
  634TIP3    H1 1908   2.992   3.473   0.283
  634TIP3    H2 1909   2.931   3.559   0.174
  635TIP3   OH2 1910   4.356   3.395   0.871
  635TIP3    H1 1911   4.282   3.343   0.903
  635TIP3    H2 1912   4.358   3.471   0.930
  636TIP3   OH2 1913   3.848   5.033   4.831
  636TIP3    H1 1914   3.821   5.002   4.917
  636TIP3    H2 1915   3.768   5.067   4.790
  637TIP3   OH2 1916   4.068   2.253   2.253
  637TIP3    H1 1917   4.066   2.249   2.158
  637TIP3    H2 1918   4.096   2.343   2.273
  638TIP3   OH2 1919   0.109   3.829   0.166
  638TIP3    H1 1920   0.191   3.787   0.139
  638TIP3    H2 1921   0.096   3.899   0.102
  639TIP3   OH2 1922   4.152   1.365   3.374
  639TIP3    H1 1923   4.165   1.421   3.298
  639TIP3    H2 1924   4.140   1.277   3.338
  640TIP3   OH2 1925   5.040   0.795   0.748
  640TIP3    H1 1926   4.960   0.784   0.697
  640TIP3    H2 1927   5.057   0.889   0.746
  641TIP3   OH2 1928   5.819   3.664   3.036
  641TIP3    H1 1929   5.809   3.576   3.000
  641TIP3    H2 1930   5.809   3.722   2.961
  642TIP3   OH2 1931   2.338   4.200   3.711
  642TIP3    H1 1932   2.279   4.151   3.653
  642TIP3    H2 1933   2.281   4.237   3.778
  643TIP3   OH2 1934   1.518   4.733   1.518
  643TIP3    H1 1935   1.578   4.685   1.463
  643TIP3    H2 1936   1.566   4.813   1.543
  644TIP3   OH2 1937   3.148   5.608   2.630
  644TIP3    H1 1938   3.240   5.593   2.654
  644TIP3    H2 1939   3.117   5.672   2.693
  645TIP3   OH2 1940   4.131   1.657   2.885
  645TIP3    H1 1941   4.194   1.657   2.813
  645TIP3    H2 1942   4.049   1.629   2.846
  646TIP3   OH2 1943   5.049   3.440   1.214
  646TIP3    H1 1944   4.962   3.441   1.253
  646TIP3    H2 1945   5.085   3.527   1.233
  647TIP3   OH2 1946   2.467   1.482   4.889
  647TIP3    H1 1947   2.450   1.388   4.889
  647TIP3    H2 1948   2.508   1.499   4.804
  648TIP3   OH2 1949   4.034   1.640   1.022
  648TIP3    H1 1950   4.020   1.550   1.052
  648TIP3    H2 1951   3.947   1.679   1.021
  649TIP3   OH2 1952   1.003   0.857   3.687
  649TIP3    H1 1953   0.965   0.802   3.755
  649TIP3    H2 1954   1.019   0.941   3.729
  650TIP3   OH2 1955   4.513   2.971   1.359
  650TIP3    H1 1956   4.518   2.944   1.450
  650TIP3    H2 1957   4.604   2.982   1.332
  651TIP3   OH2 1958   2.759   2.216   0.183
  651TIP3    H1 1959   2.686   2.156   0.168
  651TIP3    H2 1960   2.825   2.192   0.119
  652TIP3   OH2 1961   0.429   2.475   3.110
  652TIP3    H1 1962   0.460   2.471   3.020
  652TIP3    H2 1963   0.448   2.389   3.146
  653TIP3   OH2 1964   5.410   1.714   4.837
  653TIP3    H1 1965   5.430   1.722   4.931
  653TIP3    H2 1966   5.485   1.667   4.801
  654TIP3   OH2 1967   0.167   5.860   4.652
  654TIP3    H1 1968   0.260   5.838   4.659
  654TIP3    H2 1969   0.165   5.939   4.597
  655TIP3   OH2 1970   2.716   1.374   2.832
  655TIP3    H1 1971   2.726   1.327   2.915
  655TIP3    H2 1972   2.747   1.311   2.766
  656TIP3   OH2 1973   0.035   0.392   1.711
  656TIP3    H1 1974   0.035   0.478   1.669
  656TIP3    H2 1975   0.127   0.374   1.729
  657TIP3   OH2 1976   1.879   5.810   0.634
  657TIP3    H1 1977   1.808   5.856   0.589
  657TIP3    H2 1978   1.893   5.860   0.714
  658TIP3   OH2 1979   4.405   3.080   3.714
  658TIP3    H1 1980   4.401   2.994   3.756
  658TIP3    H2 1981   4.468   3.069   3.643
  659TIP3   OH2 1982   1.407   1.643   0.871
  659TIP3    H1 1983   1.368   1.611   0.790
  659TIP3    H2 1984   1.371   1.731   0.882
  660TIP3   OH2 1985   5.016   4.389   4.765
  660TIP3    H1 1986   5.096   4.436   4.790
  660TIP3    H2 1987   5.024   4.303   4.805
  661TIP3   OH2 1988   0.894   5.192   4.017
  661TIP3    H1 1989   0.848   5.258   4.068
  661TIP3    H2 1990   0.824   5.140   3.977
  662TIP3   OH2 1991   5.096   1.427   4.070
  662TIP3    H1 1992   5.057   1.406   4.155
  662TIP3    H2 1993   5.048   1.504   4.040
  663TIP3   OH2 1994   2.818   4.637   3.478
  663TIP3    H1 1995   2.777   4.577   3.416
  663TIP3    H2 1996   2.837   4.583   3.554
  664TIP3   OH2 1997   3.460   5.387   4.101
  664TIP3    H1 1998   3.555   5.376   4.094
  664TIP3    H2 1999   3.431   5.394   4.010
  665TIP3   OH2 2000   4.064   1.005   2.655
  665TIP3    H1 2001   3.984   0.966   2.688
  665TIP3    H2 2002   4.049   1.100   2.660
  666TIP3   OH2 2003   4.736   4.979   1.207
  666TIP3    H1 2004   4.702   4.984   1.118
  666TIP3    H2 2005   4.820   4.934   1.198
  667TIP3   OH2 2006   1.101   0.939   1.188
  667TIP3    H1 2007   1.016   0.944   1.231
  667TIP3    H2 2008   1.149   1.015   1.220
  668TIP3   OH2 2009   1.931   2.509   2.828
  668TIP3    H1 2010   2.011   2.494   2.777
  668TIP3    H2 2011   1.890   2.585   2.786
  669TIP3   OH2 2012   1.979   2.346   2.469
  669TIP3    H1 2013   2.061   2.299   2.456
  669TIP3    H2 2014   2.003   2.424   2.518
  670TIP3   OH2 2015   1.072   2.445   4.067
  670TIP3    H1 2016   1.127   2.472   3.993
  670TIP3    H2 2017   1.091   2.509   4.136
  671TIP3   OH2 2018   2.527   5.216   1.380
  671TIP3    H1 2019   2.537   5.203   1.474
  671TIP3    H2 2020   2.434   5.234   1.368
  672TIP3   OH2 2021   1.132   4.496   4.004
  672TIP3    H1 2022   1.107   4.566   3.943
  672TIP3    H2 2023   1.149   4.542   4.086
  673TIP3   OH2 2024   4.335   5.269   3.802
  673TIP3    H1 2025   4.374   5.346   3.761
  673TIP3    H2 2026   4.289   5.225   3.731
  674TIP3   OH2 2027   5.242   1.380   3.834
  674TIP3    H1 2028   5.215   1.384   3.926
  674TIP3    H2 2029   5.200   1.301   3.800
  675TIP3   OH2 2030   5.380   3.774   0.178
  675TIP3    H1 2031   5.436   3.717   0.125
  675TIP3    H2 2032   5.419   3.771   0.265
  676TIP3   OH2 2033   2.155   4.194   2.031
  676TIP3    H1 2034   2.129   4.125   1.969
  676TIP3    H2 2035   2.106   4.174   2.111
  677TIP3   OH2 2036   0.088   4.259   1.126
  677TIP3    H1 2037   0.034   4.206   1.183
  677TIP3    H2 2038   0.148   4.304   1.185
  678TIP3   OH2 2039   5.851   0.482   4.989
  678TIP3    H1 2040   5.900   0.509   5.067
  678TIP3    H2 2041   5.917   0.440   4.933
  679TIP3   OH2 2042   0.355   4.026   1.855
  679TIP3    H1 2043   0.387   3.977   1.779
  679TIP3    H2 2044   0.269   4.059   1.827
  680TIP3   OH2 2045   0.228   1.934   0.664
  680TIP3    H1 2046   0.282   1.912   0.740
  680TIP3    H2 2047   0.141   1.950   0.699
  681TIP3   OH2 2048   1.831   3.557  -0.042
  681TIP3    H1 2049   1.832   3.622   0.029
  681TIP3    H2 2050   1.902   3.497  -0.021
  682TIP3   OH2 2051   4.138   4.325   4.430
  682TIP3    H1 2052   4.141   4.412   4.390
  682TIP3    H2 2053   4.046   4.299   4.424
  683TIP3   OH2 2054   4.813   4.773   2.479
  683TIP3    H1 2055   4.769   4.688   2.487
  683TIP3    H2 2056   4.765   4.830   2.540
  684TIP3   OH2 2057   3.769   3.375   2.840
  684TIP3    H1 2058   3.812   3.314   2.899
  684TIP3    H2 2059   3.802   3.461   2.865
  685TIP3   OH2 2060   4.971   2.192   4.487
  685TIP3    H1 2061   4.994   2.272   4.438
  685TIP3    H2 2062   4.982   2.122   4.423
  686TIP3   OH2 2063   0.677   4.188   1.292
  686TIP3    H1 2064   0.726   4.266   1.319
  686TIP3    H2 2065   0.630   4.216   1.213
  687TIP3   OH2 2066   2.107   0.755   0.686
  687TIP3    H1 2067   2.116   0.765   0.781
  687TIP3    H2 2068   2.162   0.679   0.666
  688TIP3   OH2 2069   6.084   5.079   4.743
  688TIP3    H1 2070   6.011   5.116   4.695
  688TIP3    H2 2071   6.113   5.004   4.689
  689TIP3   OH2 2072   5.999   2.320   1.856
  689TIP3    H1 2073   5.987   2.380   1.783
  689TIP3    H2 2074   6.076   2.269   1.834
  690TIP3   OH2 2075   5.769   1.638   2.341
  690TIP3    H1 2076   5.697   1.576   2.355
  690TIP3    H2 2077   5.793   1.626   2.249
  691TIP3   OH2 2078   2.887   2.893   3.476
  691TIP3    H1 2079   2.798   2.899   3.512
  691TIP3    H2 2080   2.874   2.896   3.381
  692TIP3   OH2 2081   2.360   0.378   4.456
  692TIP3    H1 2082   2.413   0.441   4.505
  692TIP3    H2 2083   2.278   0.425   4.437
  693TIP3   OH2 2084   3.259   3.678   0.656
  693TIP3    H1 2085   3.249   3.591   0.695
  693TIP3    H2 2086   3.353   3.696   0.660
  694TIP3   OH2 2087   3.273   4.483   3.185
  694TIP3    H1 2088   3.334   4.556   3.196
  694TIP3    H2 2089   3.304   4.417   3.247
  695TIP3   OH2 2090   3.079   1.841   3.446
  695TIP3    H1 2091   3.078   1.912   3.510
  695TIP3    H2 2092   3.032   1.769   3.488
  696TIP3   OH2 2093   0.294   1.454   1.265
  696TIP3    H1 2094   0.228   1.399   1.307
  696TIP3    H2 2095   0.359   1.392   1.232
  697TIP3   OH2 2096   1.256   5.112   4.524
  697TIP3    H1 2097   1.274   5.021   4.550
  697TIP3    H2 2098   1.306   5.165   4.587
  698TIP3   OH2 2099   1.007   0.291   1.633
  698TIP3    H1 2100   1.084   0.314   1.685
  698TIP3    H2 2101   1.042   0.250   1.554
  699TIP3   OH2 2102   5.704   4.580   2.893
  699TIP3    H1 2103   5.691   4.594   2.987
  699TIP3    H2 2104   5.631   4.524   2.867
  700TIP3   OH2 2105   0.641   0.307   0.354
  700TIP3    H1 2106   0.551   0.341   0.361
  700TIP3    H2 2107   0.631   0.221   0.315
  701TIP3   OH2 2108   2.794   2.428   1.338
  701TIP3    H1 2109   2.770   2.381   1.417
  701TIP3    H2 2110   2.856   2.371   1.293
  702TIP3   OH2 2111   3.013   4.352   3.113
  702TIP3    H1 2112   3.076   4.423   3.128
  702TIP3    H2 2113   3.048   4.306   3.036
  703TIP3   OH2 2114   5.003   1.075   2.243
  703TIP3    H1 2115   5.039   0.998   2.288
  703TIP3    H2 2116   5.012   1.055   2.150
  704TIP3   OH2 2117   5.052   1.060   1.302
  704TIP3    H1 2118   5.146   1.068   1.322
  704TIP3    H2 2119   5.049   1.008   1.221
  705TIP3   OH2 2120   5.747   5.907   1.378
  705TIP3    H1 2121   5.769   5.816   1.357
  705TIP3    H2 2122   5.730   5.908   1.472
  706TIP3   OH2 2123   3.109   3.181   1.558
  706TIP3    H1 2124   3.078   3.107   1.506
  706TIP3    H2 2125   3.070   3.258   1.516
  707TIP3   OH2 2126   4.368   1.595   2.221
  707TIP3    H1 2127   4.397   1.595   2.130
  707TIP3    H2 2128   4.287   1.645   2.220
  708TIP3   OH2 2129   4.374   5.524   0.244
  708TIP3    H1 2130   4.377   5.447   0.301
  708TIP3    H2 2131   4.349   5.489   0.158
  709TIP3   OH2 2132   3.565   5.976   3.817
  709TIP3    H1 2133   3.552   5.906   3.753
  709TIP3    H2 2134   3.478   6.011   3.833
  710TIP3   OH2 2135   4.601   0.402   4.523
  710TIP3    H1 2136   4.598   0.487   4.478
  710TIP3    H2 2137   4.512   0.367   4.514
  711TIP3   OH2 2138   5.201   1.555   0.581
  711TIP3    H1 2139   5.178   1.541   0.489
  711TIP3    H2 2140   5.201   1.650   0.591
  712TIP3   OH2 2141   1.204   5.843   1.728
  712TIP3    H1 2142   1.188   5.937   1.741
  712TIP3    H2 2143   1.142   5.817   1.660
  713TIP3   OH2 2144   5.588   4.895   3.883
  713TIP3    H1 2145   5.616   4.931   3.799
  713TIP3    H2 2146   5.501   4.861   3.867
  714TIP3   OH2 2147   1.449   2.983   4.214
  714TIP3    H1 2148   1.472   2.950   4.127
  714TIP3    H2 2149   1.402   2.910   4.255
  715TIP3   OH2 2150   6.093   0.817   2.688
  715TIP3    H1 2151   6.049   0.873   2.624
  715TIP3    H2 2152   6.160   0.873   2.727
  716TIP3   OH2 2153   3.400   5.034   4.076
  716TIP3    H1 2154   3.448   5.021   3.993
  716TIP3    H2 2155   3.331   4.967   4.074
  717TIP3   OH2 2156   0.186   0.707   0.883
  717TIP3    H1 2157   0.269   0.722   0.929
  717TIP3    H2 2158   0.140   0.791   0.889
  718TIP3   OH2 2159   2.038   0.710   4.643
  718TIP3    H1 2160   1.960   0.722   4.588
  718TIP3    H2 2161   2.014   0.746   4.728
  719TIP3   OH2 2162   4.604   2.069   2.872
  719TIP3    H1 2163   4.625   2.131   2.802
  719TIP3    H2 2164   4.530   2.019   2.837
  720TIP3   OH2 2165   4.872   4.657   2.875
  720TIP3    H1 2166   4.780   4.630   2.883
  720TIP3    H2 2167   4.876   4.743   2.916
  721TIP3   OH2 2168   6.105   1.181   4.999
  721TIP3    H1 2169   6.030   1.146   5.048
  721TIP3    H2 2170   6.160   1.222   5.066
  722TIP3   OH2 2171   2.278   5.272   1.820
  722TIP3    H1 2172   2.269   5.180   1.796
  722TIP3    H2 2173   2.364   5.279   1.861
  723TIP3   OH2 2174   4.106   3.178   0.573
  723TIP3    H1 2175   4.191   3.147   0.604
  723TIP3    H2 2176   4.128   3.244   0.507
  724TIP3   OH2 2177   1.622   3.901   1.402
  724TIP3    H1 2178   1.632   3.819   1.353
  724TIP3    H2 2179   1.699   3.906   1.458
  725TIP3   OH2 2180   3.164   3.398  -0.021
  725TIP3    H1 2181   3.150   3.304  -0.025
  725TIP3    H2 2182   3.086   3.433   0.020
  726TIP3   OH2 2183   5.395   1.549   0.773
  726TIP3    H1 2184   5.331   1.521   0.707
  726TIP3    H2 2185   5.379   1.643   0.783
  727TIP3   OH2 2186   2.927   3.126   4.267
  727TIP3    H1 2187   2.999   3.066   4.244
  727TIP3    H2 2188   2.965   3.213   4.257
  728TIP3   OH2 2189   6.096   0.083   2.075
  728TIP3    H1 2190   6.190   0.068   2.068
  728TIP3    H2 2191   6.062   0.065   1.988
  729TIP3   OH2 2192   5.087   3.303   4.649
  729TIP3    H1 2193   5.145   3.265   4.582
  729TIP3    H2 2194   5.043   3.374   4.604
  730TIP3   OH2 2195   2.517   0.577   4.548
  730TIP3    H1 2196   2.543   0.556   4.638
  730TIP3    H2 2197   2.466   0.657   4.556
  731TIP3   OH2 2198   0.475   0.865   3.911
  731TIP3    H1 2199   0.424   0.784   3.912
  731TIP3    H2 2200   0.439   0.916   3.984
  732TIP3   OH2 2201   0.969   0.751   5.050
  732TIP3    H1 2202   1.041   0.780   5.107
  732TIP3    H2 2203   1.011   0.696   4.985
  733TIP3   OH2 2204   6.181   3.020   2.905
  733TIP3    H1 2205   6.126   3.095   2.881
  733TIP3    H2 2206   6.157   3.002   2.996
  734TIP3   OH2 2207   1.045   0.197   4.609
  734TIP3    H1 2208   1.008   0.274   4.565
  734TIP3    H2 2209   1.047   0.221   4.702
  735TIP3   OH2 2210   5.753   1.676   3.104
  735TIP3    H1 2211   5.801   1.756   3.126
  735TIP3    H2 2212   5.740   1.632   3.188
  736TIP3   OH2 2213   4.920   1.308   3.616
  736TIP3    H1 2214   4.829   1.291   3.638
  736TIP3    H2 2215   4.941   1.245   3.547
  737TIP3   OH2 2216   4.285   1.068   4.722
  737TIP3    H1 2217   4.352   1.128   4.689
  737TIP3    H2 2218   4.277   1.089   4.815
  738TIP3   OH2 2219   5.514   1.036   2.167
  738TIP3    H1 2220   5.487   1.086   2.243
  738TIP3    H2 2221   5.556   0.958   2.203
  739TIP3   OH2 2222   6.139   0.316   2.444
  739TIP3    H1 2223   6.049   0.317   2.412
  739TIP3    H2 2224   6.192   0.330   2.366
  740TIP3   OH2 2225   4.854   5.482   0.320
  740TIP3    H1 2226   4.802   5.512   0.394
  740TIP3    H2 2227   4.792   5.477   0.247
  741TIP3   OH2 2228   3.277   2.681   0.645
  741TIP3    H1 2229   3.197   2.654   0.689
  741TIP3    H2 2230   3.283   2.775   0.661
  742TIP3   OH2 2231   3.235   3.183   3.744
  742TIP3    H1 2232   3.185   3.121   3.691
  742TIP3    H2 2233   3.248   3.139   3.828
  743TIP3   OH2 2234   0.929   2.019   1.500
  743TIP3    H1 2235   0.870   2.005   1.575
  743TIP3    H2 2236   0.871   2.031   1.425
  744TIP3   OH2 2237   6.245   2.404   5.146
  744TIP3    H1 2238   6.260   2.402   5.241
  744TIP3    H2 2239   6.185   2.476   5.133
  745TIP3   OH2 2240   4.453   2.362   4.385
  745TIP3    H1 2241   4.379   2.409   4.421
  745TIP3    H2 2242   4.504   2.334   4.461
  746TIP3   OH2 2243   4.250   5.961   0.268
  746TIP3    H1 2244   4.258   6.012   0.187
  746TIP3    H2 2245   4.156   5.955   0.284
  747TIP3   OH2 2246   4.434   0.220   1.115
  747TIP3    H1 2247   4.420   0.138   1.162
  747TIP3    H2 2248   4.479   0.276   1.177
  748TIP3   OH2 2249   0.325   5.976   1.395
  748TIP3    H1 2250   0.260   6.041   1.367
  748TIP3    H2 2251   0.274   5.907   1.435
  749TIP3   OH2 2252   2.501   1.515   1.743
  749TIP3    H1 2253   2.445   1.478   1.674
  749TIP3    H2 2254   2.553   1.440   1.775
  750TIP3   OH2 2255   6.026   1.033   1.603
  750TIP3    H1 2256   6.030   1.046   1.508
  750TIP3    H2 2257   5.937   1.062   1.627
  751TIP3   OH2 2258   1.289   4.132   1.909
  751TIP3    H1 2259   1.298   4.189   1.985
  751TIP3    H2 2260   1.273   4.045   1.946
  752TIP3   OH2 2261   4.969   2.939   3.409
  752TIP3    H1 2262   4.963   2.868   3.473
  752TIP3    H2 2263   4.977   3.018   3.461
  753TIP3   OH2 2264   2.188   2.465   5.184
  753TIP3    H1 2265   2.251   2.488   5.116
  753TIP3    H2 2266   2.110   2.516   5.162
  754TIP3   OH2 2267   2.029   1.317   4.492
  754TIP3    H1 2268   2.009   1.228   4.521
  754TIP3    H2 2269   1.943   1.358   4.481
  755TIP3   OH2 2270   5.563   0.640   0.638
  755TIP3    H1 2271   5.585   0.714   0.582
  755TIP3    H2 2272   5.554   0.677   0.726
  756TIP3   OH2 2273   0.528   3.855   1.660
  756TIP3    H1 2274   0.594   3.808   1.712
  756TIP3    H2 2275   0.568   3.940   1.641
  757TIP3   OH2 2276   1.447   1.481   4.372
  757TIP3    H1 2277   1.512   1.548   4.353
  757TIP3    H2 2278   1.363   1.525   4.359
  758TIP3   OH2 2279   4.958   5.772   4.040
  758TIP3    H1 2280   4.934   5.682   4.017
  758TIP3    H2 2281   5.050   5.766   4.068
  759TIP3   OH2 2282   5.651   0.682   1.560
  759TIP3    H1 2283   5.562   0.661   1.589
  759TIP3    H2 2284   5.695   0.713   1.639
  760TIP3   OH2 2285   1.635   0.500   2.127
  760TIP3    H1 2286   1.575   0.559   2.173
  760TIP3    H2 2287   1.686   0.559   2.070
  761TIP3   OH2 2288   2.360   1.695   1.915
  761TIP3    H1 2289   2.266   1.679   1.914
  761TIP3    H2 2290   2.394   1.642   1.842
  762TIP3   OH2 2291   3.976   2.204   2.528
  762TIP3    H1 2292   3.891   2.225   2.489
  762TIP3    H2 2293   4.038   2.212   2.456
  763TIP3   OH2 2294   2.124   1.814   0.470
  763TIP3    H1 2295   2.055   1.820   0.536
  763TIP3    H2 2296   2.197   1.772   0.515
  764TIP3   OH2 2297   1.627   0.869   2.591
  764TIP3    H1 2298   1.559   0.809   2.621
  764TIP3    H2 2299   1.602   0.954   2.627
  765TIP3   OH2 2300   0.184   1.049   4.301
  765TIP3    H1 2301   0.116   1.113   4.279
  765TIP3    H2 2302   0.137   0.980   4.347
  766TIP3   OH2 2303   5.769   5.568   2.958
  766TIP3    H1 2304   5.768   5.609   2.872
  766TIP3    H2 2305   5.805   5.634   3.016
  767TIP3   OH2 2306   4.899   1.877   0.956
  767TIP3    H1 2307   4.934   1.875   0.867
  767TIP3    H2 2308   4.952   1.942   1.001
  768TIP3   OH2 2309   4.532   5.984   2.876
  768TIP3    H1 2310   4.621   6.019   2.878
  768TIP3    H2 2311   4.516   5.953   2.966
  769TIP3   OH2 2312   4.044   3.843   3.354
  769TIP3    H1 2313   4.064   3.843   3.261
  769TIP3    H2 2314   4.120   3.886   3.394
  770TIP3   OH2 2315   1.319   5.561   1.086
  770TIP3    H1 2316   1.296   5.653   1.074
  770TIP3    H2 2317   1.395   5.548   1.030
  771TIP3   OH2 2318   4.995   4.581   2.614
  771TIP3    H1 2319   4.939   4.622   2.680
  771TIP3    H2 2320   4.939   4.518   2.570
  772TIP3   OH2 2321   1.977   2.810   1.913
  772TIP3    H1 2322   2.068   2.802   1.944
  772TIP3    H2 2323   1.978   2.886   1.855
  773TIP3   OH2 2324   5.421   3.342   1.416
  773TIP3    H1 2325   5.325   3.344   1.419
  773TIP3    H2 2326   5.442   3.329   1.324
  774TIP3   OH2 2327   2.092   2.382   4.841
  774TIP3    H1 2328   2.160   2.441   4.873
  774TIP3    H2 2329   2.130   2.295   4.846
  775TIP3   OH2 2330   3.622   5.162   2.312
  775TIP3    H1 2331   3.703   5.117   2.291
  775TIP3    H2 2332   3.585   5.111   2.385
  776TIP3   OH2 2333   2.299   0.755   2.039
  776TIP3    H1 2334   2.285   0.850   2.038
  776TIP3    H2 2335   2.210   0.718   2.037
  777TIP3   OH2 2336   6.234   1.438   1.260
  777TIP3    H1 2337   6.267   1.362   1.307
  777TIP3    H2 2338   6.234   1.508   1.325
  778TIP3   OH2 2339   5.674   2.657   4.947
  778TIP3    H1 2340   5.708   2.694   5.029
  778TIP3    H2 2341   5.590   2.700   4.934
  779TIP3   OH2 2342   4.860   4.322   1.323
  779TIP3    H1 2343   4.798   4.366   1.264
  779TIP3    H2 2344   4.946   4.337   1.283
  780TIP3   OH2 2345   5.491   5.842   0.424
  780TIP3    H1 2346   5.444   5.918   0.390
  780TIP3    H2 2347   5.581   5.871   0.433
  781TIP3   OH2 2348   6.146   5.118   2.049
  781TIP3    H1 2349   6.082   5.053   2.078
  781TIP3    H2 2350   6.169   5.166   2.129
  782TIP3   OH2 2351   5.566   2.949   1.548
  782TIP3    H1 2352   5.477   2.967   1.518
  782TIP3    H2 2353   5.562   2.961   1.643
  783TIP3   OH2 2354   1.656   2.889   4.821
  783TIP3    H1 2355   1.594   2.817   4.809
  783TIP3    H2 2356   1.720   2.856   4.884
  784TIP3   OH2 2357   3.718   2.252   2.202
  784TIP3    H1 2358   3.647   2.315   2.191
  784TIP3    H2 2359   3.797   2.306   2.210
  785TIP3   OH2 2360   2.278   0.467   3.951
  785TIP3    H1 2361   2.217   0.538   3.968
  785TIP3    H2 2362   2.342   0.472   4.021
  786TIP3   OH2 2363   4.776   3.635   2.608
  786TIP3    H1 2364   4.838   3.706   2.593
  786TIP3    H2 2365   4.728   3.627   2.526
  787TIP3   OH2 2366   0.875   1.360   3.852
  787TIP3    H1 2367   0.899   1.269   3.870
  787TIP3    H2 2368   0.856   1.397   3.938
  788TIP3   OH2 2369   0.305   0.556   4.768
  788TIP3    H1 2370   0.258   0.492   4.822
  788TIP3    H2 2371   0.244   0.629   4.759
  789TIP3   OH2 2372   3.876   5.780   4.579
  789TIP3    H1 2373   3.817   5.706   4.596
  789TIP3    H2 2374   3.955   5.739   4.542
  790TIP3   OH2 2375   0.120   3.513   4.514
  790TIP3    H1 2376   0.045   3.464   4.482
  790TIP3    H2 2377   0.178   3.521   4.439
  791TIP3   OH2 2378   0.837   2.701   5.175
  791TIP3    H1 2379   0.797   2.673   5.092
  791TIP3    H2 2380   0.763   2.720   5.233
  792TIP3   OH2 2381   5.647   4.555   0.883
  792TIP3    H1 2382   5.669   4.522   0.797
  792TIP3    H2 2383   5.575   4.500   0.913
  793TIP3   OH2 2384   1.737   1.701   2.605
  793TIP3    H1 2385   1.747   1.733   2.694
  793TIP3    H2 2386   1.796   1.757   2.553
  794TIP3   OH2 2387   4.460   2.629   1.206
  794TIP3    H1 2388   4.424   2.707   1.162
  794TIP3    H2 2389   4.532   2.662   1.259
  795TIP3   OH2 2390   4.983   5.469   0.737
  795TIP3    H1 2391   5.059   5.524   0.718
  795TIP3    H2 2392   4.914   5.531   0.761
  796TIP3   OH2 2393   2.792   0.962   3.894
  796TIP3    H1 2394   2.741   0.962   3.975
  796TIP3    H2 2395   2.727   0.970   3.825
  797TIP3   OH2 2396   0.297   1.545   2.786
  797TIP3    H1 2397   0.282   1.451   2.779
  797TIP3    H2 2398   0.262   1.569   2.872
  798TIP3   OH2 2399   2.710   1.156   4.337
  798TIP3    H1 2400   2.667   1.108   4.407
  798TIP3    H2 2401   2.803   1.141   4.351
  799TIP3   OH2 2402   4.980   5.718   2.785
  799TIP3    H1 2403   5.037   5.652   2.825
  799TIP3    H2 2404   5.019   5.801   2.810
  800TIP3   OH2 2405   5.722   2.235   5.076
  800TIP3    H1 2406   5.761   2.285   5.005
  800TIP3    H2 2407   5.712   2.146   5.042
  801TIP3   OH2 2408   2.441   1.081   4.415
  801TIP3    H1 2409   2.397   1.075   4.330
  801TIP3    H2 2410   2.419   1.169   4.447
  802TIP3   OH2 2411   5.558   3.796   0.415
  802TIP3    H1 2412   5.533   3.705   0.431
  802TIP3    H2 2413   5.549   3.838   0.500
  803TIP3   OH2 2414   3.256   0.911   3.195
  803TIP3    H1 2415   3.290   0.981   3.139
  803TIP3    H2 2416   3.333   0.876   3.240
  804TIP3   OH2 2417   1.034   4.049   0.609
  804TIP3    H1 2418   1.110   4.071   0.555
  804TIP3    H2 2419   0.970   4.016   0.546
  805TIP3   OH2 2420   4.668   5.876   4.814
  805TIP3    H1 2421   4.604   5.804   4.822
  805TIP3    H2 2422   4.616   5.955   4.829
  806TIP3   OH2 2423  -0.006   0.531   1.481
  806TIP3    H1 2424   0.061   0.476   1.442
  806TIP3    H2 2425  -0.025   0.597   1.414
  807TIP3   OH2 2426   4.744   1.062   4.004
  807TIP3    H1 2427   4.789   1.037   3.924
  807TIP3    H2 2428   4.652   1.041   3.988
  808TIP3   OH2 2429   3.614   5.465   1.109
  808TIP3    H1 2430   3.593   5.511   1.190
  808TIP3    H2 2431   3.702   5.429   1.124
  809TIP3   OH2 2432   3.392   4.892   1.240
  809TIP3    H1 2433   3.399   4.916   1.148
  809TIP3    H2 2434   3.338   4.961   1.278
  810TIP3   OH2 2435   0.369   2.492   1.403
  810TIP3    H1 2436   0.362   2.573   1.352
  810TIP3    H2 2437   0.281   2.478   1.438
  811TIP3   OH2 2438   3.360   3.393   0.498
  811TIP3    H1 2439   3.452   3.407   0.477
  811TIP3    H2 2440   3.359   3.375   0.591
  812TIP3   OH2 2441   0.350   2.398   0.035
  812TIP3    H1 2442   0.417   2.376   0.100
  812TIP3    H2 2443   0.395   2.387  -0.049
  813TIP3   OH2 2444   1.992   5.634   2.547
  813TIP3    H1 2445   2.041   5.681   2.614
  813TIP3    H2 2446   1.961   5.703   2.488
  814TIP3   OH2 2447   3.211   4.440   2.192
  814TIP3    H1 2448   3.126   4.464   2.155
  814TIP3    H2 2449   3.218   4.346   2.174
  815TIP3   OH2 2450   1.570   3.818   3.942
  815TIP3    H1 2451   1.485   3.797   3.903
  815TIP3    H2 2452   1.633   3.773   3.885
  816TIP3   OH2 2453   5.030   2.759   4.537
  816TIP3    H1 2454   5.039   2.676   4.490
  816TIP3    H2 2455   5.037   2.826   4.469
  817TIP3   OH2 2456   1.905   2.824   1.582
  817TIP3    H1 2457   1.884   2.912   1.615
  817TIP3    H2 2458   1.841   2.767   1.624
  818TIP3   OH2 2459   4.897   5.091   2.404
  818TIP3    H1 2460   4.933   5.003   2.399
  818TIP3    H2 2461   4.859   5.097   2.492
  819TIP3   OH2 2462   4.133   0.429   2.264
  819TIP3    H1 2463   4.156   0.520   2.286
  819TIP3    H2 2464   4.037   0.427   2.267
  820TIP3   OH2 2465   3.995   2.882   2.012
  820TIP3    H1 2466   3.940   2.831   1.953
  820TIP3    H2 2467   4.066   2.823   2.037
  821TIP3   OH2 2468   3.283   2.236   0.105
  821TIP3    H1 2469   3.322   2.311   0.060
  821TIP3    H2 2470   3.241   2.273   0.182
  822TIP3   OH2 2471   6.305   0.571   1.184
  822TIP3    H1 2472   6.321   0.665   1.195
  822TIP3    H2 2473   6.214   0.565   1.155
  823TIP3   OH2 2474   0.288   0.107   4.846
  823TIP3    H1 2475   0.226   0.086   4.915
  823TIP3    H2 2476   0.244   0.173   4.793
  824TIP3   OH2 2477   3.396   5.153   4.332
  824TIP3    H1 2478   3.400   5.153   4.237
  824TIP3    H2 2479   3.315   5.106   4.353
  825TIP3   OH2 2480   2.934   0.471   0.474
  825TIP3    H1 2481   2.865   0.477   0.540
  825TIP3    H2 2482   2.988   0.549   0.489
  826TIP3   OH2 2483   1.739   2.244   4.785
  826TIP3    H1 2484   1.750   2.330   4.826
  826TIP3    H2 2485   1.818   2.233   4.732
  827TIP3   OH2 2486   3.047   1.747   1.841
  827TIP3    H1 2487   3.029   1.713   1.929
  827TIP3    H2 2488   3.046   1.669   1.785
  828TIP3   OH2 2489   4.958   3.138   0.171
  828TIP3    H1 2490   4.981   3.218   0.124
  828TIP3    H2 2491   5.029   3.077   0.152
  829TIP3   OH2 2492   5.612   2.413   0.382
  829TIP3    H1 2493   5.701   2.448   0.386
  829TIP3    H2 2494   5.555   2.489   0.391
  830TIP3   OH2 2495   5.233   3.716   2.177
  830TIP3    H1 2496   5.293   3.711   2.103
  830TIP3    H2 2497   5.263   3.791   2.228
  831TIP3   OH2 2498   0.061   0.760   3.763
  831TIP3    H1 2499  -0.007   0.695   3.779
  831TIP3    H2 2500   0.062   0.772   3.668
  832TIP3   OH2 2501   5.012   5.934   3.028
  832TIP3    H1 2502   5.062   5.932   2.946
  832TIP3    H2 2503   5.066   5.883   3.090
  833TIP3   OH2 2504   4.933   1.127   3.194
  833TIP3    H1 2505   4.887   1.053   3.234
  833TIP3    H2 2506   4.906   1.125   3.102
  834TIP3   OH2 2507   4.927   5.047   1.506
  834TIP3    H1 2508   4.918   5.000   1.589
  834TIP3    H2 2509   4.869   5.122   1.515
  835TIP3   OH2 2510   5.605   1.360   2.321
  835TIP3    H1 2511   5.580   1.380   2.231
  835TIP3    H2 2512   5.526   1.324   2.361
  836TIP3   OH2 2513   1.525   2.916   1.767
  836TIP3    H1 2514   1.458   2.966   1.814
  836TIP3    H2 2515   1.501   2.825   1.780
  837TIP3   OH2 2516   4.658   3.898   4.876
  837TIP3    H1 2517   4.744   3.940   4.868
  837TIP3    H2 2518   4.657   3.831   4.808
  838TIP3   OH2 2519   3.614   0.857   3.587
  838TIP3    H1 2520   3.674   0.931   3.585
  838TIP3    H2 2521   3.529   0.894   3.613
  839TIP3   OH2 2522   1.534   1.524   2.563
  839TIP3    H1 2523   1.555   1.452   2.503
  839TIP3    H2 2524   1.619   1.561   2.586
  840TIP3   OH2 2525   5.975   2.991   1.731
  840TIP3    H1 2526   6.041   3.010   1.797
  840TIP3    H2 2527   5.922   2.921   1.770
  841TIP3   OH2 2528   5.475   0.779   3.548
  841TIP3    H1 2529   5.401   0.804   3.604
  841TIP3    H2 2530   5.552   0.797   3.600
  842TIP3   OH2 2531   1.591   5.394   1.430
  842TIP3    H1 2532   1.650   5.319   1.426
  842TIP3    H2 2533   1.529   5.372   1.500
  843TIP3   OH2 2534   3.562   5.384   0.644
  843TIP3    H1 2535   3.602   5.297   0.653
  843TIP3    H2 2536   3.469   5.369   0.663
  844TIP3   OH2 2537   2.926   1.989   2.389
  844TIP3    H1 2538   2.863   1.925   2.358
  844TIP3    H2 2539   3.003   1.936   2.412
  845TIP3   OH2 2540   5.228   4.593   2.480
  845TIP3    H1 2541   5.235   4.540   2.400
  845TIP3    H2 2542   5.149   4.559   2.524
  846TIP3   OH2 2543   0.607   1.298   3.890
  846TIP3    H1 2544   0.691   1.341   3.874
  846TIP3    H2 2545   0.593   1.242   3.813
  847TIP3   OH2 2546   5.848   4.272   3.116
  847TIP3    H1 2547   5.804   4.290   3.033
  847TIP3    H2 2548   5.940   4.262   3.092
  848TIP3   OH2 2549   0.675   5.389   3.209
  848TIP3    H1 2550   0.728   5.313   3.186
  848TIP3    H2 2551   0.585   5.361   3.193
  849TIP3   OH2 2552   3.148   3.043   3.526
  849TIP3    H1 2553   3.070   2.990   3.508
  849TIP3    H2 2554   3.185   3.061   3.439
  850TIP3   OH2 2555   3.028   0.342   0.848
  850TIP3    H1 2556   2.993   0.293   0.923
  850TIP3    H2 2557   3.122   0.349   0.866
  851TIP3   OH2 2558   4.235   2.767   5.124
  851TIP3    H1 2559   4.329   2.782   5.138
  851TIP3    H2 2560   4.230   2.678   5.090
  852TIP3   OH2 2561   3.420   5.784   4.243
  852TIP3    H1 2562   3.506   5.814   4.271
  852TIP3    H2 2563   3.414   5.694   4.276
  853TIP3   OH2 2564   1.674   5.676   0.359
  853TIP3    H1 2565   1.592   5.709   0.323
  853TIP3    H2 2566   1.739   5.694   0.291
  854TIP3   OH2 2567   3.324   4.238   1.972
  854TIP3    H1 2568   3.403   4.287   1.995
  854TIP3    H2 2569   3.304   4.265   1.882
  855TIP3   OH2 2570   3.723   1.160   4.756
  855TIP3    H1 2571   3.696   1.239   4.803
  855TIP3    H2 2572   3.795   1.125   4.809
  856TIP3   OH2 2573   0.365   4.872   3.704
  856TIP3    H1 2574   0.345   4.905   3.792
  856TIP3    H2 2575   0.449   4.911   3.682
  857TIP3   OH2 2576   1.530   0.780   4.946
  857TIP3    H1 2577   1.459   0.815   4.893
  857TIP3    H2 2578   1.609   0.824   4.913
  858TIP3   OH2 2579   4.355   0.917   2.188
  858TIP3    H1 2580   4.279   0.909   2.132
  858TIP3    H2 2581   4.320   0.916   2.277
  859TIP3   OH2 2582   0.354   1.525   1.845
  859TIP3    H1 2583   0.339   1.497   1.755
  859TIP3    H2 2584   0.330   1.617   1.846
  860TIP3   OH2 2585   0.594   3.730   2.487
  860TIP3    H1 2586   0.634   3.715   2.402
  860TIP3    H2 2587   0.657   3.693   2.550
  861TIP3   OH2 2588   1.693   2.906   2.137
  861TIP3    H1 2589   1.697   2.940   2.048
  861TIP3    H2 2590   1.784   2.909   2.168
  862TIP3   OH2 2591   0.148   0.456   4.270
  862TIP3    H1 2592   0.131   0.525   4.206
  862TIP3    H2 2593   0.181   0.502   4.347
  863TIP3   OH2 2594   4.226   0.803   0.928
  863TIP3    H1 2595   4.290   0.753   0.877
  863TIP3    H2 2596   4.141   0.782   0.889
  864TIP3   OH2 2597   5.586   1.262   0.530
  864TIP3    H1 2598   5.571   1.219   0.446
  864TIP3    H2 2599   5.619   1.349   0.507
  865TIP3   OH2 2600   5.013   3.317   3.285
  865TIP3    H1 2601   4.920   3.333   3.273
  865TIP3    H2 2602   5.053   3.404   3.283
  866TIP3   OH2 2603   4.644   0.258   1.319
  866TIP3    H1 2604   4.735   0.266   1.348
  866TIP3    H2 2605   4.600   0.334   1.356
  867TIP3   OH2 2606   2.504   1.975   5.155
  867TIP3    H1 2607   2.465   1.896   5.117
  867TIP3    H2 2608   2.429   2.031   5.174
  868TIP3   OH2 2609   5.360   0.657   0.440
  868TIP3    H1 2610   5.325   0.616   0.519
  868TIP3    H2 2611   5.390   0.743   0.468
  869TIP3   OH2 2612   4.519   4.585   0.473
  869TIP3    H1 2613   4.561   4.634   0.543
  869TIP3    H2 2614   4.428   4.577   0.500
  870TIP3   OH2 2615   4.812   3.222   3.836
  870TIP3    H1 2616   4.776   3.134   3.839
  870TIP3    H2 2617   4.837   3.235   3.745
  871TIP3   OH2 2618   3.228   0.641  -0.028
  871TIP3    H1 2619   3.318   0.670  -0.041
  871TIP3    H2 2620   3.235   0.548  -0.009
  872TIP3   OH2 2621   3.420   3.055   1.512
  872TIP3    H1 2622   3.370   3.069   1.592
  872TIP3    H2 2623   3.496   3.003   1.539
  873TIP3   OH2 2624   4.605   0.730   4.517
  873TIP3    H1 2625   4.590   0.756   4.426
  873TIP3    H2 2626   4.519   0.701   4.548
  874TIP3   OH2 2627   3.926   3.925   2.624
  874TIP3    H1 2628   4.022   3.930   2.627
  874TIP3    H2 2629   3.897   4.017   2.627
  875TIP3   OH2 2630   2.341   2.658   2.832
  875TIP3    H1 2631   2.370   2.582   2.883
  875TIP3    H2 2632   2.348   2.732   2.893
  876TIP3   OH2 2633   2.090   2.515   2.001
  876TIP3    H1 2634   2.025   2.564   1.950
  876TIP3    H2 2635   2.102   2.566   2.081
  877TIP3   OH2 2636   3.699   3.523   3.390
  877TIP3    H1 2637   3.639   3.583   3.434
  877TIP3    H2 2638   3.786   3.555   3.413
  878TIP3   OH2 2639   5.294   4.036   1.221
  878TIP3    H1 2640   5.221   4.093   1.198
  878TIP3    H2 2641   5.316   3.990   1.140
  879TIP3   OH2 2642   1.949   5.608   1.440
  879TIP3    H1 2643   1.995   5.682   1.480
  879TIP3    H2 2644   2.012   5.536   1.443
  880TIP3   OH2 2645   1.806   5.021   3.165
  880TIP3    H1 2646   1.747   4.982   3.101
  880TIP3    H2 2647   1.803   5.115   3.148
  881TIP3   OH2 2648   1.369   2.742  -0.024
  881TIP3    H1 2649   1.419   2.807  -0.075
  881TIP3    H2 2650   1.339   2.790   0.053
  882TIP3   OH2 2651   2.605   2.478   1.792
  882TIP3    H1 2652   2.661   2.444   1.723
  882TIP3    H2 2653   2.521   2.434   1.779
  883TIP3   OH2 2654   2.801   2.247   4.107
  883TIP3    H1 2655   2.805   2.268   4.013
  883TIP3    H2 2656   2.873   2.185   4.120
  884TIP3   OH2 2657   1.308   2.348   2.895
  884TIP3    H1 2658   1.332   2.401   2.971
  884TIP3    H2 2659   1.314   2.258   2.926
  885TIP3   OH2 2660   2.011   0.507   2.009
  885TIP3    H1 2661   1.952   0.510   2.085
  885TIP3    H2 2662   2.098   0.498   2.047
  886TIP3   OH2 2663   0.670   1.811   3.054
  886TIP3    H1 2664   0.744   1.756   3.078
  886TIP3    H2 2665   0.621   1.759   2.990
  887TIP3   OH2 2666   4.798   3.893   2.815
  887TIP3    H1 2667   4.837   3.968   2.859
  887TIP3    H2 2668   4.800   3.915   2.722
  888TIP3   OH2 2669   1.605   3.400   3.331
  888TIP3    H1 2670   1.693   3.428   3.305
  888TIP3    H2 2671   1.556   3.482   3.341
  889TIP3   OH2 2672   2.976   4.681   4.295
  889TIP3    H1 2673   3.029   4.693   4.373
  889TIP3    H2 2674   3.012   4.603   4.253
  890TIP3   OH2 2675   1.233   4.492   0.106
  890TIP3    H1 2676   1.258   4.517   0.195
  890TIP3    H2 2677   1.233   4.397   0.108
  891TIP3   OH2 2678   0.989   3.916   3.833
  891TIP3    H1 2679   1.073   3.918   3.879
  891TIP3    H2 2680   0.963   4.008   3.827
  892TIP3   OH2 2681   2.177   2.088   3.619
  892TIP3    H1 2682   2.121   2.090   3.542
  892TIP3    H2 2683   2.239   2.017   3.602
  893TIP3   OH2 2684   0.738   0.702   4.250
  893TIP3    H1 2685   0.752   0.658   4.167
  893TIP3    H2 2686   0.714   0.631   4.310
  894TIP3   OH2 2687   1.053   3.986   2.947
  894TIP3    H1 2688   1.130   4.043   2.936
  894TIP3    H2 2689   1.055   3.928   2.871
  895TIP3   OH2 2690   5.267   5.257   0.665
  895TIP3    H1 2691   5.232   5.347   0.667
  895TIP3    H2 2692   5.360   5.268   0.687
  896TIP3   OH2 2693   2.434   0.898   4.004
  896TIP3    H1 2694   2.393   0.845   4.072
  896TIP3    H2 2695   2.519   0.923   4.041
  897TIP3   OH2 2696   4.935   6.031   4.470
  897TIP3    H1 2697   4.849   6.010   4.435
  897TIP3    H2 2698   4.917   6.087   4.546
  898TIP3   OH2 2699   2.666   1.875   2.700
  898TIP3    H1 2700   2.660   1.793   2.749
  898TIP3    H2 2701   2.695   1.848   2.613
  899TIP3   OH2 2702   5.299   1.481   4.353
  899TIP3    H1 2703   5.297   1.542   4.427
  899TIP3    H2 2704   5.209   1.451   4.343
  900TIP3   OH2 2705   1.896   3.523   4.978
  900TIP3    H1 2706   1.945   3.599   5.008
  900TIP3    H2 2707   1.818   3.521   5.035
  901TIP3   OH2 2708   1.456   0.664   0.483
  901TIP3    H1 2709   1.412   0.638   0.564
  901TIP3    H2 2710   1.499   0.585   0.452
  902TIP3   OH2 2711   2.950   1.941   1.453
  902TIP3    H1 2712   2.967   1.847   1.453
  902TIP3    H2 2713   2.908   1.957   1.538
  903TIP3   OH2 2714   0.952   1.236   4.660
  903TIP3    H1 2715   0.891   1.193   4.721
  903TIP3    H2 2716   0.913   1.221   4.574
  904TIP3   OH2 2717   4.878   2.623   0.367
  904TIP3    H1 2718   4.905   2.532   0.358
  904TIP3    H2 2719   4.878   2.658   0.278
  905TIP3   OH2 2720   5.041   4.186   3.407
  905TIP3    H1 2721   5.116   4.240   3.433
  905TIP3    H2 2722   4.999   4.162   3.490
  906TIP3   OH2 2723   0.870   5.688   4.469
  906TIP3    H1 2724   0.922   5.762   4.499
  906TIP3    H2 2725   0.920   5.651   4.396
  907TIP3   OH2 2726   6.299   0.226   4.896
  907TIP3    H1 2727   6.326   0.317   4.898
  907TIP3    H2 2728   6.229   0.223   4.830
  908TIP3   OH2 2729   2.951   3.225   3.726
  908TIP3    H1 2730   3.002   3.291   3.680
  908TIP3    H2 2731   2.870   3.218   3.676
  909TIP3   OH2 2732   3.156   2.514   2.569
  909TIP3    H1 2733   3.093   2.453   2.607
  909TIP3    H2 2734   3.192   2.468   2.493
  910TIP3   OH2 2735   4.835   3.702   0.625
  910TIP3    H1 2736   4.810   3.614   0.656
  910TIP3    H2 2737   4.827   3.696   0.530
  911TIP3   OH2 2738   0.835   3.250   3.645
  911TIP3    H1 2739   0.772   3.200   3.698
  911TIP3    H2 2740   0.878   3.308   3.708
  912TIP3   OH2 2741   3.357   0.738   3.698
  912TIP3    H1 2742   3.315   0.817   3.733
  912TIP3    H2 2743   3.363   0.754   3.603
  913TIP3   OH2 2744   0.533   3.294   5.188
  913TIP3    H1 2745   0.451   3.247   5.202
  913TIP3    H2 2746   0.509   3.387   5.197
  914TIP3   OH2 2747   4.732   1.077   1.168
  914TIP3    H1 2748   4.724   1.104   1.259
  914TIP3    H2 2749   4.776   1.150   1.125
  915TIP3   OH2 2750   2.761   5.348   3.946
  915TIP3    H1 2751   2.761   5.297   3.865
  915TIP3    H2 2752   2.743   5.284   4.015
  916TIP3   OH2 2753   4.598   5.257   0.555
  916TIP3    H1 2754   4.689   5.268   0.583
  916TIP3    H2 2755   4.564   5.186   0.609
  917TIP3   OH2 2756   6.169   4.051   4.684
  917TIP3    H1 2757   6.095   3.994   4.665
  917TIP3    H2 2758   6.151   4.084   4.772
  918TIP3   OH2 2759   5.766   3.846   1.073
  918TIP3    H1 2760   5.819   3.845   0.993
  918TIP3    H2 2761   5.768   3.938   1.101
  919TIP3   OH2 2762   1.907   0.067   0.474
  919TIP3    H1 2763   1.950  -0.014   0.500
  919TIP3    H2 2764   1.925   0.074   0.380
  920TIP3   OH2 2765   4.163   2.992   1.546
  920TIP3    H1 2766   4.236   3.001   1.607
  920TIP3    H2 2767   4.137   2.900   1.553
  921TIP3   OH2 2768   3.525   4.558   3.746
  921TIP3    H1 2769   3.584   4.582   3.818
  921TIP3    H2 2770   3.549   4.468   3.725
  922TIP3   OH2 2771   2.850   2.650   0.163
  922TIP3    H1 2772   2.773   2.594   0.176
  922TIP3    H2 2773   2.870   2.643   0.070
  923TIP3   OH2 2774   0.053   3.709   4.884
  923TIP3    H1 2775   0.006   3.746   4.809
  923TIP3    H2 2776   0.043   3.774   4.953
  924TIP3   OH2 2777   2.386   2.554   4.887
  924TIP3    H1 2778   2.355   2.644   4.894
  924TIP3    H2 2779   2.424   2.549   4.800
  925TIP3   OH2 2780   1.222   1.753   2.599
  925TIP3    H1 2781   1.202   1.843   2.625
  925TIP3    H2 2782   1.317   1.749   2.595
  926TIP3   OH2 2783   3.563   1.090   0.126
  926TIP3    H1 2784   3.481   1.099   0.078
  926TIP3    H2 2785   3.619   1.040   0.066
  927TIP3   OH2 2786   2.667   0.524   2.723
  927TIP3    H1 2787   2.625   0.439   2.737
  927TIP3    H2 2788   2.759   0.503   2.708
  928TIP3   OH2 2789   5.357   2.177   5.034
  928TIP3    H1 2790   5.274   2.142   5.002
  928TIP3    H2 2791   5.402   2.209   4.956
  929TIP3   OH2 2792   1.473   1.099   0.627
  929TIP3    H1 2793   1.474   1.177   0.682
  929TIP3    H2 2794   1.563   1.066   0.631
  930TIP3   OH2 2795   4.109   4.906   0.800
  930TIP3    H1 2796   4.152   4.942   0.722
  930TIP3    H2 2797   4.140   4.816   0.806
  931TIP3   OH2 2798   2.611   1.362   1.094
  931TIP3    H1 2799   2.551   1.422   1.050
  931TIP3    H2 2800   2.555   1.289   1.123
  932TIP3   OH2 2801   5.930   3.345   4.015
  932TIP3    H1 2802   5.980   3.311   3.940
  932TIP3    H2 2803   5.868   3.407   3.976
  933TIP3   OH2 2804   0.070   0.255   1.198
  933TIP3    H1 2805   0.162   0.229   1.196
  933TIP3    H2 2806   0.068   0.331   1.256
  934TIP3   OH2 2807   2.431   1.117   1.172
  934TIP3    H1 2808   2.406   1.031   1.140
  934TIP3    H2 2809   2.349   1.164   1.182
  935TIP3   OH2 2810   4.161   5.019   1.278
  935TIP3    H1 2811   4.165   5.055   1.190
  935TIP3    H2 2812   4.095   5.072   1.323
  936TIP3   OH2 2813   4.543   3.568   3.257
  936TIP3    H1 2814   4.535   3.659   3.227
  936TIP3    H2 2815   4.474   3.559   3.323
  937TIP3   OH2 2816   2.140   4.573   3.943
  937TIP3    H1 2817   2.146   4.639   3.875
  937TIP3    H2 2818   2.048   4.576   3.972
  938TIP3   OH2 2819   1.593   4.728   1.224
  938TIP3    H1 2820   1.508   4.685   1.229
  938TIP3    H2 2821   1.596   4.766   1.136
  939TIP3   OH2 2822   0.827   2.607   3.903
  939TIP3    H1 2823   0.911   2.564   3.891
  939TIP3    H2 2824   0.776   2.583   3.825
  940TIP3   OH2 2825   3.344   5.028   2.207
  940TIP3    H1 2826   3.398   5.074   2.271
  940TIP3    H2 2827   3.367   4.935   2.218
  941TIP3   OH2 2828   0.508   0.897   3.297
  941TIP3    H1 2829   0.482   0.977   3.343
  941TIP3    H2 2830   0.595   0.878   3.331
  942TIP3   OH2 2831   2.180   0.735   2.958
  942TIP3    H1 2832   2.127   0.666   2.997
  942TIP3    H2 2833   2.261   0.691   2.932
  943TIP3   OH2 2834   3.618   2.451   2.672
  943TIP3    H1 2835   3.674   2.434   2.748
  943TIP3    H2 2836   3.536   2.406   2.691
  944TIP3   OH2 2837   3.529   5.561   4.946
  944TIP3    H1 2838   3.597   5.628   4.934
  944TIP3    H2 2839   3.490   5.581   5.031
  945TIP3   OH2 2840   2.309   2.211   4.885
  945TIP3    H1 2841   2.249   2.137   4.896
  945TIP3    H2 2842   2.388   2.172   4.847
  946TIP3   OH2 2843   5.254   4.312   3.592
  946TIP3    H1 2844   5.346   4.338   3.584
  946TIP3    H2 2845   5.231   4.333   3.683
  947TIP3   OH2 2846   3.114   0.725   4.133
  947TIP3    H1 2847   3.178   0.772   4.080
  947TIP3    H2 2848   3.042   0.706   4.074
  948TIP3   OH2 2849   0.326   5.371   4.502
  948TIP3    H1 2850   0.356   5.411   4.421
  948TIP3    H2 2851   0.232   5.357   4.489
  949TIP3   OH2 2852   5.127   2.996   1.346
  949TIP3    H1 2853   5.119   2.926   1.411
  949TIP3    H2 2854   5.154   2.950   1.266
  950TIP3   OH2 2855   4.162   0.711   2.319
  950TIP3    H1 2856   4.098   0.769   2.277
  950TIP3    H2 2857   4.115   0.674   2.393
  951TIP3   OH2 2858   2.964   4.241   1.466
  951TIP3    H1 2859   3.014   4.177   1.516
  951TIP3    H2 2860   2.988   4.325   1.504
  952TIP3   OH2 2861   1.009   5.855   2.674
  952TIP3    H1 2862   0.949   5.898   2.735
  952TIP3    H2 2863   0.955   5.832   2.599
  953TIP3   OH2 2864   2.526   3.986   3.853
  953TIP3    H1 2865   2.569   3.927   3.790
  953TIP3    H2 2866   2.529   4.072   3.812
  954TIP3   OH2 2867   3.831   2.628   3.247
  954TIP3    H1 2868   3.740   2.613   3.220
  954TIP3    H2 2869   3.853   2.713   3.210
  955TIP3   OH2 2870   6.274   3.820   1.486
  955TIP3    H1 2871   6.198   3.826   1.428
  955TIP3    H2 2872   6.347   3.802   1.427
  956TIP3   OH2 2873   3.275   5.566   5.102
  956TIP3    H1 2874   3.200   5.613   5.139
  956TIP3    H2 2875   3.351   5.616   5.128
  957TIP3   OH2 2876   4.007   0.708   2.567
  957TIP3    H1 2877   4.024   0.800   2.586
  957TIP3    H2 2878   4.084   0.662   2.601
  958TIP3   OH2 2879   5.137   3.981   4.550
  958TIP3    H1 2880   5.059   3.977   4.605
  958TIP3    H2 2881   5.103   3.995   4.462
  959TIP3   OH2 2882   5.639   1.085   4.958
  959TIP3    H1 2883   5.656   1.000   4.917
  959TIP3    H2 2884   5.549   1.079   4.991
  960TIP3   OH2 2885   2.056   5.351   5.160
  960TIP3    H1 2886   2.117   5.414   5.122
  960TIP3    H2 2887   2.104   5.268   5.162
  961TIP3   OH2 2888   1.041   5.463   1.108
  961TIP3    H1 2889   1.115   5.517   1.134
  961TIP3    H2 2890   1.080   5.390   1.060
  962TIP3   OH2 2891   4.452   1.997   0.585
  962TIP3    H1 2892   4.546   2.006   0.567
  962TIP3    H2 2893   4.435   1.903   0.578
  963TIP3   OH2 2894   3.467   1.701   1.182
  963TIP3    H1 2895   3.401   1.756   1.224
  963TIP3    H2 2896   3.549   1.723   1.228
  964TIP3   OH2 2897   2.842   4.257   4.824
  964TIP3    H1 2898   2.773   4.212   4.775
  964TIP3    H2 2899   2.795   4.318   4.881
  965TIP3   OH2 2900   3.439   4.783   2.553
  965TIP3    H1 2901   3.388   4.732   2.490
  965TIP3    H2 2902   3.515   4.727   2.572
  966TIP3   OH2 2903   6.089   5.182   1.454
  966TIP3    H1 2904   6.091   5.260   1.509
  966TIP3    H2 2905   6.148   5.204   1.381
  967TIP3   OH2 2906   5.897   3.992   0.112
  967TIP3    H1 2907   5.846   3.955   0.040
  967TIP3    H2 2908   5.833   4.010   0.180
  968TIP3   OH2 2909   6.309   0.274   4.309
  968TIP3    H1 2910   6.389   0.327   4.310
  968TIP3    H2 2911   6.239   0.336   4.330
  969TIP3   OH2 2912   4.249   2.251   3.807
  969TIP3    H1 2913   4.265   2.331   3.757
  969TIP3    H2 2914   4.178   2.273   3.867
  970TIP3   OH2 2915   6.167   5.727   3.054
  970TIP3    H1 2916   6.130   5.811   3.081
  970TIP3    H2 2917   6.182   5.736   2.960
  971TIP3   OH2 2918   4.141   0.333   3.145
  971TIP3    H1 2919   4.093   0.276   3.205
  971TIP3    H2 2920   4.182   0.398   3.202
  972TIP3   OH2 2921   3.500   2.666   0.998
  972TIP3    H1 2922   3.490   2.584   0.949
  972TIP3    H2 2923   3.548   2.640   1.077
  973TIP3   OH2 2924   5.438   4.220   1.374
  973TIP3    H1 2925   5.503   4.275   1.330
  973TIP3    H2 2926   5.426   4.145   1.316
  974TIP3   OH2 2927   4.265   2.865   1.221
  974TIP3    H1 2928   4.327   2.908   1.280
  974TIP3    H2 2929   4.251   2.927   1.150
  975TIP3   OH2 2930   2.517   2.784   3.045
  975TIP3    H1 2931   2.503   2.868   3.001
  975TIP3    H2 2932   2.605   2.758   3.019
  976TIP3   OH2 2933   4.091   3.264   2.210
  976TIP3    H1 2934   4.009   3.237   2.170
  976TIP3    H2 2935   4.158   3.211   2.166
  977TIP3   OH2 2936   4.990   0.975   4.756
  977TIP3    H1 2937   4.996   0.880   4.749
  977TIP3    H2 2938   4.926   0.989   4.826
  978TIP3   OH2 2939   6.284   5.168   2.591
  978TIP3    H1 2940   6.337   5.240   2.626
  978TIP3    H2 2941   6.338   5.090   2.606
  979TIP3   OH2 2942   3.345   5.744   1.334
  979TIP3    H1 2943   3.262   5.779   1.302
  979TIP3    H2 2944   3.397   5.732   1.255
  980TIP3   OH2 2945   3.767   2.339   4.650
  980TIP3    H1 2946   3.817   2.395   4.709
  980TIP3    H2 2947   3.808   2.352   4.564
  981TIP3   OH2 2948   2.622   1.959   0.569
  981TIP3    H1 2949   2.585   1.878   0.533
  981TIP3    H2 2950   2.666   1.932   0.650
  982TIP3   OH2 2951   6.332   3.548   1.206
  982TIP3    H1 2952   6.283   3.484   1.257
  982TIP3    H2 2953   6.379   3.599   1.272
  983TIP3   OH2 2954   1.093   5.395   4.126
  983TIP3    H1 2955   1.078   5.436   4.041
  983TIP3    H2 2956   1.029   5.325   4.131
  984TIP3   OH2 2957   1.256   2.459   2.296
  984TIP3    H1 2958   1.332   2.431   2.348
  984TIP3    H2 2959   1.183   2.457   2.358
  985TIP3   OH2 2960   0.427   1.841   3.963
  985TIP3    H1 2961   0.400   1.768   3.907
  985TIP3    H2 2962   0.392   1.919   3.918
  986TIP3   OH2 2963   5.678   0.597   1.045
  986TIP3    H1 2964   5.733   0.588   0.968
  986TIP3    H2 2965   5.739   0.594   1.119
  987TIP3   OH2 2966   0.118   4.614   4.907
  987TIP3    H1 2967   0.040   4.647   4.862
  987TIP3    H2 2968   0.107   4.519   4.907
  988TIP3   OH2 2969   1.413   3.843   2.777
  988TIP3    H1 2970   1.353   3.851   2.703
  988TIP3    H2 2971   1.449   3.755   2.770
  989TIP3   OH2 2972   3.704   5.062   2.687
  989TIP3    H1 2973   3.771   4.995   2.687
  989TIP3    H2 2974   3.641   5.033   2.753
  990TIP3   OH2 2975   0.942   4.614   1.605
  990TIP3    H1 2976   1.022   4.569   1.632
  990TIP3    H2 2977   0.875   4.546   1.603
  991TIP3   OH2 2978   0.734   5.106   1.288
  991TIP3    H1 2979   0.802   5.158   1.244
  991TIP3    H2 2980   0.671   5.086   1.218
  992TIP3   OH2 2981   4.397   0.510   1.167
  992TIP3    H1 2982   4.444   0.552   1.239
  992TIP3    H2 2983   4.309   0.549   1.171
  993TIP3   OH2 2984   5.283   4.601   1.896
  993TIP3    H1 2985   5.264   4.604   1.990
  993TIP3    H2 2986   5.198   4.616   1.854
  994TIP3   OH2 2987   0.026   0.335   0.377
  994TIP3    H1 2988   0.075   0.257   0.400
  994TIP3    H2 2989  -0.057   0.327   0.425
  995TIP3   OH2 2990   5.508   4.833   0.929
  995TIP3    H1 2991   5.560   4.755   0.911
  995TIP3    H2 2992   5.507   4.840   1.024
  996TIP3   OH2 2993   4.034   4.934   4.639
  996TIP3    H1 2994   3.962   4.967   4.692
  996TIP3    H2 2995   4.026   4.838   4.645
  997TIP3   OH2 2996   3.760   1.729   5.024
  997TIP3    H1 2997   3.778   1.716   5.117
  997TIP3    H2 2998   3.667   1.748   5.019
  998TIP3   OH2 2999   5.025   4.105   0.264
  998TIP3    H1 3000   5.045   4.014   0.239
  998TIP3    H2 3001   5.110   4.149   0.262
  999TIP3   OH2 3002   4.624   1.110   4.693
  999TIP3    H1 3003   4.556   1.176   4.709
  999TIP3    H2 3004   4.706   1.154   4.716
 1000TIP3   OH2 3005   2.034   2.667   3.456
 1000TIP3    H1 3006   1.956   2.716   3.432
 1000TIP3    H2 3007   2.104   2.732   3.455
 1001TIP3   OH2 3008   3.444   4.122   0.254
 1001TIP3    H1 3009   3.515   4.145   0.193
 1001TIP3    H2 3010   3.465   4.034   0.283
 1002TIP3   OH2 3011   2.434   1.013   0.906
 1002TIP3    H1 3012   2.345   0.986   0.929
 1002TIP3    H2 3013   2.426   1.107   0.888
 1003TIP3   OH2 3014   5.967   5.235   3.222
 1003TIP3    H1 3015   6.005   5.287   3.152
 1003TIP3    H2 3016   5.938   5.299   3.287
 1004TIP3   OH2 3017   1.668   4.315   0.606
 1004TIP3    H1 3018   1.672   4.229   0.648
 1004TIP3    H2 3019   1.745   4.361   0.639
 1005TIP3   OH2 3020   4.230   1.966   2.465
 1005TIP3    H1 3021   4.299   1.900   2.469
 1005TIP3    H2 3022   4.272   2.041   2.422
 1006TIP3   OH2 3023   0.272   5.619   0.499
 1006TIP3    H1 3024   0.298   5.706   0.530
 1006TIP3    H2 3025   0.197   5.636   0.443
 1007TIP3   OH2 3026   2.017   0.743   3.734
 1007TIP3    H1 3027   1.955   0.770   3.667
 1007TIP3    H2 3028   2.096   0.719   3.685
 1008TIP3   OH2 3029   2.985   3.314   2.301
 1008TIP3    H1 3030   2.891   3.325   2.314
 1008TIP3    H2 3031   2.996   3.221   2.280
 1009TIP3   OH2 3032   2.230   1.270   5.150
 1009TIP3    H1 3033   2.161   1.215   5.188
 1009TIP3    H2 3034   2.188   1.313   5.076
 1010TIP3   OH2 3035   2.577   1.853   1.591
 1010TIP3    H1 3036   2.615   1.801   1.521
 1010TIP3    H2 3037   2.645   1.857   1.659
 1011TIP3   OH2 3038   4.076   5.658   4.429
 1011TIP3    H1 3039   4.142   5.712   4.386
 1011TIP3    H2 3040   4.115   5.572   4.436
 1012TIP3   OH2 3041   0.173   2.396   3.547
 1012TIP3    H1 3042   0.210   2.463   3.490
 1012TIP3    H2 3043   0.145   2.443   3.625
 1013TIP3   OH2 3044   4.939   3.830   1.533
 1013TIP3    H1 3045   4.849   3.803   1.552
 1013TIP3    H2 3046   4.933   3.924   1.518
 1014TIP3   OH2 3047   5.100   4.989   4.710
 1014TIP3    H1 3048   5.096   4.894   4.715
 1014TIP3    H2 3049   5.029   5.013   4.650
 1015TIP3   OH2 3050   4.848   4.559   4.101
 1015TIP3    H1 3051   4.798   4.635   4.073
 1015TIP3    H2 3052   4.870   4.514   4.019
 1016TIP3   OH2 3053   5.153   0.447   4.346
 1016TIP3    H1 3054   5.143   0.515   4.413
 1016TIP3    H2 3055   5.109   0.482   4.269
 1017TIP3   OH2 3056   6.371   0.661   3.225
 1017TIP3    H1 3057   6.454   0.707   3.214
 1017TIP3    H2 3058   6.319   0.718   3.282
 1018TIP3   OH2 3059   4.831   5.861   0.650
 1018TIP3    H1 3060   4.853   5.810   0.572
 1018TIP3    H2 3061   4.818   5.796   0.719
 1019TIP3   OH2 3062   4.529   5.080   4.854
 1019TIP3    H1 3063   4.552   5.015   4.920
 1019TIP3    H2 3064   4.465   5.035   4.797
 1020TIP3   OH2 3065   6.212   5.522   4.680
 1020TIP3    H1 3066   6.205   5.439   4.727
 1020TIP3    H2 3067   6.251   5.583   4.743
 1021TIP3   OH2 3068   0.773   3.240   0.356
 1021TIP3    H1 3069   0.709   3.169   0.361
 1021TIP3    H2 3070   0.764   3.287   0.439
 1022TIP3   OH2 3071   1.998   3.407   1.645
 1022TIP3    H1 3072   1.977   3.336   1.584
 1022TIP3    H2 3073   1.942   3.391   1.721
 1023TIP3   OH2 3074   1.055   2.691   3.549
 1023TIP3    H1 3075   0.987   2.752   3.579
 1023TIP3    H2 3076   1.123   2.747   3.513
 1024TIP3   OH2 3077  -0.028   1.243   2.110
 1024TIP3    H1 3078  -0.028   1.154   2.077
 1024TIP3    H2 3079   0.064   1.270   2.109
 1025TIP3   OH2 3080   3.943   1.379   4.312
 1025TIP3    H1 3081   3.910   1.417   4.230
 1025TIP3    H2 3082   3.908   1.437   4.380
 1026TIP3   OH2 3083   3.599   2.390   4.995
 1026TIP3    H1 3084   3.695   2.391   5.001
 1026TIP3    H2 3085   3.580   2.342   4.915
 1027TIP3   OH2 3086   3.612   3.924   3.157
 1027TIP3    H1 3087   3.695   3.954   3.118
 1027TIP3    H2 3088   3.545   3.953   3.096
 1028TIP3   OH2 3089   4.068   1.803   1.491
 1028TIP3    H1 3090   4.143   1.769   1.443
 1028TIP3    H2 3091   4.095   1.891   1.518
 1029TIP3   OH2 3092   6.123   2.744   0.263
 1029TIP3    H1 3093   6.179   2.724   0.188
 1029TIP3    H2 3094   6.114   2.661   0.310
 1030TIP3   OH2 3095   5.004  -0.032   2.467
 1030TIP3    H1 3096   4.947   0.012   2.529
 1030TIP3    H2 3097   5.061  -0.087   2.521
 1031TIP3   OH2 3098   5.897   1.171   0.755
 1031TIP3    H1 3099   5.885   1.250   0.703
 1031TIP3    H2 3100   5.882   1.199   0.845
 1032TIP3   OH2 3101   5.912   3.994   2.891
 1032TIP3    H1 3102   5.877   4.083   2.897
 1032TIP3    H2 3103   5.851   3.949   2.832
 1033TIP3   OH2 3104   0.990   4.692   0.645
 1033TIP3    H1 3105   1.074   4.709   0.688
 1033TIP3    H2 3106   1.008   4.701   0.552
 1034TIP3   OH2 3107   4.021   6.019   1.798
 1034TIP3    H1 3108   4.054   6.065   1.721
 1034TIP3    H2 3109   4.087   5.952   1.815
 1035TIP3   OH2 3110   0.443   3.147   3.582
 1035TIP3    H1 3111   0.382   3.169   3.512
 1035TIP3    H2 3112   0.420   3.057   3.607
 1036TIP3   OH2 3113   3.779   0.944   2.774
 1036TIP3    H1 3114   3.709   1.008   2.766
 1036TIP3    H2 3115   3.735   0.859   2.777
 1037TIP3   OH2 3116   0.387   4.373   3.156
 1037TIP3    H1 3117   0.365   4.283   3.135
 1037TIP3    H2 3118   0.308   4.423   3.137
 1038TIP3   OH2 3119   5.616   4.658   3.199
 1038TIP3    H1 3120   5.606   4.753   3.205
 1038TIP3    H2 3121   5.706   4.642   3.226
 1039TIP3   OH2 3122   2.107   3.863   4.435
 1039TIP3    H1 3123   2.037   3.798   4.437
 1039TIP3    H2 3124   2.116   3.886   4.342
 1040TIP3   OH2 3125   5.606   5.522   0.735
 1040TIP3    H1 3126   5.570   5.437   0.762
 1040TIP3    H2 3127   5.700   5.515   0.751
 1041TIP3   OH2 3128   5.733   2.845   1.346
 1041TIP3    H1 3129   5.710   2.900   1.271
 1041TIP3    H2 3130   5.679   2.878   1.418
 1042TIP3   OH2 3131   3.359   0.771   0.625
 1042TIP3    H1 3132   3.272   0.813   0.623
 1042TIP3    H2 3133   3.340   0.678   0.631
 1043TIP3   OH2 3134   1.381   3.987   1.324
 1043TIP3    H1 3135   1.475   3.982   1.345
 1043TIP3    H2 3136   1.338   3.948   1.400
 1044TIP3   OH2 3137   5.148   3.777   3.808
 1044TIP3    H1 3138   5.070   3.818   3.843
 1044TIP3    H2 3139   5.199   3.752   3.885
 1045TIP3   OH2 3140   3.440   0.136   1.567
 1045TIP3    H1 3141   3.363   0.173   1.611
 1045TIP3    H2 3142   3.440   0.176   1.480
 1046TIP3   OH2 3143   2.794   3.601   2.343
 1046TIP3    H1 3144   2.704   3.630   2.357
 1046TIP3    H2 3145   2.792   3.555   2.259
 1047TIP3   OH2 3146   4.031   1.451   1.959
 1047TIP3    H1 3147   3.945   1.424   1.991
 1047TIP3    H2 3148   4.021   1.544   1.939
 1048TIP3   OH2 3149   6.138   5.031   0.416
 1048TIP3    H1 3150   6.048   5.003   0.402
 1048TIP3    H2 3151   6.156   5.093   0.345
 1049TIP3   OH2 3152   3.789   4.909   5.061
 1049TIP3    H1 3153   3.757   4.931   5.149
 1049TIP3    H2 3154   3.825   4.821   5.069
 1050TIP3   OH2 3155   1.586   5.923   3.586
 1050TIP3    H1 3156   1.629   5.946   3.668
 1050TIP3    H2 3157   1.631   5.843   3.557
 1051TIP3   OH2 3158   3.653   1.535   2.590
 1051TIP3    H1 3159   3.578   1.594   2.588
 1051TIP3    H2 3160   3.686   1.541   2.680
 1052TIP3   OH2 3161   3.061   0.904   2.431
 1052TIP3    H1 3162   3.008   0.981   2.409
 1052TIP3    H2 3163   3.105   0.882   2.350
 1053TIP3   OH2 3164   3.892   4.833   2.897
 1053TIP3    H1 3165   3.902   4.927   2.911
 1053TIP3    H2 3166   3.819   4.808   2.953
 1054TIP3   OH2 3167   2.502   2.578   0.683
 1054TIP3    H1 3168   2.558   2.547   0.754
 1054TIP3    H2 3169   2.491   2.501   0.626
 1055TIP3   OH2 3170   3.417   4.774   2.199
 1055TIP3    H1 3171   3.494   4.762   2.255
 1055TIP3    H2 3172   3.345   4.733   2.248
 1056TIP3   OH2 3173   2.954   0.073   0.104
 1056TIP3    H1 3174   2.924   0.058   0.194
 1056TIP3    H2 3175   3.001   0.156   0.109
 1057TIP3   OH2 3176   2.628   3.327   3.249
 1057TIP3    H1 3177   2.717   3.334   3.285
 1057TIP3    H2 3178   2.576   3.292   3.322
 1058TIP3   OH2 3179   3.237   5.182   1.677
 1058TIP3    H1 3180   3.290   5.209   1.602
 1058TIP3    H2 3181   3.209   5.264   1.718
 1059TIP3   OH2 3182   5.116   3.430   2.891
 1059TIP3    H1 3183   5.068   3.434   2.808
 1059TIP3    H2 3184   5.087   3.347   2.931
 1060TIP3   OH2 3185   6.056   4.801   3.932
 1060TIP3    H1 3186   5.986   4.836   3.987
 1060TIP3    H2 3187   6.049   4.706   3.943
 1061TIP3   OH2 3188   2.951   1.346   1.398
 1061TIP3    H1 3189   3.027   1.336   1.341
 1061TIP3    H2 3190   2.931   1.257   1.427
 1062TIP3   OH2 3191   0.583   2.872   2.189
 1062TIP3    H1 3192   0.678   2.867   2.202
 1062TIP3    H2 3193   0.548   2.888   2.277
 1063TIP3   OH2 3194   5.465   0.305   2.347
 1063TIP3    H1 3195   5.462   0.279   2.255
 1063TIP3    H2 3196   5.412   0.240   2.393
 1064TIP3   OH2 3197   0.808   3.956   1.188
 1064TIP3    H1 3198   0.775   4.044   1.209
 1064TIP3    H2 3199   0.864   3.934   1.262
 1065TIP3   OH2 3200   3.138   4.052   3.585
 1065TIP3    H1 3201   3.180   4.138   3.589
 1065TIP3    H2 3202   3.104   4.037   3.674
 1066TIP3   OH2 3203   4.213   2.316   4.783
 1066TIP3    H1 3204   4.232   2.269   4.702
 1066TIP3    H2 3205   4.158   2.389   4.757
 1067TIP3   OH2 3206   3.436   0.700   1.273
 1067TIP3    H1 3207   3.352   0.662   1.300
 1067TIP3    H2 3208   3.478   0.727   1.355
 1068TIP3   OH2 3209   4.077   2.594   0.083
 1068TIP3    H1 3210   4.031   2.654   0.141
 1068TIP3    H2 3211   4.141   2.649   0.038
 1069TIP3   OH2 3212   2.945   3.486   4.170
 1069TIP3    H1 3213   3.029   3.533   4.168
 1069TIP3    H2 3214   2.943   3.436   4.088
 1070TIP3   OH2 3215   4.534   1.368   2.812
 1070TIP3    H1 3216   4.567   1.293   2.763
 1070TIP3    H2 3217   4.607   1.430   2.814
 1071TIP3   OH2 3218   6.250   0.351   2.180
 1071TIP3    H1 3219   6.266   0.267   2.138
 1071TIP3    H2 3220   6.334   0.397   2.175
 1072TIP3   OH2 3221   0.603   3.938   3.752
 1072TIP3    H1 3222   0.650   4.019   3.733
 1072TIP3    H2 3223   0.542   3.928   3.679
 1073TIP3   OH2 3224   6.078   5.644   3.517
 1073TIP3    H1 3225   6.116   5.651   3.605
 1073TIP3    H2 3226   5.986   5.670   3.528
 1074TIP3   OH2 3227   5.487   2.105   3.846
 1074TIP3    H1 3228   5.510   2.099   3.753
 1074TIP3    H2 3229   5.534   2.033   3.888
 1075TIP3   OH2 3230   3.685   3.848   4.181
 1075TIP3    H1 3231   3.695   3.870   4.088
 1075TIP3    H2 3232   3.593   3.824   4.190
 1076TIP3   OH2 3233   4.079   3.800   3.870
 1076TIP3    H1 3234   4.103   3.882   3.915
 1076TIP3    H2 3235   4.092   3.819   3.777
 1077TIP3   OH2 3236   5.621   5.492   4.087
 1077TIP3    H1 3237   5.528   5.509   4.100
 1077TIP3    H2 3238   5.665   5.571   4.119
 1078TIP3   OH2 3239   2.112   4.500   3.358
 1078TIP3    H1 3240   2.125   4.480   3.451
 1078TIP3    H2 3241   2.162   4.581   3.344
 1079TIP3   OH2 3242   4.517   0.094   2.264
 1079TIP3    H1 3243   4.507   0.163   2.330
 1079TIP3    H2 3244   4.482   0.016   2.307
 1080TIP3   OH2 3245   0.548   0.654   1.506
 1080TIP3    H1 3246   0.607   0.609   1.567
 1080TIP3    H2 3247   0.602   0.724   1.468
 1081TIP3   OH2 3248   5.385   3.607   3.457
 1081TIP3    H1 3249   5.461   3.658   3.485
 1081TIP3    H2 3250   5.332   3.598   3.536
 1082TIP3   OH2 3251   6.253   2.337   2.067
 1082TIP3    H1 3252   6.311   2.358   1.994
 1082TIP3    H2 3253   6.201   2.264   2.036
 1083TIP3   OH2 3254   5.466   4.870   0.061
 1083TIP3    H1 3255   5.407   4.937   0.097
 1083TIP3    H2 3256   5.421   4.787   0.077
 1084TIP3   OH2 3257   4.800   0.687   3.970
 1084TIP3    H1 3258   4.786   0.637   3.890
 1084TIP3    H2 3259   4.823   0.622   4.036
 1085TIP3   OH2 3260   1.556   3.611   3.016
 1085TIP3    H1 3261   1.557   3.573   2.928
 1085TIP3    H2 3262   1.637   3.662   3.021
 1086TIP3   OH2 3263   4.878   0.842   4.157
 1086TIP3    H1 3264   4.857   0.778   4.089
 1086TIP3    H2 3265   4.793   0.869   4.191
 1087TIP3   OH2 3266   2.873   4.723   1.396
 1087TIP3    H1 3267   2.821   4.781   1.452
 1087TIP3    H2 3268   2.957   4.715   1.440
 1088TIP3   OH2 3269   2.556   4.950   4.053
 1088TIP3    H1 3270   2.571   4.884   4.120
 1088TIP3    H2 3271   2.621   5.018   4.070
 1089TIP3   OH2 3272   3.562   1.897   0.427
 1089TIP3    H1 3273   3.629   1.875   0.491
 1089TIP3    H2 3274   3.491   1.836   0.444
 1090TIP3   OH2 3275   5.749   5.622   1.334
 1090TIP3    H1 3276   5.780   5.534   1.316
 1090TIP3    H2 3277   5.675   5.635   1.274
 1091TIP3   OH2 3278   4.039   5.311   3.306
 1091TIP3    H1 3279   4.003   5.325   3.393
 1091TIP3    H2 3280   3.977   5.353   3.247
 1092TIP3   OH2 3281   0.386   1.138   2.026
 1092TIP3    H1 3282   0.378   1.117   1.932
 1092TIP3    H2 3283   0.315   1.199   2.043
 1093TIP3   OH2 3284   4.766   0.897   3.265
 1093TIP3    H1 3285   4.687   0.935   3.227
 1093TIP3    H2 3286   4.740   0.809   3.290
 1094TIP3   OH2 3287   4.224   0.406   2.889
 1094TIP3    H1 3288   4.316   0.380   2.883
 1094TIP3    H2 3289   4.202   0.394   2.982
 1095TIP3   OH2 3290   4.243   0.162   3.536
 1095TIP3    H1 3291   4.151   0.172   3.558
 1095TIP3    H2 3292   4.284   0.133   3.618
 1096TIP3   OH2 3293   6.378   0.808   1.405
 1096TIP3    H1 3294   6.296   0.851   1.379
 1096TIP3    H2 3295   6.387   0.830   1.498
 1097TIP3   OH2 3296   1.408   0.082   4.453
 1097TIP3    H1 3297   1.446   0.002   4.490
 1097TIP3    H2 3298   1.316   0.060   4.439
 1098TIP3   OH2 3299   5.670   4.593   2.394
 1098TIP3    H1 3300   5.678   4.662   2.328
 1098TIP3    H2 3301   5.638   4.638   2.472
 1099TIP3   OH2 3302   1.431   0.063   5.070
 1099TIP3    H1 3303   1.500   0.104   5.017
 1099TIP3    H2 3304   1.467   0.061   5.159
 1100TIP3   OH2 3305   6.255   1.260   2.782
 1100TIP3    H1 3306   6.248   1.324   2.852
 1100TIP3    H2 3307   6.210   1.301   2.708
 1101TIP3   OH2 3308   3.585   4.945   2.054
 1101TIP3    H1 3309   3.555   4.860   2.086
 1101TIP3    H2 3310   3.526   5.008   2.094
 1102TIP3   OH2 3311   5.862   3.312   0.511
 1102TIP3    H1 3312   5.793   3.251   0.487
 1102TIP3    H2 3313   5.936   3.257   0.537
 1103TIP3   OH2 3314   2.257   2.927   1.002
 1103TIP3    H1 3315   2.347   2.925   0.970
 1103TIP3    H2 3316   2.206   2.883   0.934
 1104TIP3   OH2 3317   2.354   2.396   3.826
 1104TIP3    H1 3318   2.407   2.389   3.906
 1104TIP3    H2 3319   2.264   2.382   3.856
 1105TIP3   OH2 3320   1.902   4.159   1.425
 1105TIP3    H1 3321   1.949   4.229   1.471
 1105TIP3    H2 3322   1.922   4.080   1.476
 1106TIP3   OH2 3323   0.913   2.025   3.298
 1106TIP3    H1 3324   0.967   1.949   3.321
 1106TIP3    H2 3325   0.937   2.045   3.208
 1107TIP3   OH2 3326   5.062   4.663   1.719
 1107TIP3    H1 3327   4.968   4.650   1.708
 1107TIP3    H2 3328   5.099   4.648   1.632
 1108TIP3   OH2 3329   1.605   3.988   2.532
 1108TIP3    H1 3330   1.552   3.986   2.452
 1108TIP3    H2 3331   1.654   3.907   2.530
 1109TIP3   OH2 3332   3.635   5.963   1.087
 1109TIP3    H1 3333   3.600   5.875   1.074
 1109TIP3    H2 3334   3.565   6.012   1.129
 1110TIP3   OH2 3335   1.123   5.985   2.158
 1110TIP3    H1 3336   1.159   6.049   2.097
 1110TIP3    H2 3337   1.116   5.904   2.108
 1111TIP3   OH2 3338   4.896   5.570   4.312
 1111TIP3    H1 3339   4.896   5.485   4.268
 1111TIP3    H2 3340   4.816   5.613   4.281
 1112TIP3   OH2 3341   6.261   5.145   3.797
 1112TIP3    H1 3342   6.254   5.050   3.791
 1112TIP3    H2 3343   6.221   5.177   3.717
 1113TIP3   OH2 3344   5.028   5.327   4.142
 1113TIP3    H1 3345   5.120   5.306   4.131
 1113TIP3    H2 3346   5.008   5.387   4.070
 1114TIP3   OH2 3347   4.397   4.299   2.205
 1114TIP3    H1 3348   4.345   4.378   2.187
 1114TIP3    H2 3349   4.465   4.300   2.138
 1115TIP3   OH2 3350   4.432   3.297   2.570
 1115TIP3    H1 3351   4.343   3.262   2.572
 1115TIP3    H2 3352   4.438   3.352   2.648
 1116TIP3   OH2 3353   2.935   1.600   3.560
 1116TIP3    H1 3354   2.850   1.631   3.592
 1116TIP3    H2 3355   2.952   1.519   3.609
 1117TIP3   OH2 3356   5.754   1.569   0.024
 1117TIP3    H1 3357   5.741   1.475   0.012
 1117TIP3    H2 3358   5.667   1.603   0.043
 1118TIP3   OH2 3359   3.024   4.449   4.727
 1118TIP3    H1 3360   2.981   4.377   4.774
 1118TIP3    H2 3361   3.074   4.495   4.794
 1119TIP3   OH2 3362   5.511   4.152   2.486
 1119TIP3    H1 3363   5.464   4.177   2.406
 1119TIP3    H2 3364   5.588   4.209   2.486
 1120TIP3   OH2 3365   0.947   2.993   3.611
 1120TIP3    H1 3366   1.016   3.034   3.559
 1120TIP3    H2 3367   0.903   3.066   3.654
 1121TIP3   OH2 3368   1.928   5.169   0.179
 1121TIP3    H1 3369   2.022   5.185   0.184
 1121TIP3    H2 3370   1.921   5.075   0.160
 1122TIP3   OH2 3371   6.271   0.557   0.554
 1122TIP3    H1 3372   6.314   0.637   0.525
 1122TIP3    H2 3373   6.279   0.559   0.649
 1123TIP3   OH2 3374   2.826   0.229   2.993
 1123TIP3    H1 3375   2.845   0.276   2.912
 1123TIP3    H2 3376   2.835   0.294   3.062
 1124TIP3   OH2 3377   3.061   3.835   1.512
 1124TIP3    H1 3378   3.064   3.843   1.417
 1124TIP3    H2 3379   3.152   3.815   1.537
 1125TIP3   OH2 3380   4.953   1.340   1.142
 1125TIP3    H1 3381   4.986   1.302   1.224
 1125TIP3    H2 3382   5.031   1.362   1.092
 1126TIP3   OH2 3383   2.786   4.468   2.334
 1126TIP3    H1 3384   2.704   4.422   2.353
 1126TIP3    H2 3385   2.833   4.409   2.275
 1127TIP3   OH2 3386   5.242   3.169   1.939
 1127TIP3    H1 3387   5.318   3.225   1.922
 1127TIP3    H2 3388   5.275   3.102   1.999
 1128TIP3   OH2 3389   4.790   4.434   2.472
 1128TIP3    H1 3390   4.717   4.374   2.489
 1128TIP3    H2 3391   4.809   4.422   2.379
 1129TIP3   OH2 3392   0.833   2.448   2.845
 1129TIP3    H1 3393   0.899   2.453   2.776
 1129TIP3    H2 3394   0.874   2.486   2.922
 1130TIP3   OH2 3395   1.608   0.532   4.905
 1130TIP3    H1 3396   1.567   0.613   4.935
 1130TIP3    H2 3397   1.558   0.463   4.948
 1131TIP3   OH2 3398   2.193   1.387   4.297
 1131TIP3    H1 3399   2.208   1.480   4.312
 1131TIP3    H2 3400   2.171   1.352   4.384
 1132TIP3   OH2 3401   1.261   0.075   3.187
 1132TIP3    H1 3402   1.229   0.040   3.270
 1132TIP3    H2 3403   1.316   0.149   3.212
 1133TIP3   OH2 3404   5.304   5.939   1.652
 1133TIP3    H1 3405   5.360   6.012   1.679
 1133TIP3    H2 3406   5.313   5.875   1.723
 1134TIP3   OH2 3407   0.806   3.045   5.126
 1134TIP3    H1 3408   0.831   3.135   5.104
 1134TIP3    H2 3409   0.890   2.998   5.131
 1135TIP3   OH2 3410   0.163   1.445   3.834
 1135TIP3    H1 3411   0.153   1.360   3.877
 1135TIP3    H2 3412   0.232   1.432   3.770
 1136TIP3   OH2 3413   4.122   4.514   3.399
 1136TIP3    H1 3414   4.131   4.602   3.436
 1136TIP3    H2 3415   4.050   4.520   3.337
 1137TIP3   OH2 3416   3.828   0.712   0.625
 1137TIP3    H1 3417   3.812   0.753   0.540
 1137TIP3    H2 3418   3.755   0.651   0.636
 1138TIP3   OH2 3419   1.945   4.730   1.568
 1138TIP3    H1 3420   2.002   4.802   1.594
 1138TIP3    H2 3421   2.001   4.653   1.570
 1139TIP3   OH2 3422   2.398   0.619   2.870
 1139TIP3    H1 3423   2.465   0.687   2.871
 1139TIP3    H2 3424   2.422   0.563   2.796
 1140TIP3   OH2 3425   3.626   4.005   1.086
 1140TIP3    H1 3426   3.717   3.980   1.097
 1140TIP3    H2 3427   3.586   3.932   1.039
 1141TIP3   OH2 3428   1.109   4.936   0.663
 1141TIP3    H1 3429   1.200   4.937   0.632
 1141TIP3    H2 3430   1.079   5.026   0.652
 1142TIP3   OH2 3431   5.565   5.662   1.093
 1142TIP3    H1 3432   5.565   5.569   1.113
 1142TIP3    H2 3433   5.489   5.675   1.036
 1143TIP3   OH2 3434   4.576   1.941   1.656
 1143TIP3    H1 3435   4.643   1.925   1.589
 1143TIP3    H2 3436   4.591   1.873   1.722
 1144TIP3   OH2 3437   4.708   5.583   1.121
 1144TIP3    H1 3438   4.753   5.667   1.112
 1144TIP3    H2 3439   4.628   5.603   1.170
 1145TIP3   OH2 3440   1.173   3.327   1.531
 1145TIP3    H1 3441   1.115   3.252   1.543
 1145TIP3    H2 3442   1.232   3.301   1.460
 1146TIP3   OH2 3443   2.394   3.119   2.629
 1146TIP3    H1 3444   2.477   3.084   2.597
 1146TIP3    H2 3445   2.330   3.096   2.560
 1147TIP3   OH2 3446   2.644   2.092   4.278
 1147TIP3    H1 3447   2.687   2.135   4.204
 1147TIP3    H2 3448   2.709   2.094   4.348
 1148TIP3   OH2 3449   3.242   5.362   2.346
 1148TIP3    H1 3450   3.333   5.353   2.376
 1148TIP3    H2 3451   3.201   5.279   2.368
 1149TIP3   OH2 3452   3.723   1.920   3.835
 1149TIP3    H1 3453   3.690   1.831   3.830
 1149TIP3    H2 3454   3.726   1.950   3.744
 1150TIP3   OH2 3455   1.302   2.326   0.654
 1150TIP3    H1 3456   1.284   2.369   0.738
 1150TIP3    H2 3457   1.292   2.233   0.672
 1151TIP3   OH2 3458   4.110   3.995   4.042
 1151TIP3    H1 3459   4.068   4.071   4.002
 1151TIP3    H2 3460   4.062   3.981   4.123
 1152TIP3   OH2 3461   1.756   5.083   2.544
 1152TIP3    H1 3462   1.718   5.138   2.476
 1152TIP3    H2 3463   1.841   5.055   2.509
 1153TIP3   OH2 3464   4.833   5.601   2.257
 1153TIP3    H1 3465   4.861   5.510   2.251
 1153TIP3    H2 3466   4.876   5.634   2.336
 1154TIP3   OH2 3467   0.567   5.578   0.526
 1154TIP3    H1 3468   0.587   5.643   0.593
 1154TIP3    H2 3469   0.503   5.520   0.567
 1155TIP3   OH2 3470   5.018   0.414   0.699
 1155TIP3    H1 3471   5.014   0.480   0.630
 1155TIP3    H2 3472   5.064   0.340   0.660
 1156TIP3   OH2 3473   0.353   5.770   1.619
 1156TIP3    H1 3474   0.274   5.784   1.671
 1156TIP3    H2 3475   0.425   5.790   1.679
 1157TIP3   OH2 3476   0.910   2.196   2.387
 1157TIP3    H1 3477   0.963   2.128   2.429
 1157TIP3    H2 3478   0.918   2.179   2.294
 1158TIP3   OH2 3479   0.646   5.470   0.103
 1158TIP3    H1 3480   0.571   5.464   0.043
 1158TIP3    H2 3481   0.630   5.549   0.154
 1159TIP3   OH2 3482   4.969   0.374   1.796
 1159TIP3    H1 3483   4.971   0.344   1.887
 1159TIP3    H2 3484   4.878   0.398   1.780
 1160TIP3   OH2 3485   2.495   5.682   4.297
 1160TIP3    H1 3486   2.572   5.705   4.348
 1160TIP3    H2 3487   2.530   5.632   4.223
 1161TIP3   OH2 3488   5.688   1.348   5.024
 1161TIP3    H1 3489   5.598   1.372   5.049
 1161TIP3    H2 3490   5.683   1.255   5.004
 1162TIP3   OH2 3491   2.382   2.559   2.189
 1162TIP3    H1 3492   2.465   2.569   2.143
 1162TIP3    H2 3493   2.406   2.548   2.281
 1163TIP3   OH2 3494   2.565   3.067   3.563
 1163TIP3    H1 3495   2.630   3.136   3.577
 1163TIP3    H2 3496   2.532   3.083   3.475
 1164TIP3   OH2 3497   1.440   2.417   2.659
 1164TIP3    H1 3498   1.479   2.502   2.679
 1164TIP3    H2 3499   1.424   2.377   2.745
 1165TIP3   OH2 3500   1.675   1.453   2.897
 1165TIP3    H1 3501   1.593   1.427   2.940
 1165TIP3    H2 3502   1.683   1.546   2.916
 1166TIP3   OH2 3503   5.527   2.544   2.318
 1166TIP3    H1 3504   5.605   2.593   2.292
 1166TIP3    H2 3505   5.473   2.608   2.364
 1167TIP3   OH2 3506   2.676   1.157   3.355
 1167TIP3    H1 3507   2.626   1.201   3.286
 1167TIP3    H2 3508   2.630   1.180   3.436
 1168TIP3   OH2 3509   3.762   5.845   0.734
 1168TIP3    H1 3510   3.701   5.874   0.666
 1168TIP3    H2 3511   3.725   5.761   0.764
 1169TIP3   OH2 3512   5.911   1.402   0.566
 1169TIP3    H1 3513   5.831   1.442   0.532
 1169TIP3    H2 3514   5.982   1.458   0.534
 1170TIP3   OH2 3515   4.329   2.043   3.535
 1170TIP3    H1 3516   4.251   2.052   3.590
 1170TIP3    H2 3517   4.376   2.126   3.546
 1171TIP3   OH2 3518   2.475   2.591   1.391
 1171TIP3    H1 3519   2.436   2.590   1.304
 1171TIP3    H2 3520   2.534   2.515   1.392
 1172TIP3   OH2 3521   4.587   0.818   1.669
 1172TIP3    H1 3522   4.661   0.770   1.631
 1172TIP3    H2 3523   4.617   0.843   1.757
 1173TIP3   OH2 3524   2.877   1.805   4.126
 1173TIP3    H1 3525   2.909   1.722   4.090
 1173TIP3    H2 3526   2.789   1.815   4.090
 1174TIP3   OH2 3527   0.346   3.884   0.698
 1174TIP3    H1 3528   0.339   3.808   0.640
 1174TIP3    H2 3529   0.262   3.929   0.689
 1175TIP3   OH2 3530   4.837   2.895   0.451
 1175TIP3    H1 3531   4.819   2.853   0.536
 1175TIP3    H2 3532   4.858   2.822   0.393
 1176TIP3   OH2 3533   5.890   4.770   3.726
 1176TIP3    H1 3534   5.957   4.799   3.787
 1176TIP3    H2 3535   5.897   4.674   3.726
 1177TIP3   OH2 3536   3.556   5.286   1.690
 1177TIP3    H1 3537   3.580   5.217   1.752
 1177TIP3    H2 3538   3.512   5.352   1.744
 1178TIP3   OH2 3539   5.151   5.000   2.149
 1178TIP3    H1 3540   5.243   5.025   2.161
 1178TIP3    H2 3541   5.141   4.918   2.197
 1179TIP3   OH2 3542   0.775   2.201   2.940
 1179TIP3    H1 3543   0.792   2.287   2.902
 1179TIP3    H2 3544   0.859   2.175   2.980
 1180TIP3   OH2 3545   4.327   2.443   0.349
 1180TIP3    H1 3546   4.373   2.454   0.432
 1180TIP3    H2 3547   4.350   2.521   0.299
 1181TIP3   OH2 3548   2.644   4.083   5.037
 1181TIP3    H1 3549   2.552   4.075   5.011
 1181TIP3    H2 3550   2.647   4.162   5.090
 1182TIP3   OH2 3551   1.548   5.915   1.628
 1182TIP3    H1 3552   1.518   5.867   1.551
 1182TIP3    H2 3553   1.482   5.983   1.641
 1183TIP3   OH2 3554   3.374   1.583   3.243
 1183TIP3    H1 3555   3.382   1.518   3.173
 1183TIP3    H2 3556   3.314   1.543   3.305
 1184TIP3   OH2 3557   5.344   2.454   3.005
 1184TIP3    H1 3558   5.341   2.545   3.034
 1184TIP3    H2 3559   5.435   2.441   2.977
 1185TIP3   OH2 3560   1.282   1.274   3.902
 1185TIP3    H1 3561   1.200   1.228   3.920
 1185TIP3    H2 3562   1.326   1.277   3.987
 1186TIP3   OH2 3563   0.998   3.871   3.185
 1186TIP3    H1 3564   1.029   3.920   3.110
 1186TIP3    H2 3565   1.069   3.878   3.250
 1187TIP3   OH2 3566   0.779   4.766   2.634
 1187TIP3    H1 3567   0.832   4.757   2.713
 1187TIP3    H2 3568   0.772   4.861   2.621
 1188TIP3   OH2 3569   1.125   5.578   0.722
 1188TIP3    H1 3570   1.096   5.537   0.641
 1188TIP3    H2 3571   1.047   5.622   0.756
 1189TIP3   OH2 3572   1.564   3.120   3.305
 1189TIP3    H1 3573   1.612   3.057   3.252
 1189TIP3    H2 3574   1.622   3.196   3.312
 1190TIP3   OH2 3575   1.821   0.639   5.137
 1190TIP3    H1 3576   1.806   0.545   5.127
 1190TIP3    H2 3577   1.745   0.671   5.186
 1191TIP3   OH2 3578   5.771   0.478   3.830
 1191TIP3    H1 3579   5.683   0.441   3.838
 1191TIP3    H2 3580   5.757   0.564   3.791
 1192TIP3   OH2 3581   3.335   1.056   2.987
 1192TIP3    H1 3582   3.274   1.103   2.930
 1192TIP3    H2 3583   3.420   1.096   2.969
 1193TIP3   OH2 3584   4.444   5.043   2.420
 1193TIP3    H1 3585   4.474   5.067   2.507
 1193TIP3    H2 3586   4.483   5.108   2.361
 1194TIP3   OH2 3587   4.569   1.891   3.546
 1194TIP3    H1 3588   4.631   1.879   3.474
 1194TIP3    H2 3589   4.493   1.933   3.504
 1195TIP3   OH2 3590   0.005   3.923   3.981
 1195TIP3    H1 3591   0.030   3.844   4.030
 1195TIP3    H2 3592   0.088   3.968   3.964
 1196TIP3   OH2 3593   0.441   5.878   3.517
 1196TIP3    H1 3594   0.531   5.900   3.495
 1196TIP3    H2 3595   0.442   5.783   3.529
 1197TIP3   OH2 3596   3.756   1.632   0.465
 1197TIP3    H1 3597   3.744   1.679   0.383
 1197TIP3    H2 3598   3.695   1.559   0.460
 1198TIP3   OH2 3599   3.299   2.586   4.682
 1198TIP3    H1 3600   3.296   2.524   4.755
 1198TIP3    H2 3601   3.366   2.650   4.708
 1199TIP3   OH2 3602   5.991   1.364   3.255
 1199TIP3    H1 3603   6.070   1.332   3.298
 1199TIP3    H2 3604   6.004   1.459   3.249
 1200TIP3   OH2 3605   2.806   5.235   1.737
 1200TIP3    H1 3606   2.859   5.272   1.666
 1200TIP3    H2 3607   2.869   5.219   1.808
 1201TIP3   OH2 3608   4.384   5.158   2.909
 1201TIP3    H1 3609   4.469   5.115   2.919
 1201TIP3    H2 3610   4.373   5.210   2.989
 1202TIP3   OH2 3611   1.924   0.985   1.472
 1202TIP3    H1 3612   1.847   0.991   1.416
 1202TIP3    H2 3613   1.996   1.019   1.419
 1203TIP3   OH2 3614   5.301   1.918   1.046
 1203TIP3    H1 3615   5.396   1.915   1.050
 1203TIP3    H2 3616   5.272   1.883   1.130
 1204TIP3   OH2 3617   5.155   3.270   1.404
 1204TIP3    H1 3618   5.099   3.332   1.357
 1204TIP3    H2 3619   5.108   3.187   1.399
 1205TIP3   OH2 3620   2.006   0.542   3.058
 1205TIP3    H1 3621   1.970   0.545   3.147
 1205TIP3    H2 3622   1.930   0.528   3.002
 1206TIP3   OH2 3623   0.513   1.943   0.122
 1206TIP3    H1 3624   0.496   1.849   0.130
 1206TIP3    H2 3625   0.452   1.973   0.054
 1207TIP3   OH2 3626   1.784   3.827   5.084
 1207TIP3    H1 3627   1.745   3.767   5.148
 1207TIP3    H2 3628   1.868   3.853   5.122
 1208TIP3   OH2 3629   5.142   0.339   3.470
 1208TIP3    H1 3630   5.185   0.423   3.457
 1208TIP3    H2 3631   5.193   0.296   3.538
 1209TIP3   OH2 3632   0.580   5.802   1.781
 1209TIP3    H1 3633   0.628   5.727   1.816
 1209TIP3    H2 3634   0.589   5.869   1.849
 1210TIP3   OH2 3635   1.512   4.183   0.854
 1210TIP3    H1 3636   1.578   4.150   0.793
 1210TIP3    H2 3637   1.501   4.113   0.918
 1211TIP3   OH2 3638   4.331   4.240   2.462
 1211TIP3    H1 3639   4.363   4.313   2.514
 1211TIP3    H2 3640   4.369   4.254   2.375
 1212TIP3   OH2 3641   2.993   4.350   3.410
 1212TIP3    H1 3642   2.980   4.342   3.316
 1212TIP3    H2 3643   2.904   4.351   3.446
 1213TIP3   OH2 3644   0.054   3.732   2.667
 1213TIP3    H1 3645   0.146   3.757   2.652
 1213TIP3    H2 3646   0.005   3.784   2.604
 1214TIP3   OH2 3647   2.098   3.430   4.446
 1214TIP3    H1 3648   2.114   3.368   4.374
 1214TIP3    H2 3649   2.028   3.487   4.414
 1215TIP3   OH2 3650   0.044   1.723   4.048
 1215TIP3    H1 3651   0.040   1.717   3.953
 1215TIP3    H2 3652  -0.037   1.769   4.073
 1216TIP3   OH2 3653   1.230   4.749   4.111
 1216TIP3    H1 3654   1.146   4.770   4.072
 1216TIP3    H2 3655   1.218   4.764   4.205
 1217TIP3   OH2 3656   5.170   3.010   2.559
 1217TIP3    H1 3657   5.190   3.069   2.487
 1217TIP3    H2 3658   5.256   2.985   2.594
 1218TIP3   OH2 3659   5.928   2.211   4.060
 1218TIP3    H1 3660   6.013   2.189   4.022
 1218TIP3    H2 3661   5.949   2.275   4.129
 1219TIP3   OH2 3662   1.758   5.150   1.402
 1219TIP3    H1 3663   1.741   5.176   1.311
 1219TIP3    H2 3664   1.738   5.057   1.404
 1220TIP3   OH2 3665   2.951   4.983   4.674
 1220TIP3    H1 3666   2.897   4.906   4.696
 1220TIP3    H2 3667   2.948   5.038   4.752
 1221TIP3   OH2 3668   3.918   0.892   1.388
 1221TIP3    H1 3669   3.963   0.845   1.459
 1221TIP3    H2 3670   3.833   0.916   1.426
 1222TIP3   OH2 3671   4.951   0.105   0.422
 1222TIP3    H1 3672   4.911   0.178   0.375
 1222TIP3    H2 3673   5.020   0.075   0.364
 1223TIP3   OH2 3674   4.325   1.978   4.754
 1223TIP3    H1 3675   4.385   1.910   4.784
 1223TIP3    H2 3676   4.325   2.042   4.825
 1224TIP3   OH2 3677   1.948   4.899   3.994
 1224TIP3    H1 3678   1.860   4.906   3.959
 1224TIP3    H2 3679   1.978   4.812   3.968
 1225TIP3   OH2 3680   6.002   1.247   1.011
 1225TIP3    H1 3681   5.976   1.300   1.087
 1225TIP3    H2 3682   6.016   1.310   0.941
 1226TIP3   OH2 3683   0.766   0.472   3.637
 1226TIP3    H1 3684   0.836   0.457   3.573
 1226TIP3    H2 3685   0.767   0.393   3.692
 1227TIP3   OH2 3686   4.444   4.922   1.559
 1227TIP3    H1 3687   4.487   4.990   1.507
 1227TIP3    H2 3688   4.352   4.947   1.559
 1228TIP3   OH2 3689   5.202   3.547   0.662
 1228TIP3    H1 3690   5.131   3.488   0.686
 1228TIP3    H2 3691   5.186   3.626   0.713
 1229TIP3   OH2 3692   0.822   3.509   3.808
 1229TIP3    H1 3693   0.782   3.548   3.731
 1229TIP3    H2 3694   0.772   3.544   3.882
 1230TIP3   OH2 3695   1.551   1.919   3.290
 1230TIP3    H1 3696   1.525   1.906   3.381
 1230TIP3    H2 3697   1.513   1.845   3.243
 1231TIP3   OH2 3698   2.256   2.100   1.152
 1231TIP3    H1 3699   2.290   2.189   1.165
 1231TIP3    H2 3700   2.321   2.057   1.097
 1232TIP3   OH2 3701   4.273   3.401   4.295
 1232TIP3    H1 3702   4.247   3.486   4.260
 1232TIP3    H2 3703   4.249   3.404   4.387
 1233TIP3   OH2 3704   4.371   3.479   2.756
 1233TIP3    H1 3705   4.445   3.530   2.789
 1233TIP3    H2 3706   4.340   3.430   2.832
 1234TIP3   OH2 3707   3.774   0.203   3.060
 1234TIP3    H1 3708   3.765   0.110   3.080
 1234TIP3    H2 3709   3.689   0.241   3.085
 1235TIP3   OH2 3710   5.920   3.523   1.277
 1235TIP3    H1 3711   5.946   3.615   1.282
 1235TIP3    H2 3712   5.828   3.525   1.250
 1236TIP3   OH2 3713   3.579   3.471   0.782
 1236TIP3    H1 3714   3.639   3.413   0.735
 1236TIP3    H2 3715   3.578   3.551   0.731
 1237TIP3   OH2 3716   6.098   2.373   0.182
 1237TIP3    H1 3717   6.168   2.361   0.118
 1237TIP3    H2 3718   6.139   2.421   0.253
 1238TIP3   OH2 3719   4.347   4.289   1.337
 1238TIP3    H1 3720   4.409   4.241   1.393
 1238TIP3    H2 3721   4.394   4.298   1.253
 1239TIP3   OH2 3722   4.828   0.468   4.158
 1239TIP3    H1 3723   4.879   0.393   4.188
 1239TIP3    H2 3724   4.833   0.531   4.230
 1240TIP3   OH2 3725   2.379   1.434   2.196
 1240TIP3    H1 3726   2.370   1.507   2.133
 1240TIP3    H2 3727   2.289   1.406   2.212
 1241TIP3   OH2 3728   4.836   0.013   4.089
 1241TIP3    H1 3729   4.900   0.049   4.150
 1241TIP3    H2 3730   4.873  -0.071   4.063
 1242TIP3   OH2 3731   4.533   2.018   1.149
 1242TIP3    H1 3732   4.463   2.029   1.084
 1242TIP3    H2 3733   4.535   1.924   1.166
 1243TIP3   OH2 3734   0.338   5.113   2.584
 1243TIP3    H1 3735   0.303   5.193   2.622
 1243TIP3    H2 3736   0.261   5.060   2.563
 1244TIP3   OH2 3737   3.922   1.811   3.524
 1244TIP3    H1 3738   3.988   1.741   3.515
 1244TIP3    H2 3739   3.877   1.811   3.439
 1245TIP3   OH2 3740   0.881   5.056   2.114
 1245TIP3    H1 3741   0.933   5.075   2.192
 1245TIP3    H2 3742   0.800   5.106   2.126
 1246TIP3   OH2 3743   0.793   1.460   4.107
 1246TIP3    H1 3744   0.837   1.523   4.164
 1246TIP3    H2 3745   0.707   1.448   4.146
 1247TIP3   OH2 3746   4.506   4.818   1.003
 1247TIP3    H1 3747   4.567   4.764   1.054
 1247TIP3    H2 3748   4.422   4.772   1.010
 1248TIP3   OH2 3749   4.037   0.162   2.656
 1248TIP3    H1 3750   4.053   0.074   2.689
 1248TIP3    H2 3751   3.977   0.201   2.719
 1249TIP3   OH2 3752   1.138   4.547   1.854
 1249TIP3    H1 3753   1.178   4.561   1.768
 1249TIP3    H2 3754   1.115   4.634   1.885
 1250TIP3   OH2 3755   3.185   3.608   1.778
 1250TIP3    H1 3756   3.215   3.651   1.698
 1250TIP3    H2 3757   3.262   3.605   1.835
 1251TIP3   OH2 3758   4.317   0.865   1.180
 1251TIP3    H1 3759   4.232   0.826   1.199
 1251TIP3    H2 3760   4.355   0.884   1.266
 1252TIP3   OH2 3761   0.763   1.264   1.099
 1252TIP3    H1 3762   0.805   1.215   1.170
 1252TIP3    H2 3763   0.805   1.231   1.019
 1253TIP3   OH2 3764   4.044   2.893   2.310
 1253TIP3    H1 3765   4.065   2.886   2.217
 1253TIP3    H2 3766   3.948   2.890   2.313
 1254TIP3   OH2 3767   0.105   3.679   0.608
 1254TIP3    H1 3768   0.053   3.679   0.689
 1254TIP3    H2 3769   0.045   3.711   0.541
 1255TIP3   OH2 3770   6.229   0.708   4.758
 1255TIP3    H1 3771   6.179   0.636   4.719
 1255TIP3    H2 3772   6.176   0.737   4.832
 1256TIP3   OH2 3773   3.981   2.256   3.546
 1256TIP3    H1 3774   3.891   2.256   3.577
 1256TIP3    H2 3775   4.023   2.185   3.595
 1257TIP3   OH2 3776   1.334   3.711   2.250
 1257TIP3    H1 3777   1.240   3.697   2.236
 1257TIP3    H2 3778   1.369   3.622   2.260
 1258TIP3   OH2 3779   2.761   3.618   4.528
 1258TIP3    H1 3780   2.854   3.597   4.542
 1258TIP3    H2 3781   2.714   3.542   4.561
 1259TIP3   OH2 3782   3.427   4.404   0.972
 1259TIP3    H1 3783   3.382   4.370   0.895
 1259TIP3    H2 3784   3.380   4.486   0.992
 1260TIP3   OH2 3785   4.037   3.154   2.451
 1260TIP3    H1 3786   4.074   3.195   2.372
 1260TIP3    H2 3787   4.030   3.061   2.429
 1261TIP3   OH2 3788   1.412   3.480   3.669
 1261TIP3    H1 3789   1.321   3.452   3.667
 1261TIP3    H2 3790   1.462   3.404   3.640
 1262TIP3   OH2 3791   1.067   2.927   3.238
 1262TIP3    H1 3792   1.036   2.940   3.148
 1262TIP3    H2 3793   1.131   2.997   3.251
 1263TIP3   OH2 3794   1.054   3.585   2.534
 1263TIP3    H1 3795   0.980   3.528   2.552
 1263TIP3    H2 3796   1.093   3.601   2.620
 1264TIP3   OH2 3797   2.014   2.508   1.274
 1264TIP3    H1 3798   1.944   2.557   1.316
 1264TIP3    H2 3799   2.045   2.566   1.204
 1265TIP3   OH2 3800   4.956   5.301   3.613
 1265TIP3    H1 3801   4.882   5.287   3.672
 1265TIP3    H2 3802   4.972   5.395   3.616
 1266TIP3   OH2 3803   5.575   0.345   1.633
 1266TIP3    H1 3804   5.580   0.257   1.672
 1266TIP3    H2 3805   5.535   0.399   1.701
 1267TIP3   OH2 3806   4.940   4.466   1.957
 1267TIP3    H1 3807   4.937   4.391   1.899
 1267TIP3    H2 3808   4.933   4.542   1.899
 1268TIP3   OH2 3809   4.197   2.464   1.565
 1268TIP3    H1 3810   4.267   2.474   1.501
 1268TIP3    H2 3811   4.173   2.371   1.560
 1269TIP3   OH2 3812   2.666   1.286   1.758
 1269TIP3    H1 3813   2.712   1.241   1.830
 1269TIP3    H2 3814   2.709   1.254   1.679
 1270TIP3   OH2 3815   1.983   1.933   4.550
 1270TIP3    H1 3816   1.959   1.840   4.557
 1270TIP3    H2 3817   2.056   1.935   4.489
 1271TIP3   OH2 3818   4.437   1.573   3.331
 1271TIP3    H1 3819   4.427   1.547   3.239
 1271TIP3    H2 3820   4.395   1.659   3.336
 1272TIP3   OH2 3821   4.427   4.829   2.934
 1272TIP3    H1 3822   4.405   4.798   3.022
 1272TIP3    H2 3823   4.343   4.854   2.895
 1273TIP3   OH2 3824   3.984   3.521   1.712
 1273TIP3    H1 3825   3.988   3.605   1.756
 1273TIP3    H2 3826   4.022   3.459   1.775
 1274TIP3   OH2 3827   5.523   4.112   2.760
 1274TIP3    H1 3828   5.531   4.104   2.665
 1274TIP3    H2 3829   5.456   4.048   2.784
 1275TIP3   OH2 3830   2.354   3.597   1.367
 1275TIP3    H1 3831   2.356   3.537   1.442
 1275TIP3    H2 3832   2.446   3.610   1.345
 1276TIP3   OH2 3833   5.750   3.353   4.690
 1276TIP3    H1 3834   5.771   3.262   4.711
 1276TIP3    H2 3835   5.670   3.347   4.638
 1277TIP3   OH2 3836   1.148   4.275   2.865
 1277TIP3    H1 3837   1.175   4.236   2.783
 1277TIP3    H2 3838   1.230   4.291   2.912
 1278TIP3   OH2 3839  -0.018   5.547   4.439
 1278TIP3    H1 3840   0.008   5.458   4.463
 1278TIP3    H2 3841  -0.061   5.581   4.517
 1279TIP3   OH2 3842   0.786   1.492   2.446
 1279TIP3    H1 3843   0.868   1.450   2.418
 1279TIP3    H2 3844   0.726   1.419   2.460
 1280TIP3   OH2 3845   6.171   5.325   4.868
 1280TIP3    H1 3846   6.161   5.247   4.814
 1280TIP3    H2 3847   6.247   5.306   4.924
 1281TIP3   OH2 3848   2.708   1.037   1.266
 1281TIP3    H1 3849   2.760   0.965   1.230
 1281TIP3    H2 3850   2.706   1.103   1.196
 1282TIP3   OH2 3851   3.112   0.779   2.964
 1282TIP3    H1 3852   3.125   0.748   3.053
 1282TIP3    H2 3853   3.104   0.874   2.972
 1283TIP3   OH2 3854   4.068   1.657   0.260
 1283TIP3    H1 3855   4.080   1.650   0.165
 1283TIP3    H2 3856   3.987   1.707   0.270
 1284TIP3   OH2 3857   0.358   4.080   0.351
 1284TIP3    H1 3858   0.420   4.115   0.415
 1284TIP3    H2 3859   0.284   4.050   0.404
 1285TIP3   OH2 3860   2.041   0.220   4.726
 1285TIP3    H1 3861   2.062   0.193   4.636
 1285TIP3    H2 3862   1.949   0.247   4.722
 1286TIP3   OH2 3863   5.953   3.167   1.035
 1286TIP3    H1 3864   5.912   3.241   0.990
 1286TIP3    H2 3865   6.009   3.207   1.102
 1287TIP3   OH2 3866   4.316   1.849   3.304
 1287TIP3    H1 3867   4.304   1.899   3.384
 1287TIP3    H2 3868   4.385   1.895   3.256
 1288TIP3   OH2 3869   3.984   5.946   3.499
 1288TIP3    H1 3870   4.017   5.971   3.412
 1288TIP3    H2 3871   3.890   5.962   3.494
 1289TIP3   OH2 3872   4.193   5.106   3.191
 1289TIP3    H1 3873   4.281   5.140   3.173
 1289TIP3    H2 3874   4.145   5.182   3.223
 1290TIP3   OH2 3875   5.113   5.043   1.085
 1290TIP3    H1 3876   5.124   5.042   1.180
 1290TIP3    H2 3877   5.060   5.120   1.067
 1291TIP3   OH2 3878   3.417   2.237   1.086
 1291TIP3    H1 3879   3.456   2.214   1.001
 1291TIP3    H2 3880   3.476   2.197   1.150
 1292TIP3   OH2 3881   2.436   4.433   1.339
 1292TIP3    H1 3882   2.493   4.387   1.400
 1292TIP3    H2 3883   2.372   4.368   1.312
 1293TIP3   OH2 3884   0.154   2.008   3.220
 1293TIP3    H1 3885   0.148   1.919   3.185
 1293TIP3    H2 3886   0.069   2.047   3.202
 1294TIP3   OH2 3887   2.263   0.745   3.616
 1294TIP3    H1 3888   2.351   0.738   3.654
 1294TIP3    H2 3889   2.273   0.806   3.543
 1295TIP3   OH2 3890   1.607   2.617   2.772
 1295TIP3    H1 3891   1.677   2.682   2.768
 1295TIP3    H2 3892   1.634   2.556   2.841
 1296TIP3   OH2 3893   0.608   3.218   2.209
 1296TIP3    H1 3894   0.553   3.226   2.131
 1296TIP3    H2 3895   0.559   3.160   2.267
 1297TIP3   OH2 3896   4.861   1.954   4.860
 1297TIP3    H1 3897   4.809   1.946   4.780
 1297TIP3    H2 3898   4.795   1.958   4.930
 1298TIP3   OH2 3899   0.838   4.512   4.342
 1298TIP3    H1 3900   0.845   4.522   4.437
 1298TIP3    H2 3901   0.860   4.420   4.325
 1299TIP3   OH2 3902   1.098   3.503   3.589
 1299TIP3    H1 3903   1.010   3.477   3.561
 1299TIP3    H2 3904   1.122   3.438   3.655
 1300TIP3   OH2 3905   3.378   1.323   4.468
 1300TIP3    H1 3906   3.470   1.344   4.449
 1300TIP3    H2 3907   3.374   1.318   4.564
 1301TIP3   OH2 3908   4.735   2.778   3.500
 1301TIP3    H1 3909   4.659   2.723   3.522
 1301TIP3    H2 3910   4.766   2.743   3.416
 1302TIP3   OH2 3911   3.748   5.177   1.016
 1302TIP3    H1 3912   3.743   5.235   1.092
 1302TIP3    H2 3913   3.740   5.235   0.940
 1303TIP3   OH2 3914   0.195   4.602   4.021
 1303TIP3    H1 3915   0.114   4.591   4.071
 1303TIP3    H2 3916   0.169   4.588   3.930
 1304TIP3   OH2 3917   2.173   4.356   3.132
 1304TIP3    H1 3918   2.190   4.436   3.082
 1304TIP3    H2 3919   2.141   4.386   3.217
 1305TIP3   OH2 3920   2.270   2.613   3.643
 1305TIP3    H1 3921   2.217   2.539   3.613
 1305TIP3    H2 3922   2.330   2.575   3.707
 1306TIP3   OH2 3923   1.471   5.560   2.420
 1306TIP3    H1 3924   1.561   5.572   2.390
 1306TIP3    H2 3925   1.425   5.639   2.389
 1307TIP3   OH2 3926   6.079   4.029   0.997
 1307TIP3    H1 3927   6.139   4.014   0.924
 1307TIP3    H2 3928   6.130   4.008   1.075
 1308TIP3   OH2 3929   5.798   4.083   0.734
 1308TIP3    H1 3930   5.788   3.997   0.775
 1308TIP3    H2 3931   5.826   4.064   0.645
 1309TIP3   OH2 3932   3.057   1.861   2.698
 1309TIP3    H1 3933   3.074   1.811   2.778
 1309TIP3    H2 3934   2.962   1.864   2.691
 1310TIP3   OH2 3935   2.565   4.109   2.615
 1310TIP3    H1 3936   2.538   4.024   2.650
 1310TIP3    H2 3937   2.635   4.138   2.675
 1311TIP3   OH2 3938   1.231   4.870   1.234
 1311TIP3    H1 3939   1.276   4.786   1.245
 1311TIP3    H2 3940   1.238   4.913   1.320
 1312TIP3   OH2 3941   1.871   2.219   1.122
 1312TIP3    H1 3942   1.847   2.266   1.202
 1312TIP3    H2 3943   1.966   2.231   1.115
 1313TIP3   OH2 3944   3.522   0.782   4.092
 1313TIP3    H1 3945   3.545   0.866   4.051
 1313TIP3    H2 3946   3.480   0.806   4.174
 1314TIP3   OH2 3947   0.848   5.609   1.642
 1314TIP3    H1 3948   0.758   5.591   1.617
 1314TIP3    H2 3949   0.891   5.524   1.644
 1315TIP3   OH2 3950   3.209   4.474   4.242
 1315TIP3    H1 3951   3.184   4.445   4.330
 1315TIP3    H2 3952   3.192   4.397   4.187
 1316TIP3   OH2 3953   5.691   2.651   1.173
 1316TIP3    H1 3954   5.769   2.657   1.118
 1316TIP3    H2 3955   5.703   2.720   1.238
 1317TIP3   OH2 3956   5.905   1.124   3.138
 1317TIP3    H1 3957   5.944   1.050   3.185
 1317TIP3    H2 3958   5.947   1.201   3.176
 1318TIP3   OH2 3959   5.171   5.916   3.737
 1318TIP3    H1 3960   5.258   5.926   3.775
 1318TIP3    H2 3961   5.111   5.943   3.807
 1319TIP3   OH2 3962   4.689   3.237   4.979
 1319TIP3    H1 3963   4.654   3.158   4.938
 1319TIP3    H2 3964   4.764   3.261   4.925
 1320TIP3   OH2 3965   1.157   2.032   2.719
 1320TIP3    H1 3966   1.190   1.970   2.783
 1320TIP3    H2 3967   1.061   2.021   2.722
 1321TIP3   OH2 3968   1.983   5.392   1.017
 1321TIP3    H1 3969   2.021   5.414   1.102
 1321TIP3    H2 3970   2.029   5.311   0.991
 1322TIP3   OH2 3971   0.895   5.727   0.810
 1322TIP3    H1 3972   0.824   5.663   0.817
 1322TIP3    H2 3973   0.862   5.792   0.749
 1323TIP3   OH2 3974   4.951   3.602   4.762
 1323TIP3    H1 3975   5.032   3.588   4.812
 1323TIP3    H2 3976   4.887   3.546   4.805
 1324TIP3   OH2 3977   1.230   5.936   4.068
 1324TIP3    H1 3978   1.148   5.890   4.051
 1324TIP3    H2 3979   1.236   6.003   4.000
 1325TIP3   OH2 3980   5.485   5.785   0.695
 1325TIP3    H1 3981   5.484   5.791   0.599
 1325TIP3    H2 3982   5.503   5.693   0.713
 1326TIP3   OH2 3983   0.006   2.523   4.932
 1326TIP3    H1 3984  -0.025   2.470   5.006
 1326TIP3    H2 3985   0.000   2.613   4.964
 1327TIP3   OH2 3986   4.143   2.625   1.285
 1327TIP3    H1 3987   4.233   2.592   1.283
 1327TIP3    H2 3988   4.151   2.719   1.267
 1328TIP3   OH2 3989   5.890   1.314   2.381
 1328TIP3    H1 3990   5.797   1.325   2.363
 1328TIP3    H2 3991   5.919   1.247   2.319
 1329TIP3   OH2 3992   6.065   3.233   3.810
 1329TIP3    H1 3993   6.157   3.231   3.836
 1329TIP3    H2 3994   6.060   3.175   3.735
 1330TIP3   OH2 3995   4.524   3.528   0.122
 1330TIP3    H1 3996   4.587   3.496   0.187
 1330TIP3    H2 3997   4.441   3.488   0.146
 1331TIP3   OH2 3998   1.513   1.943   3.957
 1331TIP3    H1 3999   1.604   1.927   3.933
 1331TIP3    H2 4000   1.514   1.952   4.053
 1332TIP3   OH2 4001   6.349   0.025   4.608
 1332TIP3    H1 4002   6.435   0.067   4.614
 1332TIP3    H2 4003   6.358  -0.057   4.656
 1333TIP3   OH2 4004   0.403   1.916   1.569
 1333TIP3    H1 4005   0.472   1.858   1.602
 1333TIP3    H2 4006   0.404   1.902   1.474
 1334TIP3   OH2 4007   3.665   3.754   0.033
 1334TIP3    H1 4008   3.588   3.701   0.050
 1334TIP3    H2 4009   3.661   3.774  -0.060
 1335TIP3   OH2 4010   1.390   5.354   1.263
 1335TIP3    H1 4011   1.358   5.412   1.193
 1335TIP3    H2 4012   1.451   5.408   1.313
 1336TIP3   OH2 4013   4.827   4.662   3.206
 1336TIP3    H1 4014   4.753   4.640   3.262
 1336TIP3    H2 4015   4.898   4.604   3.235
 1337TIP3   OH2 4016   3.035   3.713   5.105
 1337TIP3    H1 4017   3.091   3.641   5.076
 1337TIP3    H2 4018   2.985   3.737   5.027
 1338TIP3   OH2 4019   0.119   2.177   2.418
 1338TIP3    H1 4020   0.042   2.234   2.417
 1338TIP3    H2 4021   0.135   2.160   2.511
 1339TIP3   OH2 4022   0.965   1.083   3.892
 1339TIP3    H1 4023   1.035   1.052   3.950
 1339TIP3    H2 4024   0.895   1.018   3.903
 1340TIP3   OH2 4025   2.743   3.275   3.523
 1340TIP3    H1 4026   2.711   3.364   3.540
 1340TIP3    H2 4027   2.822   3.288   3.471
 1341TIP3   OH2 4028   3.648   4.221   0.408
 1341TIP3    H1 4029   3.616   4.251   0.493
 1341TIP3    H2 4030   3.574   4.174   0.369
 1342TIP3   OH2 4031   5.036   5.714   2.010
 1342TIP3    H1 4032   5.034   5.618   2.014
 1342TIP3    H2 4033   5.072   5.740   2.095
 1343TIP3   OH2 4034   1.233   3.069   2.411
 1343TIP3    H1 4035   1.170   3.004   2.442
 1343TIP3    H2 4036   1.316   3.043   2.452
 1344TIP3   OH2 4037   2.701   3.699   4.846
 1344TIP3    H1 4038   2.642   3.665   4.913
 1344TIP3    H2 4039   2.688   3.641   4.771
 1345TIP3   OH2 4040   5.501   6.023   2.232
 1345TIP3    H1 4041   5.592   6.024   2.203
 1345TIP3    H2 4042   5.478   5.930   2.236
 1346TIP3   OH2 4043   4.669   3.483   4.854
 1346TIP3    H1 4044   4.655   3.389   4.863
 1346TIP3    H2 4045   4.598   3.512   4.796
 1347TIP3   OH2 4046   1.256   1.012   1.639
 1347TIP3    H1 4047   1.320   0.953   1.598
 1347TIP3    H2 4048   1.296   1.035   1.723
 1348TIP3   OH2 4049   2.208   4.893   0.304
 1348TIP3    H1 4050   2.181   4.951   0.375
 1348TIP3    H2 4051   2.296   4.865   0.327
 1349TIP3   OH2 4052   4.570   1.171   1.787
 1349TIP3    H1 4053   4.486   1.126   1.775
 1349TIP3    H2 4054   4.564   1.246   1.727
 1350TIP3   OH2 4055   5.328   1.893   0.421
 1350TIP3    H1 4056   5.311   1.810   0.376
 1350TIP3    H2 4057   5.363   1.950   0.353
 1351TIP3   OH2 4058   2.714  -0.008   3.048
 1351TIP3    H1 4059   2.719   0.087   3.033
 1351TIP3    H2 4060   2.634  -0.021   3.097
 1352TIP3   OH2 4061   2.830   3.612   1.291
 1352TIP3    H1 4062   2.828   3.537   1.232
 1352TIP3    H2 4063   2.901   3.667   1.257
 1353TIP3   OH2 4064   3.687   1.226   4.188
 1353TIP3    H1 4065   3.630   1.288   4.143
 1353TIP3    H2 4066   3.654   1.224   4.278
 1354TIP3   OH2 4067   6.261   4.888   3.761
 1354TIP3    H1 4068   6.311   4.809   3.738
 1354TIP3    H2 4069   6.212   4.863   3.839
 1355TIP3   OH2 4070   6.211   4.938   1.819
 1355TIP3    H1 4071   6.176   4.857   1.781
 1355TIP3    H2 4072   6.306   4.928   1.814
 1356TIP3   OH2 4073   1.859   2.549   2.234
 1356TIP3    H1 4074   1.898   2.636   2.247
 1356TIP3    H2 4075   1.791   2.563   2.168
 1357TIP3   OH2 4076   5.499   5.231   0.183
 1357TIP3    H1 4077   5.590   5.230   0.153
 1357TIP3    H2 4078   5.506   5.245   0.278
 1358TIP3   OH2 4079   0.583   2.072   3.088
 1358TIP3    H1 4080   0.592   1.979   3.067
 1358TIP3    H2 4081   0.653   2.115   3.039
 1359TIP3   OH2 4082   6.287   1.738   2.855
 1359TIP3    H1 4083   6.268   1.701   2.769
 1359TIP3    H2 4084   6.228   1.813   2.863
 1360TIP3   OH2 4085   0.429   4.857   4.937
 1360TIP3    H1 4086   0.414   4.951   4.929
 1360TIP3    H2 4087   0.416   4.823   4.849
 1361TIP3   OH2 4088   4.644   3.365   3.087
 1361TIP3    H1 4089   4.737   3.388   3.078
 1361TIP3    H2 4090   4.617   3.406   3.169
 1362TIP3   OH2 4091   3.499   0.752   1.557
 1362TIP3    H1 4092   3.454   0.668   1.565
 1362TIP3    H2 4093   3.457   0.808   1.622
 1363TIP3   OH2 4094   5.159   1.014   2.634
 1363TIP3    H1 4095   5.236   1.033   2.688
 1363TIP3    H2 4096   5.096   1.082   2.656
 1364TIP3   OH2 4097   4.342   0.990   4.271
 1364TIP3    H1 4098   4.305   0.935   4.340
 1364TIP3    H2 4099   4.418   1.032   4.311
 1365TIP3   OH2 4100   3.104   4.924   0.448
 1365TIP3    H1 4101   3.195   4.896   0.455
 1365TIP3    H2 4102   3.074   4.929   0.539
 1366TIP3   OH2 4103   5.692   1.472   0.416
 1366TIP3    H1 4104   5.646   1.442   0.338
 1366TIP3    H2 4105   5.688   1.567   0.412
 1367TIP3   OH2 4106   0.306   2.162   3.562
 1367TIP3    H1 4107   0.295   2.256   3.545
 1367TIP3    H2 4108   0.353   2.159   3.646
 1368TIP3   OH2 4109   3.461   5.113   3.451
 1368TIP3    H1 4110   3.551   5.145   3.465
 1368TIP3    H2 4111   3.406   5.180   3.492
 1369TIP3   OH2 4112   1.696   4.728   4.194
 1369TIP3    H1 4113   1.615   4.723   4.144
 1369TIP3    H2 4114   1.688   4.660   4.261
 1370TIP3   OH2 4115   4.611   3.781   0.951
 1370TIP3    H1 4116   4.630   3.828   0.869
 1370TIP3    H2 4117   4.525   3.813   0.978
 1371TIP3   OH2 4118   3.217   1.963   0.556
 1371TIP3    H1 4119   3.168   2.034   0.514
 1371TIP3    H2 4120   3.194   1.885   0.505
 1372TIP3   OH2 4121   0.638   1.927   1.107
 1372TIP3    H1 4122   0.654   1.951   1.016
 1372TIP3    H2 4123   0.688   1.991   1.158
 1373TIP3   OH2 4124   0.528   0.141   1.741
 1373TIP3    H1 4125   0.464   0.089   1.694
 1373TIP3    H2 4126   0.587   0.077   1.780
 1374TIP3   OH2 4127   3.826   3.390   4.108
 1374TIP3    H1 4128   3.762   3.405   4.039
 1374TIP3    H2 4129   3.801   3.306   4.146
 1375TIP3   OH2 4130   4.687   0.280   3.291
 1375TIP3    H1 4131   4.780   0.273   3.268
 1375TIP3    H2 4132   4.686   0.334   3.370
 1376TIP3   OH2 4133   1.388   1.506   2.144
 1376TIP3    H1 4134   1.343   1.425   2.120
 1376TIP3    H2 4135   1.323   1.575   2.131
 1377TIP3   OH2 4136   3.958   5.898   0.270
 1377TIP3    H1 4137   3.905   5.896   0.190
 1377TIP3    H2 4138   3.957   5.808   0.302
 1378TIP3   OH2 4139   0.549   5.898   0.927
 1378TIP3    H1 4140   0.633   5.888   0.973
 1378TIP3    H2 4141   0.537   5.993   0.922
 1379TIP3   OH2 4142   6.195   4.473   1.652
 1379TIP3    H1 4143   6.273   4.439   1.695
 1379TIP3    H2 4144   6.221   4.487   1.561
 1380TIP3   OH2 4145   1.126   2.589   5.105
 1380TIP3    H1 4146   1.143   2.559   5.194
 1380TIP3    H2 4147   1.033   2.570   5.091
 1381TIP3   OH2 4148   4.499   1.728   4.313
 1381TIP3    H1 4149   4.545   1.746   4.395
 1381TIP3    H2 4150   4.415   1.692   4.340
 1382TIP3   OH2 4151   3.061   2.978   2.964
 1382TIP3    H1 4152   3.107   3.044   2.911
 1382TIP3    H2 4153   3.113   2.899   2.955
 1383TIP3   OH2 4154   1.534   4.316   2.560
 1383TIP3    H1 4155   1.584   4.289   2.483
 1383TIP3    H2 4156   1.580   4.394   2.593
 1384TIP3   OH2 4157   5.141   5.314   0.228
 1384TIP3    H1 4158   5.207   5.340   0.163
 1384TIP3    H2 4159   5.157   5.371   0.303
 1385TIP3   OH2 4160   6.042   0.155   0.616
 1385TIP3    H1 4161   5.991   0.093   0.564
 1385TIP3    H2 4162   5.985   0.179   0.689
 1386TIP3   OH2 4163   3.882   1.107   3.023
 1386TIP3    H1 4164   3.799   1.060   3.031
 1386TIP3    H2 4165   3.945   1.041   2.997
 1387TIP3   OH2 4166   1.085   2.694   0.979
 1387TIP3    H1 4167   1.126   2.750   1.045
 1387TIP3    H2 4168   1.019   2.644   1.028
 1388TIP3   OH2 4169   1.229   1.173   4.742
 1388TIP3    H1 4170   1.282   1.205   4.669
 1388TIP3    H2 4171   1.138   1.183   4.712
 1389TIP3   OH2 4172   2.499   1.216   3.583
 1389TIP3    H1 4173   2.423   1.272   3.569
 1389TIP3    H2 4174   2.463   1.129   3.596
 1390TIP3   OH2 4175   5.414   3.949   1.839
 1390TIP3    H1 4176   5.452   3.987   1.918
 1390TIP3    H2 4177   5.437   4.010   1.769
 1391TIP3   OH2 4178   2.653   0.151   5.122
 1391TIP3    H1 4179   2.665   0.173   5.214
 1391TIP3    H2 4180   2.562   0.171   5.103
 1392TIP3   OH2 4181   1.562   4.518   3.520
 1392TIP3    H1 4182   1.475   4.521   3.480
 1392TIP3    H2 4183   1.612   4.584   3.471
 1393TIP3   OH2 4184   4.661   4.223   4.836
 1393TIP3    H1 4185   4.639   4.160   4.767
 1393TIP3    H2 4186   4.672   4.306   4.789
 1394TIP3   OH2 4187   3.026   5.881   2.750
 1394TIP3    H1 4188   3.068   5.880   2.836
 1394TIP3    H2 4189   2.933   5.885   2.769
 1395TIP3   OH2 4190   2.876   1.714   2.258
 1395TIP3    H1 4191   2.833   1.637   2.223
 1395TIP3    H2 4192   2.961   1.716   2.214
 1396TIP3   OH2 4193   5.331   5.756   0.927
 1396TIP3    H1 4194   5.403   5.786   0.871
 1396TIP3    H2 4195   5.263   5.729   0.865
 1397TIP3   OH2 4196   5.373   5.551   1.886
 1397TIP3    H1 4197   5.431   5.567   1.960
 1397TIP3    H2 4198   5.423   5.492   1.829
 1398TIP3   OH2 4199   0.842   1.613   1.021
 1398TIP3    H1 4200   0.813   1.574   1.103
 1398TIP3    H2 4201   0.793   1.566   0.953
 1399TIP3   OH2 4202   2.934   5.789   3.693
 1399TIP3    H1 4203   2.929   5.786   3.788
 1399TIP3    H2 4204   2.986   5.711   3.669
 1400TIP3   OH2 4205   3.960   3.873   4.317
 1400TIP3    H1 4206   3.884   3.825   4.283
 1400TIP3    H2 4207   3.925   3.924   4.390
 1401TIP3   OH2 4208   0.426   1.324   0.757
 1401TIP3    H1 4209   0.474   1.393   0.711
 1401TIP3    H2 4210   0.336   1.356   0.762
 1402TIP3   OH2 4211   5.905   4.665   0.110
 1402TIP3    H1 4212   5.988   4.703   0.139
 1402TIP3    H2 4213   5.839   4.728   0.137
 1403TIP3   OH2 4214   0.827   4.412   1.303
 1403TIP3    H1 4215   0.854   4.404   1.211
 1403TIP3    H2 4216   0.810   4.505   1.315
 1404TIP3   OH2 4217   3.815   5.689   3.550
 1404TIP3    H1 4218   3.781   5.761   3.497
 1404TIP3    H2 4219   3.846   5.731   3.631
 1405TIP3   OH2 4220   2.362   2.015   4.662
 1405TIP3    H1 4221   2.439   2.054   4.702
 1405TIP3    H2 4222   2.394   1.973   4.583
 1406TIP3   OH2 4223   1.766   0.415   4.217
 1406TIP3    H1 4224   1.789   0.500   4.255
 1406TIP3    H2 4225   1.745   0.360   4.292
 1407TIP3   OH2 4226   1.119   3.411   4.160
 1407TIP3    H1 4227   1.183   3.352   4.118
 1407TIP3    H2 4228   1.040   3.401   4.107
 1408TIP3   OH2 4229   5.362   2.800   1.736
 1408TIP3    H1 4230   5.379   2.856   1.812
 1408TIP3    H2 4231   5.292   2.844   1.688
 1409TIP3   OH2 4232   0.985   0.514   2.546
 1409TIP3    H1 4233   0.925   0.577   2.586
 1409TIP3    H2 4234   1.010   0.555   2.463
 1410TIP3   OH2 4235   0.797   2.443   2.294
 1410TIP3    H1 4236   0.864   2.378   2.316
 1410TIP3    H2 4237   0.730   2.392   2.248
 1411TIP3   OH2 4238   2.073   1.013   4.510
 1411TIP3    H1 4239   2.033   0.945   4.564
 1411TIP3    H2 4240   2.073   0.977   4.421
 1412TIP3   OH2 4241   2.824   4.213   3.818
 1412TIP3    H1 4242   2.790   4.255   3.897
 1412TIP3    H2 4243   2.868   4.134   3.850
 1413TIP3   OH2 4244   1.263   2.357   3.774
 1413TIP3    H1 4245   1.178   2.313   3.783
 1413TIP3    H2 4246   1.326   2.294   3.809
 1414TIP3   OH2 4247   0.368   5.535   5.016
 1414TIP3    H1 4248   0.413   5.491   4.945
 1414TIP3    H2 4249   0.296   5.582   4.974
 1415TIP3   OH2 4250   5.948   4.486   1.289
 1415TIP3    H1 4251   5.910   4.559   1.240
 1415TIP3    H2 4252   5.873   4.439   1.325
 1416TIP3   OH2 4253   5.172   1.631   2.896
 1416TIP3    H1 4254   5.087   1.602   2.862
 1416TIP3    H2 4255   5.236   1.594   2.836
 1417TIP3   OH2 4256   0.934   0.670   0.463
 1417TIP3    H1 4257   0.933   0.684   0.368
 1417TIP3    H2 4258   0.984   0.590   0.475
 1418TIP3   OH2 4259   3.235   4.342   0.769
 1418TIP3    H1 4260   3.141   4.357   0.769
 1418TIP3    H2 4261   3.272   4.422   0.730
 1419TIP3   OH2 4262   2.248   3.760   2.625
 1419TIP3    H1 4263   2.187   3.826   2.594
 1419TIP3    H2 4264   2.267   3.785   2.716
 1420TIP3   OH2 4265   0.863   2.094   4.207
 1420TIP3    H1 4266   0.800   2.166   4.198
 1420TIP3    H2 4267   0.925   2.108   4.135
 1421TIP3   OH2 4268   1.864   1.463   1.417
 1421TIP3    H1 4269   1.800   1.527   1.386
 1421TIP3    H2 4270   1.864   1.395   1.350
 1422TIP3   OH2 4271   5.562   1.014   1.475
 1422TIP3    H1 4272   5.507   0.959   1.531
 1422TIP3    H2 4273   5.635   1.040   1.531
 1423TIP3   OH2 4274   5.382   0.987   0.445
 1423TIP3    H1 4275   5.459   1.036   0.416
 1423TIP3    H2 4276   5.378   1.002   0.539
 1424TIP3   OH2 4277   2.904   3.660   3.890
 1424TIP3    H1 4278   2.868   3.620   3.811
 1424TIP3    H2 4279   2.916   3.752   3.868
 1425TIP3   OH2 4280   3.615   5.625   2.991
 1425TIP3    H1 4281   3.634   5.680   2.915
 1425TIP3    H2 4282   3.699   5.584   3.012
 1426TIP3   OH2 4283   3.952   3.868   1.606
 1426TIP3    H1 4284   3.974   3.845   1.696
 1426TIP3    H2 4285   3.966   3.962   1.601
 1427TIP3   OH2 4286   5.084   2.991   3.693
 1427TIP3    H1 4287   5.155   3.029   3.643
 1427TIP3    H2 4288   5.107   3.008   3.784
 1428TIP3   OH2 4289   0.932   0.526   3.092
 1428TIP3    H1 4290   1.003   0.548   3.031
 1428TIP3    H2 4291   0.909   0.609   3.134
 1429TIP3   OH2 4292   1.635   2.314   4.106
 1429TIP3    H1 4293   1.706   2.284   4.163
 1429TIP3    H2 4294   1.565   2.339   4.167
 1430TIP3   OH2 4295   1.816   2.444   3.921
 1430TIP3    H1 4296   1.779   2.367   3.964
 1430TIP3    H2 4297   1.747   2.473   3.861
 1431TIP3   OH2 4298   1.947   1.826   1.624
 1431TIP3    H1 4299   1.888   1.900   1.612
 1431TIP3    H2 4300   1.995   1.846   1.704
 1432TIP3   OH2 4301   0.292   4.791   2.732
 1432TIP3    H1 4302   0.258   4.731   2.666
 1432TIP3    H2 4303   0.342   4.856   2.683
 1433TIP3   OH2 4304   2.013   4.165   3.037
 1433TIP3    H1 4305   2.023   4.158   2.942
 1433TIP3    H2 4306   2.074   4.234   3.062
 1434TIP3   OH2 4307   6.250   0.706   4.386
 1434TIP3    H1 4308   6.174   0.748   4.427
 1434TIP3    H2 4309   6.218   0.679   4.300
 1435TIP3   OH2 4310   3.074   4.040   4.186
 1435TIP3    H1 4311   3.027   4.119   4.215
 1435TIP3    H2 4312   3.076   4.048   4.090
 1436TIP3   OH2 4313   6.081   1.005   4.364
 1436TIP3    H1 4314   6.082   0.976   4.456
 1436TIP3    H2 4315   6.027   0.939   4.320
 1437TIP3   OH2 4316   3.552   2.897   4.315
 1437TIP3    H1 4317   3.558   2.904   4.220
 1437TIP3    H2 4318   3.513   2.811   4.330
 1438TIP3   OH2 4319   4.036   1.931   2.636
 1438TIP3    H1 4320   3.980   2.007   2.618
 1438TIP3    H2 4321   4.111   1.944   2.578
 1439TIP3   OH2 4322   5.405   4.909   4.323
 1439TIP3    H1 4323   5.420   4.993   4.280
 1439TIP3    H2 4324   5.315   4.886   4.301
 1440TIP3   OH2 4325  -0.034   4.488   5.195
 1440TIP3    H1 4326  -0.100   4.534   5.143
 1440TIP3    H2 4327   0.043   4.544   5.190
 1441TIP3   OH2 4328   1.318   2.174   2.523
 1441TIP3    H1 4329   1.278   2.130   2.598
 1441TIP3    H2 4330   1.360   2.251   2.560
 1442TIP3   OH2 4331   4.182   5.393   4.514
 1442TIP3    H1 4332   4.112   5.333   4.542
 1442TIP3    H2 4333   4.255   5.335   4.491
 1443TIP3   OH2 4334   2.959   3.854   2.371
 1443TIP3    H1 4335   2.925   3.764   2.378
 1443TIP3    H2 4336   2.885   3.905   2.339
 1444TIP3   OH2 4337   5.057   3.792   3.545
 1444TIP3    H1 4338   5.021   3.703   3.549
 1444TIP3    H2 4339   5.098   3.805   3.630
 1445TIP3   OH2 4340   1.964   0.998   3.923
 1445TIP3    H1 4341   1.932   0.912   3.893
 1445TIP3    H2 4342   1.989   0.984   4.014
 1446TIP3   OH2 4343   6.029   0.286   2.802
 1446TIP3    H1 4344   6.107   0.341   2.794
 1446TIP3    H2 4345   5.973   0.313   2.728
 1447TIP3   OH2 4346   3.408   5.573   1.569
 1447TIP3    H1 4347   3.430   5.556   1.660
 1447TIP3    H2 4348   3.335   5.635   1.573
 1448TIP3   OH2 4349   0.658   5.059   3.582
 1448TIP3    H1 4350   0.609   5.140   3.575
 1448TIP3    H2 4351   0.727   5.067   3.516
 1449TIP3   OH2 4352   3.967   5.356   2.835
 1449TIP3    H1 4353   3.931   5.413   2.903
 1449TIP3    H2 4354   3.897   5.347   2.772
 1450TIP3   OH2 4355   3.934   1.092   4.235
 1450TIP3    H1 4356   3.974   1.167   4.279
 1450TIP3    H2 4357   3.845   1.120   4.216
 1451TIP3   OH2 4358   1.130   2.736   3.001
 1451TIP3    H1 4359   1.180   2.811   3.034
 1451TIP3    H2 4360   1.187   2.697   2.935
 1452TIP3   OH2 4361   1.034   5.043   2.350
 1452TIP3    H1 4362   1.048   5.077   2.438
 1452TIP3    H2 4363   1.053   4.949   2.358
 1453TIP3   OH2 4364   2.778   2.793   1.741
 1453TIP3    H1 4365   2.729   2.856   1.689
 1453TIP3    H2 4366   2.778   2.830   1.829
 1454TIP3   OH2 4367   1.288   1.723   1.542
 1454TIP3    H1 4368   1.273   1.776   1.464
 1454TIP3    H2 4369   1.288   1.785   1.614
 1455TIP3   OH2 4370   4.516   4.108   0.178
 1455TIP3    H1 4371   4.566   4.113   0.259
 1455TIP3    H2 4372   4.481   4.019   0.176
 1456TIP3   OH2 4373   5.325   3.680   4.005
 1456TIP3    H1 4374   5.401   3.621   4.011
 1456TIP3    H2 4375   5.333   3.737   4.082
 1457TIP3   OH2 4376   6.152   4.089   3.060
 1457TIP3    H1 4377   6.112   4.170   3.029
 1457TIP3    H2 4378   6.112   4.020   3.006
 1458TIP3   OH2 4379   2.523   5.966   2.613
 1458TIP3    H1 4380   2.434   5.989   2.640
 1458TIP3    H2 4381   2.513   5.882   2.569
 1459TIP3   OH2 4382   1.214   3.236   0.026
 1459TIP3    H1 4383   1.234   3.144   0.042
 1459TIP3    H2 4384   1.168   3.265   0.104
 1460TIP3   OH2 4385   5.031   2.288   4.952
 1460TIP3    H1 4386   5.048   2.194   4.962
 1460TIP3    H2 4387   4.936   2.296   4.965
 1461TIP3   OH2 4388   3.282   3.189   4.429
 1461TIP3    H1 4389   3.371   3.190   4.394
 1461TIP3    H2 4390   3.260   3.096   4.433
 1462TIP3   OH2 4391   0.421   5.263   3.111
 1462TIP3    H1 4392   0.338   5.297   3.143
 1462TIP3    H2 4393   0.430   5.298   3.023
 1463TIP3   OH2 4394  -0.031   3.214   3.911
 1463TIP3    H1 4395   0.030   3.245   3.844
 1463TIP3    H2 4396   0.010   3.135   3.946
 1464TIP3   OH2 4397   2.965   2.062   5.125
 1464TIP3    H1 4398   2.881   2.099   5.154
 1464TIP3    H2 4399   2.950   2.038   5.034
 1465TIP3   OH2 4400   5.566   5.368   1.149
 1465TIP3    H1 4401   5.623   5.308   1.102
 1465TIP3    H2 4402   5.482   5.322   1.156
 1466TIP3   OH2 4403   0.875   1.184   1.363
 1466TIP3    H1 4404   0.783   1.158   1.370
 1466TIP3    H2 4405   0.920   1.134   1.430
 1467TIP3   OH2 4406   5.532   0.235   3.474
 1467TIP3    H1 4407   5.488   0.318   3.493
 1467TIP3    H2 4408   5.615   0.240   3.521
 1468TIP3   OH2 4409   1.928   4.842   1.994
 1468TIP3    H1 4410   1.836   4.865   2.004
 1468TIP3    H2 4411   1.973   4.925   1.981
 1469TIP3   OH2 4412   3.103   0.674   0.395
 1469TIP3    H1 4413   3.099   0.727   0.474
 1469TIP3    H2 4414   3.196   0.668   0.374
 1470TIP3   OH2 4415   5.199   4.627   4.231
 1470TIP3    H1 4416   5.246   4.590   4.305
 1470TIP3    H2 4417   5.171   4.714   4.261
 1471TIP3   OH2 4418   2.780   3.783   4.277
 1471TIP3    H1 4419   2.867   3.784   4.317
 1471TIP3    H2 4420   2.753   3.691   4.280
 1472TIP3   OH2 4421   2.935   3.585   0.630
 1472TIP3    H1 4422   2.877   3.575   0.705
 1472TIP3    H2 4423   2.935   3.679   0.611
 1473TIP3   OH2 4424   1.704   0.776   2.293
 1473TIP3    H1 4425   1.696   0.837   2.366
 1473TIP3    H2 4426   1.794   0.744   2.298
 1474TIP3   OH2 4427   0.729   3.698   0.672
 1474TIP3    H1 4428   0.772   3.781   0.692
 1474TIP3    H2 4429   0.791   3.631   0.699
 1475TIP3   OH2 4430   2.671   4.475   0.962
 1475TIP3    H1 4431   2.587   4.434   0.979
 1475TIP3    H2 4432   2.714   4.480   1.048
 1476TIP3   OH2 4433   3.013   3.025   1.053
 1476TIP3    H1 4434   3.020   3.070   0.969
 1476TIP3    H2 4435   2.945   2.959   1.040
 1477TIP3   OH2 4436   4.409   1.984   4.209
 1477TIP3    H1 4437   4.444   1.902   4.244
 1477TIP3    H2 4438   4.322   1.992   4.248
 1478TIP3   OH2 4439   2.408   4.154   4.902
 1478TIP3    H1 4440   2.377   4.063   4.897
 1478TIP3    H2 4441   2.459   4.166   4.822
 1479TIP3   OH2 4442   1.225   1.816   4.152
 1479TIP3    H1 4443   1.229   1.744   4.089
 1479TIP3    H2 4444   1.136   1.850   4.145
 1480TIP3   OH2 4445   0.601   3.578   2.920
 1480TIP3    H1 4446   0.564   3.666   2.927
 1480TIP3    H2 4447   0.525   3.519   2.922
 1481TIP3   OH2 4448   3.594   1.390   4.901
 1481TIP3    H1 4449   3.609   1.399   4.995
 1481TIP3    H2 4450   3.556   1.473   4.874
 1482TIP3   OH2 4451   4.876   1.962   3.009
 1482TIP3    H1 4452   4.861   2.034   3.070
 1482TIP3    H2 4453   4.857   1.883   3.060
 1483TIP3   OH2 4454   3.066   5.371   3.941
 1483TIP3    H1 4455   2.970   5.373   3.948
 1483TIP3    H2 4456   3.095   5.450   3.985
 1484TIP3   OH2 4457   4.183   1.466   3.109
 1484TIP3    H1 4458   4.275   1.444   3.091
 1484TIP3    H2 4459   4.147   1.492   3.024
 1485TIP3   OH2 4460   0.285   0.019   0.862
 1485TIP3    H1 4461   0.264   0.014   0.769
 1485TIP3    H2 4462   0.200   0.029   0.905
 1486TIP3   OH2 4463   2.735   4.350   4.047
 1486TIP3    H1 4464   2.653   4.340   4.096
 1486TIP3    H2 4465   2.754   4.444   4.051
 1487TIP3   OH2 4466   3.284   1.037   1.461
 1487TIP3    H1 4467   3.285   1.035   1.365
 1487TIP3    H2 4468   3.325   1.120   1.484
 1488TIP3   OH2 4469   1.842   2.726   0.942
 1488TIP3    H1 4470   1.806   2.783   1.010
 1488TIP3    H2 4471   1.853   2.782   0.866
 1489TIP3   OH2 4472   5.761   0.488   3.397
 1489TIP3    H1 4473   5.720   0.451   3.475
 1489TIP3    H2 4474   5.786   0.412   3.344
 1490TIP3   OH2 4475   4.877   1.943   0.694
 1490TIP3    H1 4476   4.817   2.006   0.734
 1490TIP3    H2 4477   4.820   1.885   0.643
 1491TIP3   OH2 4478   1.510   3.325   3.029
 1491TIP3    H1 4479   1.435   3.303   3.084
 1491TIP3    H2 4480   1.522   3.419   3.041
 1492TIP3   OH2 4481   2.924   3.485   1.806
 1492TIP3    H1 4482   3.006   3.534   1.792
 1492TIP3    H2 4483   2.855   3.550   1.792
 1493TIP3   OH2 4484   5.758   1.382   3.713
 1493TIP3    H1 4485   5.845   1.414   3.740
 1493TIP3    H2 4486   5.701   1.405   3.787
 1494TIP3   OH2 4487   1.760   3.839   4.592
 1494TIP3    H1 4488   1.678   3.789   4.593
 1494TIP3    H2 4489   1.816   3.795   4.655
 1495TIP3   OH2 4490   4.683   3.485   2.010
 1495TIP3    H1 4491   4.598   3.522   1.986
 1495TIP3    H2 4492   4.734   3.488   1.929
 1496TIP3   OH2 4493   4.659   2.163   0.799
 1496TIP3    H1 4494   4.671   2.202   0.885
 1496TIP3    H2 4495   4.581   2.108   0.808
 1497TIP3   OH2 4496   2.865   5.241   2.629
 1497TIP3    H1 4497   2.902   5.209   2.711
 1497TIP3    H2 4498   2.921   5.204   2.560
 1498TIP3   OH2 4499   6.026   0.833   4.587
 1498TIP3    H1 4500   6.089   0.775   4.630
 1498TIP3    H2 4501   5.997   0.892   4.657
 1499TIP3   OH2 4502   2.746   5.033   0.539
 1499TIP3    H1 4503   2.774   5.112   0.585
 1499TIP3    H2 4504   2.651   5.028   0.554
 1500TIP3   OH2 4505   0.602   0.974   4.604
 1500TIP3    H1 4506   0.605   0.989   4.510
 1500TIP3    H2 4507   0.511   0.989   4.629
 1501TIP3   OH2 4508   5.329   5.225   1.099
 1501TIP3    H1 4509   5.293   5.255   1.183
 1501TIP3    H2 4510   5.281   5.144   1.081
 1502TIP3   OH2 4511   3.318   3.284   0.745
 1502TIP3    H1 4512   3.357   3.260   0.829
 1502TIP3    H2 4513   3.275   3.205   0.714
 1503TIP3   OH2 4514   5.890   4.789   1.454
 1503TIP3    H1 4515   5.815   4.843   1.431
 1503TIP3    H2 4516   5.962   4.822   1.400
 1504TIP3   OH2 4517   4.473   0.883   0.846
 1504TIP3    H1 4518   4.543   0.829   0.882
 1504TIP3    H2 4519   4.505   0.911   0.761
 1505TIP3   OH2 4520   6.162   1.711   4.410
 1505TIP3    H1 4521   6.235   1.767   4.435
 1505TIP3    H2 4522   6.088   1.742   4.462
 1506TIP3   OH2 4523   1.353   4.639   1.308
 1506TIP3    H1 4524   1.371   4.547   1.324
 1506TIP3    H2 4525   1.318   4.671   1.392
 1507TIP3   OH2 4526   0.078   5.522   0.140
 1507TIP3    H1 4527   0.103   5.447   0.195
 1507TIP3    H2 4528   0.068   5.595   0.201
 1508TIP3   OH2 4529   4.844   3.531   3.252
 1508TIP3    H1 4530   4.817   3.565   3.167
 1508TIP3    H2 4531   4.819   3.600   3.314
 1509TIP3   OH2 4532   5.680   2.325   3.001
 1509TIP3    H1 4533   5.747   2.289   3.059
 1509TIP3    H2 4534   5.652   2.250   2.948
 1510TIP3   OH2 4535   6.180   4.090   0.411
 1510TIP3    H1 4536   6.183   4.057   0.321
 1510TIP3    H2 4537   6.254   4.151   0.416
 1511TIP3   OH2 4538   0.045   0.776   2.808
 1511TIP3    H1 4539   0.064   0.718   2.734
 1511TIP3    H2 4540   0.048   0.864   2.772
 1512TIP3   OH2 4541   0.480   3.460   1.391
 1512TIP3    H1 4542   0.503   3.492   1.304
 1512TIP3    H2 4543   0.563   3.461   1.439
 1513TIP3   OH2 4544   1.668   3.306   4.748
 1513TIP3    H1 4545   1.687   3.320   4.655
 1513TIP3    H2 4546   1.667   3.394   4.786
 1514TIP3   OH2 4547   5.970   5.264   0.130
 1514TIP3    H1 4548   6.061   5.252   0.103
 1514TIP3    H2 4549   5.976   5.293   0.222
 1515TIP3   OH2 4550   0.967   2.216   2.128
 1515TIP3    H1 4551   1.062   2.220   2.138
 1515TIP3    H2 4552   0.948   2.270   2.052
 1516TIP3   OH2 4553   2.686   5.304   2.136
 1516TIP3    H1 4554   2.679   5.398   2.119
 1516TIP3    H2 4555   2.636   5.263   2.065
 1517TIP3   OH2 4556   6.229   5.252   1.224
 1517TIP3    H1 4557   6.189   5.229   1.140
 1517TIP3    H2 4558   6.317   5.214   1.220
 1518TIP3   OH2 4559   1.879   4.337   0.087
 1518TIP3    H1 4560   1.965   4.328   0.127
 1518TIP3    H2 4561   1.817   4.320   0.158
 1519TIP3   OH2 4562   1.921   1.794   0.210
 1519TIP3    H1 4563   1.839   1.746   0.222
 1519TIP3    H2 4564   1.914   1.831   0.122
 1520TIP3   OH2 4565   0.066   1.290   4.216
 1520TIP3    H1 4566   0.128   1.360   4.193
 1520TIP3    H2 4567  -0.003   1.334   4.265
 1521TIP3   OH2 4568   6.044   2.623   2.657
 1521TIP3    H1 4569   5.980   2.629   2.727
 1521TIP3    H2 4570   6.124   2.593   2.700
 1522TIP3   OH2 4571   1.550   0.700   1.094
 1522TIP3    H1 4572   1.560   0.721   1.002
 1522TIP3    H2 4573   1.455   0.698   1.109
 1523TIP3   OH2 4574   4.160   2.633   4.133
 1523TIP3    H1 4575   4.071   2.604   4.153
 1523TIP3    H2 4576   4.216   2.579   4.188
 1524TIP3   OH2 4577   5.862   0.427   0.621
 1524TIP3    H1 4578   5.854   0.449   0.714
 1524TIP3    H2 4579   5.816   0.343   0.612
 1525TIP3   OH2 4580   0.455   2.698   4.670
 1525TIP3    H1 4581   0.545   2.682   4.640
 1525TIP3    H2 4582   0.456   2.677   4.763
 1526TIP3   OH2 4583   4.334   2.257   0.979
 1526TIP3    H1 4584   4.366   2.184   0.927
 1526TIP3    H2 4585   4.376   2.334   0.941
 1527TIP3   OH2 4586   4.834   0.166   2.595
 1527TIP3    H1 4587   4.819   0.200   2.684
 1527TIP3    H2 4588   4.753   0.122   2.572
 1528TIP3   OH2 4589   5.342   3.310   0.456
 1528TIP3    H1 4590   5.363   3.268   0.373
 1528TIP3    H2 4591   5.277   3.377   0.433
 1529TIP3   OH2 4592   4.633   5.881   1.584
 1529TIP3    H1 4593   4.572   5.807   1.583
 1529TIP3    H2 4594   4.719   5.841   1.579
 1530TIP3   OH2 4595   2.263   1.562  -0.004
 1530TIP3    H1 4596   2.270   1.480  -0.053
 1530TIP3    H2 4597   2.342   1.611  -0.027
 1531TIP3   OH2 4598   0.358   3.630   3.308
 1531TIP3    H1 4599   0.369   3.725   3.308
 1531TIP3    H2 4600   0.263   3.616   3.310
 1532TIP3   OH2 4601   3.084   5.535   4.890
 1532TIP3    H1 4602   3.159   5.531   4.949
 1532TIP3    H2 4603   3.016   5.580   4.940
 1533TIP3   OH2 4604   0.034   2.391   1.840
 1533TIP3    H1 4605   0.040   2.354   1.752
 1533TIP3    H2 4606   0.124   2.411   1.864
 1534TIP3   OH2 4607   1.833   2.733   4.029
 1534TIP3    H1 4608   1.766   2.695   4.086
 1534TIP3    H2 4609   1.840   2.671   3.956
 1535TIP3   OH2 4610   0.716   1.457   3.261
 1535TIP3    H1 4611   0.691   1.503   3.181
 1535TIP3    H2 4612   0.811   1.450   3.255
 1536TIP3   OH2 4613   4.780   3.467   0.728
 1536TIP3    H1 4614   4.716   3.423   0.672
 1536TIP3    H2 4615   4.858   3.413   0.723
 1537TIP3   OH2 4616   3.000   1.994   3.222
 1537TIP3    H1 4617   3.015   1.920   3.282
 1537TIP3    H2 4618   3.025   2.071   3.273
 1538TIP3   OH2 4619   5.406   0.662   5.084
 1538TIP3    H1 4620   5.470   0.611   5.035
 1538TIP3    H2 4621   5.412   0.628   5.174
 1539TIP3   OH2 4622   3.076   3.588   3.139
 1539TIP3    H1 4623   3.152   3.541   3.105
 1539TIP3    H2 4624   3.097   3.681   3.125
 1540TIP3   OH2 4625   2.245   5.528   4.214
 1540TIP3    H1 4626   2.203   5.513   4.299
 1540TIP3    H2 4627   2.324   5.579   4.235
 1541TIP3   OH2 4628   5.840   2.132   0.191
 1541TIP3    H1 4629   5.838   2.069   0.119
 1541TIP3    H2 4630   5.819   2.216   0.149
 1542TIP3   OH2 4631   4.000   5.284   1.966
 1542TIP3    H1 4632   3.998   5.200   2.010
 1542TIP3    H2 4633   3.948   5.342   2.021
 1543TIP3   OH2 4634   0.491   1.302   1.133
 1543TIP3    H1 4635   0.584   1.294   1.111
 1543TIP3    H2 4636   0.448   1.233   1.084
 1544TIP3   OH2 4637   5.260   3.136   3.534
 1544TIP3    H1 4638   5.266   3.191   3.456
 1544TIP3    H2 4639   5.286   3.193   3.606
 1545TIP3   OH2 4640   0.292   4.030   4.874
 1545TIP3    H1 4641   0.223   3.996   4.817
 1545TIP3    H2 4642   0.249   4.101   4.922
 1546TIP3   OH2 4643   6.148   3.999   3.820
 1546TIP3    H1 4644   6.131   4.052   3.898
 1546TIP3    H2 4645   6.242   3.987   3.819
 1547TIP3   OH2 4646   3.688   1.290   1.155
 1547TIP3    H1 4647   3.714   1.205   1.191
 1547TIP3    H2 4648   3.661   1.270   1.065
 1548TIP3   OH2 4649   2.106   2.832   2.618
 1548TIP3    H1 4650   2.124   2.909   2.564
 1548TIP3    H2 4651   2.175   2.834   2.685
 1549TIP3   OH2 4652   0.181   1.668   2.540
 1549TIP3    H1 4653   0.088   1.659   2.560
 1549TIP3    H2 4654   0.225   1.629   2.616
 1550TIP3   OH2 4655   1.655   5.932   3.129
 1550TIP3    H1 4656   1.625   5.843   3.113
 1550TIP3    H2 4657   1.603   5.961   3.205
 1551TIP3   OH2 4658   6.158   4.846   4.577
 1551TIP3    H1 4659   6.231   4.864   4.519
 1551TIP3    H2 4660   6.096   4.797   4.524
 1552TIP3   OH2 4661   2.677   5.671   3.311
 1552TIP3    H1 4662   2.737   5.709   3.247
 1552TIP3    H2 4663   2.590   5.679   3.271
 1553TIP3   OH2 4664   2.230   5.540   1.817
 1553TIP3    H1 4665   2.231   5.445   1.826
 1553TIP3    H2 4666   2.139   5.562   1.796
 1554TIP3   OH2 4667   3.958   5.415   0.812
 1554TIP3    H1 4668   4.021   5.409   0.740
 1554TIP3    H2 4669   4.009   5.449   0.885
 1555TIP3   OH2 4670   1.123   0.940   4.554
 1555TIP3    H1 4671   1.140   1.034   4.563
 1555TIP3    H2 4672   1.102   0.929   4.461
 1556TIP3   OH2 4673   0.225   0.777   1.178
 1556TIP3    H1 4674   0.161   0.790   1.248
 1556TIP3    H2 4675   0.279   0.704   1.206
 1557TIP3   OH2 4676   1.978   3.076   2.178
 1557TIP3    H1 4677   2.055   3.086   2.234
 1557TIP3    H2 4678   2.014   3.074   2.089
 1558TIP3   OH2 4679   2.494   0.984   1.733
 1558TIP3    H1 4680   2.506   0.911   1.672
 1558TIP3    H2 4681   2.578   1.030   1.732
 1559TIP3   OH2 4682   3.036   0.534   4.463
 1559TIP3    H1 4683   2.998   0.535   4.375
 1559TIP3    H2 4684   3.118   0.486   4.453
 1560TIP3   OH2 4685   0.136   2.404   4.445
 1560TIP3    H1 4686   0.134   2.367   4.534
 1560TIP3    H2 4687   0.199   2.475   4.450
 1561TIP3   OH2 4688   0.684   3.143   3.057
 1561TIP3    H1 4689   0.657   3.062   3.013
 1561TIP3    H2 4690   0.759   3.118   3.110
 1562TIP3   OH2 4691   4.084   1.049   3.616
 1562TIP3    H1 4692   4.098   1.144   3.627
 1562TIP3    H2 4693   4.130   1.028   3.535
 1563TIP3   OH2 4694   5.031   0.500   1.294
 1563TIP3    H1 4695   5.112   0.456   1.269
 1563TIP3    H2 4696   5.057   0.565   1.359
 1564TIP3   OH2 4697   0.269   0.155   1.513
 1564TIP3    H1 4698   0.301   0.066   1.524
 1564TIP3    H2 4699   0.175   0.145   1.498
 1565TIP3   OH2 4700   2.051   4.926   2.235
 1565TIP3    H1 4701   2.042   4.833   2.214
 1565TIP3    H2 4702   2.046   4.930   2.331
 1566TIP3   OH2 4703   3.813   0.578   0.231
 1566TIP3    H1 4704   3.809   0.585   0.135
 1566TIP3    H2 4705   3.840   0.487   0.247
 1567TIP3   OH2 4706   3.121   1.686   1.132
 1567TIP3    H1 4707   3.099   1.669   1.224
 1567TIP3    H2 4708   3.131   1.599   1.093
 1568TIP3   OH2 4709   3.870   1.394   3.678
 1568TIP3    H1 4710   3.958   1.414   3.645
 1568TIP3    H2 4711   3.811   1.438   3.617
 1569TIP3   OH2 4712   0.999   0.397   0.081
 1569TIP3    H1 4713   1.055   0.352   0.018
 1569TIP3    H2 4714   1.039   0.379   0.166
 1570TIP3   OH2 4715   0.029   4.675   3.657
 1570TIP3    H1 4716   0.096   4.621   3.616
 1570TIP3    H2 4717  -0.050   4.620   3.657
 1571TIP3   OH2 4718   0.685   5.567   4.658
 1571TIP3    H1 4719   0.742   5.642   4.640
 1571TIP3    H2 4720   0.723   5.496   4.606
 1572TIP3   OH2 4721   3.304   5.305   3.834
 1572TIP3    H1 4722   3.227   5.327   3.887
 1572TIP3    H2 4723   3.297   5.211   3.819
 1573TIP3   OH2 4724   4.281   5.893   1.861
 1573TIP3    H1 4725   4.366   5.918   1.898
 1573TIP3    H2 4726   4.299   5.816   1.808
 1574TIP3   OH2 4727   1.382   0.192   4.715
 1574TIP3    H1 4728   1.373   0.232   4.629
 1574TIP3    H2 4729   1.341   0.106   4.706
 1575TIP3   OH2 4730   6.010   3.163   2.012
 1575TIP3    H1 4731   6.082   3.135   1.956
 1575TIP3    H2 4732   5.974   3.082   2.048
 1576TIP3   OH2 4733   4.406   4.391   0.267
 1576TIP3    H1 4734   4.329   4.376   0.322
 1576TIP3    H2 4735   4.439   4.476   0.296
 1577TIP3   OH2 4736   3.087   5.391   1.864
 1577TIP3    H1 4737   3.050   5.439   1.790
 1577TIP3    H2 4738   3.046   5.429   1.942
 1578TIP3   OH2 4739   4.159   1.781   0.640
 1578TIP3    H1 4740   4.063   1.773   0.634
 1578TIP3    H2 4741   4.182   1.837   0.566
 1579TIP3   OH2 4742   5.982   2.930   4.373
 1579TIP3    H1 4743   6.060   2.956   4.325
 1579TIP3    H2 4744   6.015   2.883   4.449
 1580TIP3   OH2 4745   2.361   3.108   4.021
 1580TIP3    H1 4746   2.337   3.069   3.937
 1580TIP3    H2 4747   2.423   3.177   3.999
 1581TIP3   OH2 4748   5.687   2.186   1.733
 1581TIP3    H1 4749   5.673   2.099   1.696
 1581TIP3    H2 4750   5.682   2.245   1.658
 1582TIP3   OH2 4751   6.165   2.643   1.196
 1582TIP3    H1 4752   6.161   2.551   1.172
 1582TIP3    H2 4753   6.109   2.650   1.273
 1583TIP3   OH2 4754   4.751   2.699   2.039
 1583TIP3    H1 4755   4.818   2.766   2.052
 1583TIP3    H2 4756   4.675   2.746   2.005
 1584TIP3   OH2 4757   0.346   1.044   4.542
 1584TIP3    H1 4758   0.267   0.991   4.546
 1584TIP3    H2 4759   0.359   1.062   4.449
 1585TIP3   OH2 4760   6.066   1.314   2.568
 1585TIP3    H1 4761   6.149   1.301   2.522
 1585TIP3    H2 4762   6.000   1.315   2.499
 1586TIP3   OH2 4763   0.136   2.533   0.133
 1586TIP3    H1 4764   0.205   2.509   0.071
 1586TIP3    H2 4765   0.140   2.467   0.202
 1587TIP3   OH2 4766   3.513   4.438   1.891
 1587TIP3    H1 4767   3.442   4.497   1.869
 1587TIP3    H2 4768   3.542   4.403   1.806
 1588TIP3   OH2 4769   4.806   5.925   2.570
 1588TIP3    H1 4770   4.852   5.981   2.507
 1588TIP3    H2 4771   4.795   5.981   2.647
 1589TIP3   OH2 4772   1.732   2.464   4.583
 1589TIP3    H1 4773   1.802   2.529   4.595
 1589TIP3    H2 4774   1.776   2.380   4.588
 1590TIP3   OH2 4775   1.232   3.073   4.882
 1590TIP3    H1 4776   1.289   3.063   4.805
 1590TIP3    H2 4777   1.149   3.031   4.856
 1591TIP3   OH2 4778   0.128   5.582   3.034
 1591TIP3    H1 4779   0.155   5.515   3.098
 1591TIP3    H2 4780   0.109   5.533   2.955
 1592TIP3   OH2 4781   0.372   2.556   3.660
 1592TIP3    H1 4782   0.299   2.549   3.722
 1592TIP3    H2 4783   0.347   2.626   3.601
 1593TIP3   OH2 4784   0.841   1.023   5.074
 1593TIP3    H1 4785   0.911   0.962   5.050
 1593TIP3    H2 4786   0.761   0.981   5.044
 1594TIP3   OH2 4787   5.663   4.257   2.145
 1594TIP3    H1 4788   5.696   4.302   2.223
 1594TIP3    H2 4789   5.742   4.221   2.104
 1595TIP3   OH2 4790   1.135   5.825   3.528
 1595TIP3    H1 4791   1.197   5.879   3.576
 1595TIP3    H2 4792   1.049   5.855   3.558
 1596TIP3   OH2 4793   0.420   0.992   1.178
 1596TIP3    H1 4794   0.447   1.043   1.102
 1596TIP3    H2 4795   0.347   0.939   1.147
 1597TIP3   OH2 4796   1.923   0.701   1.295
 1597TIP3    H1 4797   1.919   0.642   1.220
 1597TIP3    H2 4798   1.839   0.748   1.293
 1598TIP3   OH2 4799   5.888   3.865   0.841
 1598TIP3    H1 4800   5.961   3.922   0.864
 1598TIP3    H2 4801   5.928   3.794   0.791
 1599TIP3   OH2 4802   2.297   1.134   4.181
 1599TIP3    H1 4803   2.228   1.067   4.185
 1599TIP3    H2 4804   2.251   1.215   4.203
 1600TIP3   OH2 4805   4.589   1.008   0.287
 1600TIP3    H1 4806   4.525   1.026   0.356
 1600TIP3    H2 4807   4.537   1.004   0.207
 1601TIP3   OH2 4808   0.897   0.279   1.337
 1601TIP3    H1 4809   0.810   0.304   1.369
 1601TIP3    H2 4810   0.901   0.315   1.248
 1602TIP3   OH2 4811   4.057   5.884   4.145
 1602TIP3    H1 4812   4.091   5.815   4.202
 1602TIP3    H2 4813   3.962   5.868   4.143
 1603TIP3   OH2 4814   2.626   5.094   2.633
 1603TIP3    H1 4815   2.700   5.153   2.648
 1603TIP3    H2 4816   2.602   5.108   2.541
 1604TIP3   OH2 4817   4.085   2.519   3.544
 1604TIP3    H1 4818   4.056   2.436   3.582
 1604TIP3    H2 4819   4.154   2.494   3.482
 1605TIP3   OH2 4820   3.901   5.510   4.230
 1605TIP3    H1 4821   3.976   5.472   4.183
 1605TIP3    H2 4822   3.939   5.546   4.310
 1606TIP3   OH2 4823   0.559   4.444   0.856
 1606TIP3    H1 4824   0.633   4.470   0.800
 1606TIP3    H2 4825   0.486   4.435   0.795
 1607TIP3   OH2 4826   1.883   0.540   1.066
 1607TIP3    H1 4827   1.934   0.467   1.031
 1607TIP3    H2 4828   1.803   0.541   1.014
 1608TIP3   OH2 4829   5.877   1.685   3.970
 1608TIP3    H1 4830   5.890   1.726   4.055
 1608TIP3    H2 4831   5.837   1.600   3.990
 1609TIP3   OH2 4832   5.751   2.536   4.637
 1609TIP3    H1 4833   5.758   2.606   4.571
 1609TIP3    H2 4834   5.660   2.541   4.667
 1610TIP3   OH2 4835   0.630   1.656   1.216
 1610TIP3    H1 4836   0.648   1.744   1.183
 1610TIP3    H2 4837   0.547   1.632   1.173
 1611TIP3   OH2 4838   2.347   1.704   0.572
 1611TIP3    H1 4839   2.442   1.696   0.569
 1611TIP3    H2 4840   2.329   1.738   0.660
 1612TIP3   OH2 4841   5.988   2.777   1.374
 1612TIP3    H1 4842   6.006   2.852   1.431
 1612TIP3    H2 4843   5.898   2.791   1.345
 1613TIP3   OH2 4844   4.703   3.569   0.354
 1613TIP3    H1 4845   4.621   3.599   0.392
 1613TIP3    H2 4846   4.755   3.648   0.342
 1614TIP3   OH2 4847   6.211   5.475   2.556
 1614TIP3    H1 4848   6.283   5.520   2.602
 1614TIP3    H2 4849   6.250   5.449   2.473
 1615TIP3   OH2 4850   4.175   5.754   3.584
 1615TIP3    H1 4851   4.094   5.799   3.557
 1615TIP3    H2 4852   4.162   5.663   3.555
 1616TIP3   OH2 4853   4.717   1.029   2.177
 1616TIP3    H1 4854   4.804   1.057   2.205
 1616TIP3    H2 4855   4.711   0.937   2.204
 1617TIP3   OH2 4856   5.749   1.051   1.669
 1617TIP3    H1 4857   5.755   0.958   1.691
 1617TIP3    H2 4858   5.709   1.091   1.746
 1618TIP3   OH2 4859   6.036   1.843   3.784
 1618TIP3    H1 4860   5.969   1.840   3.716
 1618TIP3    H2 4861   5.996   1.800   3.859
 1619TIP3   OH2 4862   4.071   4.464   5.196
 1619TIP3    H1 4863   4.095   4.522   5.269
 1619TIP3    H2 4864   4.155   4.432   5.163
 1620TIP3   OH2 4865   0.277   3.873   4.224
 1620TIP3    H1 4866   0.287   3.933   4.298
 1620TIP3    H2 4867   0.327   3.913   4.153
 1621TIP3   OH2 4868   2.465   2.316   5.125
 1621TIP3    H1 4869   2.440   2.227   5.146
 1621TIP3    H2 4870   2.437   2.329   5.034
 1622TIP3   OH2 4871   0.318   0.225   3.181
 1622TIP3    H1 4872   0.305   0.287   3.109
 1622TIP3    H2 4873   0.346   0.279   3.255
 1623TIP3   OH2 4874   5.775   5.264   1.609
 1623TIP3    H1 4875   5.747   5.177   1.638
 1623TIP3    H2 4876   5.763   5.320   1.686
 1624TIP3   OH2 4877   2.170   2.369   3.567
 1624TIP3    H1 4878   2.249   2.317   3.552
 1624TIP3    H2 4879   2.133   2.334   3.648
 1625TIP3   OH2 4880   0.212   3.155   4.237
 1625TIP3    H1 4881   0.303   3.140   4.262
 1625TIP3    H2 4882   0.202   3.107   4.154
 1626TIP3   OH2 4883   5.515   0.681   3.904
 1626TIP3    H1 4884   5.524   0.776   3.898
 1626TIP3    H2 4885   5.460   0.667   3.981
 1627TIP3   OH2 4886   4.196   4.277   3.145
 1627TIP3    H1 4887   4.268   4.215   3.157
 1627TIP3    H2 4888   4.230   4.360   3.179
 1628TIP3   OH2 4889   0.216   2.857   1.016
 1628TIP3    H1 4890   0.238   2.857   0.923
 1628TIP3    H2 4891   0.131   2.813   1.020
 1629TIP3   OH2 4892   4.505   3.353   3.635
 1629TIP3    H1 4893   4.524   3.398   3.717
 1629TIP3    H2 4894   4.476   3.265   3.661
 1630TIP3   OH2 4895   2.645   2.359   2.196
 1630TIP3    H1 4896   2.587   2.284   2.185
 1630TIP3    H2 4897   2.679   2.349   2.285
 1631TIP3   OH2 4898   0.425   2.163   3.808
 1631TIP3    H1 4899   0.517   2.163   3.837
 1631TIP3    H2 4900   0.382   2.223   3.870
 1632TIP3   OH2 4901   3.343   5.328   0.084
 1632TIP3    H1 4902   3.315   5.273   0.158
 1632TIP3    H2 4903   3.434   5.350   0.104
 1633TIP3   OH2 4904   1.472   4.651   1.788
 1633TIP3    H1 4905   1.430   4.642   1.702
 1633TIP3    H2 4906   1.471   4.745   1.804
 1634TIP3   OH2 4907   5.509   1.010   4.562
 1634TIP3    H1 4908   5.458   0.965   4.630
 1634TIP3    H2 4909   5.521   0.944   4.493
 1635TIP3   OH2 4910   0.533   2.836   3.905
 1635TIP3    H1 4911   0.527   2.801   3.816
 1635TIP3    H2 4912   0.447   2.816   3.944
 1636TIP3   OH2 4913   6.062   3.406   2.159
 1636TIP3    H1 4914   6.111   3.393   2.240
 1636TIP3    H2 4915   6.061   3.320   2.117
 1637TIP3   OH2 4916   5.138   2.326   1.062
 1637TIP3    H1 4917   5.192   2.395   1.101
 1637TIP3    H2 4918   5.116   2.359   0.975
 1638TIP3   OH2 4919   2.503   0.681   5.097
 1638TIP3    H1 4920   2.466   0.634   5.171
 1638TIP3    H2 4921   2.454   0.649   5.021
 1639TIP3   OH2 4922   0.856   3.410   4.103
 1639TIP3    H1 4923   0.778   3.454   4.068
 1639TIP3    H2 4924   0.899   3.477   4.155
 1640TIP3   OH2 4925   0.866   3.495   3.473
 1640TIP3    H1 4926   0.800   3.563   3.488
 1640TIP3    H2 4927   0.898   3.513   3.384
 1641TIP3   OH2 4928   5.560   4.928   3.127
 1641TIP3    H1 4929   5.613   4.995   3.084
 1641TIP3    H2 4930   5.505   4.891   3.058
 1642TIP3   OH2 4931   4.567   1.304   4.372
 1642TIP3    H1 4932   4.549   1.364   4.445
 1642TIP3    H2 4933   4.518   1.225   4.393
 1643TIP3   OH2 4934   3.067   2.280   4.410
 1643TIP3    H1 4935   3.132   2.350   4.420
 1643TIP3    H2 4936   2.986   2.325   4.387
 1644TIP3   OH2 4937   4.628   0.444   3.516
 1644TIP3    H1 4938   4.570   0.402   3.580
 1644TIP3    H2 4939   4.716   0.422   3.545
 1645TIP3   OH2 4940   4.479   5.052   3.550
 1645TIP3    H1 4941   4.538   4.993   3.502
 1645TIP3    H2 4942   4.501   5.139   3.517
 1646TIP3   OH2 4943   2.668   2.942   2.712
 1646TIP3    H1 4944   2.761   2.919   2.712
 1646TIP3    H2 4945   2.659   3.006   2.783
 1647TIP3   OH2 4946   5.880   5.522   0.800
 1647TIP3    H1 4947   5.885   5.602   0.749
 1647TIP3    H2 4948   5.972   5.499   0.817
 1648TIP3   OH2 4949   0.430   5.478   1.162
 1648TIP3    H1 4950   0.405   5.568   1.142
 1648TIP3    H2 4951   0.507   5.486   1.218
 1649TIP3   OH2 4952   4.413   1.464   1.367
 1649TIP3    H1 4953   4.324   1.486   1.340
 1649TIP3    H2 4954   4.430   1.519   1.443
 1650TIP3   OH2 4955   0.325   0.172   1.159
 1650TIP3    H1 4956   0.384   0.109   1.199
 1650TIP3    H2 4957   0.382   0.245   1.133
 1651TIP3   OH2 4958   2.549   3.556   3.494
 1651TIP3    H1 4959   2.476   3.542   3.433
 1651TIP3    H2 4960   2.612   3.609   3.444
 1652TIP3   OH2 4961   5.141   1.274   0.684
 1652TIP3    H1 4962   5.137   1.369   0.673
 1652TIP3    H2 4963   5.210   1.246   0.625
 1653TIP3   OH2 4964   1.691   2.744   2.466
 1653TIP3    H1 4965   1.733   2.818   2.422
 1653TIP3    H2 4966   1.600   2.748   2.436
 1654TIP3   OH2 4967   4.122   0.696   1.263
 1654TIP3    H1 4968   4.093   0.645   1.339
 1654TIP3    H2 4969   4.049   0.691   1.202
 1655TIP3   OH2 4970   0.591   2.204   2.186
 1655TIP3    H1 4971   0.522   2.206   2.253
 1655TIP3    H2 4972   0.606   2.111   2.171
 1656TIP3   OH2 4973   1.957   1.278   0.806
 1656TIP3    H1 4974   1.896   1.209   0.777
 1656TIP3    H2 4975   1.970   1.332   0.729
 1657TIP3   OH2 4976   1.926   1.290   3.562
 1657TIP3    H1 4977   1.963   1.204   3.545
 1657TIP3    H2 4978   1.891   1.283   3.651
 1658TIP3   OH2 4979   2.610   1.685   0.598
 1658TIP3    H1 4980   2.630   1.618   0.664
 1658TIP3    H2 4981   2.676   1.672   0.530
 1659TIP3   OH2 4982   2.774   2.822   4.364
 1659TIP3    H1 4983   2.686   2.796   4.392
 1659TIP3    H2 4984   2.760   2.874   4.285
 1660TIP3   OH2 4985   2.630   3.058   3.115
 1660TIP3    H1 4986   2.692   3.091   3.050
 1660TIP3    H2 4987   2.596   3.136   3.159
 1661TIP3   OH2 4988   1.625   2.613   4.209
 1661TIP3    H1 4989   1.591   2.530   4.242
 1661TIP3    H2 4990   1.566   2.636   4.137
 1662TIP3   OH2 4991   4.977   4.170   3.659
 1662TIP3    H1 4992   4.966   4.253   3.706
 1662TIP3    H2 4993   5.066   4.142   3.680
 1663TIP3   OH2 4994   5.044   0.062   3.068
 1663TIP3    H1 4995   5.113  -0.004   3.074
 1663TIP3    H2 4996   5.070   0.130   3.130
 1664TIP3   OH2 4997   0.738   4.379   1.887
 1664TIP3    H1 4998   0.817   4.428   1.912
 1664TIP3    H2 4999   0.753   4.355   1.796
 1665TIP3   OH2 5000   2.029   3.937   1.538
 1665TIP3    H1 5001   2.123   3.934   1.519
 1665TIP3    H2 5002   1.993   3.862   1.490
 1666TIP3   OH2 5003   6.026   3.116   2.405
 1666TIP3    H1 5004   5.989   3.049   2.347
 1666TIP3    H2 5005   6.098   3.073   2.450
 1667TIP3   OH2 5006   3.023   3.148   0.790
 1667TIP3    H1 5007   2.985   3.199   0.718
 1667TIP3    H2 5008   3.025   3.058   0.756
 1668TIP3   OH2 5009   1.660   2.221   3.626
 1668TIP3    H1 5010   1.723   2.293   3.630
 1668TIP3    H2 5011   1.684   2.164   3.699
 1669TIP3   OH2 5012   5.674   5.586   0.356
 1669TIP3    H1 5013   5.739   5.610   0.422
 1669TIP3    H2 5014   5.657   5.493   0.370
 1670TIP3   OH2 5015   5.256   5.791   5.009
 1670TIP3    H1 5016   5.343   5.830   5.004
 1670TIP3    H2 5017   5.198   5.857   4.970
 1671TIP3   OH2 5018   4.912   0.281   1.416
 1671TIP3    H1 5019   4.954   0.293   1.501
 1671TIP3    H2 5020   4.960   0.340   1.357
 1672TIP3   OH2 5021   0.165   0.797   4.797
 1672TIP3    H1 5022   0.089   0.772   4.850
 1672TIP3    H2 5023   0.127   0.822   4.713
 1673TIP3   OH2 5024   6.003   2.390   0.900
 1673TIP3    H1 5025   6.054   2.372   0.820
 1673TIP3    H2 5026   5.979   2.482   0.893
 1674TIP3   OH2 5027   1.920   3.449   2.229
 1674TIP3    H1 5028   1.966   3.424   2.149
 1674TIP3    H2 5029   1.939   3.377   2.290
 1675TIP3   OH2 5030   4.295   0.296   1.578
 1675TIP3    H1 5031   4.317   0.233   1.647
 1675TIP3    H2 5032   4.211   0.266   1.543
 1676TIP3   OH2 5033   4.993   4.556   1.032
 1676TIP3    H1 5034   4.905   4.581   1.062
 1676TIP3    H2 5035   5.024   4.631   0.982
 1677TIP3   OH2 5036   3.825   5.752   4.130
 1677TIP3    H1 5037   3.730   5.760   4.136
 1677TIP3    H2 5038   3.844   5.664   4.161
 1678TIP3   OH2 5039   2.747   0.089   0.663
 1678TIP3    H1 5040   2.834   0.110   0.695
 1678TIP3    H2 5041   2.742   0.130   0.577
 1679TIP3   OH2 5042   2.859   1.603   3.256
 1679TIP3    H1 5043   2.918   1.643   3.319
 1679TIP3    H2 5044   2.776   1.595   3.304
 1680TIP3   OH2 5045   0.507   4.539   1.095
 1680TIP3    H1 5046   0.556   4.620   1.114
 1680TIP3    H2 5047   0.542   4.509   1.012
 1681TIP3   OH2 5048   1.482   3.209   1.576
 1681TIP3    H1 5049   1.518   3.275   1.635
 1681TIP3    H2 5050   1.558   3.174   1.530
 1682TIP3   OH2 5051   6.033   0.546   4.687
 1682TIP3    H1 5052   5.969   0.480   4.713
 1682TIP3    H2 5053   6.032   0.544   4.591
 1683TIP3   OH2 5054   5.755   2.635   2.209
 1683TIP3    H1 5055   5.823   2.574   2.178
 1683TIP3    H2 5056   5.794   2.722   2.198
 1684TIP3   OH2 5057   5.767   5.062   2.111
 1684TIP3    H1 5058   5.707   5.137   2.105
 1684TIP3    H2 5059   5.723   4.993   2.062
 1685TIP3   OH2 5060   1.740   0.785   1.611
 1685TIP3    H1 5061   1.770   0.875   1.614
 1685TIP3    H2 5062   1.694   0.777   1.528
 1686TIP3   OH2 5063   4.554   5.787   2.641
 1686TIP3    H1 5064   4.609   5.857   2.605
 1686TIP3    H2 5065   4.616   5.718   2.666
 1687TIP3   OH2 5066   0.800   5.026   4.341
 1687TIP3    H1 5067   0.774   5.023   4.249
 1687TIP3    H2 5068   0.760   4.948   4.380
 1688TIP3   OH2 5069   2.221   0.878   1.059
 1688TIP3    H1 5070   2.141   0.846   1.018
 1688TIP3    H2 5071   2.229   0.829   1.140
 1689TIP3   OH2 5072   5.023   2.203   3.198
 1689TIP3    H1 5073   5.020   2.151   3.279
 1689TIP3    H2 5074   5.115   2.199   3.171
 1690TIP3   OH2 5075   3.941   3.988   5.156
 1690TIP3    H1 5076   3.854   3.953   5.179
 1690TIP3    H2 5077   3.945   4.073   5.200
 1691TIP3   OH2 5078   5.679   1.886   1.586
 1691TIP3    H1 5079   5.651   1.794   1.593
 1691TIP3    H2 5080   5.775   1.881   1.583
 1692TIP3   OH2 5081   1.505   3.210   2.310
 1692TIP3    H1 5082   1.443   3.138   2.302
 1692TIP3    H2 5083   1.456   3.280   2.352
 1693TIP3   OH2 5084   6.302   2.138   4.458
 1693TIP3    H1 5085   6.386   2.184   4.466
 1693TIP3    H2 5086   6.261   2.148   4.544
 1694TIP3   OH2 5087   3.696   4.545   5.020
 1694TIP3    H1 5088   3.782   4.583   5.036
 1694TIP3    H2 5089   3.657   4.536   5.108
 1695TIP3   OH2 5090   2.999   3.902   3.398
 1695TIP3    H1 5091   3.037   3.968   3.456
 1695TIP3    H2 5092   3.071   3.878   3.339
 1696TIP3   OH2 5093   2.873   0.366   3.403
 1696TIP3    H1 5094   2.837   0.278   3.413
 1696TIP3    H2 5095   2.899   0.371   3.311
 1697TIP3   OH2 5096   5.170   3.588   4.922
 1697TIP3    H1 5097   5.219   3.517   4.880
 1697TIP3    H2 5098   5.195   3.582   5.015
 1698TIP3   OH2 5099   3.880   2.573   1.708
 1698TIP3    H1 5100   3.944   2.522   1.657
 1698TIP3    H2 5101   3.816   2.508   1.737
 1699TIP3   OH2 5102   6.336   5.793   4.080
 1699TIP3    H1 5103   6.275   5.778   4.007
 1699TIP3    H2 5104   6.412   5.834   4.039
 1700TIP3   OH2 5105   1.326   3.423   2.424
 1700TIP3    H1 5106   1.231   3.418   2.435
 1700TIP3    H2 5107   1.360   3.412   2.513
 1701TIP3   OH2 5108   6.312   1.491   3.644
 1701TIP3    H1 5109   6.316   1.551   3.718
 1701TIP3    H2 5110   6.291   1.406   3.683
 1702TIP3   OH2 5111   3.376   1.001   1.200
 1702TIP3    H1 5112   3.403   0.910   1.216
 1702TIP3    H2 5113   3.308   0.994   1.133
 1703TIP3   OH2 5114   6.145   1.070   0.677
 1703TIP3    H1 5115   6.078   1.092   0.741
 1703TIP3    H2 5116   6.104   1.090   0.592
 1704TIP3   OH2 5117   1.094   2.521   0.588
 1704TIP3    H1 5118   1.167   2.462   0.601
 1704TIP3    H2 5119   1.128   2.590   0.531
 1705TIP3   OH2 5120   5.145   0.777   1.976
 1705TIP3    H1 5121   5.069   0.729   2.007
 1705TIP3    H2 5122   5.111   0.862   1.949
 1706TIP3   OH2 5123   0.011   5.942   3.283
 1706TIP3    H1 5124   0.000   5.892   3.364
 1706TIP3    H2 5125   0.044   5.878   3.219
 1707TIP3   OH2 5126   2.507   1.177   2.690
 1707TIP3    H1 5127   2.503   1.171   2.786
 1707TIP3    H2 5128   2.439   1.117   2.659
 1708TIP3   OH2 5129   5.436   2.571   0.787
 1708TIP3    H1 5130   5.386   2.650   0.807
 1708TIP3    H2 5131   5.415   2.552   0.696
 1709TIP3   OH2 5132   5.764   4.950   1.161
 1709TIP3    H1 5133   5.770   5.031   1.211
 1709TIP3    H2 5134   5.804   4.971   1.076
 1710TIP3   OH2 5135   2.389   1.912   2.508
 1710TIP3    H1 5136   2.303   1.910   2.550
 1710TIP3    H2 5137   2.426   1.826   2.525
 1711TIP3   OH2 5138   2.693   5.593   0.557
 1711TIP3    H1 5139   2.700   5.626   0.647
 1711TIP3    H2 5140   2.701   5.671   0.502
 1712TIP3   OH2 5141   1.721   3.840   1.789
 1712TIP3    H1 5142   1.627   3.848   1.772
 1712TIP3    H2 5143   1.754   3.793   1.712
 1713TIP3   OH2 5144   0.087   4.799   2.887
 1713TIP3    H1 5145   0.142   4.736   2.934
 1713TIP3    H2 5146   0.145   4.838   2.822
 1714TIP3   OH2 5147   3.836   0.679   3.802
 1714TIP3    H1 5148   3.826   0.772   3.782
 1714TIP3    H2 5149   3.748   0.649   3.822
 1715TIP3   OH2 5150   2.892   4.599   1.702
 1715TIP3    H1 5151   2.818   4.545   1.727
 1715TIP3    H2 5152   2.872   4.685   1.738
 1716TIP3   OH2 5153   0.705   5.664   2.665
 1716TIP3    H1 5154   0.643   5.716   2.716
 1716TIP3    H2 5155   0.720   5.586   2.717
 1717TIP3   OH2 5156   1.973   0.394   1.487
 1717TIP3    H1 5157   1.982   0.486   1.461
 1717TIP3    H2 5158   1.982   0.395   1.583
 1718TIP3   OH2 5159   0.629   2.125   3.976
 1718TIP3    H1 5160   0.666   2.172   4.051
 1718TIP3    H2 5161   0.643   2.032   3.997
 1719TIP3   OH2 5162   3.391   2.042   4.613
 1719TIP3    H1 5163   3.402   1.948   4.629
 1719TIP3    H2 5164   3.402   2.052   4.518
 1720TIP3   OH2 5165   4.983   5.133   1.994
 1720TIP3    H1 5166   4.974   5.228   2.002
 1720TIP3    H2 5167   5.033   5.108   2.071
 1721TIP3   OH2 5168   2.887   2.918   3.204
 1721TIP3    H1 5169   2.956   2.920   3.137
 1721TIP3    H2 5170   2.810   2.884   3.158
 1722TIP3   OH2 5171   5.310   5.810   1.919
 1722TIP3    H1 5172   5.320   5.724   1.879
 1722TIP3    H2 5173   5.223   5.808   1.960
 1723TIP3   OH2 5174   0.755   2.450   3.470
 1723TIP3    H1 5175   0.751   2.527   3.413
 1723TIP3    H2 5176   0.827   2.398   3.433
 1724TIP3   OH2 5177   4.849   1.133   1.733
 1724TIP3    H1 5178   4.836   1.083   1.653
 1724TIP3    H2 5179   4.762   1.165   1.756
 1725TIP3   OH2 5180   0.349   5.869   3.251
 1725TIP3    H1 5181   0.335   5.926   3.327
 1725TIP3    H2 5182   0.273   5.884   3.195
 1726TIP3   OH2 5183   2.683   1.175   4.631
 1726TIP3    H1 5184   2.704   1.084   4.610
 1726TIP3    H2 5185   2.613   1.169   4.696
 1727TIP3   OH2 5186   3.987   1.467   0.781
 1727TIP3    H1 5187   3.898   1.458   0.817
 1727TIP3    H2 5188   4.040   1.407   0.833
 1728TIP3   OH2 5189   3.428   4.977   0.670
 1728TIP3    H1 5190   3.406   4.908   0.607
 1728TIP3    H2 5191   3.493   5.030   0.626
 1729TIP3   OH2 5192   4.984   1.684   3.910
 1729TIP3    H1 5193   4.940   1.762   3.878
 1729TIP3    H2 5194   4.931   1.611   3.878
 1730TIP3   OH2 5195   4.650   0.696   0.859
 1730TIP3    H1 5196   4.722   0.697   0.922
 1730TIP3    H2 5197   4.600   0.618   0.881
 1731TIP3   OH2 5198   2.075   4.480   1.284
 1731TIP3    H1 5199   2.026   4.456   1.362
 1731TIP3    H2 5200   2.134   4.406   1.268
 1732TIP3   OH2 5201   2.190   0.465   2.222
 1732TIP3    H1 5202   2.154   0.384   2.258
 1732TIP3    H2 5203   2.230   0.509   2.297
 1733TIP3   OH2 5204   6.355   2.373   1.184
 1733TIP3    H1 5205   6.261   2.367   1.169
 1733TIP3    H2 5206   6.365   2.435   1.256
 1734TIP3   OH2 5207   5.654   1.063   3.291
 1734TIP3    H1 5208   5.741   1.067   3.252
 1734TIP3    H2 5209   5.657   1.128   3.362
 1735TIP3   OH2 5210   5.896   0.596   2.214
 1735TIP3    H1 5211   5.812   0.550   2.208
 1735TIP3    H2 5212   5.960   0.533   2.181
 1736TIP3   OH2 5213   3.930   1.424   0.162
 1736TIP3    H1 5214   3.858   1.487   0.169
 1736TIP3    H2 5215   3.935   1.384   0.248
 1737TIP3   OH2 5216   5.787   1.136   4.256
 1737TIP3    H1 5217   5.852   1.160   4.322
 1737TIP3    H2 5218   5.801   1.200   4.186
 1738TIP3   OH2 5219   5.605   5.513   3.620
 1738TIP3    H1 5220   5.594   5.583   3.684
 1738TIP3    H2 5221   5.526   5.460   3.627
 1739TIP3   OH2 5222   3.603   0.036   4.583
 1739TIP3    H1 5223   3.638   0.120   4.556
 1739TIP3    H2 5224   3.603   0.040   4.679
 1740TIP3   OH2 5225   1.021   4.892   5.108
 1740TIP3    H1 5226   0.960   4.876   5.037
 1740TIP3    H2 5227   1.107   4.886   5.067
 1741TIP3   OH2 5228   5.308   3.330   3.359
 1741TIP3    H1 5229   5.334   3.415   3.393
 1741TIP3    H2 5230   5.244   3.350   3.290
 1742TIP3   OH2 5231   6.131   4.801   0.215
 1742TIP3    H1 5232   6.159   4.891   0.200
 1742TIP3    H2 5233   6.196   4.748   0.170
 1743TIP3   OH2 5234   5.040   3.300   4.001
 1743TIP3    H1 5235   5.008   3.385   4.031
 1743TIP3    H2 5236   4.992   3.284   3.920
 1744TIP3   OH2 5237   0.352   4.222   3.551
 1744TIP3    H1 5238   0.411   4.286   3.592
 1744TIP3    H2 5239   0.386   4.137   3.577
 1745TIP3   OH2 5240   1.783   1.987   2.693
 1745TIP3    H1 5241   1.706   2.041   2.710
 1745TIP3    H2 5242   1.841   2.004   2.768
 1746TIP3   OH2 5243   3.341   0.094   3.206
 1746TIP3    H1 5244   3.366   0.124   3.293
 1746TIP3    H2 5245   3.302   0.008   3.220
 1747TIP3   OH2 5246   2.320   4.091   3.123
 1747TIP3    H1 5247   2.252   4.104   3.056
 1747TIP3    H2 5248   2.381   4.029   3.083
 1748TIP3   OH2 5249   2.148   3.596   2.360
 1748TIP3    H1 5250   2.210   3.546   2.413
 1748TIP3    H2 5251   2.124   3.536   2.289
 1749TIP3   OH2 5252   2.155   2.504   2.668
 1749TIP3    H1 5253   2.163   2.551   2.585
 1749TIP3    H2 5254   2.206   2.556   2.730
 1750TIP3   OH2 5255   4.181   4.290   0.432
 1750TIP3    H1 5256   4.173   4.255   0.521
 1750TIP3    H2 5257   4.117   4.361   0.429
 1751TIP3   OH2 5258   6.041   4.141   4.899
 1751TIP3    H1 5259   6.026   4.116   4.990
 1751TIP3    H2 5260   5.965   4.106   4.852
 1752TIP3   OH2 5261   6.073   3.266   4.472
 1752TIP3    H1 5262   6.152   3.253   4.421
 1752TIP3    H2 5263   6.091   3.227   4.557
 1753TIP3   OH2 5264   2.473   2.496   0.043
 1753TIP3    H1 5265   2.526   2.465   0.117
 1753TIP3    H2 5266   2.464   2.420  -0.014
 1754TIP3   OH2 5267   1.312   3.925   0.128
 1754TIP3    H1 5268   1.268   4.010   0.132
 1754TIP3    H2 5269   1.268   3.872   0.195
 1755TIP3   OH2 5270   0.346   2.568   0.396
 1755TIP3    H1 5271   0.285   2.520   0.452
 1755TIP3    H2 5272   0.405   2.501   0.362
 1756TIP3   OH2 5273   1.688   0.247   0.870
 1756TIP3    H1 5274   1.677   0.331   0.916
 1756TIP3    H2 5275   1.692   0.182   0.940
 1757TIP3   OH2 5276   1.115   4.770   2.415
 1757TIP3    H1 5277   1.188   4.808   2.464
 1757TIP3    H2 5278   1.112   4.679   2.444
 1758TIP3   OH2 5279   0.141   2.491   3.253
 1758TIP3    H1 5280   0.224   2.481   3.204
 1758TIP3    H2 5281   0.129   2.586   3.259
 1759TIP3   OH2 5282   2.092   2.634   1.052
 1759TIP3    H1 5283   2.141   2.686   0.989
 1759TIP3    H2 5284   2.007   2.679   1.059
 1760TIP3   OH2 5285   3.826   2.591   2.485
 1760TIP3    H1 5286   3.916   2.595   2.517
 1760TIP3    H2 5287   3.777   2.550   2.556
 1761TIP3   OH2 5288   1.761   1.324   4.446
 1761TIP3    H1 5289   1.697   1.381   4.404
 1761TIP3    H2 5290   1.710   1.252   4.482
 1762TIP3   OH2 5291   2.404   0.287   1.961
 1762TIP3    H1 5292   2.397   0.338   1.881
 1762TIP3    H2 5293   2.314   0.262   1.981
 1763TIP3   OH2 5294   1.705   5.024   3.917
 1763TIP3    H1 5295   1.657   5.007   3.998
 1763TIP3    H2 5296   1.681   4.952   3.860
 1764TIP3   OH2 5297   5.108   0.073   4.033
 1764TIP3    H1 5298   5.191   0.072   3.985
 1764TIP3    H2 5299   5.114   0.148   4.092
 1765TIP3   OH2 5300   1.326   0.331   3.956
 1765TIP3    H1 5301   1.382   0.347   3.881
 1765TIP3    H2 5302   1.386   0.311   4.027
 1766TIP3   OH2 5303   0.058   1.678   0.757
 1766TIP3    H1 5304   0.012   1.759   0.780
 1766TIP3    H2 5305   0.011   1.646   0.680
 1767TIP3   OH2 5306   4.645   0.113   1.674
 1767TIP3    H1 5307   4.669   0.204   1.692
 1767TIP3    H2 5308   4.663   0.067   1.756
 1768TIP3   OH2 5309   2.585   3.853   1.879
 1768TIP3    H1 5310   2.511   3.864   1.939
 1768TIP3    H2 5311   2.657   3.898   1.922
 1769TIP3   OH2 5312   5.692   2.596   0.898
 1769TIP3    H1 5313   5.687   2.568   0.989
 1769TIP3    H2 5314   5.610   2.566   0.858
 1770TIP3   OH2 5315   4.181   4.836   5.153
 1770TIP3    H1 5316   4.154   4.892   5.080
 1770TIP3    H2 5317   4.229   4.764   5.111
 1771TIP3   OH2 5318   1.242   3.603   1.678
 1771TIP3    H1 5319   1.308   3.604   1.747
 1771TIP3    H2 5320   1.234   3.510   1.654
 1772TIP3   OH2 5321   5.273   4.354   3.070
 1772TIP3    H1 5322   5.318   4.375   3.151
 1772TIP3    H2 5323   5.292   4.261   3.054
 1773TIP3   OH2 5324   3.065   1.763   4.349
 1773TIP3    H1 5325   2.996   1.786   4.287
 1773TIP3    H2 5326   3.105   1.847   4.373
 1774TIP3   OH2 5327   4.940   0.133   0.709
 1774TIP3    H1 5328   4.906   0.201   0.765
 1774TIP3    H2 5329   4.907   0.155   0.622
 1775TIP3   OH2 5330   2.332   0.503   3.212
 1775TIP3    H1 5331   2.349   0.597   3.212
 1775TIP3    H2 5332   2.407   0.464   3.166
 1776TIP3   OH2 5333   0.196   1.451   0.762
 1776TIP3    H1 5334   0.128   1.384   0.751
 1776TIP3    H2 5335   0.149   1.534   0.767
 1777TIP3   OH2 5336   5.663   2.560   4.301
 1777TIP3    H1 5337   5.672   2.517   4.216
 1777TIP3    H2 5338   5.751   2.594   4.320
 1778TIP3   OH2 5339   5.969   2.362   3.646
 1778TIP3    H1 5340   5.888   2.317   3.670
 1778TIP3    H2 5341   6.031   2.337   3.715
 1779TIP3   OH2 5342   3.193   4.614   2.882
 1779TIP3    H1 5343   3.215   4.547   2.817
 1779TIP3    H2 5344   3.108   4.648   2.853
 1780TIP3   OH2 5345   4.806   4.628   1.767
 1780TIP3    H1 5346   4.722   4.673   1.760
 1780TIP3    H2 5347   4.864   4.691   1.810
 1781TIP3   OH2 5348   0.900   3.945   0.417
 1781TIP3    H1 5349   0.841   4.014   0.386
 1781TIP3    H2 5350   0.859   3.863   0.388
 1782TIP3   OH2 5351   5.218   0.168   1.357
 1782TIP3    H1 5352   5.181   0.147   1.443
 1782TIP3    H2 5353   5.284   0.234   1.375
 1783TIP3   OH2 5354   3.501   2.715   1.788
 1783TIP3    H1 5355   3.495   2.699   1.882
 1783TIP3    H2 5356   3.417   2.688   1.753
 1784TIP3   OH2 5357   2.283   5.168   4.855
 1784TIP3    H1 5358   2.230   5.156   4.934
 1784TIP3    H2 5359   2.365   5.122   4.873
 1785TIP3   OH2 5360   3.021   5.512   2.263
 1785TIP3    H1 5361   3.077   5.449   2.308
 1785TIP3    H2 5362   3.043   5.596   2.304
 1786TIP3   OH2 5363   2.337   2.357   1.996
 1786TIP3    H1 5364   2.250   2.363   1.957
 1786TIP3    H2 5365   2.335   2.419   2.069
 1787TIP3   OH2 5366   5.786   0.623   0.362
 1787TIP3    H1 5367   5.769   0.536   0.400
 1787TIP3    H2 5368   5.857   0.658   0.415
 1788TIP3   OH2 5369   5.562   2.098   4.388
 1788TIP3    H1 5370   5.511   2.178   4.377
 1788TIP3    H2 5371   5.571   2.089   4.483
 1789TIP3   OH2 5372   4.474   2.115   4.549
 1789TIP3    H1 5373   4.427   2.047   4.597
 1789TIP3    H2 5374   4.406   2.158   4.496
 1790TIP3   OH2 5375   4.658   5.573   0.509
 1790TIP3    H1 5376   4.593   5.626   0.556
 1790TIP3    H2 5377   4.702   5.523   0.577
 1791TIP3   OH2 5378   0.584   3.948   2.989
 1791TIP3    H1 5379   0.620   3.932   2.902
 1791TIP3    H2 5380   0.631   3.888   3.046
 1792TIP3   OH2 5381   5.502   2.942   0.271
 1792TIP3    H1 5382   5.559   2.889   0.216
 1792TIP3    H2 5383   5.469   2.882   0.337
 1793TIP3   OH2 5384   1.573   0.113   2.673
 1793TIP3    H1 5385   1.517   0.052   2.625
 1793TIP3    H2 5386   1.605   0.063   2.748
 1794TIP3   OH2 5387   5.433   2.470   3.443
 1794TIP3    H1 5388   5.479   2.473   3.359
 1794TIP3    H2 5389   5.384   2.387   3.440
 1795TIP3   OH2 5390   1.393   4.938   4.937
 1795TIP3    H1 5391   1.485   4.941   4.909
 1795TIP3    H2 5392   1.355   4.866   4.886
 1796TIP3   OH2 5393   4.931   1.531   3.461
 1796TIP3    H1 5394   4.951   1.492   3.376
 1796TIP3    H2 5395   4.932   1.458   3.522
 1797TIP3   OH2 5396   3.068   3.183   0.333
 1797TIP3    H1 5397   3.056   3.262   0.386
 1797TIP3    H2 5398   2.979   3.154   0.314
 1798TIP3   OH2 5399   4.308   1.207   1.388
 1798TIP3    H1 5400   4.349   1.294   1.389
 1798TIP3    H2 5401   4.352   1.160   1.317
 1799TIP3   OH2 5402   5.040   1.418   0.109
 1799TIP3    H1 5403   5.026   1.465   0.027
 1799TIP3    H2 5404   4.967   1.445   0.165
 1800TIP3   OH2 5405   3.457   2.336   3.202
 1800TIP3    H1 5406   3.393   2.269   3.179
 1800TIP3    H2 5407   3.541   2.300   3.175
 1801TIP3   OH2 5408   3.462   1.604   3.987
 1801TIP3    H1 5409   3.529   1.554   3.940
 1801TIP3    H2 5410   3.415   1.652   3.918
 1802TIP3   OH2 5411   2.034   1.897   1.240
 1802TIP3    H1 5412   2.007   1.822   1.293
 1802TIP3    H2 5413   1.986   1.887   1.158
 1803TIP3   OH2 5414   1.934   5.938   1.129
 1803TIP3    H1 5415   2.012   5.978   1.167
 1803TIP3    H2 5416   1.950   5.844   1.136
 1804TIP3   OH2 5417   3.144   0.450   4.212
 1804TIP3    H1 5418   3.115   0.540   4.197
 1804TIP3    H2 5419   3.229   0.445   4.169
 1805TIP3   OH2 5420   2.005   0.803   0.037
 1805TIP3    H1 5421   1.961   0.877  -0.004
 1805TIP3    H2 5422   2.068   0.842   0.098
 1806TIP3   OH2 5423   4.189   4.977   2.538
 1806TIP3    H1 5424   4.190   5.044   2.606
 1806TIP3    H2 5425   4.268   4.995   2.486
 1807TIP3   OH2 5426   1.435   0.859   1.521
 1807TIP3    H1 5427   1.459   0.795   1.453
 1807TIP3    H2 5428   1.466   0.820   1.602
 1808TIP3   OH2 5429   5.592   5.831   1.951
 1808TIP3    H1 5430   5.500   5.835   1.925
 1808TIP3    H2 5431   5.613   5.921   1.978
 1809TIP3   OH2 5432   0.332   3.584   4.328
 1809TIP3    H1 5433   0.421   3.561   4.303
 1809TIP3    H2 5434   0.331   3.680   4.331
 1810TIP3   OH2 5435   5.662   3.503   1.217
 1810TIP3    H1 5436   5.608   3.425   1.232
 1810TIP3    H2 5437   5.616   3.552   1.149
 1811TIP3   OH2 5438   4.980   3.878   0.990
 1811TIP3    H1 5439   4.942   3.916   1.069
 1811TIP3    H2 5440   4.944   3.790   0.985
 1812TIP3   OH2 5441   3.159   4.295   5.010
 1812TIP3    H1 5442   3.076   4.341   5.027
 1812TIP3    H2 5443   3.209   4.356   4.955
 1813TIP3   OH2 5444   5.969   3.635   2.266
 1813TIP3    H1 5445   5.961   3.546   2.234
 1813TIP3    H2 5446   5.900   3.684   2.220
 1814TIP3   OH2 5447   2.967   2.677   2.030
 1814TIP3    H1 5448   2.897   2.644   2.087
 1814TIP3    H2 5449   2.971   2.771   2.050
 1815TIP3   OH2 5450   3.958   4.495   3.870
 1815TIP3    H1 5451   3.942   4.478   3.778
 1815TIP3    H2 5452   4.053   4.503   3.877
 1816TIP3   OH2 5453   5.757   4.248   2.851
 1816TIP3    H1 5454   5.769   4.322   2.791
 1816TIP3    H2 5455   5.668   4.216   2.832
 1817TIP3   OH2 5456   4.264   3.935   1.681
 1817TIP3    H1 5457   4.350   3.963   1.650
 1817TIP3    H2 5458   4.256   3.844   1.652
 1818TIP3   OH2 5459   4.911   1.921   2.523
 1818TIP3    H1 5460   4.920   1.976   2.601
 1818TIP3    H2 5461   4.890   1.983   2.453
 1819TIP3   OH2 5462   0.089   5.527   1.397
 1819TIP3    H1 5463   0.105   5.500   1.307
 1819TIP3    H2 5464   0.069   5.620   1.392
 1820TIP3   OH2 5465   4.919   2.361   1.218
 1820TIP3    H1 5466   4.856   2.299   1.181
 1820TIP3    H2 5467   5.002   2.340   1.174
 1821TIP3   OH2 5468   3.041   5.774   4.215
 1821TIP3    H1 5469   3.022   5.773   4.309
 1821TIP3    H2 5470   3.095   5.852   4.203
 1822TIP3   OH2 5471   6.182   3.357   4.116
 1822TIP3    H1 5472   6.092   3.360   4.083
 1822TIP3    H2 5473   6.236   3.362   4.037
 1823TIP3   OH2 5474   1.927   4.209   4.018
 1823TIP3    H1 5475   1.877   4.275   4.067
 1823TIP3    H2 5476   1.866   4.137   4.005
 1824TIP3   OH2 5477   4.087   4.705   4.806
 1824TIP3    H1 5478   4.020   4.644   4.776
 1824TIP3    H2 5479   4.166   4.653   4.813
 1825TIP3   OH2 5480   3.033   1.323   5.078
 1825TIP3    H1 5481   3.012   1.232   5.100
 1825TIP3    H2 5482   2.955   1.356   5.033
 1826TIP3   OH2 5483   0.304   4.652   0.666
 1826TIP3    H1 5484   0.308   4.711   0.740
 1826TIP3    H2 5485   0.273   4.706   0.593
 1827TIP3   OH2 5486   0.920   1.693   0.168
 1827TIP3    H1 5487   0.833   1.654   0.164
 1827TIP3    H2 5488   0.980   1.618   0.171
 1828TIP3   OH2 5489   4.960   2.287   4.219
 1828TIP3    H1 5490   5.002   2.371   4.198
 1828TIP3    H2 5491   4.869   2.310   4.238
 1829TIP3   OH2 5492   1.895   2.996   2.877
 1829TIP3    H1 5493   1.900   2.906   2.845
 1829TIP3    H2 5494   1.963   3.043   2.829
 1830TIP3   OH2 5495   5.263   0.980   3.612
 1830TIP3    H1 5496   5.233   0.899   3.570
 1830TIP3    H2 5497   5.199   0.997   3.680
 1831TIP3   OH2 5498   2.223   3.113   0.323
 1831TIP3    H1 5499   2.147   3.107   0.264
 1831TIP3    H2 5500   2.209   3.043   0.387
 1832TIP3   OH2 5501   3.606   0.880   0.749
 1832TIP3    H1 5502   3.646   0.797   0.774
 1832TIP3    H2 5503   3.513   0.861   0.741
 1833TIP3   OH2 5504   2.063   2.654   0.424
 1833TIP3    H1 5505   2.111   2.616   0.351
 1833TIP3    H2 5506   1.983   2.688   0.385
 1834TIP3   OH2 5507   5.120   2.532   0.112
 1834TIP3    H1 5508   5.029   2.559   0.102
 1834TIP3    H2 5509   5.154   2.527   0.022
 1835TIP3   OH2 5510   4.055   3.286   4.659
 1835TIP3    H1 5511   4.055   3.191   4.653
 1835TIP3    H2 5512   3.984   3.314   4.601
 1836TIP3   OH2 5513   4.392   4.711   4.532
 1836TIP3    H1 5514   4.311   4.666   4.555
 1836TIP3    H2 5515   4.437   4.652   4.471
 1837TIP3   OH2 5516   1.375   5.819   2.313
 1837TIP3    H1 5517   1.410   5.829   2.224
 1837TIP3    H2 5518   1.281   5.805   2.299
 1838TIP3   OH2 5519   2.519   3.425   0.300
 1838TIP3    H1 5520   2.567   3.477   0.365
 1838TIP3    H2 5521   2.533   3.334   0.327
 1839TIP3   OH2 5522   1.698   5.579   4.959
 1839TIP3    H1 5523   1.758   5.646   4.928
 1839TIP3    H2 5524   1.698   5.512   4.890
 1840TIP3   OH2 5525   0.433   5.211   4.127
 1840TIP3    H1 5526   0.403   5.127   4.162
 1840TIP3    H2 5527   0.359   5.270   4.143
 1841TIP3   OH2 5528   5.798   0.533   1.883
 1841TIP3    H1 5529   5.711   0.497   1.896
 1841TIP3    H2 5530   5.847   0.509   1.962
 1842TIP3   OH2 5531   0.661   0.990   4.336
 1842TIP3    H1 5532   0.610   1.040   4.273
 1842TIP3    H2 5533   0.673   0.904   4.295
 1843TIP3   OH2 5534   1.015   3.341   1.781
 1843TIP3    H1 5535   0.968   3.258   1.785
 1843TIP3    H2 5536   1.107   3.316   1.777
 1844TIP3   OH2 5537   2.212   3.766   1.927
 1844TIP3    H1 5538   2.203   3.821   1.849
 1844TIP3    H2 5539   2.228   3.678   1.892
 1845TIP3   OH2 5540   0.855   2.794   3.050
 1845TIP3    H1 5541   0.836   2.774   3.142
 1845TIP3    H2 5542   0.948   2.772   3.040
 1846TIP3   OH2 5543   4.892   2.096   2.738
 1846TIP3    H1 5544   4.894   2.068   2.830
 1846TIP3    H2 5545   4.872   2.189   2.741
 1847TIP3   OH2 5546   2.500   0.713   2.210
 1847TIP3    H1 5547   2.556   0.759   2.149
 1847TIP3    H2 5548   2.417   0.701   2.163
 1848TIP3   OH2 5549   0.122   0.036   2.621
 1848TIP3    H1 5550   0.105   0.124   2.655
 1848TIP3    H2 5551   0.077   0.034   2.537
 1849TIP3   OH2 5552   6.325   3.773   0.402
 1849TIP3    H1 5553   6.237   3.766   0.364
 1849TIP3    H2 5554   6.383   3.783   0.326
 1850TIP3   OH2 5555   4.128   0.965   2.018
 1850TIP3    H1 5556   4.109   0.948   1.926
 1850TIP3    H2 5557   4.131   1.061   2.024
 1851TIP3   OH2 5558   5.623   1.087   0.323
 1851TIP3    H1 5559   5.564   1.123   0.257
 1851TIP3    H2 5560   5.708   1.126   0.303
 1852TIP3   OH2 5561   1.847   2.797   3.282
 1852TIP3    H1 5562   1.810   2.877   3.244
 1852TIP3    H2 5563   1.914   2.769   3.220
 1853TIP3   OH2 5564   2.852   5.395   0.104
 1853TIP3    H1 5565   2.820   5.415   0.017
 1853TIP3    H2 5566   2.778   5.411   0.162
 1854TIP3   OH2 5567   2.192   5.432   1.190
 1854TIP3    H1 5568   2.230   5.403   1.273
 1854TIP3    H2 5569   2.246   5.390   1.123
 1855TIP3   OH2 5570   0.888   2.308   1.857
 1855TIP3    H1 5571   0.819   2.346   1.913
 1855TIP3    H2 5572   0.840   2.253   1.795
 1856TIP3   OH2 5573   0.633   1.210   2.139
 1856TIP3    H1 5574   0.662   1.151   2.209
 1856TIP3    H2 5575   0.546   1.179   2.116
 1857TIP3   OH2 5576   4.886   1.901   3.758
 1857TIP3    H1 5577   4.905   1.879   3.667
 1857TIP3    H2 5578   4.941   1.977   3.776
 1858TIP3   OH2 5579   3.226   5.981   4.236
 1858TIP3    H1 5580   3.283   5.908   4.258
 1858TIP3    H2 5581   3.269   6.025   4.163
 1859TIP3   OH2 5582   3.355   5.951   0.325
 1859TIP3    H1 5583   3.423   5.914   0.269
 1859TIP3    H2 5584   3.343   5.887   0.395
 1860TIP3   OH2 5585   1.815   2.917   3.642
 1860TIP3    H1 5586   1.899   2.884   3.674
 1860TIP3    H2 5587   1.828   3.011   3.630
 1861TIP3   OH2 5588   3.197   5.040   3.781
 1861TIP3    H1 5589   3.136   5.055   3.709
 1861TIP3    H2 5590   3.280   5.018   3.738
 1862TIP3   OH2 5591   0.995   2.166   3.983
 1862TIP3    H1 5592   0.961   2.156   3.894
 1862TIP3    H2 5593   0.981   2.259   4.004
 1863TIP3   OH2 5594   3.260   0.159   4.456
 1863TIP3    H1 5595   3.183   0.154   4.401
 1863TIP3    H2 5596   3.333   0.137   4.398
 1864TIP3   OH2 5597   5.775   0.913   0.106
 1864TIP3    H1 5598   5.751   0.990   0.055
 1864TIP3    H2 5599   5.692   0.867   0.121
 1865TIP3   OH2 5600   5.039   2.569   3.721
 1865TIP3    H1 5601   5.000   2.656   3.715
 1865TIP3    H2 5602   4.987   2.515   3.662
 1866TIP3   OH2 5603   3.081   4.370   0.111
 1866TIP3    H1 5604   3.099   4.464   0.114
 1866TIP3    H2 5605   3.005   4.359   0.167
 1867TIP3   OH2 5606   2.295   3.958   1.484
 1867TIP3    H1 5607   2.335   3.888   1.535
 1867TIP3    H2 5608   2.314   4.038   1.533
 1868TIP3   OH2 5609   2.177   0.394   1.274
 1868TIP3    H1 5610   2.148   0.378   1.184
 1868TIP3    H2 5611   2.100   0.376   1.328
 1869TIP3   OH2 5612   4.009   4.654   4.290
 1869TIP3    H1 5613   3.920   4.621   4.280
 1869TIP3    H2 5614   4.027   4.701   4.209
 1870TIP3   OH2 5615   2.301   3.564   0.158
 1870TIP3    H1 5616   2.356   3.501   0.205
 1870TIP3    H2 5617   2.363   3.612   0.102
 1871TIP3   OH2 5618   4.441   2.512   0.895
 1871TIP3    H1 5619   4.536   2.523   0.887
 1871TIP3    H2 5620   4.405   2.599   0.882
 1872TIP3   OH2 5621   4.316   5.357   3.411
 1872TIP3    H1 5622   4.267   5.276   3.426
 1872TIP3    H2 5623   4.251   5.419   3.379
 1873TIP3   OH2 5624   2.439   5.249   4.437
 1873TIP3    H1 5625   2.380   5.239   4.362
 1873TIP3    H2 5626   2.525   5.263   4.398
 1874TIP3   OH2 5627   4.311   1.328   0.431
 1874TIP3    H1 5628   4.218   1.350   0.439
 1874TIP3    H2 5629   4.319   1.292   0.343
 1875TIP3   OH2 5630   3.613   5.953   5.051
 1875TIP3    H1 5631   3.585   5.979   4.963
 1875TIP3    H2 5632   3.594   6.029   5.106
 1876TIP3   OH2 5633   0.031   3.804   2.011
 1876TIP3    H1 5634  -0.027   3.775   2.081
 1876TIP3    H2 5635  -0.021   3.794   1.931
 1877TIP3   OH2 5636   3.569   2.997   0.156
 1877TIP3    H1 5637   3.620   2.921   0.129
 1877TIP3    H2 5638   3.545   2.979   0.247
 1878TIP3   OH2 5639   2.209   3.315   5.095
 1878TIP3    H1 5640   2.275   3.382   5.110
 1878TIP3    H2 5641   2.154   3.317   5.173
 1879TIP3   OH2 5642   0.571   4.167   2.571
 1879TIP3    H1 5643   0.493   4.219   2.552
 1879TIP3    H2 5644   0.644   4.227   2.556
 1880TIP3   OH2 5645   4.825   5.228   3.869
 1880TIP3    H1 5646   4.792   5.262   3.952
 1880TIP3    H2 5647   4.787   5.140   3.863
 1881TIP3   OH2 5648   3.113   1.281   2.121
 1881TIP3    H1 5649   3.101   1.371   2.091
 1881TIP3    H2 5650   3.115   1.229   2.041
 1882TIP3   OH2 5651   1.734   0.524   3.923
 1882TIP3    H1 5652   1.771   0.500   4.008
 1882TIP3    H2 5653   1.778   0.467   3.860
 1883TIP3   OH2 5654   5.394   1.898   1.625
 1883TIP3    H1 5655   5.353   1.953   1.558
 1883TIP3    H2 5656   5.487   1.920   1.621
 1884TIP3   OH2 5657   3.340   3.262   0.267
 1884TIP3    H1 5658   3.336   3.301   0.354
 1884TIP3    H2 5659   3.248   3.256   0.240
 1885TIP3   OH2 5660   5.319   5.433   0.059
 1885TIP3    H1 5661   5.374   5.358   0.078
 1885TIP3    H2 5662   5.344   5.499   0.125
 1886TIP3   OH2 5663   2.420   1.013   3.147
 1886TIP3    H1 5664   2.462   1.052   3.070
 1886TIP3    H2 5665   2.345   1.069   3.165
 1887TIP3   OH2 5666   3.651   1.185   4.490
 1887TIP3    H1 5667   3.668   1.145   4.575
 1887TIP3    H2 5668   3.657   1.279   4.507
 1888TIP3   OH2 5669   6.026   1.465   5.046
 1888TIP3    H1 5670   6.062   1.412   5.117
 1888TIP3    H2 5671   6.099   1.518   5.015
 1889TIP3   OH2 5672   5.603   4.684   3.676
 1889TIP3    H1 5673   5.586   4.665   3.769
 1889TIP3    H2 5674   5.697   4.700   3.671
 1890TIP3   OH2 5675   2.331   4.951   2.269
 1890TIP3    H1 5676   2.241   4.919   2.262
 1890TIP3    H2 5677   2.325   5.044   2.248
 1891TIP3   OH2 5678   4.520   2.178   0.102
 1891TIP3    H1 5679   4.493   2.115   0.169
 1891TIP3    H2 5680   4.455   2.249   0.108
 1892TIP3   OH2 5681   5.798   3.294   0.827
 1892TIP3    H1 5682   5.739   3.369   0.812
 1892TIP3    H2 5683   5.886   3.331   0.820
 1893TIP3   OH2 5684   5.601   2.701   3.555
 1893TIP3    H1 5685   5.553   2.637   3.502
 1893TIP3    H2 5686   5.541   2.775   3.564
 1894TIP3   OH2 5687   0.534   5.271   3.518
 1894TIP3    H1 5688   0.439   5.260   3.526
 1894TIP3    H2 5689   0.553   5.352   3.567
 1895TIP3   OH2 5690   0.618   5.932   4.412
 1895TIP3    H1 5691   0.713   5.922   4.419
 1895TIP3    H2 5692   0.599   6.018   4.450
 1896TIP3   OH2 5693   1.133   0.606   3.875
 1896TIP3    H1 5694   1.043   0.631   3.855
 1896TIP3    H2 5695   1.136   0.600   3.970
 1897TIP3   OH2 5696   2.924   3.366   4.677
 1897TIP3    H1 5697   2.997   3.374   4.616
 1897TIP3    H2 5698   2.863   3.305   4.635
 1898TIP3   OH2 5699   2.712   3.354   2.226
 1898TIP3    H1 5700   2.641   3.410   2.194
 1898TIP3    H2 5701   2.743   3.308   2.148
 1899TIP3   OH2 5702   4.297   3.252   4.766
 1899TIP3    H1 5703   4.226   3.293   4.717
 1899TIP3    H2 5704   4.290   3.289   4.853
 1900TIP3   OH2 5705   0.510   4.298   3.981
 1900TIP3    H1 5706   0.424   4.287   4.022
 1900TIP3    H2 5707   0.568   4.321   4.053
 1901TIP3   OH2 5708   3.200   4.247   0.322
 1901TIP3    H1 5709   3.155   4.276   0.243
 1901TIP3    H2 5710   3.280   4.204   0.291
 1902TIP3   OH2 5711   5.385   5.104   2.245
 1902TIP3    H1 5712   5.457   5.068   2.297
 1902TIP3    H2 5713   5.427   5.150   2.173
 1903TIP3   OH2 5714   4.177   3.276   1.460
 1903TIP3    H1 5715   4.262   3.248   1.427
 1903TIP3    H2 5716   4.164   3.225   1.540
 1904TIP3   OH2 5717   1.303   3.158   1.355
 1904TIP3    H1 5718   1.390   3.153   1.394
 1904TIP3    H2 5719   1.250   3.096   1.405
 1905TIP3   OH2 5720   5.366   5.062   0.465
 1905TIP3    H1 5721   5.415   4.999   0.519
 1905TIP3    H2 5722   5.319   5.116   0.528
 1906TIP3   OH2 5723   4.345   0.803   0.166
 1906TIP3    H1 5724   4.325   0.885   0.210
 1906TIP3    H2 5725   4.278   0.742   0.198
 1907TIP3   OH2 5726   2.732   5.843   0.429
 1907TIP3    H1 5727   2.761   5.925   0.469
 1907TIP3    H2 5728   2.640   5.857   0.408
 1908TIP3   OH2 5729   5.337   2.966   2.135
 1908TIP3    H1 5730   5.355   2.994   2.224
 1908TIP3    H2 5731   5.382   2.882   2.126
 1909TIP3   OH2 5732   1.649   4.849   2.935
 1909TIP3    H1 5733   1.631   4.930   2.887
 1909TIP3    H2 5734   1.566   4.826   2.976
 1910TIP3   OH2 5735   4.405   1.609   0.370
 1910TIP3    H1 5736   4.348   1.543   0.332
 1910TIP3    H2 5737   4.397   1.684   0.310
 1911TIP3   OH2 5738   0.152   3.255   0.883
 1911TIP3    H1 5739   0.160   3.342   0.923
 1911TIP3    H2 5740   0.129   3.197   0.956
 1912TIP3   OH2 5741   6.422   0.558   4.601
 1912TIP3    H1 5742   6.360   0.601   4.541
 1912TIP3    H2 5743   6.385   0.572   4.688
 1913TIP3   OH2 5744   6.158   3.983   0.696
 1913TIP3    H1 5745   6.157   4.016   0.606
 1913TIP3    H2 5746   6.134   3.891   0.689
 1914TIP3   OH2 5747   1.237   0.074   3.821
 1914TIP3    H1 5748   1.204   0.136   3.756
 1914TIP3    H2 5749   1.232   0.121   3.904
 1915TIP3   OH2 5750   4.716   4.986   3.744
 1915TIP3    H1 5751   4.715   4.898   3.782
 1915TIP3    H2 5752   4.731   4.971   3.650
 1916TIP3   OH2 5753   0.914   4.869   0.065
 1916TIP3    H1 5754   0.910   4.787   0.015
 1916TIP3    H2 5755   0.983   4.920   0.022
 1917TIP3   OH2 5756   0.262   2.788   3.940
 1917TIP3    H1 5757   0.185   2.839   3.967
 1917TIP3    H2 5758   0.254   2.706   3.988
 1918TIP3   OH2 5759   5.042   1.363   4.336
 1918TIP3    H1 5760   5.046   1.288   4.395
 1918TIP3    H2 5761   5.007   1.434   4.390
 1919TIP3   OH2 5762   2.671   1.447   1.463
 1919TIP3    H1 5763   2.614   1.511   1.420
 1919TIP3    H2 5764   2.625   1.364   1.455
 1920TIP3   OH2 5765   1.357   3.817   3.119
 1920TIP3    H1 5766   1.431   3.776   3.073
 1920TIP3    H2 5767   1.353   3.906   3.083
 1921TIP3   OH2 5768   3.179   2.285   2.356
 1921TIP3    H1 5769   3.111   2.332   2.308
 1921TIP3    H2 5770   3.131   2.220   2.409
 1922TIP3   OH2 5771   5.625   5.184   4.780
 1922TIP3    H1 5772   5.588   5.253   4.725
 1922TIP3    H2 5773   5.668   5.231   4.851
 1923TIP3   OH2 5774   3.843   3.328   2.558
 1923TIP3    H1 5775   3.848   3.316   2.653
 1923TIP3    H2 5776   3.923   3.287   2.525
 1924TIP3   OH2 5777   0.272   4.448   5.137
 1924TIP3    H1 5778   0.294   4.471   5.228
 1924TIP3    H2 5779   0.348   4.475   5.086
 1925TIP3   OH2 5780   3.088   2.548   0.782
 1925TIP3    H1 5781   3.007   2.589   0.813
 1925TIP3    H2 5782   3.121   2.499   0.858
 1926TIP3   OH2 5783   6.281   3.132   2.229
 1926TIP3    H1 5784   6.319   3.045   2.223
 1926TIP3    H2 5785   6.189   3.120   2.208
 1927TIP3   OH2 5786   2.285   3.458   2.567
 1927TIP3    H1 5787   2.368   3.411   2.579
 1927TIP3    H2 5788   2.291   3.532   2.627
 1928TIP3   OH2 5789   2.433   1.490   3.789
 1928TIP3    H1 5790   2.361   1.537   3.832
 1928TIP3    H2 5791   2.397   1.464   3.704
 1929TIP3   OH2 5792   2.495   3.454   2.076
 1929TIP3    H1 5793   2.496   3.393   2.002
 1929TIP3    H2 5794   2.460   3.404   2.149
 1930TIP3   OH2 5795   3.001   5.174   0.078
 1930TIP3    H1 5796   2.948   5.253   0.088
 1930TIP3    H2 5797   2.952   5.122   0.013
 1931TIP3   OH2 5798   0.174   3.743   1.375
 1931TIP3    H1 5799   0.219   3.801   1.436
 1931TIP3    H2 5800   0.243   3.688   1.338
 1932TIP3   OH2 5801   1.652   1.572   0.723
 1932TIP3    H1 5802   1.564   1.579   0.759
 1932TIP3    H2 5803   1.706   1.626   0.781
 1933TIP3   OH2 5804   5.836   4.949   4.046
 1933TIP3    H1 5805   5.775   4.876   4.057
 1933TIP3    H2 5806   5.838   4.965   3.951
 1934TIP3   OH2 5807   3.723   2.529   3.716
 1934TIP3    H1 5808   3.644   2.507   3.666
 1934TIP3    H2 5809   3.795   2.492   3.665
 1935TIP3   OH2 5810   3.615   4.990   1.384
 1935TIP3    H1 5811   3.627   4.920   1.447
 1935TIP3    H2 5812   3.531   4.971   1.342
 1936TIP3   OH2 5813   4.267   0.074   4.365
 1936TIP3    H1 5814   4.219   0.005   4.409
 1936TIP3    H2 5815   4.338   0.029   4.320
 1937TIP3   OH2 5816   3.903   1.162   2.286
 1937TIP3    H1 5817   3.949   1.204   2.213
 1937TIP3    H2 5818   3.862   1.235   2.333
 1938TIP3   OH2 5819   5.198   3.421   4.213
 1938TIP3    H1 5820   5.151   3.354   4.163
 1938TIP3    H2 5821   5.152   3.502   4.194
 1939TIP3   OH2 5822   3.436   2.594   3.751
 1939TIP3    H1 5823   3.352   2.638   3.762
 1939TIP3    H2 5824   3.449   2.548   3.834
 1940TIP3   OH2 5825   6.312   0.571   2.968
 1940TIP3    H1 5826   6.345   0.648   2.922
 1940TIP3    H2 5827   6.323   0.591   3.061
 1941TIP3   OH2 5828   1.775   5.720   4.216
 1941TIP3    H1 5829   1.753   5.741   4.307
 1941TIP3    H2 5830   1.719   5.645   4.194
 1942TIP3   OH2 5831   0.307   1.462   2.413
 1942TIP3    H1 5832   0.360   1.511   2.350
 1942TIP3    H2 5833   0.245   1.526   2.448
 1943TIP3   OH2 5834   0.249   0.574   0.664
 1943TIP3    H1 5835   0.228   0.612   0.750
 1943TIP3    H2 5836   0.294   0.492   0.684
 1944TIP3   OH2 5837   6.027   4.690   2.097
 1944TIP3    H1 5838   6.006   4.772   2.141
 1944TIP3    H2 5839   6.026   4.624   2.167
 1945TIP3   OH2 5840   4.026   0.455   1.832
 1945TIP3    H1 5841   3.986   0.538   1.806
 1945TIP3    H2 5842   4.015   0.398   1.756
 1946TIP3   OH2 5843   0.700   1.502   0.105
 1946TIP3    H1 5844   0.667   1.572   0.160
 1946TIP3    H2 5845   0.720   1.431   0.166
 1947TIP3   OH2 5846   1.249   2.632   0.401
 1947TIP3    H1 5847   1.258   2.540   0.376
 1947TIP3    H2 5848   1.339   2.663   0.411
 1948TIP3   OH2 5849   5.460   4.489   2.147
 1948TIP3    H1 5850   5.410   4.427   2.094
 1948TIP3    H2 5851   5.505   4.434   2.211
 1949TIP3   OH2 5852   0.905   5.005   3.024
 1949TIP3    H1 5853   0.829   5.037   3.073
 1949TIP3    H2 5854   0.867   4.948   2.957
 1950TIP3   OH2 5855   1.730   0.255   2.931
 1950TIP3    H1 5856   1.767   0.343   2.926
 1950TIP3    H2 5857   1.641   0.264   2.899
 1951TIP3   OH2 5858   6.210   4.633   4.781
 1951TIP3    H1 5859   6.225   4.706   4.721
 1951TIP3    H2 5860   6.118   4.640   4.806
 1952TIP3   OH2 5861   2.583   3.892   0.832
 1952TIP3    H1 5862   2.599   3.951   0.758
 1952TIP3    H2 5863   2.665   3.890   0.880
 1953TIP3   OH2 5864   1.570   0.253   4.087
 1953TIP3    H1 5865   1.603   0.165   4.102
 1953TIP3    H2 5866   1.641   0.310   4.117
 1954TIP3   OH2 5867   0.604   3.928   2.704
 1954TIP3    H1 5868   0.608   4.011   2.655
 1954TIP3    H2 5869   0.599   3.861   2.636
 1955TIP3   OH2 5870   0.238   5.603   0.916
 1955TIP3    H1 5871   0.330   5.578   0.901
 1955TIP3    H2 5872   0.188   5.530   0.880
 1956TIP3   OH2 5873   3.089   2.497   2.875
 1956TIP3    H1 5874   3.113   2.439   2.947
 1956TIP3    H2 5875   3.048   2.439   2.811
 1957TIP3   OH2 5876   0.307   4.798   4.387
 1957TIP3    H1 5877   0.296   4.705   4.366
 1957TIP3    H2 5878   0.325   4.799   4.481
 1958TIP3   OH2 5879   0.365   5.631   3.896
 1958TIP3    H1 5880   0.282   5.668   3.865
 1958TIP3    H2 5881   0.430   5.699   3.877
 1959TIP3   OH2 5882   5.400   2.540   4.436
 1959TIP3    H1 5883   5.483   2.540   4.389
 1959TIP3    H2 5884   5.351   2.612   4.398
 1960TIP3   OH2 5885   3.963   4.890   1.822
 1960TIP3    H1 5886   3.875   4.852   1.819
 1960TIP3    H2 5887   4.022   4.814   1.821
 1961TIP3   OH2 5888   1.812   3.229   0.414
 1961TIP3    H1 5889   1.839   3.235   0.506
 1961TIP3    H2 5890   1.769   3.313   0.396
 1962TIP3   OH2 5891   0.590   1.066   1.412
 1962TIP3    H1 5892   0.508   1.040   1.370
 1962TIP3    H2 5893   0.641   0.986   1.416
 1963TIP3   OH2 5894   2.980   2.599   1.760
 1963TIP3    H1 5895   2.991   2.622   1.852
 1963TIP3    H2 5896   2.892   2.629   1.738
 1964TIP3   OH2 5897   0.436   5.825   4.633
 1964TIP3    H1 5898   0.505   5.833   4.699
 1964TIP3    H2 5899   0.483   5.808   4.551
 1965TIP3   OH2 5900   1.378   0.273   0.326
 1965TIP3    H1 5901   1.346   0.200   0.380
 1965TIP3    H2 5902   1.375   0.239   0.237
 1966TIP3   OH2 5903   1.716   3.928   2.806
 1966TIP3    H1 5904   1.771   3.956   2.733
 1966TIP3    H2 5905   1.630   3.916   2.768
 1967TIP3   OH2 5906   3.282   1.978   4.837
 1967TIP3    H1 5907   3.272   2.045   4.905
 1967TIP3    H2 5908   3.303   2.028   4.758
 1968TIP3   OH2 5909   2.972   5.201   4.496
 1968TIP3    H1 5910   2.993   5.272   4.557
 1968TIP3    H2 5911   2.972   5.122   4.550
 1969TIP3   OH2 5912   5.880   1.421   4.820
 1969TIP3    H1 5913   5.945   1.441   4.887
 1969TIP3    H2 5914   5.805   1.386   4.869
 1970TIP3   OH2 5915   5.248   2.391   0.317
 1970TIP3    H1 5916   5.233   2.299   0.297
 1970TIP3    H2 5917   5.175   2.437   0.277
 1971TIP3   OH2 5918   3.366   0.253   4.913
 1971TIP3    H1 5919   3.442   0.296   4.873
 1971TIP3    H2 5920   3.401   0.205   4.987
 1972TIP3   OH2 5921   3.274   4.774   4.772
 1972TIP3    H1 5922   3.284   4.853   4.826
 1972TIP3    H2 5923   3.358   4.729   4.780
 1973TIP3   OH2 5924   0.829   3.626   0.040
 1973TIP3    H1 5925   0.798   3.717   0.043
 1973TIP3    H2 5926   0.760   3.576   0.083
 1974TIP3   OH2 5927   2.476   3.295   0.009
 1974TIP3    H1 5928   2.557   3.283  -0.040
 1974TIP3    H2 5929   2.504   3.320   0.097
 1975TIP3   OH2 5930   2.355   1.994   1.942
 1975TIP3    H1 5931   2.345   1.898   1.942
 1975TIP3    H2 5932   2.289   2.024   2.005
 1976TIP3   OH2 5933   2.406   0.309   4.194
 1976TIP3    H1 5934   2.341   0.239   4.184
 1976TIP3    H2 5935   2.387   0.347   4.280
 1977TIP3   OH2 5936   3.259   1.063   4.837
 1977TIP3    H1 5937   3.262   1.158   4.852
 1977TIP3    H2 5938   3.185   1.050   4.777
 1978TIP3   OH2 5939   2.466   3.717   2.858
 1978TIP3    H1 5940   2.466   3.792   2.918
 1978TIP3    H2 5941   2.413   3.651   2.902
 1979TIP3   OH2 5942   0.041   2.914   4.043
 1979TIP3    H1 5943  -0.052   2.895   4.053
 1979TIP3    H2 5944   0.074   2.920   4.132
 1980TIP3   OH2 5945   2.022   0.846   1.950
 1980TIP3    H1 5946   2.026   0.905   2.025
 1980TIP3    H2 5947   2.051   0.899   1.876
 1981TIP3   OH2 5948   5.186   3.533   3.651
 1981TIP3    H1 5949   5.091   3.523   3.644
 1981TIP3    H2 5950   5.198   3.600   3.718
 1982TIP3   OH2 5951   4.299   1.012   2.505
 1982TIP3    H1 5952   4.222   1.003   2.561
 1982TIP3    H2 5953   4.365   0.957   2.547
 1983TIP3   OH2 5954   0.773   0.155   3.518
 1983TIP3    H1 5955   0.723   0.174   3.597
 1983TIP3    H2 5956   0.778   0.060   3.514
 1984TIP3   OH2 5957   0.434   2.928   0.776
 1984TIP3    H1 5958   0.412   3.001   0.718
 1984TIP3    H2 5959   0.395   2.851   0.734
 1985TIP3   OH2 5960   2.889   4.231   2.223
 1985TIP3    H1 5961   2.978   4.201   2.205
 1985TIP3    H2 5962   2.844   4.153   2.256
 1986TIP3   OH2 5963   1.350   3.338   4.738
 1986TIP3    H1 5964   1.382   3.254   4.771
 1986TIP3    H2 5965   1.332   3.389   4.817
 1987TIP3   OH2 5966   3.910   3.083   0.814
 1987TIP3    H1 5967   3.859   3.009   0.847
 1987TIP3    H2 5968   3.950   3.052   0.733
 1988TIP3   OH2 5969   5.237   2.043   3.942
 1988TIP3    H1 5970   5.320   2.075   3.908
 1988TIP3    H2 5971   5.238   1.949   3.923
 1989TIP3   OH2 5972   3.931   3.417   1.360
 1989TIP3    H1 5973   3.881   3.342   1.392
 1989TIP3    H2 5974   4.017   3.407   1.400
 1990TIP3   OH2 5975   1.588   3.124   4.924
 1990TIP3    H1 5976   1.631   3.193   4.874
 1990TIP3    H2 5977   1.596   3.045   4.870
 1991TIP3   OH2 5978   4.420   1.289   4.664
 1991TIP3    H1 5979   4.345   1.333   4.704
 1991TIP3    H2 5980   4.456   1.355   4.604
 1992TIP3   OH2 5981   4.228   0.099   4.974
 1992TIP3    H1 5982   4.230   0.183   4.928
 1992TIP3    H2 5983   4.157   0.051   4.933
 1993TIP3   OH2 5984   0.511   3.109   4.873
 1993TIP3    H1 5985   0.431   3.079   4.915
 1993TIP3    H2 5986   0.493   3.200   4.849
 1994TIP3   OH2 5987   0.294   3.288   1.801
 1994TIP3    H1 5988   0.279   3.271   1.708
 1994TIP3    H2 5989   0.364   3.354   1.802
 1995TIP3   OH2 5990   6.213   3.598   4.352
 1995TIP3    H1 5991   6.199   3.658   4.425
 1995TIP3    H2 5992   6.133   3.546   4.347
 1996TIP3   OH2 5993   3.211   3.881   0.320
 1996TIP3    H1 5994   3.125   3.886   0.361
 1996TIP3    H2 5995   3.267   3.937   0.373
 1997TIP3   OH2 5996   2.463   0.040   0.758
 1997TIP3    H1 5997   2.490   0.043   0.850
 1997TIP3    H2 5998   2.539   0.074   0.710
 1998TIP3   OH2 5999   4.327   4.809   4.015
 1998TIP3    H1 6000   4.305   4.834   4.105
 1998TIP3    H2 6001   4.370   4.887   3.979
 1999TIP3   OH2 6002   1.573   1.860   0.137
 1999TIP3    H1 6003   1.554   1.932   0.198
 1999TIP3    H2 6004   1.489   1.839   0.097
 2000TIP3   OH2 6005   0.512   4.219   2.002
 2000TIP3    H1 6006   0.463   4.174   1.933
 2000TIP3    H2 6007   0.565   4.284   1.956
 2001TIP3   OH2 6008   5.492   1.130   4.312
 2001TIP3    H1 6009   5.585   1.119   4.293
 2001TIP3    H2 6010   5.478   1.080   4.392
 2002TIP3   OH2 6011   2.386   5.108   3.308
 2002TIP3    H1 6012   2.309   5.164   3.299
 2002TIP3    H2 6013   2.360   5.024   3.269
 2003TIP3   OH2 6014   3.790   1.216   1.946
 2003TIP3    H1 6015   3.787   1.291   2.005
 2003TIP3    H2 6016   3.722   1.157   1.979
 2004TIP3   OH2 6017   1.371   5.469   1.919
 2004TIP3    H1 6018   1.393   5.535   1.853
 2004TIP3    H2 6019   1.276   5.459   1.912
 2005TIP3   OH2 6020   5.410   0.727   2.092
 2005TIP3    H1 6021   5.448   0.738   2.179
 2005TIP3    H2 6022   5.322   0.695   2.108
 2006TIP3   OH2 6023   1.400   5.180   2.969
 2006TIP3    H1 6024   1.469   5.113   2.967
 2006TIP3    H2 6025   1.429   5.246   2.906
 2007TIP3   OH2 6026   3.448   1.425   0.434
 2007TIP3    H1 6027   3.371   1.379   0.401
 2007TIP3    H2 6028   3.522   1.372   0.406
 2008TIP3   OH2 6029   1.256   1.143   1.260
 2008TIP3    H1 6030   1.226   1.210   1.198
 2008TIP3    H2 6031   1.271   1.192   1.342
 2009TIP3   OH2 6032   5.197   5.214   1.659
 2009TIP3    H1 6033   5.131   5.260   1.607
 2009TIP3    H2 6034   5.164   5.125   1.667
 2010TIP3   OH2 6035   4.866   4.038   4.601
 2010TIP3    H1 6036   4.825   4.095   4.535
 2010TIP3    H2 6037   4.834   3.950   4.579
 2011TIP3   OH2 6038   4.785   1.476   0.468
 2011TIP3    H1 6039   4.820   1.394   0.504
 2011TIP3    H2 6040   4.850   1.504   0.404
 2012TIP3   OH2 6041   1.934   3.523   0.512
 2012TIP3    H1 6042   1.915   3.474   0.592
 2012TIP3    H2 6043   2.022   3.495   0.487
 2013TIP3   OH2 6044   5.661   1.209   3.510
 2013TIP3    H1 6045   5.572   1.190   3.539
 2013TIP3    H2 6046   5.699   1.260   3.582
 2014TIP3   OH2 6047   0.900   5.938   5.006
 2014TIP3    H1 6048   0.933   5.858   4.965
 2014TIP3    H2 6049   0.805   5.931   4.998
 2015TIP3   OH2 6050   0.393   0.344   4.201
 2015TIP3    H1 6051   0.445   0.373   4.125
 2015TIP3    H2 6052   0.312   0.394   4.194
 2016TIP3   OH2 6053   1.075   0.479   0.578
 2016TIP3    H1 6054   1.039   0.519   0.657
 2016TIP3    H2 6055   1.164   0.454   0.602
 2017TIP3   OH2 6056   2.423   2.705   3.425
 2017TIP3    H1 6057   2.404   2.676   3.514
 2017TIP3    H2 6058   2.396   2.632   3.370
 2018TIP3   OH2 6059   3.194   0.949   0.998
 2018TIP3    H1 6060   3.221   1.008   0.927
 2018TIP3    H2 6061   3.171   0.867   0.954
 2019TIP3   OH2 6062   0.682   5.253   2.424
 2019TIP3    H1 6063   0.619   5.324   2.437
 2019TIP3    H2 6064   0.753   5.292   2.373
 2020TIP3   OH2 6065   0.722   0.425   1.589
 2020TIP3    H1 6066   0.811   0.452   1.612
 2020TIP3    H2 6067   0.720   0.331   1.607
 2021TIP3   OH2 6068   2.188   3.896   1.048
 2021TIP3    H1 6069   2.144   3.978   1.069
 2021TIP3    H2 6070   2.261   3.891   1.110
 2022TIP3   OH2 6071   4.414   3.863   0.154
 2022TIP3    H1 6072   4.373   3.797   0.098
 2022TIP3    H2 6073   4.469   3.813   0.215
 2023TIP3   OH2 6074   1.259   5.188   5.070
 2023TIP3    H1 6075   1.316   5.111   5.075
 2023TIP3    H2 6076   1.239   5.208   5.162
 2024TIP3   OH2 6077   6.010   3.713   1.980
 2024TIP3    H1 6078   6.064   3.642   2.017
 2024TIP3    H2 6079   5.995   3.686   1.889
 2025TIP3   OH2 6080   3.285   1.429   2.970
 2025TIP3    H1 6081   3.243   1.366   2.911
 2025TIP3    H2 6082   3.226   1.505   2.970
 2026TIP3   OH2 6083   4.511   5.623   1.524
 2026TIP3    H1 6084   4.528   5.590   1.436
 2026TIP3    H2 6085   4.446   5.693   1.512
 2027TIP3   OH2 6086   5.644   0.473   2.191
 2027TIP3    H1 6087   5.606   0.406   2.133
 2027TIP3    H2 6088   5.568   0.524   2.221
 2028TIP3   OH2 6089   3.001   2.104   0.429
 2028TIP3    H1 6090   3.029   2.156   0.354
 2028TIP3    H2 6091   2.987   2.167   0.499
 2029TIP3   OH2 6092   0.914   1.996   0.478
 2029TIP3    H1 6093   0.822   1.993   0.451
 2029TIP3    H2 6094   0.933   2.089   0.489
 2030TIP3   OH2 6095   6.008   0.069   4.316
 2030TIP3    H1 6096   5.964  -0.001   4.268
 2030TIP3    H2 6097   6.091   0.031   4.343
 2031TIP3   OH2 6098   3.031   3.042   2.388
 2031TIP3    H1 6099   2.960   3.052   2.452
 2031TIP3    H2 6100   3.111   3.044   2.440
 2032TIP3   OH2 6101   4.473   0.004   0.304
 2032TIP3    H1 6102   4.498   0.022   0.394
 2032TIP3    H2 6103   4.516   0.072   0.253
 2033TIP3   OH2 6104   0.748   1.776   1.516
 2033TIP3    H1 6105   0.761   1.704   1.579
 2033TIP3    H2 6106   0.724   1.733   1.435
 2034TIP3   OH2 6107   0.942   1.524   4.990
 2034TIP3    H1 6108   0.914   1.436   5.014
 2034TIP3    H2 6109   1.034   1.527   5.013
 2035TIP3   OH2 6110   1.418   2.924   2.192
 2035TIP3    H1 6111   1.374   2.920   2.108
 2035TIP3    H2 6112   1.511   2.925   2.171
 2036TIP3   OH2 6113   4.550   1.661   3.989
 2036TIP3    H1 6114   4.524   1.680   4.079
 2036TIP3    H2 6115   4.483   1.703   3.935
 2037TIP3   OH2 6116   1.271   0.716   1.181
 2037TIP3    H1 6117   1.214   0.648   1.218
 2037TIP3    H2 6118   1.214   0.793   1.174
 2038TIP3   OH2 6119   0.430   2.921   1.398
 2038TIP3    H1 6120   0.423   2.954   1.488
 2038TIP3    H2 6121   0.466   2.995   1.348
 2039TIP3   OH2 6122   0.545   1.449   0.505
 2039TIP3    H1 6123   0.481   1.468   0.437
 2039TIP3    H2 6124   0.619   1.506   0.485
 2040TIP3   OH2 6125   4.218   4.872  -0.005
 2040TIP3    H1 6126   4.178   4.868   0.082
 2040TIP3    H2 6127   4.276   4.796  -0.008
 2041TIP3   OH2 6128   1.616   1.938   0.851
 2041TIP3    H1 6129   1.638   1.850   0.882
 2041TIP3    H2 6130   1.612   1.991   0.930
 2042TIP3   OH2 6131   5.625   3.856   4.741
 2042TIP3    H1 6132   5.638   3.840   4.647
 2042TIP3    H2 6133   5.565   3.787   4.769
 2043TIP3   OH2 6134   2.668   1.061   2.446
 2043TIP3    H1 6135   2.627   1.104   2.521
 2043TIP3    H2 6136   2.624   1.098   2.370
 2044TIP3   OH2 6137   5.778   0.731   3.985
 2044TIP3    H1 6138   5.845   0.741   3.918
 2044TIP3    H2 6139   5.698   0.708   3.936
 2045TIP3   OH2 6140   4.385   0.770   3.029
 2045TIP3    H1 6141   4.336   0.821   2.964
 2045TIP3    H2 6142   4.327   0.696   3.050
 2046TIP3   OH2 6143   2.407   4.745   3.446
 2046TIP3    H1 6144   2.438   4.655   3.455
 2046TIP3    H2 6145   2.441   4.789   3.523
 2047TIP3   OH2 6146   1.656   0.837   0.603
 2047TIP3    H1 6147   1.597   0.791   0.543
 2047TIP3    H2 6148   1.733   0.857   0.549
 2048TIP3   OH2 6149   3.298   1.104   0.771
 2048TIP3    H1 6150   3.298   1.180   0.714
 2048TIP3    H2 6151   3.296   1.029   0.711
 2049TIP3   OH2 6152   2.120   1.596   2.602
 2049TIP3    H1 6153   2.063   1.636   2.537
 2049TIP3    H2 6154   2.119   1.658   2.675
 2050TIP3   OH2 6155   5.781   4.586   4.523
 2050TIP3    H1 6156   5.768   4.634   4.606
 2050TIP3    H2 6157   5.711   4.618   4.466
 2051TIP3   OH2 6158   6.226   3.008   1.873
 2051TIP3    H1 6159   6.249   2.920   1.902
 2051TIP3    H2 6160   6.299   3.063   1.902
 2052TIP3   OH2 6161   6.213   3.464   3.369
 2052TIP3    H1 6162   6.186   3.552   3.346
 2052TIP3    H2 6163   6.139   3.428   3.418
 2053TIP3   OH2 6164   2.521   4.353   4.271
 2053TIP3    H1 6165   2.441   4.313   4.304
 2053TIP3    H2 6166   2.492   4.432   4.225
 2054TIP3   OH2 6167   2.576   3.243   5.191
 2054TIP3    H1 6168   2.664   3.260   5.223
 2054TIP3    H2 6169   2.536   3.330   5.182
 2055TIP3   OH2 6170   5.655   3.521   0.400
 2055TIP3    H1 6171   5.652   3.455   0.331
 2055TIP3    H2 6172   5.717   3.485   0.464
 2056TIP3   OH2 6173   2.742   1.649   1.850
 2056TIP3    H1 6174   2.724   1.715   1.917
 2056TIP3    H2 6175   2.662   1.597   1.846
 2057TIP3   OH2 6176   0.594   3.559   4.280
 2057TIP3    H1 6177   0.587   3.643   4.325
 2057TIP3    H2 6178   0.686   3.535   4.288
 2058TIP3   OH2 6179   0.157   4.247   4.978
 2058TIP3    H1 6180   0.184   4.316   5.038
 2058TIP3    H2 6181   0.079   4.282   4.935
 2059TIP3   OH2 6182   2.064   5.368   0.429
 2059TIP3    H1 6183   1.994   5.411   0.479
 2059TIP3    H2 6184   2.042   5.385   0.337
 2060TIP3   OH2 6185   2.850   5.676   1.254
 2060TIP3    H1 6186   2.812   5.594   1.219
 2060TIP3    H2 6187   2.782   5.741   1.238
 2061TIP3   OH2 6188   1.388   3.784   1.091
 2061TIP3    H1 6189   1.329   3.823   1.156
 2061TIP3    H2 6190   1.447   3.730   1.143
 2062TIP3   OH2 6191   5.219   2.327   1.853
 2062TIP3    H1 6192   5.219   2.396   1.786
 2062TIP3    H2 6193   5.311   2.319   1.878
 2063TIP3   OH2 6194   5.273   1.776   3.890
 2063TIP3    H1 6195   5.284   1.736   3.976
 2063TIP3    H2 6196   5.209   1.721   3.845
 2064TIP3   OH2 6197   5.859   5.197   4.628
 2064TIP3    H1 6198   5.842   5.187   4.534
 2064TIP3    H2 6199   5.782   5.160   4.670
 2065TIP3   OH2 6200   5.662   2.323   1.513
 2065TIP3    H1 6201   5.625   2.395   1.563
 2065TIP3    H2 6202   5.619   2.329   1.427
 2066TIP3   OH2 6203   0.159   1.224   3.557
 2066TIP3    H1 6204   0.199   1.163   3.496
 2066TIP3    H2 6205   0.156   1.177   3.641
 2067TIP3   OH2 6206   1.349   0.038   2.895
 2067TIP3    H1 6207   1.314   0.056   2.983
 2067TIP3    H2 6208   1.295  -0.033   2.862
 2068TIP3   OH2 6209   2.086   5.957   0.496
 2068TIP3    H1 6210   2.058   5.905   0.571
 2068TIP3    H2 6211   2.079   5.898   0.421
 2069TIP3   OH2 6212   5.464   2.364   3.880
 2069TIP3    H1 6213   5.461   2.268   3.880
 2069TIP3    H2 6214   5.372   2.391   3.877
 2070TIP3   OH2 6215   4.026   3.141   0.197
 2070TIP3    H1 6216   4.047   3.233   0.183
 2070TIP3    H2 6217   4.079   3.094   0.131
 2071TIP3   OH2 6218   4.247   3.646   4.552
 2071TIP3    H1 6219   4.210   3.639   4.464
 2071TIP3    H2 6220   4.216   3.730   4.585
 2072TIP3   OH2 6221   0.115   3.297   1.322
 2072TIP3    H1 6222   0.076   3.217   1.286
 2072TIP3    H2 6223   0.182   3.321   1.259
 2073TIP3   OH2 6224   6.263   2.153   5.058
 2073TIP3    H1 6225   6.245   2.238   5.097
 2073TIP3    H2 6226   6.257   2.091   5.131
 2074TIP3   OH2 6227   2.026   1.177   0.344
 2074TIP3    H1 6228   2.080   1.179   0.264
 2074TIP3    H2 6229   1.985   1.263   0.347
 2075TIP3   OH2 6230   4.801   4.199   1.038
 2075TIP3    H1 6231   4.772   4.290   1.031
 2075TIP3    H2 6232   4.760   4.155   0.963
 2076TIP3   OH2 6233   1.545   4.510   0.259
 2076TIP3    H1 6234   1.566   4.520   0.166
 2076TIP3    H2 6235   1.450   4.516   0.263
 2077TIP3   OH2 6236   6.263   2.674   0.052
 2077TIP3    H1 6237   6.352   2.645   0.074
 2077TIP3    H2 6238   6.270   2.710  -0.036
 2078TIP3   OH2 6239   3.690   1.648   3.625
 2078TIP3    H1 6240   3.625   1.695   3.572
 2078TIP3    H2 6241   3.774   1.672   3.586
 2079TIP3   OH2 6242   3.204   5.615   4.488
 2079TIP3    H1 6243   3.237   5.702   4.512
 2079TIP3    H2 6244   3.263   5.584   4.420
 2080TIP3   OH2 6245   5.079   1.406   1.719
 2080TIP3    H1 6246   5.121   1.340   1.774
 2080TIP3    H2 6247   5.047   1.472   1.781
 2081TIP3   OH2 6248   2.101   4.114   4.246
 2081TIP3    H1 6249   2.074   4.200   4.215
 2081TIP3    H2 6250   2.050   4.052   4.193
 2082TIP3   OH2 6251   2.293   5.407   4.723
 2082TIP3    H1 6252   2.301   5.315   4.748
 2082TIP3    H2 6253   2.347   5.453   4.787
 2083TIP3   OH2 6254   5.677   5.118   2.547
 2083TIP3    H1 6255   5.748   5.085   2.602
 2083TIP3    H2 6256   5.628   5.040   2.522
 2084TIP3   OH2 6257   3.102   0.553   1.091
 2084TIP3    H1 6258   3.190   0.582   1.066
 2084TIP3    H2 6259   3.070   0.621   1.151
 2085TIP3   OH2 6260   1.928   5.391   2.223
 2085TIP3    H1 6261   1.928   5.466   2.163
 2085TIP3    H2 6262   1.977   5.323   2.178
 2086TIP3   OH2 6263   3.788   1.496   2.822
 2086TIP3    H1 6264   3.759   1.559   2.889
 2086TIP3    H2 6265   3.868   1.457   2.858
 2087TIP3   OH2 6266   5.859   0.406   2.606
 2087TIP3    H1 6267   5.880   0.495   2.578
 2087TIP3    H2 6268   5.870   0.353   2.527
 2088TIP3   OH2 6269   4.399   1.462   0.882
 2088TIP3    H1 6270   4.363   1.548   0.859
 2088TIP3    H2 6271   4.473   1.450   0.822
 2089TIP3   OH2 6272   0.597   5.678   0.274
 2089TIP3    H1 6273   0.572   5.650   0.361
 2089TIP3    H2 6274   0.555   5.763   0.262
 2090TIP3   OH2 6275   6.099   0.490   3.250
 2090TIP3    H1 6276   6.124   0.570   3.204
 2090TIP3    H2 6277   6.070   0.431   3.180
 2091TIP3   OH2 6278   3.295   2.731   0.250
 2091TIP3    H1 6279   3.219   2.785   0.270
 2091TIP3    H2 6280   3.332   2.770   0.171
 2092TIP3   OH2 6281   0.994   2.265   0.460
 2092TIP3    H1 6282   0.967   2.289   0.548
 2092TIP3    H2 6283   0.963   2.337   0.405
 2093TIP3   OH2 6284   4.477   1.746   1.136
 2093TIP3    H1 6285   4.484   1.711   1.048
 2093TIP3    H2 6286   4.555   1.714   1.181
 2094TIP3   OH2 6287   2.760   2.393   2.450
 2094TIP3    H1 6288   2.752   2.449   2.527
 2094TIP3    H2 6289   2.758   2.304   2.485
 2095TIP3   OH2 6290   0.869   1.882   1.803
 2095TIP3    H1 6291   0.911   1.905   1.886
 2095TIP3    H2 6292   0.894   1.791   1.788
 2096TIP3   OH2 6293   2.431   1.828   3.970
 2096TIP3    H1 6294   2.360   1.827   3.905
 2096TIP3    H2 6295   2.427   1.916   4.008
 2097TIP3   OH2 6296   4.308   3.653   1.554
 2097TIP3    H1 6297   4.315   3.698   1.470
 2097TIP3    H2 6298   4.280   3.564   1.532
 2098TIP3   OH2 6299   2.101   5.048   5.073
 2098TIP3    H1 6300   2.066   4.986   5.009
 2098TIP3    H2 6301   2.099   5.001   5.156
 2099TIP3   OH2 6302   2.646   2.804   1.418
 2099TIP3    H1 6303   2.582   2.732   1.428
 2099TIP3    H2 6304   2.602   2.868   1.362
 2100TIP3   OH2 6305   5.261   0.465   1.129
 2100TIP3    H1 6306   5.211   0.516   1.065
 2100TIP3    H2 6307   5.307   0.400   1.077
 2101TIP3   OH2 6308   1.776   0.639   0.190
 2101TIP3    H1 6309   1.681   0.626   0.187
 2101TIP3    H2 6310   1.802   0.647   0.099
 2102TIP3   OH2 6311   4.295   0.499   3.309
 2102TIP3    H1 6312   4.317   0.573   3.365
 2102TIP3    H2 6313   4.365   0.495   3.245
 2103TIP3   OH2 6314   6.047   4.731   0.473
 2103TIP3    H1 6315   6.093   4.742   0.389
 2103TIP3    H2 6316   6.045   4.637   0.487
 2104TIP3   OH2 6317   4.057   4.164   1.377
 2104TIP3    H1 6318   4.062   4.074   1.344
 2104TIP3    H2 6319   4.140   4.204   1.352
 2105TIP3   OH2 6320   5.158   1.375   2.036
 2105TIP3    H1 6321   5.098   1.369   2.110
 2105TIP3    H2 6322   5.186   1.466   2.034
 2106TIP3   OH2 6323   1.594   6.026   4.237
 2106TIP3    H1 6324   1.675   5.993   4.277
 2106TIP3    H2 6325   1.566   5.955   4.178
 2107TIP3   OH2 6326   6.227   2.606   0.696
 2107TIP3    H1 6327   6.166   2.625   0.767
 2107TIP3    H2 6328   6.247   2.691   0.658
 2108TIP3   OH2 6329   2.099   1.109   2.921
 2108TIP3    H1 6330   2.012   1.149   2.934
 2108TIP3    H2 6331   2.111   1.109   2.826
 2109TIP3   OH2 6332   1.583   0.896   0.043
 2109TIP3    H1 6333   1.556   0.871  -0.045
 2109TIP3    H2 6334   1.506   0.882   0.097
 2110TIP3   OH2 6335   2.590   4.818   1.191
 2110TIP3    H1 6336   2.642   4.765   1.251
 2110TIP3    H2 6337   2.499   4.798   1.214
 2111TIP3   OH2 6338   4.398   5.234   4.537
 2111TIP3    H1 6339   4.455   5.287   4.592
 2111TIP3    H2 6340   4.396   5.149   4.581
 2112TIP3   OH2 6341   6.158   4.788   1.071
 2112TIP3    H1 6342   6.110   4.847   1.129
 2112TIP3    H2 6343   6.233   4.760   1.123
 2113TIP3   OH2 6344   0.050   4.730   3.286
 2113TIP3    H1 6345   0.076   4.813   3.246
 2113TIP3    H2 6346  -0.042   4.743   3.310
 2114TIP3   OH2 6347   6.190   0.105   3.291
 2114TIP3    H1 6348   6.224   0.174   3.348
 2114TIP3    H2 6349   6.167   0.150   3.210
 2115TIP3   OH2 6350   2.774   2.325   1.575
 2115TIP3    H1 6351   2.702   2.263   1.561
 2115TIP3    H2 6352   2.847   2.271   1.604
 2116TIP3   OH2 6353   5.150   1.425   4.921
 2116TIP3    H1 6354   5.083   1.478   4.879
 2116TIP3    H2 6355   5.110   1.398   5.004
 2117TIP3   OH2 6356   3.373   4.447   4.870
 2117TIP3    H1 6357   3.435   4.512   4.900
 2117TIP3    H2 6358   3.387   4.442   4.776
 2118TIP3   OH2 6359   4.532   5.183   2.667
 2118TIP3    H1 6360   4.551   5.273   2.639
 2118TIP3    H2 6361   4.479   5.194   2.746
 2119TIP3   OH2 6362   1.620   5.423   3.137
 2119TIP3    H1 6363   1.579   5.509   3.123
 2119TIP3    H2 6364   1.552   5.373   3.183
 2120TIP3   OH2 6365   3.695   0.964   1.519
 2120TIP3    H1 6366   3.640   0.885   1.524
 2120TIP3    H2 6367   3.682   1.006   1.604
 2121TIP3   OH2 6368   5.861   4.546   3.203
 2121TIP3    H1 6369   5.948   4.551   3.163
 2121TIP3    H2 6370   5.835   4.455   3.191
 2122TIP3   OH2 6371   2.840   4.785   0.518
 2122TIP3    H1 6372   2.827   4.880   0.517
 2122TIP3    H2 6373   2.807   4.757   0.604
 2123TIP3   OH2 6374   4.311   1.113   1.653
 2123TIP3    H1 6375   4.281   1.189   1.702
 2123TIP3    H2 6376   4.266   1.120   1.569
 2124TIP3   OH2 6377   5.447   3.906   0.992
 2124TIP3    H1 6378   5.503   3.855   1.051
 2124TIP3    H2 6379   5.505   3.976   0.959
 2125TIP3   OH2 6380   2.928   3.204   3.297
 2125TIP3    H1 6381   3.019   3.177   3.314
 2125TIP3    H2 6382   2.897   3.143   3.231
 2126TIP3   OH2 6383   3.978   2.914   4.348
 2126TIP3    H1 6384   3.977   2.874   4.261
 2126TIP3    H2 6385   3.997   3.006   4.331
 2127TIP3   OH2 6386   6.201   5.320   3.552
 2127TIP3    H1 6387   6.248   5.388   3.600
 2127TIP3    H2 6388   6.253   5.305   3.473
 2128TIP3   OH2 6389   1.327   5.096   2.634
 2128TIP3    H1 6390   1.325   5.178   2.585
 2128TIP3    H2 6391   1.301   5.121   2.723
 2129TIP3   OH2 6392   6.170   3.755   2.837
 2129TIP3    H1 6393   6.241   3.720   2.783
 2129TIP3    H2 6394   6.214   3.785   2.917
 2130TIP3   OH2 6395   2.023   2.805   2.263
 2130TIP3    H1 6396   2.002   2.880   2.318
 2130TIP3    H2 6397   2.076   2.841   2.191
 2131TIP3   OH2 6398   5.479   3.315   1.950
 2131TIP3    H1 6399   5.561   3.267   1.962
 2131TIP3    H2 6400   5.500   3.382   1.885
 2132TIP3   OH2 6401   4.518   2.861   0.046
 2132TIP3    H1 6402   4.547   2.851  -0.045
 2132TIP3    H2 6403   4.582   2.919   0.086
 2133TIP3   OH2 6404   3.378   5.736   0.532
 2133TIP3    H1 6405   3.423   5.654   0.551
 2133TIP3    H2 6406   3.299   5.734   0.588
 2134TIP3   OH2 6407   1.832   0.121   4.209
 2134TIP3    H1 6408   1.788   0.137   4.292
 2134TIP3    H2 6409   1.819   0.202   4.159
 2135TIP3   OH2 6410   3.435   4.344   3.375
 2135TIP3    H1 6411   3.452   4.249   3.378
 2135TIP3    H2 6412   3.514   4.380   3.333
 2136TIP3   OH2 6413   4.334   2.761   0.864
 2136TIP3    H1 6414   4.247   2.788   0.893
 2136TIP3    H2 6415   4.358   2.825   0.797
 2137TIP3   OH2 6416   0.642   5.587   5.145
 2137TIP3    H1 6417   0.560   5.572   5.100
 2137TIP3    H2 6418   0.627   5.666   5.198
 2138TIP3   OH2 6419   0.911   5.459   0.261
 2138TIP3    H1 6420   0.822   5.438   0.287
 2138TIP3    H2 6421   0.904   5.485   0.169
 2139TIP3   OH2 6422   5.761   2.324   2.289
 2139TIP3    H1 6423   5.725   2.351   2.374
 2139TIP3    H2 6424   5.722   2.385   2.226
 2140TIP3   OH2 6425   0.969   2.267   0.979
 2140TIP3    H1 6426   0.988   2.194   0.921
 2140TIP3    H2 6427   0.902   2.319   0.933
 2141TIP3   OH2 6428   4.153   1.761   2.239
 2141TIP3    H1 6429   4.154   1.833   2.301
 2141TIP3    H2 6430   4.119   1.799   2.158
 2142TIP3   OH2 6431   5.335   1.632   1.689
 2142TIP3    H1 6432   5.392   1.592   1.755
 2142TIP3    H2 6433   5.372   1.718   1.674
 2143TIP3   OH2 6434   6.194   3.009   0.404
 2143TIP3    H1 6435   6.267   3.031   0.345
 2143TIP3    H2 6436   6.146   2.940   0.357
 2144TIP3   OH2 6437   0.138   0.292   4.660
 2144TIP3    H1 6438   0.134   0.382   4.628
 2144TIP3    H2 6439   0.046   0.266   4.669
 2145TIP3   OH2 6440   5.089   3.707   1.280
 2145TIP3    H1 6441   5.169   3.760   1.283
 2145TIP3    H2 6442   5.044   3.728   1.362
 2146TIP3   OH2 6443   0.931   2.437   4.811
 2146TIP3    H1 6444   0.936   2.347   4.844
 2146TIP3    H2 6445   0.844   2.468   4.838
 2147TIP3   OH2 6446   5.084   3.425   0.382
 2147TIP3    H1 6447   5.070   3.395   0.472
 2147TIP3    H2 6448   5.062   3.518   0.384
 2148TIP3   OH2 6449   2.703   0.549   1.467
 2148TIP3    H1 6450   2.740   0.511   1.388
 2148TIP3    H2 6451   2.613   0.517   1.470
 2149TIP3   OH2 6452   1.850   2.358   3.065
 2149TIP3    H1 6453   1.939   2.354   3.099
 2149TIP3    H2 6454   1.858   2.406   2.982
 2150TIP3   OH2 6455   3.290   3.429   3.107
 2150TIP3    H1 6456   3.323   3.340   3.097
 2150TIP3    H2 6457   3.327   3.478   3.033
 2151TIP3   OH2 6458   5.973   1.563   1.441
 2151TIP3    H1 6459   6.028   1.624   1.392
 2151TIP3    H2 6460   5.904   1.618   1.478
 2152TIP3   OH2 6461   3.875   4.611   3.216
 2152TIP3    H1 6462   3.929   4.689   3.223
 2152TIP3    H2 6463   3.911   4.562   3.142
 2153TIP3   OH2 6464   1.615   2.877   0.235
 2153TIP3    H1 6465   1.526   2.902   0.213
 2153TIP3    H2 6466   1.664   2.889   0.154
 2154TIP3   OH2 6467   4.491   1.363   2.313
 2154TIP3    H1 6468   4.469   1.292   2.253
 2154TIP3    H2 6469   4.448   1.440   2.276
 2155TIP3   OH2 6470   6.208   0.571   3.782
 2155TIP3    H1 6471   6.154   0.501   3.817
 2155TIP3    H2 6472   6.241   0.537   3.699
 2156TIP3   OH2 6473   4.733   0.448   0.598
 2156TIP3    H1 6474   4.737   0.429   0.691
 2156TIP3    H2 6475   4.745   0.364   0.555
 2157TIP3   OH2 6476   5.219   5.726   1.387
 2157TIP3    H1 6477   5.225   5.756   1.477
 2157TIP3    H2 6478   5.293   5.766   1.342
 2158TIP3   OH2 6479   1.367   5.697   4.204
 2158TIP3    H1 6480   1.442   5.638   4.195
 2158TIP3    H2 6481   1.377   5.759   4.132
 2159TIP3   OH2 6482   4.126   2.651   3.014
 2159TIP3    H1 6483   4.222   2.645   3.020
 2159TIP3    H2 6484   4.095   2.562   3.032
 2160TIP3   OH2 6485   0.579   3.848   4.349
 2160TIP3    H1 6486   0.543   3.894   4.274
 2160TIP3    H2 6487   0.619   3.916   4.404
 2161TIP3   OH2 6488   6.091   2.370   1.161
 2161TIP3    H1 6489   6.065   2.370   1.069
 2161TIP3    H2 6490   6.041   2.299   1.201
 2162TIP3   OH2 6491   4.041   3.477   0.697
 2162TIP3    H1 6492   3.995   3.435   0.624
 2162TIP3    H2 6493   3.993   3.559   0.712
 2163TIP3   OH2 6494   4.333   5.844   1.538
 2163TIP3    H1 6495   4.319   5.938   1.523
 2163TIP3    H2 6496   4.250   5.812   1.574
 2164TIP3   OH2 6497   2.585   3.418   2.554
 2164TIP3    H1 6498   2.680   3.418   2.566
 2164TIP3    H2 6499   2.568   3.489   2.493
 2165TIP3   OH2 6500   6.026   0.001   2.759
 2165TIP3    H1 6501   6.115   0.010   2.726
 2165TIP3    H2 6502   6.010   0.082   2.808
 2166TIP3   OH2 6503   1.447   2.796   0.898
 2166TIP3    H1 6504   1.397   2.873   0.923
 2166TIP3    H2 6505   1.509   2.827   0.831
 2167TIP3   OH2 6506   3.481   4.899   4.505
 2167TIP3    H1 6507   3.411   4.938   4.454
 2167TIP3    H2 6508   3.480   4.807   4.480
 2168TIP3   OH2 6509   3.340   0.094   1.896
 2168TIP3    H1 6510   3.427   0.089   1.936
 2168TIP3    H2 6511   3.344   0.170   1.838
 2169TIP3   OH2 6512   5.380   0.852   1.620
 2169TIP3    H1 6513   5.396   0.769   1.663
 2169TIP3    H2 6514   5.285   0.860   1.614
 2170TIP3   OH2 6515   1.505   3.723   4.513
 2170TIP3    H1 6516   1.447   3.723   4.589
 2170TIP3    H2 6517   1.448   3.746   4.440
 2171TIP3   OH2 6518   0.269   3.081   3.939
 2171TIP3    H1 6519   0.330   3.151   3.919
 2171TIP3    H2 6520   0.297   3.008   3.884
 2172TIP3   OH2 6521   3.000   0.410   2.260
 2172TIP3    H1 6522   2.985   0.322   2.227
 2172TIP3    H2 6523   2.919   0.432   2.305
 2173TIP3   OH2 6524   2.957   5.400   1.021
 2173TIP3    H1 6525   2.872   5.434   0.993
 2173TIP3    H2 6526   3.014   5.476   1.022
 2174TIP3   OH2 6527   2.512   1.291   0.124
 2174TIP3    H1 6528   2.564   1.218   0.092
 2174TIP3    H2 6529   2.487   1.339   0.045
 2175TIP3   OH2 6530   1.847   1.315   4.963
 2175TIP3    H1 6531   1.769   1.277   4.922
 2175TIP3    H2 6532   1.890   1.363   4.892
 2176TIP3   OH2 6533   3.710   3.003   1.970
 2176TIP3    H1 6534   3.619   3.002   1.942
 2176TIP3    H2 6535   3.748   2.923   1.933
 2177TIP3   OH2 6536   2.002   3.298   2.458
 2177TIP3    H1 6537   2.063   3.339   2.519
 2177TIP3    H2 6538   2.044   3.215   2.435
 2178TIP3   OH2 6539   1.871   5.841   2.403
 2178TIP3    H1 6540   1.932   5.891   2.348
 2178TIP3    H2 6541   1.808   5.905   2.435
 2179TIP3   OH2 6542   3.254   3.183   4.033
 2179TIP3    H1 6543   3.212   3.129   4.099
 2179TIP3    H2 6544   3.335   3.212   4.073
 2180TIP3   OH2 6545   5.300   0.360   0.614
 2180TIP3    H1 6546   5.298   0.439   0.668
 2180TIP3    H2 6547   5.256   0.386   0.533
 2181TIP3   OH2 6548   0.864   5.086   3.408
 2181TIP3    H1 6549   0.791   5.085   3.347
 2181TIP3    H2 6550   0.937   5.048   3.359
 2182TIP3   OH2 6551   6.222   4.633   2.542
 2182TIP3    H1 6552   6.231   4.710   2.487
 2182TIP3    H2 6553   6.143   4.649   2.594
 2183TIP3   OH2 6554   1.035   3.763   3.554
 2183TIP3    H1 6555   1.019   3.798   3.641
 2183TIP3    H2 6556   1.066   3.674   3.569
 2184TIP3   OH2 6557   1.141   5.149   2.874
 2184TIP3    H1 6558   1.196   5.186   2.943
 2184TIP3    H2 6559   1.146   5.054   2.887
 2185TIP3   OH2 6560   5.090   3.734   4.293
 2185TIP3    H1 6561   5.037   3.810   4.317
 2185TIP3    H2 6562   5.150   3.767   4.226
 2186TIP3   OH2 6563   5.944   1.827   2.412
 2186TIP3    H1 6564   5.889   1.882   2.356
 2186TIP3    H2 6565   5.887   1.753   2.434
 2187TIP3   OH2 6566   5.111   3.877   0.143
 2187TIP3    H1 6567   5.056   3.799   0.133
 2187TIP3    H2 6568   5.199   3.842   0.157
 2188TIP3   OH2 6569   2.256   1.584   1.246
 2188TIP3    H1 6570   2.296   1.665   1.216
 2188TIP3    H2 6571   2.189   1.612   1.308
 2189TIP3   OH2 6572   0.305   5.003   4.216
 2189TIP3    H1 6573   0.213   5.030   4.216
 2189TIP3    H2 6574   0.306   4.921   4.267
 2190TIP3   OH2 6575   5.088   4.353   4.499
 2190TIP3    H1 6576   5.068   4.440   4.465
 2190TIP3    H2 6577   5.045   4.350   4.585
 2191TIP3   OH2 6578   3.278   2.810   4.032
 2191TIP3    H1 6579   3.291   2.797   3.938
 2191TIP3    H2 6580   3.270   2.721   4.068
 2192TIP3   OH2 6581   6.261   2.364   4.708
 2192TIP3    H1 6582   6.316   2.415   4.767
 2192TIP3    H2 6583   6.269   2.274   4.739
 2193TIP3   OH2 6584   1.730   2.828   4.412
 2193TIP3    H1 6585   1.683   2.779   4.344
 2193TIP3    H2 6586   1.688   2.801   4.494
 2194TIP3   OH2 6587   0.623   2.811   0.095
 2194TIP3    H1 6588   0.582   2.776   0.174
 2194TIP3    H2 6589   0.562   2.878   0.065
 2195TIP3   OH2 6590   3.917   5.733   2.628
 2195TIP3    H1 6591   3.919   5.825   2.655
 2195TIP3    H2 6592   3.953   5.733   2.540
 2196TIP3   OH2 6593   5.992   0.347   1.323
 2196TIP3    H1 6594   5.926   0.364   1.390
 2196TIP3    H2 6595   6.033   0.266   1.350
 2197TIP3   OH2 6596   1.201   4.785   0.907
 2197TIP3    H1 6597   1.168   4.825   0.827
 2197TIP3    H2 6598   1.123   4.746   0.948
 2198TIP3   OH2 6599   6.199   3.652   3.857
 2198TIP3    H1 6600   6.192   3.716   3.929
 2198TIP3    H2 6601   6.117   3.602   3.862
 2199TIP3   OH2 6602   6.231   3.964   3.516
 2199TIP3    H1 6603   6.153   3.994   3.469
 2199TIP3    H2 6604   6.199   3.892   3.571
 2200TIP3   OH2 6605   4.923   5.778   4.721
 2200TIP3    H1 6606   4.859   5.844   4.695
 2200TIP3    H2 6607   4.883   5.733   4.795
 2201TIP3   OH2 6608   1.417   2.511   3.421
 2201TIP3    H1 6609   1.400   2.419   3.443
 2201TIP3    H2 6610   1.363   2.561   3.482
 2202TIP3   OH2 6611   5.546   4.644   4.332
 2202TIP3    H1 6612   5.542   4.625   4.426
 2202TIP3    H2 6613   5.503   4.730   4.324
 2203TIP3   OH2 6614   5.755   4.188   3.393
 2203TIP3    H1 6615   5.820   4.255   3.415
 2203TIP3    H2 6616   5.759   4.181   3.297
 2204TIP3   OH2 6617   3.725   6.013   0.409
 2204TIP3    H1 6618   3.679   5.958   0.346
 2204TIP3    H2 6619   3.813   6.024   0.373
 2205TIP3   OH2 6620   0.246   1.161   1.357
 2205TIP3    H1 6621   0.279   1.142   1.445
 2205TIP3    H2 6622   0.292   1.099   1.301
 2206TIP3   OH2 6623   0.412   1.458   4.461
 2206TIP3    H1 6624   0.338   1.519   4.469
 2206TIP3    H2 6625   0.409   1.405   4.539
 2207TIP3   OH2 6626   1.125   5.213   3.253
 2207TIP3    H1 6627   1.093   5.279   3.314
 2207TIP3    H2 6628   1.160   5.263   3.180
 2208TIP3   OH2 6629   2.385   5.332  -0.011
 2208TIP3    H1 6630   2.401   5.408  -0.067
 2208TIP3    H2 6631   2.430   5.352   0.071
 2209TIP3   OH2 6632   0.021   1.988   2.188
 2209TIP3    H1 6633   0.075   1.912   2.211
 2209TIP3    H2 6634   0.041   2.053   2.256
 2210TIP3   OH2 6635   3.079   5.439   0.330
 2210TIP3    H1 6636   3.057   5.519   0.282
 2210TIP3    H2 6637   3.072   5.369   0.266
 2211TIP3   OH2 6638   2.704   1.904   4.820
 2211TIP3    H1 6639   2.797   1.924   4.832
 2211TIP3    H2 6640   2.697   1.872   4.730
 2212TIP3   OH2 6641   2.450   0.412   1.368
 2212TIP3    H1 6642   2.370   0.403   1.318
 2212TIP3    H2 6643   2.424   0.398   1.459
 2213TIP3   OH2 6644   0.747   4.918   1.564
 2213TIP3    H1 6645   0.834   4.944   1.593
 2213TIP3    H2 6646   0.726   4.978   1.492
 2214TIP3   OH2 6647   3.282   1.395   1.682
 2214TIP3    H1 6648   3.337   1.353   1.748
 2214TIP3    H2 6649   3.333   1.390   1.601
 2215TIP3   OH2 6650   5.955   1.136   0.470
 2215TIP3    H1 6651   5.866   1.131   0.436
 2215TIP3    H2 6652   5.961   1.223   0.510
 2216TIP3   OH2 6653   1.327   2.467   3.146
 2216TIP3    H1 6654   1.384   2.441   3.219
 2216TIP3    H2 6655   1.246   2.497   3.189
 2217TIP3   OH2 6656   5.921   0.056   0.071
 2217TIP3    H1 6657   5.968   0.135   0.102
 2217TIP3    H2 6658   5.971   0.027  -0.005
 2218TIP3   OH2 6659   1.302   1.343   1.763
 2218TIP3    H1 6660   1.342   1.284   1.827
 2218TIP3    H2 6661   1.358   1.421   1.763
 2219TIP3   OH2 6662   6.158   4.364   0.219
 2219TIP3    H1 6663   6.127   4.400   0.136
 2219TIP3    H2 6664   6.090   4.303   0.246
 2220TIP3   OH2 6665   3.502   3.240   2.799
 2220TIP3    H1 6666   3.578   3.298   2.799
 2220TIP3    H2 6667   3.539   3.154   2.776
 2221TIP3   OH2 6668   3.784   2.780   1.319
 2221TIP3    H1 6669   3.778   2.751   1.227
 2221TIP3    H2 6670   3.748   2.869   1.318
 2222TIP3   OH2 6671   2.943   1.290   4.730
 2222TIP3    H1 6672   2.911   1.212   4.775
 2222TIP3    H2 6673   2.867   1.320   4.679
 2223TIP3   OH2 6674   0.319   0.588   1.618
 2223TIP3    H1 6675   0.273   0.572   1.535
 2223TIP3    H2 6676   0.404   0.623   1.592
 2224TIP3   OH2 6677   1.769   3.115   2.620
 2224TIP3    H1 6678   1.789   3.205   2.593
 2224TIP3    H2 6679   1.779   3.116   2.715
 2225TIP3   OH2 6680   0.984   3.937   1.398
 2225TIP3    H1 6681   1.051   3.981   1.452
 2225TIP3    H2 6682   0.931   3.889   1.462
 2226TIP3   OH2 6683   2.938   3.933   0.858
 2226TIP3    H1 6684   2.997   3.859   0.874
 2226TIP3    H2 6685   2.970   4.002   0.916
 2227TIP3   OH2 6686   5.386   5.263   4.399
 2227TIP3    H1 6687   5.481   5.252   4.395
 2227TIP3    H2 6688   5.362   5.226   4.484
 2228TIP3   OH2 6689   1.444   5.231   3.218
 2228TIP3    H1 6690   1.428   5.224   3.124
 2228TIP3    H2 6691   1.427   5.142   3.252
 2229TIP3   OH2 6692   0.566   4.085   0.570
 2229TIP3    H1 6693   0.610   4.170   0.564
 2229TIP3    H2 6694   0.547   4.074   0.663
 2230TIP3   OH2 6695   1.549   1.393   2.317
 2230TIP3    H1 6696   1.574   1.335   2.245
 2230TIP3    H2 6697   1.486   1.453   2.278
 2231TIP3   OH2 6698   3.629   5.610   1.397
 2231TIP3    H1 6699   3.536   5.610   1.420
 2231TIP3    H2 6700   3.672   5.569   1.473
 2232TIP3   OH2 6701   2.115   3.543   1.213
 2232TIP3    H1 6702   2.198   3.556   1.258
 2232TIP3    H2 6703   2.138   3.541   1.120
 2233TIP3   OH2 6704  -0.007   1.108   0.395
 2233TIP3    H1 6705   0.074   1.086   0.441
 2233TIP3    H2 6706   0.001   1.064   0.310
 2234TIP3   OH2 6707   3.146   1.941   0.169
 2234TIP3    H1 6708   3.234   1.949   0.205
 2234TIP3    H2 6709   3.159   1.946   0.074
 2235TIP3   OH2 6710   4.965   0.576   3.197
 2235TIP3    H1 6711   4.958   0.616   3.110
 2235TIP3    H2 6712   4.892   0.615   3.247
 2236TIP3   OH2 6713   0.172   1.885   4.263
 2236TIP3    H1 6714   0.146   1.795   4.247
 2236TIP3    H2 6715   0.142   1.933   4.185
 2237TIP3   OH2 6716   5.884   3.706   4.101
 2237TIP3    H1 6717   5.972   3.740   4.083
 2237TIP3    H2 6718   5.871   3.636   4.037
 2238TIP3   OH2 6719   0.271   4.228   4.117
 2238TIP3    H1 6720   0.205   4.269   4.172
 2238TIP3    H2 6721   0.235   4.231   4.029
 2239TIP3   OH2 6722   3.492   0.814   0.358
 2239TIP3    H1 6723   3.448   0.806   0.443
 2239TIP3    H2 6724   3.476   0.904   0.331
 2240TIP3   OH2 6725   5.548   2.734   3.008
 2240TIP3    H1 6726   5.477   2.755   2.948
 2240TIP3    H2 6727   5.626   2.771   2.966
 2241TIP3   OH2 6728   1.100   1.476   0.237
 2241TIP3    H1 6729   1.077   1.397   0.189
 2241TIP3    H2 6730   1.161   1.446   0.305
 2242TIP3   OH2 6731   5.861   4.952   4.486
 2242TIP3    H1 6732   5.931   4.902   4.445
 2242TIP3    H2 6733   5.907   5.016   4.541
 2243TIP3   OH2 6734   1.993   2.706   4.410
 2243TIP3    H1 6735   1.983   2.637   4.345
 2243TIP3    H2 6736   1.904   2.738   4.425
 2244TIP3   OH2 6737   0.127   3.935   3.658
 2244TIP3    H1 6738   0.041   3.950   3.618
 2244TIP3    H2 6739   0.124   3.843   3.685
 2245TIP3   OH2 6740   3.101   3.281   1.206
 2245TIP3    H1 6741   3.102   3.329   1.289
 2245TIP3    H2 6742   3.085   3.190   1.230
 2246TIP3   OH2 6743   3.432   5.908   1.916
 2246TIP3    H1 6744   3.461   5.886   2.005
 2246TIP3    H2 6745   3.339   5.888   1.915
 2247TIP3   OH2 6746   3.269   4.746   4.126
 2247TIP3    H1 6747   3.228   4.660   4.128
 2247TIP3    H2 6748   3.283   4.765   4.033
 2248TIP3   OH2 6749   4.155   4.880   2.829
 2248TIP3    H1 6750   4.150   4.921   2.742
 2248TIP3    H2 6751   4.063   4.870   2.855
 2249TIP3   OH2 6752   1.864   3.928   3.477
 2249TIP3    H1 6753   1.853   4.022   3.495
 2249TIP3    H2 6754   1.847   3.920   3.383
 2250TIP3   OH2 6755   3.842   4.301   4.393
 2250TIP3    H1 6756   3.799   4.235   4.339
 2250TIP3    H2 6757   3.776   4.369   4.406
 2251TIP3   OH2 6758   0.362   3.512   2.755
 2251TIP3    H1 6759   0.298   3.529   2.824
 2251TIP3    H2 6760   0.314   3.527   2.674
 2252TIP3   OH2 6761   2.615   0.361   4.023
 2252TIP3    H1 6762   2.616   0.456   4.032
 2252TIP3    H2 6763   2.540   0.333   4.075
 2253TIP3   OH2 6764   2.389   2.913   2.229
 2253TIP3    H1 6765   2.323   2.957   2.283
 2253TIP3    H2 6766   2.453   2.880   2.292
 2254TIP3   OH2 6767   6.005   2.062   4.568
 2254TIP3    H1 6768   6.014   2.044   4.474
 2254TIP3    H2 6769   5.929   2.121   4.574
 2255TIP3   OH2 6770   2.096   0.871   1.670
 2255TIP3    H1 6771   2.102   0.776   1.685
 2255TIP3    H2 6772   2.017   0.882   1.618
 2256TIP3   OH2 6773   4.567   4.694   4.015
 2256TIP3    H1 6774   4.593   4.674   3.925
 2256TIP3    H2 6775   4.489   4.749   4.006
 2257TIP3   OH2 6776   0.312   0.255   3.638
 2257TIP3    H1 6777   0.231   0.218   3.672
 2257TIP3    H2 6778   0.364   0.179   3.611
 2258TIP3   OH2 6779   1.475   4.014   1.724
 2258TIP3    H1 6780   1.405   4.037   1.784
 2258TIP3    H2 6781   1.537   4.087   1.730
 2259TIP3   OH2 6782   2.710   1.099   1.522
 2259TIP3    H1 6783   2.691   1.005   1.525
 2259TIP3    H2 6784   2.731   1.117   1.431
 2260TIP3   OH2 6785   5.288   1.483   2.725
 2260TIP3    H1 6786   5.369   1.440   2.754
 2260TIP3    H2 6787   5.268   1.442   2.641
 2261TIP3   OH2 6788   4.993   0.194   4.751
 2261TIP3    H1 6789   4.925   0.159   4.809
 2261TIP3    H2 6790   4.950   0.201   4.665
 2262TIP3   OH2 6791   5.478   2.493   1.639
 2262TIP3    H1 6792   5.503   2.541   1.718
 2262TIP3    H2 6793   5.457   2.561   1.575
 2263TIP3   OH2 6794   1.800   0.424   2.517
 2263TIP3    H1 6795   1.780   0.510   2.555
 2263TIP3    H2 6796   1.869   0.389   2.573
 2264TIP3   OH2 6797   3.539   5.718   2.199
 2264TIP3    H1 6798   3.526   5.707   2.293
 2264TIP3    H2 6799   3.491   5.646   2.159
 2265TIP3   OH2 6800   4.353   2.406   4.123
 2265TIP3    H1 6801   4.383   2.412   4.214
 2265TIP3    H2 6802   4.421   2.355   4.078
 2266TIP3   OH2 6803   0.794   1.282   4.993
 2266TIP3    H1 6804   0.728   1.319   5.051
 2266TIP3    H2 6805   0.795   1.188   5.013
 2267TIP3   OH2 6806   0.079   3.321   3.041
 2267TIP3    H1 6807   0.088   3.315   2.946
 2267TIP3    H2 6808   0.132   3.396   3.066
 2268TIP3   OH2 6809   6.195   2.976   3.415
 2268TIP3    H1 6810   6.155   3.022   3.489
 2268TIP3    H2 6811   6.274   3.025   3.396
 2269TIP3   OH2 6812   0.445   4.505   1.398
 2269TIP3    H1 6813   0.419   4.417   1.373
 2269TIP3    H2 6814   0.474   4.546   1.317
 2270TIP3   OH2 6815   1.491   5.691   0.068
 2270TIP3    H1 6816   1.523   5.605   0.043
 2270TIP3    H2 6817   1.451   5.678   0.155
 2271TIP3   OH2 6818   2.931   3.351   2.956
 2271TIP3    H1 6819   2.864   3.419   2.962
 2271TIP3    H2 6820   3.004   3.392   2.910
 2272TIP3   OH2 6821   4.913   0.048   2.003
 2272TIP3    H1 6822   4.839   0.044   1.942
 2272TIP3    H2 6823   4.886   0.112   2.069
 2273TIP3   OH2 6824   3.290   0.972   2.074
 2273TIP3    H1 6825   3.371   0.926   2.051
 2273TIP3    H2 6826   3.265   0.937   2.159
 2274TIP3   OH2 6827   4.771   2.680   3.237
 2274TIP3    H1 6828   4.758   2.696   3.143
 2274TIP3    H2 6829   4.838   2.612   3.240
 2275TIP3   OH2 6830   4.701   2.968   4.348
 2275TIP3    H1 6831   4.690   3.005   4.260
 2275TIP3    H2 6832   4.745   3.037   4.397
 2276TIP3   OH2 6833   2.631   0.525   0.348
 2276TIP3    H1 6834   2.654   0.544   0.439
 2276TIP3    H2 6835   2.616   0.610   0.308
 2277TIP3   OH2 6836   3.781   1.038   0.964
 2277TIP3    H1 6837   3.690   1.057   0.986
 2277TIP3    H2 6838   3.794   1.079   0.878
 2278TIP3   OH2 6839   5.286   0.620   0.705
 2278TIP3    H1 6840   5.218   0.688   0.709
 2278TIP3    H2 6841   5.353   0.650   0.767
 2279TIP3   OH2 6842   2.367   2.630   4.249
 2279TIP3    H1 6843   2.358   2.703   4.187
 2279TIP3    H2 6844   2.325   2.661   4.329
 2280TIP3   OH2 6845   6.107   1.653   4.743
 2280TIP3    H1 6846   6.078   1.563   4.759
 2280TIP3    H2 6847   6.026   1.704   4.746
 2281TIP3   OH2 6848   6.238   4.035   4.310
 2281TIP3    H1 6849   6.310   3.975   4.291
 2281TIP3    H2 6850   6.274   4.122   4.296
 2282TIP3   OH2 6851   5.445   1.902   3.390
 2282TIP3    H1 6852   5.467   1.931   3.301
 2282TIP3    H2 6853   5.530   1.891   3.433
 2283TIP3   OH2 6854   2.346   5.004   1.794
 2283TIP3    H1 6855   2.440   5.003   1.813
 2283TIP3    H2 6856   2.316   4.916   1.814
 2284TIP3   OH2 6857   1.472   2.287   0.032
 2284TIP3    H1 6858   1.471   2.252  -0.057
 2284TIP3    H2 6859   1.410   2.232   0.080
 2285TIP3   OH2 6860   6.080   1.761   1.081
 2285TIP3    H1 6861   6.074   1.849   1.118
 2285TIP3    H2 6862   5.991   1.739   1.054
 2286TIP3   OH2 6863   4.458   5.052   0.675
 2286TIP3    H1 6864   4.499   4.968   0.695
 2286TIP3    H2 6865   4.370   5.030   0.648
 2287TIP3   OH2 6866   1.249   0.999   0.527
 2287TIP3    H1 6867   1.220   0.930   0.588
 2287TIP3    H2 6868   1.332   1.030   0.564
 2288TIP3   OH2 6869   3.269   2.805   3.769
 2288TIP3    H1 6870   3.335   2.857   3.723
 2288TIP3    H2 6871   3.191   2.860   3.768
 2289TIP3   OH2 6872   0.652   3.092   3.781
 2289TIP3    H1 6873   0.649   3.011   3.831
 2289TIP3    H2 6874   0.565   3.100   3.743
 2290TIP3   OH2 6875   4.083   2.423   0.950
 2290TIP3    H1 6876   4.172   2.395   0.932
 2290TIP3    H2 6877   4.067   2.399   1.041
 2291TIP3   OH2 6878   5.138   2.945   4.350
 2291TIP3    H1 6879   5.194   3.021   4.368
 2291TIP3    H2 6880   5.075   2.976   4.285
 2292TIP3   OH2 6881   3.519   4.913   3.259
 2292TIP3    H1 6882   3.565   4.969   3.197
 2292TIP3    H2 6883   3.507   4.967   3.337
 2293TIP3   OH2 6884   4.239   0.556   2.667
 2293TIP3    H1 6885   4.232   0.513   2.752
 2293TIP3    H2 6886   4.332   0.578   2.659
 2294TIP3   OH2 6887   1.055   5.858   0.108
 2294TIP3    H1 6888   1.068   5.952   0.124
 2294TIP3    H2 6889   1.026   5.854   0.017
 2295TIP3   OH2 6890   3.418   3.298   2.483
 2295TIP3    H1 6891   3.336   3.276   2.527
 2295TIP3    H2 6892   3.481   3.235   2.517
 2296TIP3   OH2 6893   3.146   1.716   0.400
 2296TIP3    H1 6894   3.094   1.651   0.447
 2296TIP3    H2 6895   3.082   1.766   0.349
 2297TIP3   OH2 6896   5.799   4.425  -0.036
 2297TIP3    H1 6897   5.835   4.501   0.009
 2297TIP3    H2 6898   5.819   4.352   0.023
 2298TIP3   OH2 6899   1.281   3.869   1.938
 2298TIP3    H1 6900   1.340   3.793   1.940
 2298TIP3    H2 6901   1.197   3.833   1.911
 2299TIP3   OH2 6902   4.564   5.657   3.499
 2299TIP3    H1 6903   4.643   5.634   3.450
 2299TIP3    H2 6904   4.570   5.752   3.511
 2300TIP3   OH2 6905   2.556   3.819   3.304
 2300TIP3    H1 6906   2.510   3.742   3.269
 2300TIP3    H2 6907   2.641   3.786   3.331
 2301TIP3   OH2 6908   1.253   0.819   0.793
 2301TIP3    H1 6909   1.191   0.886   0.824
 2301TIP3    H2 6910   1.213   0.736   0.818
 2302TIP3   OH2 6911   2.794   4.124   3.051
 2302TIP3    H1 6912   2.887   4.119   3.029
 2302TIP3    H2 6913   2.756   4.175   2.979
 2303TIP3   OH2 6914   2.284   4.835   3.810
 2303TIP3    H1 6915   2.296   4.759   3.753
 2303TIP3    H2 6916   2.371   4.853   3.845
 2304TIP3   OH2 6917   5.347   2.791   4.591
 2304TIP3    H1 6918   5.252   2.793   4.583
 2304TIP3    H2 6919   5.379   2.840   4.516
 2305TIP3   OH2 6920   5.376   0.584   1.664
 2305TIP3    H1 6921   5.326   0.545   1.592
 2305TIP3    H2 6922   5.337   0.547   1.743
 2306TIP3   OH2 6923   6.138   3.108   4.186
 2306TIP3    H1 6924   6.068   3.069   4.134
 2306TIP3    H2 6925   6.138   3.200   4.160
 2307TIP3   OH2 6926   1.206   1.656   4.418
 2307TIP3    H1 6927   1.215   1.713   4.341
 2307TIP3    H2 6928   1.113   1.662   4.440
 2308TIP3   OH2 6929   4.792   5.331   4.875
 2308TIP3    H1 6930   4.824   5.413   4.912
 2308TIP3    H2 6931   4.854   5.265   4.905
 2309TIP3   OH2 6932   3.519   3.869   0.274
 2309TIP3    H1 6933   3.476   3.784   0.285
 2309TIP3    H2 6934   3.564   3.862   0.190
 2310TIP3   OH2 6935   2.276   4.920   3.133
 2310TIP3    H1 6936   2.218   4.994   3.148
 2310TIP3    H2 6937   2.250   4.886   3.048
 2311TIP3   OH2 6938   0.678   4.797   2.331
 2311TIP3    H1 6939   0.737   4.781   2.404
 2311TIP3    H2 6940   0.730   4.778   2.253
 2312TIP3   OH2 6941   3.705   5.075   3.086
 2312TIP3    H1 6942   3.660   5.061   3.002
 2312TIP3    H2 6943   3.790   5.112   3.063
 2313TIP3   OH2 6944   2.530   6.014   1.943
 2313TIP3    H1 6945   2.502   5.923   1.933
 2313TIP3    H2 6946   2.492   6.043   2.026
 2314TIP3   OH2 6947   3.799   4.125   1.971
 2314TIP3    H1 6948   3.786   4.196   2.034
 2314TIP3    H2 6949   3.725   4.066   1.987
 2315TIP3   OH2 6950   5.120   1.621   5.147
 2315TIP3    H1 6951   5.145   1.625   5.055
 2315TIP3    H2 6952   5.116   1.527   5.167
 2316TIP3   OH2 6953   4.167   5.179   2.738
 2316TIP3    H1 6954   4.236   5.163   2.802
 2316TIP3    H2 6955   4.097   5.221   2.787
 2317TIP3   OH2 6956   5.992   2.345   3.375
 2317TIP3    H1 6957   6.085   2.370   3.378
 2317TIP3    H2 6958   5.962   2.357   3.466
 2318TIP3   OH2 6959   0.249   2.326   3.937
 2318TIP3    H1 6960   0.305   2.383   3.989
 2318TIP3    H2 6961   0.160   2.356   3.955
 2319TIP3   OH2 6962   0.924   4.252   4.366
 2319TIP3    H1 6963   0.847   4.197   4.380
 2319TIP3    H2 6964   0.991   4.214   4.422
 2320TIP3   OH2 6965   5.188   5.378   2.243
 2320TIP3    H1 6966   5.181   5.436   2.318
 2320TIP3    H2 6967   5.275   5.339   2.251
 2321TIP3   OH2 6968   2.817   5.706   4.710
 2321TIP3    H1 6969   2.759   5.765   4.662
 2321TIP3    H2 6970   2.808   5.732   4.802
 2322TIP3   OH2 6971   5.168   4.586   2.875
 2322TIP3    H1 6972   5.131   4.588   2.787
 2322TIP3    H2 6973   5.101   4.624   2.931
 2323TIP3   OH2 6974   5.022   1.066   0.821
 2323TIP3    H1 6975   4.931   1.096   0.828
 2323TIP3    H2 6976   5.066   1.135   0.771
 2324TIP3   OH2 6977   4.475   1.083   1.048
 2324TIP3    H1 6978   4.558   1.049   1.081
 2324TIP3    H2 6979   4.486   1.178   1.049
 2325TIP3   OH2 6980   0.799   4.487   2.161
 2325TIP3    H1 6981   0.880   4.436   2.157
 2325TIP3    H2 6982   0.826   4.576   2.136
 2326TIP3   OH2 6983   3.463   1.256   1.459
 2326TIP3    H1 6984   3.542   1.287   1.502
 2326TIP3    H2 6985   3.462   1.303   1.375
 2327TIP3   OH2 6986   5.350   2.192   4.138
 2327TIP3    H1 6987   5.302   2.121   4.096
 2327TIP3    H2 6988   5.397   2.236   4.066
 2328TIP3   OH2 6989   3.879   2.566   4.237
 2328TIP3    H1 6990   3.856   2.624   4.309
 2328TIP3    H2 6991   3.815   2.586   4.169
 2329TIP3   OH2 6992   3.925   0.118   4.541
 2329TIP3    H1 6993   3.915   0.027   4.567
 2329TIP3    H2 6994   3.837   0.155   4.546
 2330TIP3   OH2 6995   4.391   5.725   0.939
 2330TIP3    H1 6996   4.357   5.814   0.938
 2330TIP3    H2 6997   4.476   5.732   0.981
 2331TIP3   OH2 6998   0.886   2.110   0.189
 2331TIP3    H1 6999   0.809   2.085   0.241
 2331TIP3    H2 7000   0.961   2.085   0.243
 2332TIP3   OH2 7001   0.804   5.124   0.353
 2332TIP3    H1 7002   0.774   5.213   0.371
 2332TIP3    H2 7003   0.804   5.118   0.257
 2333TIP3   OH2 7004   2.592   5.569   1.756
 2333TIP3    H1 7005   2.579   5.653   1.798
 2333TIP3    H2 7006   2.581   5.587   1.662
 2334TIP3   OH2 7007   2.112   0.332   1.005
 2334TIP3    H1 7008   2.143   0.253   0.960
 2334TIP3    H2 7009   2.186   0.393   1.001
 2335TIP3   OH2 7010   4.582   0.125   4.072
 2335TIP3    H1 7011   4.677   0.116   4.066
 2335TIP3    H2 7012   4.565   0.215   4.046
 2336TIP3   OH2 7013   0.482   1.796   4.233
 2336TIP3    H1 7014   0.435   1.818   4.153
 2336TIP3    H2 7015   0.463   1.869   4.293
 2337TIP3   OH2 7016   3.691   2.697   4.989
 2337TIP3    H1 7017   3.706   2.654   5.073
 2337TIP3    H2 7018   3.722   2.787   5.001
 2338TIP3   OH2 7019   1.152   5.018   0.380
 2338TIP3    H1 7020   1.117   5.033   0.292
 2338TIP3    H2 7021   1.111   5.086   0.433
 2339TIP3   OH2 7022   5.920   5.522   0.000
 2339TIP3    H1 7023   6.001   5.544   0.045
 2339TIP3    H2 7024   5.890   5.441   0.041
 2340TIP3   OH2 7025   5.236   0.184   1.901
 2340TIP3    H1 7026   5.287   0.247   1.951
 2340TIP3    H2 7027   5.236   0.105   1.956
 2341TIP3   OH2 7028   4.831   0.083   4.921
 2341TIP3    H1 7029   4.843  -0.012   4.934
 2341TIP3    H2 7030   4.785   0.113   4.999
 2342TIP3   OH2 7031   1.321   2.090   3.021
 2342TIP3    H1 7032   1.302   2.001   2.993
 2342TIP3    H2 7033   1.307   2.089   3.116
 2343TIP3   OH2 7034   4.169   2.003   4.369
 2343TIP3    H1 7035   4.198   1.977   4.456
 2343TIP3    H2 7036   4.151   1.921   4.324
 2344TIP3   OH2 7037   2.366   0.448   0.273
 2344TIP3    H1 7038   2.362   0.489   0.187
 2344TIP3    H2 7039   2.446   0.482   0.312
 2345TIP3   OH2 7040   1.711   3.089   4.281
 2345TIP3    H1 7041   1.705   3.138   4.363
 2345TIP3    H2 7042   1.622   3.056   4.267
 2346TIP3   OH2 7043   6.187   5.553   4.173
 2346TIP3    H1 7044   6.248   5.570   4.244
 2346TIP3    H2 7045   6.134   5.633   4.168
 2347TIP3   OH2 7046   5.474   4.094   0.566
 2347TIP3    H1 7047   5.477   4.034   0.640
 2347TIP3    H2 7048   5.381   4.113   0.554
 2348TIP3   OH2 7049   1.062   2.967   5.181
 2348TIP3    H1 7050   1.053   2.948   5.275
 2348TIP3    H2 7051   1.146   2.927   5.156
 2349TIP3   OH2 7052   0.675   5.012   1.864
 2349TIP3    H1 7053   0.730   4.938   1.838
 2349TIP3    H2 7054   0.734   5.087   1.863
 2350TIP3   OH2 7055  -0.001   3.186   3.395
 2350TIP3    H1 7056   0.051   3.175   3.315
 2350TIP3    H2 7057  -0.050   3.267   3.381
 2351TIP3   OH2 7058   3.972   3.131   3.885
 2351TIP3    H1 7059   3.910   3.140   3.958
 2351TIP3    H2 7060   4.042   3.193   3.906
 2352TIP3   OH2 7061   4.509   0.476   1.989
 2352TIP3    H1 7062   4.481   0.564   1.965
 2352TIP3    H2 7063   4.428   0.428   2.005
 2353TIP3   OH2 7064   2.112   0.609   1.693
 2353TIP3    H1 7065   2.051   0.568   1.754
 2353TIP3    H2 7066   2.190   0.554   1.697
 2354TIP3   OH2 7067   0.343   0.341   0.849
 2354TIP3    H1 7068   0.259   0.329   0.894
 2354TIP3    H2 7069   0.409   0.315   0.913
 2355TIP3   OH2 7070   4.551   2.670   2.296
 2355TIP3    H1 7071   4.476   2.700   2.347
 2355TIP3    H2 7072   4.615   2.740   2.306
 2356TIP3   OH2 7073   3.968   3.485   4.456
 2356TIP3    H1 7074   3.990   3.548   4.387
 2356TIP3    H2 7075   3.963   3.538   4.536
 2357TIP3   OH2 7076   3.707   4.384   3.249
 2357TIP3    H1 7077   3.717   4.476   3.272
 2357TIP3    H2 7078   3.796   4.353   3.232
 2358TIP3   OH2 7079   4.297   5.618   2.552
 2358TIP3    H1 7080   4.240   5.608   2.628
 2358TIP3    H2 7081   4.382   5.585   2.581
 2359TIP3   OH2 7082   0.468   1.558   1.011
 2359TIP3    H1 7083   0.475   1.469   1.047
 2359TIP3    H2 7084   0.375   1.578   1.014
 2360TIP3   OH2 7085   2.589   0.111   4.771
 2360TIP3    H1 7086   2.498   0.139   4.770
 2360TIP3    H2 7087   2.634   0.176   4.826
 2361TIP3   OH2 7088   1.372   1.041   3.220
 2361TIP3    H1 7089   1.315   1.063   3.294
 2361TIP3    H2 7090   1.422   1.120   3.203
 2362TIP3   OH2 7091   5.469   4.412   2.883
 2362TIP3    H1 7092   5.488   4.319   2.867
 2362TIP3    H2 7093   5.406   4.412   2.955
 2363TIP3   OH2 7094   5.166   0.023   1.101
 2363TIP3    H1 7095   5.165   0.085   1.028
 2363TIP3    H2 7096   5.211   0.070   1.171
 2364TIP3   OH2 7097   5.462   5.550   3.274
 2364TIP3    H1 7098   5.452   5.640   3.242
 2364TIP3    H2 7099   5.556   5.540   3.289
 2365TIP3   OH2 7100   2.419   4.382   0.115
 2365TIP3    H1 7101   2.408   4.475   0.135
 2365TIP3    H2 7102   2.450   4.380   0.024
 2366TIP3   OH2 7103   4.435   5.013   3.871
 2366TIP3    H1 7104   4.387   5.093   3.853
 2366TIP3    H2 7105   4.512   5.017   3.814
 2367TIP3   OH2 7106   2.888   4.205   1.004
 2367TIP3    H1 7107   2.914   4.297   1.003
 2367TIP3    H2 7108   2.866   4.188   1.095
 2368TIP3   OH2 7109   0.384   1.598   2.207
 2368TIP3    H1 7110   0.450   1.666   2.219
 2368TIP3    H2 7111   0.305   1.645   2.181
 2369TIP3   OH2 7112   2.522   1.180   2.250
 2369TIP3    H1 7113   2.485   1.269   2.252
 2369TIP3    H2 7114   2.491   1.143   2.168
 2370TIP3   OH2 7115   2.236   4.223   1.320
 2370TIP3    H1 7116   2.177   4.171   1.266
 2370TIP3    H2 7117   2.314   4.168   1.329
 2371TIP3   OH2 7118   6.162   2.253   1.601
 2371TIP3    H1 7119   6.114   2.259   1.519
 2371TIP3    H2 7120   6.254   2.262   1.576
 2372TIP3   OH2 7121   5.434   2.185   2.285
 2372TIP3    H1 7122   5.449   2.204   2.377
 2372TIP3    H2 7123   5.343   2.210   2.269
 2373TIP3   OH2 7124   4.144   1.390   3.990
 2373TIP3    H1 7125   4.055   1.354   3.998
 2373TIP3    H2 7126   4.200   1.322   4.026
 2374TIP3   OH2 7127   6.253   1.449   4.383
 2374TIP3    H1 7128   6.183   1.384   4.392
 2374TIP3    H2 7129   6.210   1.533   4.392
 2375TIP3   OH2 7130   1.840   1.223   2.903
 2375TIP3    H1 7131   1.766   1.173   2.938
 2375TIP3    H2 7132   1.803   1.309   2.881
 2376TIP3   OH2 7133   2.808   1.631   1.580
 2376TIP3    H1 7134   2.787   1.642   1.673
 2376TIP3    H2 7135   2.746   1.564   1.550
 2377TIP3   OH2 7136   3.674   5.832   1.725
 2377TIP3    H1 7137   3.676   5.928   1.721
 2377TIP3    H2 7138   3.583   5.811   1.748
 2378TIP3   OH2 7139   3.572   1.640   4.798
 2378TIP3    H1 7140   3.602   1.712   4.854
 2378TIP3    H2 7141   3.507   1.679   4.740
 2379TIP3   OH2 7142   4.674   2.960   3.856
 2379TIP3    H1 7143   4.589   2.916   3.844
 2379TIP3    H2 7144   4.736   2.903   3.810
 2380TIP3   OH2 7145   0.362   5.079   0.314
 2380TIP3    H1 7146   0.330   5.025   0.386
 2380TIP3    H2 7147   0.456   5.059   0.309
 2381TIP3   OH2 7148   1.193   1.543   5.080
 2381TIP3    H1 7149   1.227   1.602   5.147
 2381TIP3    H2 7150   1.209   1.456   5.115
 2382TIP3   OH2 7151   4.116   0.101   0.157
 2382TIP3    H1 7152   4.131   0.189   0.123
 2382TIP3    H2 7153   4.125   0.110   0.252
 2383TIP3   OH2 7154   2.621   4.882   0.927
 2383TIP3    H1 7155   2.542   4.930   0.903
 2383TIP3    H2 7156   2.616   4.872   1.022
 2384TIP3   OH2 7157   0.583   0.569   3.460
 2384TIP3    H1 7158   0.647   0.526   3.517
 2384TIP3    H2 7159   0.633   0.590   3.381
 2385TIP3   OH2 7160   5.414   5.322   3.729
 2385TIP3    H1 7161   5.493   5.332   3.783
 2385TIP3    H2 7162   5.361   5.258   3.776
 2386TIP3   OH2 7163   3.220   0.348   4.648
 2386TIP3    H1 7164   3.300   0.367   4.697
 2386TIP3    H2 7165   3.244   0.278   4.588
 2387TIP3   OH2 7166   5.032   2.177   3.473
 2387TIP3    H1 7167   5.052   2.131   3.555
 2387TIP3    H2 7168   4.959   2.235   3.496
 2388TIP3   OH2 7169   6.127   5.441   0.595
 2388TIP3    H1 7170   6.185   5.365   0.588
 2388TIP3    H2 7171   6.154   5.486   0.674
 2389TIP3   OH2 7172   3.475   1.369   4.119
 2389TIP3    H1 7173   3.398   1.312   4.122
 2389TIP3    H2 7174   3.439   1.457   4.110
 2390TIP3   OH2 7175   3.924   5.652   5.196
 2390TIP3    H1 7176   3.911   5.746   5.203
 2390TIP3    H2 7177   3.951   5.638   5.105
 2391TIP3   OH2 7178   4.161   4.866   3.307
 2391TIP3    H1 7179   4.067   4.873   3.318
 2391TIP3    H2 7180   4.185   4.942   3.254
 2392TIP3   OH2 7181   6.360   4.895   4.342
 2392TIP3    H1 7182   6.363   4.990   4.348
 2392TIP3    H2 7183   6.385   4.875   4.252
 2393TIP3   OH2 7184   3.947   2.054   5.016
 2393TIP3    H1 7185   3.978   1.973   4.976
 2393TIP3    H2 7186   3.852   2.052   5.003
 2394TIP3   OH2 7187   5.459   2.133   2.693
 2394TIP3    H1 7188   5.367   2.107   2.704
 2394TIP3    H2 7189   5.458   2.196   2.621
 2395TIP3   OH2 7190   0.490   0.023   3.247
 2395TIP3    H1 7191   0.443   0.095   3.203
 2395TIP3    H2 7192   0.568   0.065   3.284
 2396TIP3   OH2 7193   2.123   4.373   4.795
 2396TIP3    H1 7194   2.131   4.419   4.878
 2396TIP3    H2 7195   2.107   4.282   4.819
 2397TIP3   OH2 7196   1.307   3.065   0.961
 2397TIP3    H1 7197   1.391   3.111   0.969
 2397TIP3    H2 7198   1.262   3.108   0.889
 2398TIP3   OH2 7199   4.706   2.471   4.344
 2398TIP3    H1 7200   4.640   2.425   4.291
 2398TIP3    H2 7201   4.668   2.476   4.431
 2399TIP3   OH2 7202   4.934   0.448   4.857
 2399TIP3    H1 7203   4.974   0.367   4.826
 2399TIP3    H2 7204   4.891   0.485   4.779
 2400TIP3   OH2 7205   6.312   2.528   2.745
 2400TIP3    H1 7206   6.389   2.476   2.768
 2400TIP3    H2 7207   6.328   2.614   2.782
 2401TIP3   OH2 7208   5.747   1.046   1.071
 2401TIP3    H1 7209   5.817   1.060   1.007
 2401TIP3    H2 7210   5.781   0.981   1.131
 2402TIP3   OH2 7211   0.943   0.780   3.241
 2402TIP3    H1 7212   1.033   0.802   3.215
 2402TIP3    H2 7213   0.921   0.843   3.309
 2403TIP3   OH2 7214   3.176   5.610   4.040
 2403TIP3    H1 7215   3.139   5.661   4.112
 2403TIP3    H2 7216   3.213   5.675   3.981
 2404TIP3   OH2 7217   6.349   1.950   0.813
 2404TIP3    H1 7218   6.368   1.988   0.899
 2404TIP3    H2 7219   6.254   1.961   0.802
 2405TIP3   OH2 7220   4.026   2.639   0.775
 2405TIP3    H1 7221   4.038   2.567   0.837
 2405TIP3    H2 7222   4.104   2.638   0.721
 2406TIP3   OH2 7223   1.988   4.051   5.113
 2406TIP3    H1 7224   1.934   4.130   5.112
 2406TIP3    H2 7225   1.990   4.025   5.206
 2407TIP3   OH2 7226   4.354   4.140   4.469
 2407TIP3    H1 7227   4.404   4.148   4.387
 2407TIP3    H2 7228   4.274   4.189   4.453
 2408TIP3   OH2 7229   3.564   1.099   2.053
 2408TIP3    H1 7230   3.509   1.151   2.112
 2408TIP3    H2 7231   3.544   1.008   2.075
 2409TIP3   OH2 7232   0.421   5.465   4.739
 2409TIP3    H1 7233   0.488   5.518   4.697
 2409TIP3    H2 7234   0.370   5.428   4.667
 2410TIP3   OH2 7235   6.077   1.574   0.426
 2410TIP3    H1 7236   6.038   1.606   0.344
 2410TIP3    H2 7237   6.134   1.502   0.399
 2411TIP3   OH2 7238   5.019   2.768   2.478
 2411TIP3    H1 7239   5.078   2.707   2.434
 2411TIP3    H2 7240   5.076   2.834   2.517
 2412TIP3   OH2 7241   0.593   4.108   1.613
 2412TIP3    H1 7242   0.560   4.193   1.642
 2412TIP3    H2 7243   0.679   4.127   1.577
 2413TIP3   OH2 7244   1.594   3.947   4.346
 2413TIP3    H1 7245   1.622   3.929   4.435
 2413TIP3    H2 7246   1.618   4.039   4.331
 2414TIP3   OH2 7247   5.537   5.079   1.678
 2414TIP3    H1 7248   5.465   5.018   1.664
 2414TIP3    H2 7249   5.616   5.025   1.671
 2415TIP3   OH2 7250   2.229   2.858   1.277
 2415TIP3    H1 7251   2.251   2.880   1.187
 2415TIP3    H2 7252   2.134   2.868   1.282
 2416TIP3   OH2 7253   0.509   0.576   0.195
 2416TIP3    H1 7254   0.453   0.518   0.247
 2416TIP3    H2 7255   0.583   0.521   0.170
 2417TIP3   OH2 7256   2.327   3.396   4.601
 2417TIP3    H1 7257   2.292   3.358   4.681
 2417TIP3    H2 7258   2.251   3.435   4.558
 2418TIP3   OH2 7259   6.334   3.926   1.139
 2418TIP3    H1 7260   6.339   3.966   1.052
 2418TIP3    H2 7261   6.411   3.959   1.185
 2419TIP3   OH2 7262   5.667   1.614   1.618
 2419TIP3    H1 7263   5.661   1.527   1.580
 2419TIP3    H2 7264   5.693   1.599   1.709
 2420TIP3   OH2 7265   5.658   3.401   0.104
 2420TIP3    H1 7266   5.733   3.377   0.050
 2420TIP3    H2 7267   5.595   3.330   0.089
 2421TIP3   OH2 7268   3.253   0.106   0.292
 2421TIP3    H1 7269   3.348   0.096   0.301
 2421TIP3    H2 7270   3.220   0.098   0.382
 2422TIP3   OH2 7271   4.425   0.703   2.366
 2422TIP3    H1 7272   4.412   0.645   2.440
 2422TIP3    H2 7273   4.338   0.709   2.325
 2423TIP3   OH2 7274   0.731   3.579   2.672
 2423TIP3    H1 7275   0.667   3.568   2.742
 2423TIP3    H2 7276   0.746   3.490   2.639
 2424TIP3   OH2 7277   3.514   2.537   0.706
 2424TIP3    H1 7278   3.443   2.582   0.661
 2424TIP3    H2 7279   3.471   2.467   0.755
 2425TIP3   OH2 7280   3.539   0.419   2.599
 2425TIP3    H1 7281   3.510   0.341   2.646
 2425TIP3    H2 7282   3.633   0.423   2.615
 2426TIP3   OH2 7283   2.512   3.654   3.751
 2426TIP3    H1 7284   2.502   3.572   3.703
 2426TIP3    H2 7285   2.587   3.640   3.808
 2427TIP3   OH2 7286   5.784   4.924   1.679
 2427TIP3    H1 7287   5.837   4.863   1.629
 2427TIP3    H2 7288   5.782   4.889   1.768
 2428TIP3   OH2 7289   5.264   3.718   0.904
 2428TIP3    H1 7290   5.259   3.795   0.962
 2428TIP3    H2 7291   5.354   3.686   0.915
 2429TIP3   OH2 7292   4.473   3.818   3.816
 2429TIP3    H1 7293   4.546   3.867   3.778
 2429TIP3    H2 7294   4.431   3.881   3.876
 2430TIP3   OH2 7295   0.500   5.935   0.058
 2430TIP3    H1 7296   0.501   6.028   0.037
 2430TIP3    H2 7297   0.524   5.931   0.151
 2431TIP3   OH2 7298   1.213   3.127   3.569
 2431TIP3    H1 7299   1.163   3.185   3.510
 2431TIP3    H2 7300   1.220   3.178   3.650
 2432TIP3   OH2 7301   2.253   2.084   4.148
 2432TIP3    H1 7302   2.344   2.112   4.153
 2432TIP3    H2 7303   2.228   2.097   4.056
 2433TIP3   OH2 7304   1.073   5.497   1.877
 2433TIP3    H1 7305   1.017   5.524   1.950
 2433TIP3    H2 7306   1.063   5.402   1.874
 2434TIP3   OH2 7307   3.177   1.375   4.014
 2434TIP3    H1 7308   3.136   1.310   4.071
 2434TIP3    H2 7309   3.199   1.328   3.934
 2435TIP3   OH2 7310   2.127   1.380   2.207
 2435TIP3    H1 7311   2.045   1.403   2.249
 2435TIP3    H2 7312   2.107   1.382   2.113
 2436TIP3   OH2 7313   5.883   1.491   4.298
 2436TIP3    H1 7314   5.877   1.585   4.278
 2436TIP3    H2 7315   5.869   1.486   4.392
 2437TIP3   OH2 7316   4.979   0.273   4.283
 2437TIP3    H1 7317   5.064   0.308   4.310
 2437TIP3    H2 7318   4.983   0.180   4.305
 2438TIP3   OH2 7319   5.536   2.202   0.549
 2438TIP3    H1 7320   5.550   2.262   0.476
 2438TIP3    H2 7321   5.624   2.169   0.570
 2439TIP3   OH2 7322   4.167   3.673   4.296
 2439TIP3    H1 7323   4.117   3.659   4.216
 2439TIP3    H2 7324   4.151   3.765   4.319
 2440TIP3   OH2 7325   1.643   5.840   4.447
 2440TIP3    H1 7326   1.645   5.759   4.498
 2440TIP3    H2 7327   1.584   5.897   4.494
 2441TIP3   OH2 7328   1.084   4.576   2.705
 2441TIP3    H1 7329   1.064   4.530   2.623
 2441TIP3    H2 7330   1.003   4.571   2.756
 2442TIP3   OH2 7331   1.809   2.984   2.399
 2442TIP3    H1 7332   1.861   3.036   2.339
 2442TIP3    H2 7333   1.811   3.032   2.482
 2443TIP3   OH2 7334   0.061   2.724   2.493
 2443TIP3    H1 7335   0.135   2.743   2.551
 2443TIP3    H2 7336   0.084   2.641   2.451
 2444TIP3   OH2 7337   4.466   2.925   2.590
 2444TIP3    H1 7338   4.419   2.940   2.672
 2444TIP3    H2 7339   4.530   2.996   2.585
 2445TIP3   OH2 7340   0.994   1.447   1.334
 2445TIP3    H1 7341   0.968   1.356   1.353
 2445TIP3    H2 7342   1.024   1.482   1.418
 2446TIP3   OH2 7343   1.976   1.452   4.117
 2446TIP3    H1 7344   2.004   1.387   4.052
 2446TIP3    H2 7345   2.028   1.433   4.195
 2447TIP3   OH2 7346   4.132   5.545   4.740
 2447TIP3    H1 7347   4.185   5.489   4.797
 2447TIP3    H2 7348   4.136   5.504   4.654
 2448TIP3   OH2 7349   2.548   4.659   1.562
 2448TIP3    H1 7350   2.477   4.699   1.513
 2448TIP3    H2 7351   2.611   4.730   1.575
 2449TIP3   OH2 7352   0.523   4.035   0.859
 2449TIP3    H1 7353   0.539   3.965   0.923
 2449TIP3    H2 7354   0.467   3.995   0.794
 2450TIP3   OH2 7355   4.853   6.025   4.068
 2450TIP3    H1 7356   4.879   5.934   4.057
 2450TIP3    H2 7357   4.778   6.022   4.127
 2451TIP3   OH2 7358   5.691   3.098   0.448
 2451TIP3    H1 7359   5.632   3.068   0.378
 2451TIP3    H2 7360   5.660   3.053   0.526
 2452TIP3   OH2 7361   3.455   0.099   4.246
 2452TIP3    H1 7362   3.547   0.078   4.263
 2452TIP3    H2 7363   3.425   0.029   4.187
 2453TIP3   OH2 7364   2.558   5.551   4.000
 2453TIP3    H1 7365   2.486   5.490   4.013
 2453TIP3    H2 7366   2.633   5.496   3.979
 2454TIP3   OH2 7367   0.372   3.556   3.611
 2454TIP3    H1 7368   0.295   3.509   3.579
 2454TIP3    H2 7369   0.353   3.574   3.703
 2455TIP3   OH2 7370   1.554   3.047   2.945
 2455TIP3    H1 7371   1.601   3.114   2.895
 2455TIP3    H2 7372   1.623   3.004   2.996
 2456TIP3   OH2 7373   2.445   0.068   1.061
 2456TIP3    H1 7374   2.358   0.069   1.101
 2456TIP3    H2 7375   2.492   0.140   1.104
 2457TIP3   OH2 7376   0.155   5.112   2.926
 2457TIP3    H1 7377   0.211   5.069   2.990
 2457TIP3    H2 7378   0.202   5.106   2.843
 2458TIP3   OH2 7379   2.934   0.034   4.063
 2458TIP3    H1 7380   2.976   0.097   4.121
 2458TIP3    H2 7381   2.958  -0.051   4.099
 2459TIP3   OH2 7382   2.426   2.070   0.741
 2459TIP3    H1 7383   2.393   2.148   0.696
 2459TIP3    H2 7384   2.486   2.029   0.678
 2460TIP3   OH2 7385   5.034   3.347   0.678
 2460TIP3    H1 7386   4.995   3.276   0.626
 2460TIP3    H2 7387   5.063   3.305   0.759
 2461TIP3   OH2 7388   2.915   5.817   3.960
 2461TIP3    H1 7389   2.971   5.894   3.968
 2461TIP3    H2 7390   2.921   5.774   4.045
 2462TIP3   OH2 7391   1.372   2.743   3.627
 2462TIP3    H1 7392   1.380   2.794   3.708
 2462TIP3    H2 7393   1.317   2.797   3.570
 2463TIP3   OH2 7394   5.994   5.696   3.939
 2463TIP3    H1 7395   6.083   5.716   3.910
 2463TIP3    H2 7396   5.942   5.694   3.859
 2464TIP3   OH2 7397   2.153   1.900   0.805
 2464TIP3    H1 7398   2.215   1.971   0.791
 2464TIP3    H2 7399   2.067   1.941   0.797
 2465TIP3   OH2 7400   3.942   5.654   0.562
 2465TIP3    H1 7401   3.948   5.748   0.575
 2465TIP3    H2 7402   4.015   5.617   0.612
 2466TIP3   OH2 7403   2.593   5.233   4.677
 2466TIP3    H1 7404   2.660   5.301   4.673
 2466TIP3    H2 7405   2.519   5.269   4.629
 2467TIP3   OH2 7406   0.674   4.595   5.098
 2467TIP3    H1 7407   0.591   4.635   5.124
 2467TIP3    H2 7408   0.709   4.655   5.032
 2468TIP3   OH2 7409   0.466   2.821   4.291
 2468TIP3    H1 7410   0.531   2.762   4.327
 2468TIP3    H2 7411   0.437   2.779   4.210
 2469TIP3   OH2 7412   3.642   3.071   2.497
 2469TIP3    H1 7413   3.649   3.038   2.407
 2469TIP3    H2 7414   3.709   3.139   2.502
 2470TIP3   OH2 7415   1.703   3.490   0.390
 2470TIP3    H1 7416   1.696   3.577   0.349
 2470TIP3    H2 7417   1.754   3.505   0.469
 2471TIP3   OH2 7418   2.613   1.484   4.618
 2471TIP3    H1 7419   2.592   1.394   4.646
 2471TIP3    H2 7420   2.632   1.476   4.525
 2472TIP3   OH2 7421   4.177   1.309   3.674
 2472TIP3    H1 7422   4.189   1.317   3.579
 2472TIP3    H2 7423   4.210   1.392   3.709
 2473TIP3   OH2 7424   3.045   3.689   0.929
 2473TIP3    H1 7425   3.138   3.670   0.921
 2473TIP3    H2 7426   3.002   3.604   0.920
 2474TIP3   OH2 7427   3.584   2.225   4.790
 2474TIP3    H1 7428   3.533   2.196   4.715
 2474TIP3    H2 7429   3.672   2.238   4.756
 2475TIP3   OH2 7430   0.250   3.528   2.515
 2475TIP3    H1 7431   0.278   3.617   2.491
 2475TIP3    H2 7432   0.205   3.496   2.437
 2476TIP3   OH2 7433   2.305   5.663   3.482
 2476TIP3    H1 7434   2.394   5.677   3.450
 2476TIP3    H2 7435   2.287   5.740   3.537
 2477TIP3   OH2 7436   4.174   2.640   3.849
 2477TIP3    H1 7437   4.203   2.632   3.940
 2477TIP3    H2 7438   4.101   2.703   3.852
 2478TIP3   OH2 7439   2.445   1.449   2.650
 2478TIP3    H1 7440   2.499   1.371   2.640
 2478TIP3    H2 7441   2.368   1.418   2.698
 2479TIP3   OH2 7442   3.156   5.961   3.263
 2479TIP3    H1 7443   3.105   5.964   3.344
 2479TIP3    H2 7444   3.152   6.051   3.229
 2480TIP3   OH2 7445   6.309   2.345   3.067
 2480TIP3    H1 7446   6.404   2.347   3.054
 2480TIP3    H2 7447   6.287   2.432   3.101
 2481TIP3   OH2 7448   6.259   1.449   0.860
 2481TIP3    H1 7449   6.281   1.533   0.900
 2481TIP3    H2 7450   6.164   1.448   0.856
 2482TIP3   OH2 7451   4.319   2.111   2.249
 2482TIP3    H1 7452   4.230   2.146   2.252
 2482TIP3    H2 7453   4.330   2.080   2.160
 2483TIP3   OH2 7454   6.366   4.249   4.608
 2483TIP3    H1 7455   6.370   4.315   4.677
 2483TIP3    H2 7456   6.294   4.192   4.634
 2484TIP3   OH2 7457   0.829   3.557   4.470
 2484TIP3    H1 7458   0.825   3.610   4.390
 2484TIP3    H2 7459   0.923   3.553   4.491
 2485TIP3   OH2 7460   1.569   1.959   2.374
 2485TIP3    H1 7461   1.543   1.960   2.467
 2485TIP3    H2 7462   1.565   1.867   2.349
 2486TIP3   OH2 7463   3.092   2.025   1.872
 2486TIP3    H1 7464   3.070   1.962   1.941
 2486TIP3    H2 7465   3.140   1.973   1.808
 2487TIP3   OH2 7466   2.685   4.992   3.304
 2487TIP3    H1 7467   2.654   4.924   3.244
 2487TIP3    H2 7468   2.767   4.957   3.339
 2488TIP3   OH2 7469   3.955   5.113   3.005
 2488TIP3    H1 7470   3.971   5.204   2.978
 2488TIP3    H2 7471   4.024   5.095   3.069
 2489TIP3   OH2 7472   4.484   2.281   3.184
 2489TIP3    H1 7473   4.544   2.312   3.116
 2489TIP3    H2 7474   4.532   2.294   3.266
 2490TIP3   OH2 7475   0.170   2.218   4.943
 2490TIP3    H1 7476   0.218   2.232   5.025
 2490TIP3    H2 7477   0.084   2.186   4.971
 2491TIP3   OH2 7478   2.022   2.915   4.140
 2491TIP3    H1 7479   1.954   2.848   4.139
 2491TIP3    H2 7480   2.060   2.909   4.228
 2492TIP3   OH2 7481   4.797   1.537   2.380
 2492TIP3    H1 7482   4.754   1.562   2.298
 2492TIP3    H2 7483   4.871   1.597   2.387
 2493TIP3   OH2 7484   3.012   2.801   4.498
 2493TIP3    H1 7485   2.973   2.792   4.585
 2493TIP3    H2 7486   2.938   2.808   4.438
 2494TIP3   OH2 7487   1.151   4.684   2.150
 2494TIP3    H1 7488   1.128   4.730   2.230
 2494TIP3    H2 7489   1.135   4.748   2.080
 2495TIP3   OH2 7490   0.713   2.305   4.158
 2495TIP3    H1 7491   0.664   2.358   4.095
 2495TIP3    H2 7492   0.691   2.342   4.243
 2496TIP3   OH2 7493   5.318   2.043   0.157
 2496TIP3    H1 7494   5.270   2.120   0.127
 2496TIP3    H2 7495   5.308   1.980   0.085
 2497TIP3   OH2 7496   2.300   3.028   4.787
 2497TIP3    H1 7497   2.207   3.009   4.771
 2497TIP3    H2 7498   2.303   3.122   4.799
 2498TIP3   OH2 7499   1.968   1.702   2.390
 2498TIP3    H1 7500   1.950   1.795   2.406
 2498TIP3    H2 7501   1.972   1.694   2.295
 2499TIP3   OH2 7502   1.902   1.700   4.276
 2499TIP3    H1 7503   1.889   1.625   4.218
 2499TIP3    H2 7504   1.931   1.771   4.219
 2500TIP3   OH2 7505   1.736   4.309   3.563
 2500TIP3    H1 7506   1.694   4.271   3.640
 2500TIP3    H2 7507   1.672   4.371   3.529
 2501TIP3   OH2 7508   0.598   4.241   1.034
 2501TIP3    H1 7509   0.571   4.307   0.971
 2501TIP3    H2 7510   0.575   4.157   0.993
 2502TIP3   OH2 7511   2.103   3.618   5.152
 2502TIP3    H1 7512   2.072   3.543   5.203
 2502TIP3    H2 7513   2.176   3.583   5.100
 2503TIP3   OH2 7514   3.037   3.765   2.051
 2503TIP3    H1 7515   3.050   3.839   1.991
 2503TIP3    H2 7516   2.947   3.736   2.034
 2504TIP3   OH2 7517   6.285   1.603   2.075
 2504TIP3    H1 7518   6.268   1.519   2.032
 2504TIP3    H2 7519   6.216   1.660   2.042
 2505TIP3   OH2 7520   0.860   0.045   0.151
 2505TIP3    H1 7521   0.848   0.074   0.060
 2505TIP3    H2 7522   0.783   0.078   0.198
 2506TIP3   OH2 7523   1.049   3.275   3.417
 2506TIP3    H1 7524   0.980   3.331   3.452
 2506TIP3    H2 7525   1.034   3.273   3.323
 2507TIP3   OH2 7526   2.568   0.161   3.242
 2507TIP3    H1 7527   2.563   0.225   3.171
 2507TIP3    H2 7528   2.517   0.201   3.313
 2508TIP3   OH2 7529   4.969   3.870   2.147
 2508TIP3    H1 7530   4.932   3.914   2.070
 2508TIP3    H2 7531   5.063   3.885   2.140
 2509TIP3   OH2 7532   0.834   5.552   4.917
 2509TIP3    H1 7533   0.780   5.547   4.996
 2509TIP3    H2 7534   0.772   5.573   4.847
 2510TIP3   OH2 7535   3.410   4.919   0.924
 2510TIP3    H1 7536   3.351   4.981   0.968
 2510TIP3    H2 7537   3.433   4.963   0.842
 2511TIP3   OH2 7538   4.509   5.396   1.707
 2511TIP3    H1 7539   4.506   5.451   1.629
 2511TIP3    H2 7540   4.501   5.307   1.673
 2512TIP3   OH2 7541   2.838   4.842   3.664
 2512TIP3    H1 7542   2.924   4.812   3.692
 2512TIP3    H2 7543   2.811   4.779   3.597
 2513TIP3   OH2 7544   2.011   2.435   1.611
 2513TIP3    H1 7545   1.991   2.455   1.703
 2513TIP3    H2 7546   2.103   2.456   1.601
 2514TIP3   OH2 7547   2.325   1.451   1.521
 2514TIP3    H1 7548   2.233   1.432   1.539
 2514TIP3    H2 7549   2.350   1.387   1.455
 2515TIP3   OH2 7550   2.716   5.575   0.978
 2515TIP3    H1 7551   2.644   5.622   1.021
 2515TIP3    H2 7552   2.779   5.643   0.955
 2516TIP3   OH2 7553   5.971   4.696   2.643
 2516TIP3    H1 7554   5.998   4.764   2.704
 2516TIP3    H2 7555   5.889   4.727   2.606
 2517TIP3   OH2 7556   0.107   3.121   1.872
 2517TIP3    H1 7557   0.146   3.060   1.935
 2517TIP3    H2 7558   0.175   3.185   1.856
 2518TIP3   OH2 7559   1.761   1.842   1.276
 2518TIP3    H1 7560   1.693   1.908   1.260
 2518TIP3    H2 7561   1.734   1.767   1.222
 2519TIP3   OH2 7562   4.684   1.631   3.684
 2519TIP3    H1 7563   4.751   1.617   3.617
 2519TIP3    H2 7564   4.634   1.707   3.654
 2520TIP3   OH2 7565   3.475   2.147   2.872
 2520TIP3    H1 7566   3.493   2.085   2.801
 2520TIP3    H2 7567   3.439   2.224   2.828
 2521TIP3   OH2 7568   3.919   2.057   3.203
 2521TIP3    H1 7569   3.980   2.100   3.263
 2521TIP3    H2 7570   3.970   2.039   3.125
 2522TIP3   OH2 7571   2.667   1.225   0.740
 2522TIP3    H1 7572   2.612   1.186   0.808
 2522TIP3    H2 7573   2.609   1.231   0.664
 2523TIP3   OH2 7574   1.389   0.368   4.931
 2523TIP3    H1 7575   1.372   0.346   5.023
 2523TIP3    H2 7576   1.348   0.297   4.881
 2524TIP3   OH2 7577   5.747   1.441   4.035
 2524TIP3    H1 7578   5.664   1.452   3.988
 2524TIP3    H2 7579   5.723   1.436   4.127
 2525TIP3   OH2 7580   2.264   5.865   2.379
 2525TIP3    H1 7581   2.262   5.840   2.472
 2525TIP3    H2 7582   2.315   5.796   2.337
 2526TIP3   OH2 7583   6.243   4.978   2.918
 2526TIP3    H1 7584   6.302   4.902   2.917
 2526TIP3    H2 7585   6.299   5.052   2.939
 2527TIP3   OH2 7586   0.217   4.120   1.521
 2527TIP3    H1 7587   0.227   4.035   1.564
 2527TIP3    H2 7588   0.280   4.117   1.448
 2528TIP3   OH2 7589   5.646   0.312   2.766
 2528TIP3    H1 7590   5.728   0.331   2.720
 2528TIP3    H2 7591   5.617   0.397   2.799
 2529TIP3   OH2 7592   4.403   2.875   3.895
 2529TIP3    H1 7593   4.403   2.780   3.880
 2529TIP3    H2 7594   4.362   2.886   3.980
 2530TIP3   OH2 7595   2.398   2.075   2.786
 2530TIP3    H1 7596   2.379   1.986   2.756
 2530TIP3    H2 7597   2.440   2.117   2.711
 2531TIP3   OH2 7598   0.256   0.398   2.939
 2531TIP3    H1 7599   0.346   0.366   2.929
 2531TIP3    H2 7600   0.205   0.348   2.875
 2532TIP3   OH2 7601   0.645   5.747   2.188
 2532TIP3    H1 7602   0.671   5.807   2.118
 2532TIP3    H2 7603   0.697   5.668   2.173
 2533TIP3   OH2 7604   5.866   5.257   0.388
 2533TIP3    H1 7605   5.793   5.260   0.450
 2533TIP3    H2 7606   5.871   5.166   0.360
 2534TIP3   OH2 7607   4.565   4.647   4.815
 2534TIP3    H1 7608   4.588   4.729   4.772
 2534TIP3    H2 7609   4.638   4.588   4.796
 2535TIP3   OH2 7610   0.678   3.855   0.073
 2535TIP3    H1 7611   0.612   3.898   0.019
 2535TIP3    H2 7612   0.679   3.906   0.154
 2536TIP3   OH2 7613   5.621   5.962   0.911
 2536TIP3    H1 7614   5.614   5.897   0.841
 2536TIP3    H2 7615   5.712   5.991   0.907
 2537TIP3   OH2 7616   0.608   3.030   0.420
 2537TIP3    H1 7617   0.557   2.956   0.389
 2537TIP3    H2 7618   0.546   3.080   0.474
 2538TIP3   OH2 7619   5.354   4.609   0.129
 2538TIP3    H1 7620   5.337   4.600   0.035
 2538TIP3    H2 7621   5.448   4.597   0.138
 2539TIP3   OH2 7622   1.958   4.662   0.133
 2539TIP3    H1 7623   1.903   4.636   0.206
 2539TIP3    H2 7624   1.989   4.749   0.155
 2540TIP3   OH2 7625   3.847   1.523   4.820
 2540TIP3    H1 7626   3.763   1.479   4.836
 2540TIP3    H2 7627   3.865   1.569   4.902
 2541TIP3   OH2 7628   0.795   5.856   2.480
 2541TIP3    H1 7629   0.720   5.883   2.428
 2541TIP3    H2 7630   0.758   5.806   2.552
 2542TIP3   OH2 7631   1.167   4.465   4.418
 2542TIP3    H1 7632   1.075   4.442   4.429
 2542TIP3    H2 7633   1.210   4.381   4.401
 2543TIP3   OH2 7634   5.357   1.114   1.294
 2543TIP3    H1 7635   5.408   1.061   1.356
 2543TIP3    H2 7636   5.366   1.067   1.210
 2544TIP3   OH2 7637   4.743   2.403   4.983
 2544TIP3    H1 7638   4.677   2.390   4.915
 2544TIP3    H2 7639   4.693   2.428   5.060
 2545TIP3   OH2 7640   5.991   4.257   0.850
 2545TIP3    H1 7641   5.906   4.223   0.821
 2545TIP3    H2 7642   6.022   4.195   0.915
 2546TIP3   OH2 7643   3.967   2.787   4.867
 2546TIP3    H1 7644   3.907   2.715   4.853
 2546TIP3    H2 7645   3.916   2.853   4.914
 2547TIP3   OH2 7646   0.956   3.270   0.999
 2547TIP3    H1 7647   0.992   3.241   0.915
 2547TIP3    H2 7648   0.995   3.357   1.013
 2548TIP3   OH2 7649   1.629   0.283   2.305
 2548TIP3    H1 7650   1.632   0.356   2.244
 2548TIP3    H2 7651   1.685   0.310   2.377
 2549TIP3   OH2 7652   5.581   5.349   2.657
 2549TIP3    H1 7653   5.599   5.332   2.749
 2549TIP3    H2 7654   5.608   5.269   2.612
 2550TIP3   OH2 7655   2.203   0.157   1.540
 2550TIP3    H1 7656   2.154   0.191   1.465
 2550TIP3    H2 7657   2.254   0.232   1.572
 2551TIP3   OH2 7658   2.081   2.357   3.848
 2551TIP3    H1 7659   1.988   2.378   3.839
 2551TIP3    H2 7660   2.107   2.399   3.931
 2552TIP3   OH2 7661   1.652   5.619   3.867
 2552TIP3    H1 7662   1.568   5.651   3.835
 2552TIP3    H2 7663   1.637   5.599   3.960
 2553TIP3   OH2 7664   1.804   0.019   3.050
 2553TIP3    H1 7665   1.765   0.090   2.999
 2553TIP3    H2 7666   1.761   0.024   3.135
 2554TIP3   OH2 7667   5.632   0.443   4.142
 2554TIP3    H1 7668   5.569   0.434   4.070
 2554TIP3    H2 7669   5.641   0.538   4.153
 2555TIP3   OH2 7670   3.257   4.940   3.000
 2555TIP3    H1 7671   3.231   4.948   2.908
 2555TIP3    H2 7672   3.205   5.008   3.044
 2556TIP3   OH2 7673   1.267   5.782   2.585
 2556TIP3    H1 7674   1.178   5.816   2.580
 2556TIP3    H2 7675   1.294   5.770   2.494
 2557TIP3   OH2 7676   3.947   4.660   5.051
 2557TIP3    H1 7677   3.988   4.582   5.089
 2557TIP3    H2 7678   4.008   4.688   4.983
 2558TIP3   OH2 7679   3.024   3.291   3.987
 2558TIP3    H1 7680   3.101   3.248   4.025
 2558TIP3    H2 7681   3.023   3.260   3.896
 2559TIP3   OH2 7682   1.451   3.850   0.630
 2559TIP3    H1 7683   1.361   3.870   0.606
 2559TIP3    H2 7684   1.443   3.783   0.699
 2560TIP3   OH2 7685   2.127   0.297   1.903
 2560TIP3    H1 7686   2.151   0.331   1.816
 2560TIP3    H2 7687   2.063   0.361   1.936
 2561TIP3   OH2 7688   4.466   2.017   3.116
 2561TIP3    H1 7689   4.461   2.105   3.154
 2561TIP3    H2 7690   4.534   2.024   3.049
 2562TIP3   OH2 7691   5.188   0.679   4.472
 2562TIP3    H1 7692   5.131   0.746   4.510
 2562TIP3    H2 7693   5.256   0.728   4.425
 2563TIP3   OH2 7694   2.725   1.869   0.839
 2563TIP3    H1 7695   2.744   1.777   0.855
 2563TIP3    H2 7696   2.762   1.915   0.914
 2564TIP3   OH2 7697   5.341   2.610   3.706
 2564TIP3    H1 7698   5.404   2.547   3.742
 2564TIP3    H2 7699   5.260   2.593   3.755
 2565TIP3   OH2 7700   6.101   0.789   3.185
 2565TIP3    H1 7701   6.044   0.785   3.109
 2565TIP3    H2 7702   6.044   0.815   3.258
 2566TIP3   OH2 7703   0.850   4.124   2.808
 2566TIP3    H1 7704   0.912   4.193   2.783
 2566TIP3    H2 7705   0.904   4.060   2.855
 2567TIP3   OH2 7706   3.277   5.751   3.841
 2567TIP3    H1 7707   3.258   5.845   3.850
 2567TIP3    H2 7708   3.365   5.749   3.801
 2568TIP3   OH2 7709   2.984   4.730   2.778
 2568TIP3    H1 7710   2.911   4.783   2.810
 2568TIP3    H2 7711   2.942   4.661   2.726
 2569TIP3   OH2 7712   0.350   0.772   2.392
 2569TIP3    H1 7713   0.279   0.834   2.373
 2569TIP3    H2 7714   0.336   0.748   2.484
 2570TIP3   OH2 7715   1.240   0.253   3.607
 2570TIP3    H1 7716   1.206   0.327   3.557
 2570TIP3    H2 7717   1.332   0.274   3.621
 2571TIP3   OH2 7718   6.081   4.452   0.503
 2571TIP3    H1 7719   6.079   4.369   0.549
 2571TIP3    H2 7720   6.044   4.433   0.417
 2572TIP3   OH2 7721   2.574   2.170   1.987
 2572TIP3    H1 7722   2.502   2.227   1.962
 2572TIP3    H2 7723   2.535   2.083   1.993
 2573TIP3   OH2 7724   6.213   3.810   4.512
 2573TIP3    H1 7725   6.279   3.860   4.560
 2573TIP3    H2 7726   6.173   3.874   4.453
 2574TIP3   OH2 7727   0.884   1.193   0.448
 2574TIP3    H1 7728   0.871   1.153   0.534
 2574TIP3    H2 7729   0.947   1.135   0.405
 2575TIP3   OH2 7730   4.136   5.218   3.988
 2575TIP3    H1 7731   4.125   5.305   4.025
 2575TIP3    H2 7732   4.202   5.229   3.920
 2576TIP3   OH2 7733   3.856   1.482   1.564
 2576TIP3    H1 7734   3.789   1.437   1.615
 2576TIP3    H2 7735   3.885   1.416   1.500
 2577TIP3   OH2 7736   4.109   1.188   4.964
 2577TIP3    H1 7737   4.171   1.259   4.946
 2577TIP3    H2 7738   4.161   1.120   5.006
 2578TIP3   OH2 7739   1.950   5.500   2.987
 2578TIP3    H1 7740   1.905   5.533   2.910
 2578TIP3    H2 7741   1.927   5.562   3.057
 2579TIP3   OH2 7742   3.366   0.536   1.680
 2579TIP3    H1 7743   3.403   0.548   1.768
 2579TIP3    H2 7744   3.426   0.474   1.638
 2580TIP3   OH2 7745   6.287   5.812   4.773
 2580TIP3    H1 7746   6.243   5.865   4.707
 2580TIP3    H2 7747   6.379   5.815   4.749
 2581TIP3   OH2 7748   2.726   2.112   1.039
 2581TIP3    H1 7749   2.669   2.120   1.115
 2581TIP3    H2 7750   2.814   2.128   1.073
 2582TIP3   OH2 7751   5.508   2.677   2.039
 2582TIP3    H1 7752   5.589   2.660   2.086
 2582TIP3    H2 7753   5.452   2.602   2.058
 2583TIP3   OH2 7754   4.423   1.210   3.446
 2583TIP3    H1 7755   4.486   1.165   3.503
 2583TIP3    H2 7756   4.430   1.302   3.472
 2584TIP3   OH2 7757   5.199   0.434   2.641
 2584TIP3    H1 7758   5.117   0.449   2.688
 2584TIP3    H2 7759   5.199   0.340   2.622
 2585TIP3   OH2 7760   6.166   1.953   3.385
 2585TIP3    H1 7761   6.182   2.022   3.320
 2585TIP3    H2 7762   6.223   1.881   3.356
 2586TIP3   OH2 7763   3.366   0.513   3.038
 2586TIP3    H1 7764   3.381   0.550   2.951
 2586TIP3    H2 7765   3.281   0.549   3.065
 2587TIP3   OH2 7766   0.600   1.539   4.288
 2587TIP3    H1 7767   0.533   1.529   4.356
 2587TIP3    H2 7768   0.573   1.616   4.239
 2588TIP3   OH2 7769   0.239   0.134   0.338
 2588TIP3    H1 7770   0.277   0.078   0.405
 2588TIP3    H2 7771   0.239   0.081   0.259
 2589TIP3   OH2 7772   5.332   1.260   4.659
 2589TIP3    H1 7773   5.287   1.195   4.712
 2589TIP3    H2 7774   5.394   1.209   4.606
 2590TIP3   OH2 7775   1.986   5.583   4.111
 2590TIP3    H1 7776   2.065   5.579   4.166
 2590TIP3    H2 7777   1.917   5.611   4.170
 2591TIP3   OH2 7778   0.076   4.284   2.813
 2591TIP3    H1 7779   0.046   4.258   2.900
 2591TIP3    H2 7780   0.141   4.219   2.789
 2592TIP3   OH2 7781   4.183   5.316   2.490
 2592TIP3    H1 7782   4.214   5.406   2.488
 2592TIP3    H2 7783   4.189   5.290   2.582
 2593TIP3   OH2 7784   6.363   0.131   1.472
 2593TIP3    H1 7785   6.313   0.162   1.397
 2593TIP3    H2 7786   6.312   0.158   1.549
 2594TIP3   OH2 7787   5.103   2.040   4.978
 2594TIP3    H1 7788   5.032   2.009   4.921
 2594TIP3    H2 7789   5.090   1.994   5.061
 2595TIP3   OH2 7790   5.243   1.439   1.466
 2595TIP3    H1 7791   5.189   1.403   1.536
 2595TIP3    H2 7792   5.280   1.519   1.503
 2596TIP3   OH2 7793   6.276   0.076   3.682
 2596TIP3    H1 7794   6.204   0.103   3.739
 2596TIP3    H2 7795   6.235   0.060   3.597
 2597TIP3   OH2 7796   4.563   5.308   3.499
 2597TIP3    H1 7797   4.477   5.329   3.464
 2597TIP3    H2 7798   4.601   5.392   3.525
 2598TIP3   OH2 7799   5.285   0.303   3.685
 2598TIP3    H1 7800   5.302   0.220   3.729
 2598TIP3    H2 7801   5.236   0.354   3.749
 2599TIP3   OH2 7802   3.557   3.164   4.367
 2599TIP3    H1 7803   3.541   3.223   4.294
 2599TIP3    H2 7804   3.580   3.081   4.327
 2600TIP3   OH2 7805   3.251   5.408   3.180
 2600TIP3    H1 7806   3.343   5.421   3.160
 2600TIP3    H2 7807   3.237   5.455   3.262
 2601TIP3   OH2 7808   0.057   4.954   5.007
 2601TIP3    H1 7809   0.040   4.905   4.927
 2601TIP3    H2 7810   0.150   4.977   5.003
 2602TIP3   OH2 7811   1.191   2.778   3.994
 2602TIP3    H1 7812   1.146   2.862   3.979
 2602TIP3    H2 7813   1.151   2.718   3.932
 2603TIP3   OH2 7814   0.699   5.356   4.128
 2603TIP3    H1 7815   0.627   5.390   4.074
 2603TIP3    H2 7816   0.669   5.370   4.218
 2604TIP3   OH2 7817   3.165   0.570   2.570
 2604TIP3    H1 7818   3.136   0.479   2.576
 2604TIP3    H2 7819   3.100   0.612   2.513
 2605TIP3   OH2 7820   1.976   4.080   3.746
 2605TIP3    H1 7821   2.038   4.135   3.698
 2605TIP3    H2 7822   1.924   4.142   3.797
 2606TIP3   OH2 7823   2.794   5.110   3.735
 2606TIP3    H1 7824   2.797   5.015   3.746
 2606TIP3    H2 7825   2.869   5.131   3.680
 2607TIP3   OH2 7826   3.467   1.952   0.902
 2607TIP3    H1 7827   3.485   2.046   0.896
 2607TIP3    H2 7828   3.407   1.944   0.976
 2608TIP3   OH2 7829   4.301   4.561   3.091
 2608TIP3    H1 7830   4.387   4.545   3.131
 2608TIP3    H2 7831   4.275   4.647   3.123
 2609TIP3   OH2 7832   1.913   5.667   3.537
 2609TIP3    H1 7833   1.823   5.662   3.506
 2609TIP3    H2 7834   1.952   5.738   3.487
 2610TIP3   OH2 7835   4.761   4.692   1.136
 2610TIP3    H1 7836   4.772   4.759   1.068
 2610TIP3    H2 7837   4.809   4.726   1.211
 2611TIP3   OH2 7838   2.356   1.694   2.923
 2611TIP3    H1 7839   2.407   1.749   2.983
 2611TIP3    H2 7840   2.299   1.756   2.876
 2612TIP3   OH2 7841   2.887   3.454   2.587
 2612TIP3    H1 7842   2.870   3.512   2.513
 2612TIP3    H2 7843   2.974   3.480   2.619
 2613TIP3   OH2 7844   3.779   2.356   1.168
 2613TIP3    H1 7845   3.695   2.385   1.202
 2613TIP3    H2 7846   3.844   2.413   1.209
 2614TIP3   OH2 7847   5.034   5.611   3.597
 2614TIP3    H1 7848   5.085   5.622   3.677
 2614TIP3    H2 7849   5.008   5.700   3.573
 2615TIP3   OH2 7850   2.379   5.637   2.228
 2615TIP3    H1 7851   2.457   5.585   2.250
 2615TIP3    H2 7852   2.318   5.573   2.191
 2616TIP3   OH2 7853   6.190   4.992   3.475
 2616TIP3    H1 7854   6.158   4.938   3.403
 2616TIP3    H2 7855   6.219   4.929   3.541
 2617TIP3   OH2 7856   4.253   0.387   2.011
 2617TIP3    H1 7857   4.220   0.439   1.938
 2617TIP3    H2 7858   4.189   0.400   2.081
 2618TIP3   OH2 7859   3.010   0.299   1.550
 2618TIP3    H1 7860   2.990   0.393   1.553
 2618TIP3    H2 7861   2.925   0.256   1.543
 2619TIP3   OH2 7862   3.837   0.775   1.111
 2619TIP3    H1 7863   3.862   0.813   1.196
 2619TIP3    H2 7864   3.802   0.849   1.062
 2620TIP3   OH2 7865   1.018   5.118   1.371
 2620TIP3    H1 7866   1.095   5.095   1.319
 2620TIP3    H2 7867   0.971   5.036   1.383
 2621TIP3   OH2 7868   5.710   0.771   5.115
 2621TIP3    H1 7869   5.726   0.683   5.148
 2621TIP3    H2 7870   5.634   0.802   5.164
 2622TIP3   OH2 7871   4.307   5.959   4.946
 2622TIP3    H1 7872   4.257   6.030   4.903
 2622TIP3    H2 7873   4.281   5.880   4.898
 2623TIP3   OH2 7874   2.108   1.433   3.335
 2623TIP3    H1 7875   2.049   1.387   3.394
 2623TIP3    H2 7876   2.053   1.497   3.290
 2624TIP3   OH2 7877   1.043   4.562   3.540
 2624TIP3    H1 7878   0.963   4.520   3.510
 2624TIP3    H2 7879   1.057   4.527   3.628
 2625TIP3   OH2 7880   3.328   0.715   0.987
 2625TIP3    H1 7881   3.383   0.698   1.063
 2625TIP3    H2 7882   3.383   0.693   0.912
 2626TIP3   OH2 7883   5.928   3.372   0.237
 2626TIP3    H1 7884   6.020   3.398   0.239
 2626TIP3    H2 7885   5.899   3.376   0.328
 2627TIP3   OH2 7886   0.213   1.888   1.143
 2627TIP3    H1 7887   0.173   1.824   1.085
 2627TIP3    H2 7888   0.161   1.967   1.131
 2628TIP3   OH2 7889   4.696   5.067   4.136
 2628TIP3    H1 7890   4.744   5.116   4.203
 2628TIP3    H2 7891   4.637   5.010   4.185
 2629TIP3   OH2 7892   4.398   4.466   2.823
 2629TIP3    H1 7893   4.412   4.372   2.812
 2629TIP3    H2 7894   4.378   4.477   2.915
 2630TIP3   OH2 7895   4.761   1.483   3.936
 2630TIP3    H1 7896   4.741   1.475   3.842
 2630TIP3    H2 7897   4.696   1.545   3.969
 2631TIP3   OH2 7898   6.286   2.788   5.016
 2631TIP3    H1 7899   6.346   2.757   5.085
 2631TIP3    H2 7900   6.199   2.785   5.057
 2632TIP3   OH2 7901   1.662   4.790   3.771
 2632TIP3    H1 7902   1.576   4.801   3.732
 2632TIP3    H2 7903   1.684   4.698   3.757
 2633TIP3   OH2 7904   1.865   5.974   4.918
 2633TIP3    H1 7905   1.835   5.973   5.009
 2633TIP3    H2 7906   1.825   6.052   4.880
 2634TIP3   OH2 7907   4.491   1.096   0.050
 2634TIP3    H1 7908   4.432   1.168   0.070
 2634TIP3    H2 7909   4.469   1.071  -0.040
 2635TIP3   OH2 7910   5.312   3.865   4.811
 2635TIP3    H1 7911   5.351   3.784   4.779
 2635TIP3    H2 7912   5.349   3.933   4.754
 2636TIP3   OH2 7913   0.449   2.275   2.409
 2636TIP3    H1 7914   0.508   2.317   2.471
 2636TIP3    H2 7915   0.413   2.200   2.456
 2637TIP3   OH2 7916   3.512   5.934   0.682
 2637TIP3    H1 7917   3.491   5.864   0.621
 2637TIP3    H2 7918   3.430   5.982   0.692
 2638TIP3   OH2 7919   3.380   5.527   4.311
 2638TIP3    H1 7920   3.359   5.480   4.231
 2638TIP3    H2 7921   3.470   5.501   4.331
 2639TIP3   OH2 7922   0.219   0.868   0.584
 2639TIP3    H1 7923   0.239   0.962   0.583
 2639TIP3    H2 7924   0.130   0.863   0.618
 2640TIP3   OH2 7925   3.373   2.397   2.006
 2640TIP3    H1 7926   3.357   2.489   2.030
 2640TIP3    H2 7927   3.293   2.370   1.961
 2641TIP3   OH2 7928   1.256   5.799   3.105
 2641TIP3    H1 7929   1.227   5.843   3.025
 2641TIP3    H2 7930   1.185   5.812   3.167
 2642TIP3   OH2 7931   4.110   0.582   3.759
 2642TIP3    H1 7932   4.151   0.668   3.771
 2642TIP3    H2 7933   4.016   0.600   3.768
 2643TIP3   OH2 7934   5.570   5.764   4.285
 2643TIP3    H1 7935   5.490   5.742   4.333
 2643TIP3    H2 7936   5.637   5.706   4.323
 2644TIP3   OH2 7937   2.806   2.653   0.945
 2644TIP3    H1 7938   2.821   2.657   1.039
 2644TIP3    H2 7939   2.720   2.611   0.936
 2645TIP3   OH2 7940   0.827   5.977   1.420
 2645TIP3    H1 7941   0.769   5.902   1.403
 2645TIP3    H2 7942   0.781   6.030   1.484
 2646TIP3   OH2 7943   5.362   5.355   4.792
 2646TIP3    H1 7944   5.446   5.400   4.801
 2646TIP3    H2 7945   5.301   5.422   4.764
 2647TIP3   OH2 7946   3.282   3.904   3.984
 2647TIP3    H1 7947   3.320   3.989   3.962
 2647TIP3    H2 7948   3.187   3.919   3.979
 2648TIP3   OH2 7949   1.156   1.617   2.360
 2648TIP3    H1 7950   1.099   1.540   2.363
 2648TIP3    H2 7951   1.186   1.628   2.451
 2649TIP3   OH2 7952   5.949   5.348   3.859
 2649TIP3    H1 7953   6.023   5.407   3.848
 2649TIP3    H2 7954   5.965   5.278   3.796
 2650TIP3   OH2 7955   1.641   5.943   0.071
 2650TIP3    H1 7956   1.586   6.022   0.076
 2650TIP3    H2 7957   1.580   5.870   0.078
 2651TIP3   OH2 7958   4.983   1.719   4.196
 2651TIP3    H1 7959   4.981   1.744   4.104
 2651TIP3    H2 7960   4.958   1.798   4.244
 2652TIP3   OH2 7961   2.061   1.392   1.929
 2652TIP3    H1 7962   2.100   1.458   1.872
 2652TIP3    H2 7963   2.025   1.327   1.868
 2653TIP3   OH2 7964   4.885   0.631   3.461
 2653TIP3    H1 7965   4.895   0.565   3.531
 2653TIP3    H2 7966   4.836   0.702   3.502
 2654TIP3   OH2 7967   6.033   2.113   0.392
 2654TIP3    H1 7968   6.091   2.148   0.325
 2654TIP3    H2 7969   5.945   2.117   0.353
 2655TIP3   OH2 7970   4.746   5.020   1.888
 2655TIP3    H1 7971   4.832   5.040   1.926
 2655TIP3    H2 7972   4.686   5.024   1.962
 2656TIP3   OH2 7973   4.588   5.950   3.494
 2656TIP3    H1 7974   4.650   5.960   3.422
 2656TIP3    H2 7975   4.502   5.957   3.453
 2657TIP3   OH2 7976   5.124   4.591   2.168
 2657TIP3    H1 7977   5.041   4.546   2.186
 2657TIP3    H2 7978   5.130   4.659   2.235
 2658TIP3   OH2 7979   4.031   3.338   1.924
 2658TIP3    H1 7980   3.963   3.390   1.967
 2658TIP3    H2 7981   3.987   3.259   1.894
 2659TIP3   OH2 7982   3.398   2.649   4.327
 2659TIP3    H1 7983   3.307   2.623   4.340
 2659TIP3    H2 7984   3.450   2.573   4.354
 2660TIP3   OH2 7985   5.455   3.325   2.534
 2660TIP3    H1 7986   5.505   3.374   2.469
 2660TIP3    H2 7987   5.520   3.273   2.580
 2661TIP3   OH2 7988   2.007   5.630   2.090
 2661TIP3    H1 7989   1.995   5.669   2.004
 2661TIP3    H2 7990   2.035   5.702   2.146
 2662TIP3   OH2 7991   5.150   2.580   2.339
 2662TIP3    H1 7992   5.139   2.493   2.378
 2662TIP3    H2 7993   5.182   2.562   2.250
 2663TIP3   OH2 7994   3.626   0.635   3.141
 2663TIP3    H1 7995   3.587   0.571   3.082
 2663TIP3    H2 7996   3.719   0.633   3.121
 2664TIP3   OH2 7997   0.161   0.903   5.195
 2664TIP3    H1 7998   0.094   0.932   5.133
 2664TIP3    H2 7999   0.131   0.937   5.280
 2665TIP3   OH2 8000   1.762   4.525   3.763
 2665TIP3    H1 8001   1.791   4.498   3.676
 2665TIP3    H2 8002   1.690   4.466   3.784
 2666TIP3   OH2 8003   3.823   5.032   2.163
 2666TIP3    H1 8004   3.757   4.975   2.123
 2666TIP3    H2 8005   3.898   4.974   2.178
 2667TIP3   OH2 8006   1.645   2.203   1.980
 2667TIP3    H1 8007   1.594   2.131   2.017
 2667TIP3    H2 8008   1.621   2.203   1.887
 2668TIP3   OH2 8009   0.234   3.554   0.299
 2668TIP3    H1 8010   0.197   3.478   0.255
 2668TIP3    H2 8011   0.193   3.555   0.385
 2669TIP3   OH2 8012   3.778   2.076   0.667
 2669TIP3    H1 8013   3.736   2.155   0.702
 2669TIP3    H2 8014   3.830   2.108   0.593
 2670TIP3   OH2 8015   2.060   5.082   3.776
 2670TIP3    H1 8016   2.079   5.029   3.853
 2670TIP3    H2 8017   2.033   5.019   3.709
 2671TIP3   OH2 8018   2.769   2.973   2.070
 2671TIP3    H1 8019   2.688   2.931   2.040
 2671TIP3    H2 8020   2.801   3.021   1.994
 2672TIP3   OH2 8021   0.676   0.443   1.292
 2672TIP3    H1 8022   0.605   0.380   1.283
 2672TIP3    H2 8023   0.690   0.450   1.387
 2673TIP3   OH2 8024   4.361   1.999   2.007
 2673TIP3    H1 8025   4.330   1.922   1.959
 2673TIP3    H2 8026   4.452   2.010   1.978
 2674TIP3   OH2 8027   2.459   1.224   4.803
 2674TIP3    H1 8028   2.381   1.200   4.753
 2674TIP3    H2 8029   2.462   1.162   4.875
 2675TIP3   OH2 8030   4.011   5.104   5.142
 2675TIP3    H1 8031   3.940   5.058   5.186
 2675TIP3    H2 8032   4.008   5.070   5.052
 2676TIP3   OH2 8033   3.210   3.863   4.857
 2676TIP3    H1 8034   3.131   3.812   4.879
 2676TIP3    H2 8035   3.176   3.948   4.829
 2677TIP3   OH2 8036   5.526   2.127   4.658
 2677TIP3    H1 8037   5.564   2.076   4.730
 2677TIP3    H2 8038   5.441   2.157   4.693
 2678TIP3   OH2 8039   6.241   0.845   1.104
 2678TIP3    H1 8040   6.189   0.793   1.042
 2678TIP3    H2 8041   6.321   0.865   1.056
 2679TIP3   OH2 8042   0.123   3.440   2.291
 2679TIP3    H1 8043   0.032   3.464   2.310
 2679TIP3    H2 8044   0.138   3.471   2.202
 2680TIP3   OH2 8045   2.567   3.932   3.049
 2680TIP3    H1 8046   2.560   3.907   3.141
 2680TIP3    H2 8047   2.652   3.976   3.042
 2681TIP3   OH2 8048   4.900   2.915   1.802
 2681TIP3    H1 8049   4.822   2.864   1.778
 2681TIP3    H2 8050   4.961   2.850   1.837
 2682TIP3   OH2 8051   3.559   0.280   4.064
 2682TIP3    H1 8052   3.531   0.276   3.973
 2682TIP3    H2 8053   3.491   0.233   4.112
 2683TIP3   OH2 8054   2.506   1.511   0.289
 2683TIP3    H1 8055   2.590   1.528   0.246
 2683TIP3    H2 8056   2.472   1.433   0.246
 2684TIP3   OH2 8057   3.618   4.589   0.081
 2684TIP3    H1 8058   3.526   4.613   0.091
 2684TIP3    H2 8059   3.639   4.537   0.158
 2685TIP3   OH2 8060   3.398   1.700   0.471
 2685TIP3    H1 8061   3.312   1.724   0.437
 2685TIP3    H2 8062   3.404   1.605   0.457
 2686TIP3   OH2 8063   5.014   1.700   2.425
 2686TIP3    H1 8064   5.041   1.765   2.360
 2686TIP3    H2 8065   4.969   1.751   2.492
 2687TIP3   OH2 8066   0.752   5.930   1.104
 2687TIP3    H1 8067   0.832   5.911   1.153
 2687TIP3    H2 8068   0.681   5.906   1.163
 2688TIP3   OH2 8069   0.569   3.189   1.642
 2688TIP3    H1 8070   0.479   3.174   1.670
 2688TIP3    H2 8071   0.609   3.103   1.640
 2689TIP3   OH2 8072   4.223   2.264   4.503
 2689TIP3    H1 8073   4.150   2.326   4.499
 2689TIP3    H2 8074   4.206   2.203   4.432
 2690TIP3   OH2 8075   2.389   3.790   3.524
 2690TIP3    H1 8076   2.443   3.831   3.457
 2690TIP3    H2 8077   2.447   3.728   3.568
 2691TIP3   OH2 8078   1.115   4.402   1.366
 2691TIP3    H1 8079   1.020   4.416   1.361
 2691TIP3    H2 8080   1.128   4.313   1.333
 2692TIP3   OH2 8081   1.540   5.633   0.939
 2692TIP3    H1 8082   1.618   5.581   0.918
 2692TIP3    H2 8083   1.533   5.696   0.868
 2693TIP3   OH2 8084   3.075   5.986   0.345
 2693TIP3    H1 8085   3.168   6.007   0.338
 2693TIP3    H2 8086   3.063   5.912   0.285
 2694TIP3   OH2 8087   4.845   3.803   0.361
 2694TIP3    H1 8088   4.839   3.806   0.265
 2694TIP3    H2 8089   4.939   3.807   0.379
 2695TIP3   OH2 8090   4.200   1.833   1.805
 2695TIP3    H1 8091   4.256   1.894   1.757
 2695TIP3    H2 8092   4.260   1.765   1.834
 2696TIP3   OH2 8093   2.003   2.047   1.800
 2696TIP3    H1 8094   1.978   2.067   1.891
 2696TIP3    H2 8095   1.947   2.104   1.747
 2697TIP3   OH2 8096   4.122   0.663   3.015
 2697TIP3    H1 8097   4.105   0.571   2.994
 2697TIP3    H2 8098   4.037   0.699   3.037
 2698TIP3   OH2 8099   3.668   4.785   2.288
 2698TIP3    H1 8100   3.707   4.798   2.374
 2698TIP3    H2 8101   3.736   4.741   2.237
 2699TIP3   OH2 8102   5.526   2.223   0.865
 2699TIP3    H1 8103   5.477   2.299   0.835
 2699TIP3    H2 8104   5.535   2.168   0.787
 2700TIP3   OH2 8105   2.068   4.666   0.594
 2700TIP3    H1 8106   1.974   4.654   0.581
 2700TIP3    H2 8107   2.083   4.640   0.685
 2701TIP3   OH2 8108   0.470   3.609   0.628
 2701TIP3    H1 8109   0.548   3.648   0.667
 2701TIP3    H2 8110   0.411   3.594   0.702
 2702TIP3   OH2 8111   6.110   3.251   1.732
 2702TIP3    H1 8112   6.189   3.203   1.708
 2702TIP3    H2 8113   6.038   3.192   1.711
 2703TIP3   OH2 8114   1.679   0.162   0.093
 2703TIP3    H1 8115   1.638   0.226   0.036
 2703TIP3    H2 8116   1.700   0.211   0.173
 2704TIP3   OH2 8117   0.367   0.630   2.618
 2704TIP3    H1 8118   0.403   0.543   2.600
 2704TIP3    H2 8119   0.405   0.656   2.702
 2705TIP3   OH2 8120   6.186   1.088   3.209
 2705TIP3    H1 8121   6.188   0.999   3.243
 2705TIP3    H2 8122   6.187   1.143   3.288
 2706TIP3   OH2 8123   2.878   1.904   0.264
 2706TIP3    H1 8124   2.910   1.972   0.323
 2706TIP3    H2 8125   2.948   1.891   0.200
 2707TIP3   OH2 8126   5.735   5.936   0.432
 2707TIP3    H1 8127   5.787   5.924   0.352
 2707TIP3    H2 8128   5.792   5.988   0.490
 2708TIP3   OH2 8129   3.472   4.475   2.830
 2708TIP3    H1 8130   3.462   4.557   2.879
 2708TIP3    H2 8131   3.486   4.502   2.740
 2709TIP3   OH2 8132   6.054   0.974   0.176
 2709TIP3    H1 8133   6.014   1.023   0.248
 2709TIP3    H2 8134   5.979   0.943   0.125
 2710TIP3   OH2 8135   5.214   3.868   5.073
 2710TIP3    H1 8136   5.226   3.784   5.118
 2710TIP3    H2 8137   5.233   3.848   4.981
 2711TIP3   OH2 8138   2.777   4.278   2.782
 2711TIP3    H1 8139   2.859   4.244   2.818
 2711TIP3    H2 8140   2.805   4.341   2.716
 2712TIP3   OH2 8141   1.511   1.573   4.980
 2712TIP3    H1 8142   1.466   1.490   4.966
 2712TIP3    H2 8143   1.530   1.575   5.074
 2713TIP3   OH2 8144   4.527   0.481   3.125
 2713TIP3    H1 8145   4.570   0.434   3.197
 2713TIP3    H2 8146   4.579   0.561   3.115
 2714TIP3   OH2 8147   3.801   0.425   2.670
 2714TIP3    H1 8148   3.864   0.395   2.736
 2714TIP3    H2 8149   3.848   0.490   2.619
 2715TIP3   OH2 8150   2.290   0.030   1.773
 2715TIP3    H1 8151   2.378   0.068   1.772
 2715TIP3    H2 8152   2.245   0.072   1.699
 2716TIP3   OH2 8153   4.590   5.508   2.238
 2716TIP3    H1 8154   4.682   5.531   2.226
 2716TIP3    H2 8155   4.554   5.580   2.290
 2717TIP3   OH2 8156   4.719   2.347   3.734
 2717TIP3    H1 8157   4.797   2.384   3.776
 2717TIP3    H2 8158   4.648   2.363   3.797
 2718TIP3   OH2 8159   2.044   1.673   1.407
 2718TIP3    H1 8160   1.980   1.604   1.424
 2718TIP3    H2 8161   2.024   1.740   1.473
 2719TIP3   OH2 8162   5.672   4.014   0.262
 2719TIP3    H1 8163   5.625   3.932   0.278
 2719TIP3    H2 8164   5.717   4.033   0.344
 2720TIP3   OH2 8165   1.399   0.805   0.228
 2720TIP3    H1 8166   1.435   0.718   0.209
 2720TIP3    H2 8167   1.375   0.801   0.321
 2721TIP3   OH2 8168   2.714   4.897   1.560
 2721TIP3    H1 8169   2.791   4.913   1.614
 2721TIP3    H2 8170   2.660   4.975   1.571
 2722TIP3   OH2 8171   0.535   5.200   0.556
 2722TIP3    H1 8172   0.526   5.107   0.577
 2722TIP3    H2 8173   0.446   5.235   0.564
 2723TIP3   OH2 8174   3.912   0.999   4.881
 2723TIP3    H1 8175   3.987   1.058   4.875
 2723TIP3    H2 8176   3.947   0.914   4.854
 2724TIP3   OH2 8177   6.109   3.486   0.517
 2724TIP3    H1 8178   6.018   3.456   0.520
 2724TIP3    H2 8179   6.158   3.419   0.564
 2725TIP3   OH2 8180   3.366   1.614   2.533
 2725TIP3    H1 8181   3.282   1.568   2.524
 2725TIP3    H2 8182   3.385   1.611   2.626
 2726TIP3   OH2 8183   1.593   2.047   1.167
 2726TIP3    H1 8184   1.584   2.140   1.147
 2726TIP3    H2 8185   1.504   2.013   1.162
 2727TIP3   OH2 8186   4.299   2.776   2.416
 2727TIP3    H1 8187   4.358   2.832   2.466
 2727TIP3    H2 8188   4.243   2.837   2.368
 2728TIP3   OH2 8189   3.931   1.618   2.335
 2728TIP3    H1 8190   4.007   1.668   2.305
 2728TIP3    H2 8191   3.857   1.679   2.327
 2729TIP3   OH2 8192   3.317   3.541   0.902
 2729TIP3    H1 8193   3.384   3.489   0.858
 2729TIP3    H2 8194   3.249   3.477   0.925
 2730TIP3   OH2 8195   4.324   5.097   5.150
 2730TIP3    H1 8196   4.229   5.112   5.158
 2730TIP3    H2 8197   4.332   5.003   5.133
 2731TIP3   OH2 8198   0.801   1.760   4.992
 2731TIP3    H1 8199   0.867   1.694   4.973
 2731TIP3    H2 8200   0.719   1.712   5.000
 2732TIP3   OH2 8201   3.658   4.835   3.988
 2732TIP3    H1 8202   3.718   4.888   4.040
 2732TIP3    H2 8203   3.707   4.815   3.908
 2733TIP3   OH2 8204   4.706   4.701   3.761
 2733TIP3    H1 8205   4.757   4.621   3.764
 2733TIP3    H2 8206   4.691   4.717   3.668
 2734TIP3   OH2 8207   0.719   4.669   0.200
 2734TIP3    H1 8208   0.791   4.640   0.144
 2734TIP3    H2 8209   0.757   4.737   0.255
 2735TIP3   OH2 8210   4.114   0.001   2.045
 2735TIP3    H1 8211   4.179   0.045   1.991
 2735TIP3    H2 8212   4.127   0.036   2.133
 2736TIP3   OH2 8213   2.248   1.179   4.640
 2736TIP3    H1 8214   2.221   1.249   4.582
 2736TIP3    H2 8215   2.210   1.100   4.602
 2737TIP3   OH2 8216   2.874   3.907   1.690
 2737TIP3    H1 8217   2.814   3.833   1.702
 2737TIP3    H2 8218   2.946   3.871   1.637
 2738TIP3   OH2 8219   6.319   4.393   4.866
 2738TIP3    H1 8220   6.292   4.467   4.812
 2738TIP3    H2 8221   6.246   4.378   4.925
 2739TIP3   OH2 8222   2.152   5.531   4.471
 2739TIP3    H1 8223   2.103   5.452   4.450
 2739TIP3    H2 8224   2.203   5.507   4.549
 2740TIP3   OH2 8225   1.035   4.739   3.902
 2740TIP3    H1 8226   1.058   4.827   3.872
 2740TIP3    H2 8227   0.946   4.725   3.868
 2741TIP3   OH2 8228   4.469   3.644   0.487
 2741TIP3    H1 8229   4.475   3.722   0.542
 2741TIP3    H2 8230   4.441   3.574   0.547
 2742TIP3   OH2 8231   5.849   1.823   2.830
 2742TIP3    H1 8232   5.836   1.748   2.888
 2742TIP3    H2 8233   5.862   1.785   2.744
 2743TIP3   OH2 8234   3.424   1.257   1.864
 2743TIP3    H1 8235   3.379   1.307   1.932
 2743TIP3    H2 8236   3.475   1.191   1.911
 2744TIP3   OH2 8237   0.649   1.964   0.366
 2744TIP3    H1 8238   0.634   1.952   0.273
 2744TIP3    H2 8239   0.572   1.925   0.408
 2745TIP3   OH2 8240   3.227   4.475   1.294
 2745TIP3    H1 8241   3.185   4.539   1.236
 2745TIP3    H2 8242   3.169   4.469   1.370
 2746TIP3   OH2 8243   1.897   3.726   2.435
 2746TIP3    H1 8244   1.964   3.663   2.409
 2746TIP3    H2 8245   1.858   3.755   2.352
 2747TIP3   OH2 8246   5.117   4.111   1.831
 2747TIP3    H1 8247   5.055   4.038   1.818
 2747TIP3    H2 8248   5.098   4.170   1.758
 2748TIP3   OH2 8249   1.580   0.644   2.889
 2748TIP3    H1 8250   1.619   0.656   2.976
 2748TIP3    H2 8251   1.500   0.593   2.905
 2749TIP3   OH2 8252   1.655   4.016   0.666
 2749TIP3    H1 8253   1.578   3.968   0.633
 2749TIP3    H2 8254   1.710   3.948   0.706
 2750TIP3   OH2 8255   6.092   2.666   3.680
 2750TIP3    H1 8256   6.021   2.676   3.616
 2750TIP3    H2 8257   6.068   2.589   3.731
 2751TIP3   OH2 8258   1.266   1.329   0.401
 2751TIP3    H1 8259   1.270   1.236   0.423
 2751TIP3    H2 8260   1.349   1.347   0.358
 2752TIP3   OH2 8261   6.059   3.951   2.089
 2752TIP3    H1 8262   6.147   3.973   2.060
 2752TIP3    H2 8263   6.031   3.879   2.033
 2753TIP3   OH2 8264   1.986   5.134   4.713
 2753TIP3    H1 8265   1.957   5.104   4.627
 2753TIP3    H2 8266   1.975   5.059   4.771
 2754TIP3   OH2 8267   1.537   3.265   3.573
 2754TIP3    H1 8268   1.491   3.193   3.529
 2754TIP3    H2 8269   1.564   3.323   3.501
 2755TIP3   OH2 8270   3.133   2.320   0.310
 2755TIP3    H1 8271   3.167   2.334   0.398
 2755TIP3    H2 8272   3.062   2.384   0.301
 2756TIP3   OH2 8273   0.482   1.994   4.597
 2756TIP3    H1 8274   0.564   2.035   4.625
 2756TIP3    H2 8275   0.478   2.011   4.502
 2757TIP3   OH2 8276   0.501   2.045   1.893
 2757TIP3    H1 8277   0.543   1.966   1.858
 2757TIP3    H2 8278   0.463   2.018   1.976
 2758TIP3   OH2 8279   5.621   2.921   0.680
 2758TIP3    H1 8280   5.597   2.847   0.624
 2758TIP3    H2 8281   5.573   2.907   0.762
 2759TIP3   OH2 8282   0.185   5.471   5.196
 2759TIP3    H1 8283   0.257   5.484   5.134
 2759TIP3    H2 8284   0.201   5.536   5.265
 2760TIP3   OH2 8285   5.696   3.363   1.515
 2760TIP3    H1 8286   5.730   3.276   1.496
 2760TIP3    H2 8287   5.610   3.366   1.474
 2761TIP3   OH2 8288   4.187   1.282   0.846
 2761TIP3    H1 8289   4.269   1.330   0.860
 2761TIP3    H2 8290   4.195   1.203   0.899
 2762TIP3   OH2 8291   0.234   1.677   1.388
 2762TIP3    H1 8292   0.253   1.602   1.331
 2762TIP3    H2 8293   0.219   1.750   1.329
 2763TIP3   OH2 8294   1.812   2.700   0.302
 2763TIP3    H1 8295   1.747   2.769   0.311
 2763TIP3    H2 8296   1.839   2.704   0.210
 2764TIP3   OH2 8297   6.222   5.777   5.034
 2764TIP3    H1 8298   6.140   5.729   5.020
 2764TIP3    H2 8299   6.275   5.759   4.957
 2765TIP3   OH2 8300   2.173   5.210   2.683
 2765TIP3    H1 8301   2.102   5.227   2.745
 2765TIP3    H2 8302   2.180   5.290   2.631
 2766TIP3   OH2 8303   1.806   2.004   1.482
 2766TIP3    H1 8304   1.824   1.936   1.417
 2766TIP3    H2 8305   1.760   2.072   1.432
 2767TIP3   OH2 8306   1.530   2.665   4.555
 2767TIP3    H1 8307   1.592   2.593   4.558
 2767TIP3    H2 8308   1.502   2.677   4.645
 2768TIP3   OH2 8309   3.854   3.824   1.170
 2768TIP3    H1 8310   3.792   3.777   1.225
 2768TIP3    H2 8311   3.926   3.847   1.229
 2769TIP3   OH2 8312   3.266   5.098   4.765
 2769TIP3    H1 8313   3.279   5.039   4.691
 2769TIP3    H2 8314   3.237   5.181   4.725
 2770TIP3   OH2 8315   3.941   0.796   3.167
 2770TIP3    H1 8316   3.950   0.882   3.207
 2770TIP3    H2 8317   3.891   0.744   3.230
 2771TIP3   OH2 8318   5.994   1.336   4.106
 2771TIP3    H1 8319   5.928   1.372   4.048
 2771TIP3    H2 8320   5.984   1.386   4.187
 2772TIP3   OH2 8321   0.589   2.497   3.987
 2772TIP3    H1 8322   0.665   2.551   3.966
 2772TIP3    H2 8323   0.541   2.490   3.904
 2773TIP3   OH2 8324   6.256   0.783   4.056
 2773TIP3    H1 8325   6.253   0.687   4.060
 2773TIP3    H2 8326   6.341   0.806   4.094
 2774TIP3   OH2 8327   1.436   5.349   1.644
 2774TIP3    H1 8328   1.378   5.419   1.616
 2774TIP3    H2 8329   1.471   5.378   1.729
 2775TIP3   OH2 8330   1.932   2.564   0.626
 2775TIP3    H1 8331   1.874   2.522   0.562
 2775TIP3    H2 8332   2.009   2.590   0.575
 2776TIP3   OH2 8333   2.447   3.357   1.176
 2776TIP3    H1 8334   2.499   3.283   1.207
 2776TIP3    H2 8335   2.363   3.319   1.150
 2777TIP3   OH2 8336   4.517   0.516   4.275
 2777TIP3    H1 8337   4.458   0.519   4.200
 2777TIP3    H2 8338   4.487   0.441   4.326
 2778TIP3   OH2 8339   3.124   5.614   0.980
 2778TIP3    H1 8340   3.206   5.577   0.947
 2778TIP3    H2 8341   3.152   5.678   1.045
 2779TIP3   OH2 8342   3.573   5.232   4.941
 2779TIP3    H1 8343   3.579   5.203   4.849
 2779TIP3    H2 8344   3.578   5.327   4.936
 2780TIP3   OH2 8345   5.615   3.812   3.174
 2780TIP3    H1 8346   5.574   3.726   3.177
 2780TIP3    H2 8347   5.697   3.797   3.127
 2781TIP3   OH2 8348   4.145   1.215   2.102
 2781TIP3    H1 8349   4.151   1.293   2.048
 2781TIP3    H2 8350   4.204   1.232   2.176
 2782TIP3   OH2 8351   0.226   5.665   4.320
 2782TIP3    H1 8352   0.146   5.613   4.332
 2782TIP3    H2 8353   0.195   5.756   4.322
 2783TIP3   OH2 8354   5.123   4.793   0.983
 2783TIP3    H1 8355   5.123   4.886   1.007
 2783TIP3    H2 8356   5.188   4.787   0.913
 2784TIP3   OH2 8357   2.288   0.912   1.454
 2784TIP3    H1 8358   2.232   0.963   1.396
 2784TIP3    H2 8359   2.229   0.883   1.525
 2785TIP3   OH2 8360   3.871   0.229   4.860
 2785TIP3    H1 8361   3.792   0.282   4.847
 2785TIP3    H2 8362   3.939   0.275   4.811
 2786TIP3   OH2 8363   2.490   5.736   2.491
 2786TIP3    H1 8364   2.563   5.763   2.434
 2786TIP3    H2 8365   2.510   5.646   2.514
 2787TIP3   OH2 8366   5.463   4.886   0.683
 2787TIP3    H1 8367   5.418   4.802   0.673
 2787TIP3    H2 8368   5.497   4.886   0.772
 2788TIP3   OH2 8369   2.003   3.888   2.635
 2788TIP3    H1 8370   1.958   3.833   2.570
 2788TIP3    H2 8371   1.953   3.969   2.636
 2789TIP3   OH2 8372   0.014   0.278   0.922
 2789TIP3    H1 8373   0.020   0.255   1.015
 2789TIP3    H2 8374  -0.075   0.312   0.912
 2790TIP3   OH2 8375   0.395   2.213   3.244
 2790TIP3    H1 8376   0.466   2.167   3.199
 2790TIP3    H2 8377   0.343   2.144   3.284
 2791TIP3   OH2 8378   4.956   5.672   2.495
 2791TIP3    H1 8379   4.972   5.621   2.574
 2791TIP3    H2 8380   4.923   5.756   2.527
 2792TIP3   OH2 8381   0.896   1.177   0.874
 2792TIP3    H1 8382   0.817   1.154   0.825
 2792TIP3    H2 8383   0.950   1.099   0.871
 2793TIP3   OH2 8384   2.443   1.344   3.241
 2793TIP3    H1 8385   2.436   1.426   3.192
 2793TIP3    H2 8386   2.368   1.292   3.213
 2794TIP3   OH2 8387   4.910   3.899   1.823
 2794TIP3    H1 8388   4.962   3.832   1.779
 2794TIP3    H2 8389   4.825   3.859   1.837
 2795TIP3   OH2 8390   3.564   4.213   4.951
 2795TIP3    H1 8391   3.594   4.209   5.041
 2795TIP3    H2 8392   3.510   4.292   4.947
 2796TIP3   OH2 8393   6.294   2.304   3.432
 2796TIP3    H1 8394   6.348   2.376   3.465
 2796TIP3    H2 8395   6.335   2.279   3.349
 2797TIP3   OH2 8396   5.520   2.037   3.118
 2797TIP3    H1 8397   5.585   2.070   3.181
 2797TIP3    H2 8398   5.568   2.030   3.036
 2798TIP3   OH2 8399   5.874   0.958   2.930
 2798TIP3    H1 8400   5.962   0.977   2.897
 2798TIP3    H2 8401   5.861   1.021   3.000
 2799TIP3   OH2 8402   1.831   3.353   3.135
 2799TIP3    H1 8403   1.836   3.425   3.072
 2799TIP3    H2 8404   1.787   3.283   3.087
 2800TIP3   OH2 8405   4.417   0.920   1.454
 2800TIP3    H1 8406   4.380   0.997   1.496
 2800TIP3    H2 8407   4.485   0.891   1.514
 2801TIP3   OH2 8408   3.368   5.503   2.135
 2801TIP3    H1 8409   3.406   5.421   2.102
 2801TIP3    H2 8410   3.318   5.477   2.212
 2802TIP3   OH2 8411   5.380   0.547   2.408
 2802TIP3    H1 8412   5.405   0.456   2.389
 2802TIP3    H2 8413   5.350   0.545   2.499
 2803TIP3   OH2 8414   1.833   0.341   0.315
 2803TIP3    H1 8415   1.884   0.278   0.366
 2803TIP3    H2 8416   1.896   0.408   0.290
 2804TIP3   OH2 8417   5.889   5.251   0.838
 2804TIP3    H1 8418   5.900   5.346   0.840
 2804TIP3    H2 8419   5.867   5.228   0.928
 2805TIP3   OH2 8420   2.008   5.532   0.193
 2805TIP3    H1 8421   2.102   5.538   0.213
 2805TIP3    H2 8422   1.976   5.622   0.198
 2806TIP3   OH2 8423   5.370   1.068   2.788
 2806TIP3    H1 8424   5.449   1.026   2.754
 2806TIP3    H2 8425   5.382   1.066   2.883
 2807TIP3   OH2 8426   1.738   4.871   1.425
 2807TIP3    H1 8427   1.774   4.800   1.478
 2807TIP3    H2 8428   1.692   4.827   1.353
 2808TIP3   OH2 8429   1.649   1.904   4.599
 2808TIP3    H1 8430   1.662   1.809   4.606
 2808TIP3    H2 8431   1.595   1.927   4.674
 2809TIP3   OH2 8432   2.076   1.072   3.603
 2809TIP3    H1 8433   2.118   1.031   3.679
 2809TIP3    H2 8434   2.127   1.040   3.528
 2810TIP3   OH2 8435   4.051   0.334   4.674
 2810TIP3    H1 8436   4.016   0.253   4.636
 2810TIP3    H2 8437   4.033   0.401   4.607
 2811TIP3   OH2 8438   0.744   2.030   5.088
 2811TIP3    H1 8439   0.660   2.016   5.133
 2811TIP3    H2 8440   0.781   1.943   5.078
 2812TIP3   OH2 8441   0.373   4.102   3.065
 2812TIP3    H1 8442   0.431   4.036   3.026
 2812TIP3    H2 8443   0.301   4.110   3.002
 2813TIP3   OH2 8444   4.648   2.215   2.041
 2813TIP3    H1 8445   4.661   2.289   1.981
 2813TIP3    H2 8446   4.622   2.256   2.123
 2814TIP3   OH2 8447   3.477   0.217   2.186
 2814TIP3    H1 8448   3.552   0.164   2.160
 2814TIP3    H2 8449   3.512   0.306   2.195
 2815TIP3   OH2 8450   3.081   1.076   1.954
 2815TIP3    H1 8451   3.158   1.052   2.006
 2815TIP3    H2 8452   3.115   1.094   1.867
 2816TIP3   OH2 8453   0.896   5.771   4.113
 2816TIP3    H1 8454   0.853   5.695   4.073
 2816TIP3    H2 8455   0.952   5.735   4.181
 2817TIP3   OH2 8456   3.486   2.160   1.946
 2817TIP3    H1 8457   3.455   2.249   1.962
 2817TIP3    H2 8458   3.476   2.116   2.030
 2818TIP3   OH2 8459   4.249   3.165   4.046
 2818TIP3    H1 8460   4.260   3.077   4.081
 2818TIP3    H2 8461   4.234   3.220   4.123
 2819TIP3   OH2 8462   4.576   0.797   4.249
 2819TIP3    H1 8463   4.542   0.840   4.170
 2819TIP3    H2 8464   4.564   0.703   4.232
 2820TIP3   OH2 8465   0.687   2.659   2.470
 2820TIP3    H1 8466   0.604   2.625   2.502
 2820TIP3    H2 8467   0.719   2.593   2.409
 2821TIP3   OH2 8468   0.614   0.138   4.752
 2821TIP3    H1 8469   0.554   0.212   4.751
 2821TIP3    H2 8470   0.567   0.070   4.800
 2822TIP3   OH2 8471   5.904   0.670   0.118
 2822TIP3    H1 8472   5.889   0.642   0.209
 2822TIP3    H2 8473   5.836   0.736   0.102
 2823TIP3   OH2 8474   0.990   5.335   4.997
 2823TIP3    H1 8475   0.920   5.385   4.954
 2823TIP3    H2 8476   1.070   5.362   4.952
 2824TIP3   OH2 8477   3.644   0.061   1.299
 2824TIP3    H1 8478   3.567   0.008   1.281
 2824TIP3    H2 8479   3.713   0.022   1.244
 2825TIP3   OH2 8480   2.319   1.739   1.563
 2825TIP3    H1 8481   2.408   1.763   1.589
 2825TIP3    H2 8482   2.323   1.644   1.548
 2826TIP3   OH2 8483   6.336   0.914   1.662
 2826TIP3    H1 8484   6.252   0.873   1.684
 2826TIP3    H2 8485   6.345   0.986   1.725
 2827TIP3   OH2 8486   4.515   5.871   1.303
 2827TIP3    H1 8487   4.478   5.871   1.391
 2827TIP3    H2 8488   4.439   5.882   1.245
 2828TIP3   OH2 8489   4.570   2.924   2.061
 2828TIP3    H1 8490   4.589   3.011   2.026
 2828TIP3    H2 8491   4.605   2.926   2.150
 2829TIP3   OH2 8492   3.972   4.239   2.163
 2829TIP3    H1 8493   3.959   4.173   2.094
 2829TIP3    H2 8494   4.023   4.308   2.121
 2830TIP3   OH2 8495   3.976   0.901   2.214
 2830TIP3    H1 8496   4.039   0.905   2.141
 2830TIP3    H2 8497   3.970   0.991   2.245
 2831TIP3   OH2 8498   4.807   3.761   4.535
 2831TIP3    H1 8499   4.772   3.710   4.462
 2831TIP3    H2 8500   4.855   3.698   4.588
 2832TIP3   OH2 8501   1.076   5.015   4.182
 2832TIP3    H1 8502   1.012   5.048   4.119
 2832TIP3    H2 8503   1.037   4.935   4.216
 2833TIP3   OH2 8504   5.210   0.413   3.916
 2833TIP3    H1 8505   5.133   0.466   3.935
 2833TIP3    H2 8506   5.224   0.361   3.996
 2834TIP3   OH2 8507   2.207   2.217   4.539
 2834TIP3    H1 8508   2.244   2.133   4.564
 2834TIP3    H2 8509   2.273   2.281   4.565
 2835TIP3   OH2 8510   5.209   3.435   1.001
 2835TIP3    H1 8511   5.145   3.419   1.070
 2835TIP3    H2 8512   5.180   3.516   0.959
 2836TIP3   OH2 8513   0.070   4.781   0.929
 2836TIP3    H1 8514   0.001   4.826   0.881
 2836TIP3    H2 8515   0.151   4.816   0.892
 2837TIP3   OH2 8516   1.330   5.512   0.478
 2837TIP3    H1 8517   1.386   5.437   0.462
 2837TIP3    H2 8518   1.381   5.569   0.536
 2838TIP3   OH2 8519   1.197   0.257   2.460
 2838TIP3    H1 8520   1.134   0.306   2.512
 2838TIP3    H2 8521   1.259   0.324   2.430
 2839TIP3   OH2 8522   4.607   4.976   4.393
 2839TIP3    H1 8523   4.549   4.917   4.441
 2839TIP3    H2 8524   4.550   5.045   4.360
 2840TIP3   OH2 8525   1.666   1.094   4.571
 2840TIP3    H1 8526   1.622   1.009   4.568
 2840TIP3    H2 8527   1.711   1.095   4.656
 2841TIP3   OH2 8528   1.425   3.648   1.896
 2841TIP3    H1 8529   1.509   3.687   1.917
 2841TIP3    H2 8530   1.419   3.571   1.953
 2842TIP3   OH2 8531   5.260   1.676   0.269
 2842TIP3    H1 8532   5.219   1.683   0.183
 2842TIP3    H2 8533   5.273   1.582   0.282
 2843TIP3   OH2 8534   1.037   0.094   0.814
 2843TIP3    H1 8535   0.959   0.149   0.817
 2843TIP3    H2 8536   1.088   0.119   0.891
 2844TIP3   OH2 8537   3.021   1.615   0.010
 2844TIP3    H1 8538   3.112   1.645   0.005
 2844TIP3    H2 8539   2.987   1.629  -0.079
 2845TIP3   OH2 8540   0.499   0.440   4.619
 2845TIP3    H1 8541   0.415   0.473   4.649
 2845TIP3    H2 8542   0.563   0.503   4.652
 2846TIP3   OH2 8543   0.586   5.031   2.246
 2846TIP3    H1 8544   0.600   5.102   2.309
 2846TIP3    H2 8545   0.600   4.951   2.298
 2847TIP3   OH2 8546   5.431   4.107   3.077
 2847TIP3    H1 8547   5.519   4.070   3.078
 2847TIP3    H2 8548   5.373   4.031   3.066
 2848TIP3   OH2 8549   4.832   4.156   5.053
 2848TIP3    H1 8550   4.756   4.174   4.999
 2848TIP3    H2 8551   4.907   4.165   4.993
 2849TIP3   OH2 8552   5.481   1.245   0.778
 2849TIP3    H1 8553   5.498   1.332   0.812
 2849TIP3    H2 8554   5.536   1.238   0.699
 2850TIP3   OH2 8555   4.823   0.497   2.540
 2850TIP3    H1 8556   4.803   0.433   2.609
 2850TIP3    H2 8557   4.870   0.567   2.585
 2851TIP3   OH2 8558   5.420   4.382   0.947
 2851TIP3    H1 8559   5.377   4.401   0.863
 2851TIP3    H2 8560   5.350   4.391   1.012
 2852TIP3   OH2 8561   4.024   3.097   3.594
 2852TIP3    H1 8562   3.999   3.109   3.686
 2852TIP3    H2 8563   4.106   3.046   3.598
 2853TIP3   OH2 8564   3.078   3.785   1.202
 2853TIP3    H1 8565   3.172   3.768   1.202
 2853TIP3    H2 8566   3.052   3.779   1.110
 2854TIP3   OH2 8567   2.258   0.579   0.548
 2854TIP3    H1 8568   2.290   0.564   0.460
 2854TIP3    H2 8569   2.215   0.498   0.573
 2855TIP3   OH2 8570   5.655   0.915   2.766
 2855TIP3    H1 8571   5.630   0.823   2.775
 2855TIP3    H2 8572   5.711   0.933   2.842
 2856TIP3   OH2 8573   0.146   0.035   3.147
 2856TIP3    H1 8574   0.202   0.112   3.159
 2856TIP3    H2 8575   0.139  -0.003   3.234
 2857TIP3   OH2 8576   1.268   3.269   1.884
 2857TIP3    H1 8577   1.219   3.230   1.957
 2857TIP3    H2 8578   1.310   3.194   1.842
 2858TIP3   OH2 8579   5.208   3.930   4.135
 2858TIP3    H1 8580   5.200   4.001   4.198
 2858TIP3    H2 8581   5.247   3.971   4.058
 2859TIP3   OH2 8582   2.187   0.672   1.243
 2859TIP3    H1 8583   2.095   0.686   1.267
 2859TIP3    H2 8584   2.208   0.585   1.277
 2860TIP3   OH2 8585   0.093   0.271   2.761
 2860TIP3    H1 8586   0.053   0.209   2.822
 2860TIP3    H2 8587   0.030   0.343   2.756
 2861TIP3   OH2 8588   3.686   2.897   3.775
 2861TIP3    H1 8589   3.659   2.983   3.743
 2861TIP3    H2 8590   3.624   2.836   3.735
 2862TIP3   OH2 8591   6.251   0.489   3.500
 2862TIP3    H1 8592   6.224   0.513   3.412
 2862TIP3    H2 8593   6.200   0.411   3.521
 2863TIP3   OH2 8594   5.742   4.325   4.408
 2863TIP3    H1 8595   5.674   4.259   4.425
 2863TIP3    H2 8596   5.741   4.380   4.485
 2864TIP3   OH2 8597   2.826   1.923   1.697
 2864TIP3    H1 8598   2.869   1.839   1.714
 2864TIP3    H2 8599   2.873   1.986   1.753
 2865TIP3   OH2 8600   6.208   0.522   4.120
 2865TIP3    H1 8601   6.119   0.491   4.103
 2865TIP3    H2 8602   6.264   0.469   4.063
 2866TIP3   OH2 8603   1.293   2.852   1.940
 2866TIP3    H1 8604   1.256   2.769   1.969
 2866TIP3    H2 8605   1.235   2.881   1.870
 2867TIP3   OH2 8606   5.744   5.728   0.094
 2867TIP3    H1 8607   5.790   5.644   0.103
 2867TIP3    H2 8608   5.673   5.723   0.158
 2868TIP3   OH2 8609   3.795   5.510   2.338
 2868TIP3    H1 8610   3.857   5.573   2.375
 2868TIP3    H2 8611   3.721   5.510   2.399
 2869TIP3   OH2 8612   0.759   4.678   1.303
 2869TIP3    H1 8613   0.813   4.745   1.261
 2869TIP3    H2 8614   0.744   4.710   1.392
 2870TIP3   OH2 8615   0.336   2.558   1.831
 2870TIP3    H1 8616   0.391   2.481   1.814
 2870TIP3    H2 8617   0.366   2.591   1.916
 2871TIP3   OH2 8618   0.639   2.311   0.480
 2871TIP3    H1 8619   0.697   2.385   0.499
 2871TIP3    H2 8620   0.589   2.297   0.560
 2872TIP3   OH2 8621   1.299   4.517   3.385
 2872TIP3    H1 8622   1.226   4.534   3.445
 2872TIP3    H2 8623   1.278   4.568   3.307
 2873TIP3   OH2 8624   4.056   0.751   1.580
 2873TIP3    H1 8625   3.986   0.686   1.573
 2873TIP3    H2 8626   4.136   0.699   1.588
 2874TIP3   OH2 8627   3.727   5.506   0.467
 2874TIP3    H1 8628   3.783   5.566   0.516
 2874TIP3    H2 8629   3.682   5.454   0.535
 2875TIP3   OH2 8630   2.729   0.079   3.666
 2875TIP3    H1 8631   2.735   0.107   3.574
 2875TIP3    H2 8632   2.767   0.152   3.715
 2876TIP3   OH2 8633   3.724   5.530   3.911
 2876TIP3    H1 8634   3.650   5.502   3.857
 2876TIP3    H2 8635   3.701   5.620   3.937
 2877TIP3   OH2 8636   3.704   3.701   3.008
 2877TIP3    H1 8637   3.689   3.615   3.048
 2877TIP3    H2 8638   3.679   3.764   3.077
 2878TIP3   OH2 8639   3.787   0.452   3.633
 2878TIP3    H1 8640   3.722   0.516   3.663
 2878TIP3    H2 8641   3.796   0.391   3.706
 2879TIP3   OH2 8642   4.380   5.962   0.633
 2879TIP3    H1 8643   4.306   5.929   0.684
 2879TIP3    H2 8644   4.344   6.038   0.587
 2880TIP3   OH2 8645   4.843   3.176   1.806
 2880TIP3    H1 8646   4.851   3.091   1.849
 2880TIP3    H2 8647   4.853   3.158   1.713
 2881TIP3   OH2 8648   1.047   1.231   0.118
 2881TIP3    H1 8649   1.009   1.184   0.044
 2881TIP3    H2 8650   1.047   1.168   0.190
 2882TIP3   OH2 8651   2.515   0.286   2.746
 2882TIP3    H1 8652   2.509   0.191   2.733
 2882TIP3    H2 8653   2.433   0.309   2.790
 2883TIP3   OH2 8654   5.672   4.256   0.170
 2883TIP3    H1 8655   5.678   4.164   0.197
 2883TIP3    H2 8656   5.601   4.258   0.107
 2884TIP3   OH2 8657   2.569   0.614   4.142
 2884TIP3    H1 8658   2.576   0.562   4.222
 2884TIP3    H2 8659   2.487   0.662   4.152
 2885TIP3   OH2 8660   2.865   0.612   4.258
 2885TIP3    H1 8661   2.833   0.608   4.168
 2885TIP3    H2 8662   2.793   0.575   4.310
 2886TIP3   OH2 8663   1.613   1.133   3.010
 2886TIP3    H1 8664   1.560   1.054   2.995
 2886TIP3    H2 8665   1.557   1.189   3.063
 2887TIP3   OH2 8666   0.281   1.778   1.817
 2887TIP3    H1 8667   0.369   1.814   1.811
 2887TIP3    H2 8668   0.233   1.819   1.745
 2888TIP3   OH2 8669   5.269   1.684   3.185
 2888TIP3    H1 8670   5.244   1.731   3.264
 2888TIP3    H2 8671   5.306   1.601   3.217
 2889TIP3   OH2 8672   1.376   5.445   4.987
 2889TIP3    H1 8673   1.412   5.456   4.899
 2889TIP3    H2 8674   1.344   5.355   4.990
 2890TIP3   OH2 8675   4.326   3.279   3.200
 2890TIP3    H1 8676   4.408   3.275   3.152
 2890TIP3    H2 8677   4.320   3.196   3.246
 2891TIP3   OH2 8678   0.996   2.357   1.291
 2891TIP3    H1 8679   0.940   2.348   1.369
 2891TIP3    H2 8680   0.940   2.401   1.227
 2892TIP3   OH2 8681   0.683   2.901   3.530
 2892TIP3    H1 8682   0.641   2.975   3.486
 2892TIP3    H2 8683   0.751   2.941   3.585
 2893TIP3   OH2 8684   4.793   3.860   3.753
 2893TIP3    H1 8685   4.764   3.777   3.789
 2893TIP3    H2 8686   4.851   3.896   3.820
 2894TIP3   OH2 8687   4.486   5.692   4.557
 2894TIP3    H1 8688   4.563   5.749   4.563
 2894TIP3    H2 8689   4.519   5.605   4.576
 2895TIP3   OH2 8690   1.094   0.179   2.757
 2895TIP3    H1 8691   1.173   0.230   2.738
 2895TIP3    H2 8692   1.086   0.183   2.853
 2896TIP3   OH2 8693   4.526   2.898   0.675
 2896TIP3    H1 8694   4.601   2.866   0.724
 2896TIP3    H2 8695   4.507   2.984   0.713
 2897TIP3   OH2 8696   5.952   0.808   0.783
 2897TIP3    H1 8697   5.986   0.883   0.831
 2897TIP3    H2 8698   5.858   0.827   0.772
 2898TIP3   OH2 8699   0.729   5.175   4.685
 2898TIP3    H1 8700   0.798   5.114   4.710
 2898TIP3    H2 8701   0.775   5.256   4.662
 2899TIP3   OH2 8702   2.373   4.623   3.189
 2899TIP3    H1 8703   2.379   4.687   3.259
 2899TIP3    H2 8704   2.308   4.658   3.129
 2900TIP3   OH2 8705   2.321   5.703   0.486
 2900TIP3    H1 8706   2.307   5.795   0.461
 2900TIP3    H2 8707   2.383   5.707   0.558
 2901TIP3   OH2 8708   3.805   0.221   3.794
 2901TIP3    H1 8709   3.792   0.126   3.793
 2901TIP3    H2 8710   3.804   0.245   3.886
 2902TIP3   OH2 8711   4.869   3.884   2.463
 2902TIP3    H1 8712   4.919   3.838   2.396
 2902TIP3    H2 8713   4.781   3.892   2.426
 2903TIP3   OH2 8714   5.338   2.731   3.416
 2903TIP3    H1 8715   5.307   2.742   3.506
 2903TIP3    H2 8716   5.364   2.639   3.411
 2904TIP3   OH2 8717   2.831   1.628   0.976
 2904TIP3    H1 8718   2.861   1.709   1.018
 2904TIP3    H2 8719   2.834   1.562   1.045
 2905TIP3   OH2 8720   1.403   4.457   0.623
 2905TIP3    H1 8721   1.467   4.390   0.600
 2905TIP3    H2 8722   1.363   4.424   0.704
 2906TIP3   OH2 8723   1.138   3.700   0.674
 2906TIP3    H1 8724   1.081   3.761   0.722
 2906TIP3    H2 8725   1.200   3.669   0.739
 2907TIP3   OH2 8726   4.798   3.981   0.594
 2907TIP3    H1 8727   4.809   3.887   0.607
 2907TIP3    H2 8728   4.723   4.004   0.648
 2908TIP3   OH2 8729   4.077   3.279   0.890
 2908TIP3    H1 8730   4.027   3.200   0.869
 2908TIP3    H2 8731   4.055   3.341   0.820
 2909TIP3   OH2 8732   3.250   2.573   1.330
 2909TIP3    H1 8733   3.217   2.598   1.417
 2909TIP3    H2 8734   3.259   2.656   1.284
 2910TIP3   OH2 8735   3.059   5.214   3.188
 2910TIP3    H1 8736   3.134   5.273   3.194
 2910TIP3    H2 8737   3.077   5.146   3.253
 2911TIP3   OH2 8738   0.731   4.088   4.727
 2911TIP3    H1 8739   0.714   4.157   4.791
 2911TIP3    H2 8740   0.813   4.048   4.756
 2912TIP3   OH2 8741   2.208   1.221   2.430
 2912TIP3    H1 8742   2.302   1.230   2.414
 2912TIP3    H2 8743   2.167   1.281   2.367
 2913TIP3   OH2 8744   4.119   0.462   4.303
 2913TIP3    H1 8745   4.121   0.508   4.387
 2913TIP3    H2 8746   4.074   0.522   4.244
 2914TIP3   OH2 8747   6.114   5.420   1.617
 2914TIP3    H1 8748   6.095   5.455   1.530
 2914TIP3    H2 8749   6.073   5.481   1.678
 2915TIP3   OH2 8750   2.238   4.660   4.794
 2915TIP3    H1 8751   2.301   4.731   4.780
 2915TIP3    H2 8752   2.286   4.580   4.775
 2916TIP3   OH2 8753   2.605   3.818   0.158
 2916TIP3    H1 8754   2.565   3.758   0.095
 2916TIP3    H2 8755   2.670   3.764   0.204
 2917TIP3   OH2 8756   5.450   5.735   2.223
 2917TIP3    H1 8757   5.446   5.673   2.296
 2917TIP3    H2 8758   5.513   5.696   2.163
 2918TIP3   OH2 8759   0.303   1.309   3.210
 2918TIP3    H1 8760   0.214   1.333   3.237
 2918TIP3    H2 8761   0.290   1.246   3.139
 2919TIP3   OH2 8762   3.621   4.795   0.506
 2919TIP3    H1 8763   3.687   4.820   0.571
 2919TIP3    H2 8764   3.671   4.781   0.426
 2920TIP3   OH2 8765   4.996   3.437   2.631
 2920TIP3    H1 8766   4.981   3.353   2.588
 2920TIP3    H2 8767   4.912   3.482   2.627
 2921TIP3   OH2 8768   0.187   1.933   0.380
 2921TIP3    H1 8769   0.183   1.944   0.475
 2921TIP3    H2 8770   0.256   1.994   0.352
 2922TIP3   OH2 8771   3.411   3.886   2.905
 2922TIP3    H1 8772   3.434   3.794   2.897
 2922TIP3    H2 8773   3.474   3.932   2.849
 2923TIP3   OH2 8774   1.425   0.466   3.029
 2923TIP3    H1 8775   1.423   0.389   3.086
 2923TIP3    H2 8776   1.333   0.482   3.008
 2924TIP3   OH2 8777   1.222   1.895   0.875
 2924TIP3    H1 8778   1.220   1.896   0.971
 2924TIP3    H2 8779   1.132   1.871   0.850
 2925TIP3   OH2 8780   5.786   3.546   3.284
 2925TIP3    H1 8781   5.804   3.586   3.199
 2925TIP3    H2 8782   5.745   3.462   3.263
 2926TIP3   OH2 8783   0.362   4.518   2.081
 2926TIP3    H1 8784   0.336   4.460   2.153
 2926TIP3    H2 8785   0.438   4.475   2.042
 2927TIP3   OH2 8786   3.443   1.082   3.549
 2927TIP3    H1 8787   3.524   1.132   3.534
 2927TIP3    H2 8788   3.373   1.147   3.543
 2928TIP3   OH2 8789   2.600   4.487   2.682
 2928TIP3    H1 8790   2.507   4.509   2.679
 2928TIP3    H2 8791   2.628   4.513   2.769
 2929TIP3   OH2 8792   4.981   5.778   1.251
 2929TIP3    H1 8793   4.999   5.696   1.205
 2929TIP3    H2 8794   5.055   5.788   1.311
 2930TIP3   OH2 8795   2.367   1.156   0.336
 2930TIP3    H1 8796   2.292   1.214   0.341
 2930TIP3    H2 8797   2.404   1.170   0.249
 2931TIP3   OH2 8798   4.828   1.042   5.009
 2931TIP3    H1 8799   4.822   1.109   4.942
 2931TIP3    H2 8800   4.759   1.063   5.072
 2932TIP3   OH2 8801   2.529   4.154   1.192
 2932TIP3    H1 8802   2.616   4.162   1.232
 2932TIP3    H2 8803   2.508   4.061   1.199
 2933TIP3   OH2 8804   2.962   1.175   3.954
 2933TIP3    H1 8805   3.033   1.135   4.003
 2933TIP3    H2 8806   2.911   1.101   3.920
 2934TIP3   OH2 8807   2.652   3.272   0.623
 2934TIP3    H1 8808   2.584   3.297   0.560
 2934TIP3    H2 8809   2.617   3.296   0.708
 2935TIP3   OH2 8810   0.480   2.324   4.357
 2935TIP3    H1 8811   0.430   2.247   4.330
 2935TIP3    H2 8812   0.458   2.337   4.449
 2936TIP3   OH2 8813   0.881   4.389   3.202
 2936TIP3    H1 8814   0.797   4.360   3.166
 2936TIP3    H2 8815   0.859   4.424   3.289
 2937TIP3   OH2 8816   5.960   5.633   0.478
 2937TIP3    H1 8817   5.992   5.655   0.390
 2937TIP3    H2 8818   6.004   5.552   0.500
 2938TIP3   OH2 8819   0.280   2.185   1.444
 2938TIP3    H1 8820   0.294   2.091   1.457
 2938TIP3    H2 8821   0.365   2.224   1.461
 2939TIP3   OH2 8822   0.877   1.471   0.419
 2939TIP3    H1 8823   0.951   1.474   0.358
 2939TIP3    H2 8824   0.861   1.377   0.432
 2940TIP3   OH2 8825   1.797   1.741   5.152
 2940TIP3    H1 8826   1.738   1.760   5.079
 2940TIP3    H2 8827   1.885   1.748   5.114
 2941TIP3   OH2 8828   6.323   1.712   3.263
 2941TIP3    H1 8829   6.367   1.644   3.315
 2941TIP3    H2 8830   6.238   1.674   3.242
 2942TIP3   OH2 8831   6.210   2.472   4.437
 2942TIP3    H1 8832   6.170   2.529   4.501
 2942TIP3    H2 8833   6.288   2.437   4.481
 2943TIP3   OH2 8834   4.202   2.546   0.563
 2943TIP3    H1 8835   4.231   2.471   0.614
 2943TIP3    H2 8836   4.212   2.518   0.472
 2944TIP3   OH2 8837   5.334   3.106   1.539
 2944TIP3    H1 8838   5.286   3.179   1.500
 2944TIP3    H2 8839   5.415   3.145   1.572
 2945TIP3   OH2 8840   0.202   0.222   2.290
 2945TIP3    H1 8841   0.246   0.250   2.371
 2945TIP3    H2 8842   0.258   0.254   2.220
 2946TIP3   OH2 8843   0.382   2.068   4.248
 2946TIP3    H1 8844   0.299   2.028   4.275
 2946TIP3    H2 8845   0.364   2.103   4.160
 2947TIP3   OH2 8846   1.850   0.651   0.458
 2947TIP3    H1 8847   1.825   0.673   0.369
 2947TIP3    H2 8848   1.788   0.584   0.485
 2948TIP3   OH2 8849   3.024   4.592   2.014
 2948TIP3    H1 8850   2.999   4.607   2.105
 2948TIP3    H2 8851   2.984   4.665   1.966
 2949TIP3   OH2 8852   3.115   0.796   1.709
 2949TIP3    H1 8853   3.075   0.817   1.625
 2949TIP3    H2 8854   3.197   0.846   1.710
 2950TIP3   OH2 8855   4.821   1.147   0.263
 2950TIP3    H1 8856   4.752   1.080   0.259
 2950TIP3    H2 8857   4.843   1.152   0.355
 2951TIP3   OH2 8858   4.308   3.313   0.423
 2951TIP3    H1 8859   4.299   3.377   0.353
 2951TIP3    H2 8860   4.302   3.365   0.504
 2952TIP3   OH2 8861   0.074   5.923   2.224
 2952TIP3    H1 8862   0.028   5.940   2.142
 2952TIP3    H2 8863   0.020   5.859   2.270
 2953TIP3   OH2 8864   1.523   5.438   4.464
 2953TIP3    H1 8865   1.438   5.433   4.420
 2953TIP3    H2 8866   1.580   5.382   4.412
 2954TIP3   OH2 8867   1.033   0.931   0.917
 2954TIP3    H1 8868   1.066   0.941   1.006
 2954TIP3    H2 8869   0.970   0.859   0.923
 2955TIP3   OH2 8870   1.068   4.174   4.064
 2955TIP3    H1 8871   1.088   4.250   4.119
 2955TIP3    H2 8872   0.973   4.170   4.062
 2956TIP3   OH2 8873   5.630   2.627   3.815
 2956TIP3    H1 8874   5.653   2.654   3.726
 2956TIP3    H2 8875   5.607   2.534   3.807
 2957TIP3   OH2 8876   4.770   5.571   1.766
 2957TIP3    H1 8877   4.823   5.557   1.688
 2957TIP3    H2 8878   4.701   5.505   1.760
 2958TIP3   OH2 8879   0.158   0.609   0.388
 2958TIP3    H1 8880   0.137   0.665   0.313
 2958TIP3    H2 8881   0.102   0.533   0.377
 2959TIP3   OH2 8882   0.182   1.719   2.073
 2959TIP3    H1 8883   0.090   1.694   2.081
 2959TIP3    H2 8884   0.195   1.731   1.979
 2960TIP3   OH2 8885   2.402   0.066   2.966
 2960TIP3    H1 8886   2.366  -0.013   3.005
 2960TIP3    H2 8887   2.371   0.065   2.876
 2961TIP3   OH2 8888   5.589   4.449   3.542
 2961TIP3    H1 8889   5.626   4.391   3.609
 2961TIP3    H2 8890   5.598   4.537   3.579
 2962TIP3   OH2 8891   0.910   4.165   1.650
 2962TIP3    H1 8892   0.982   4.131   1.597
 2962TIP3    H2 8893   0.946   4.173   1.738
 2963TIP3   OH2 8894   3.694   3.646   0.364
 2963TIP3    H1 8895   3.662   3.557   0.382
 2963TIP3    H2 8896   3.713   3.645   0.270
 2964TIP3   OH2 8897   1.827   4.077   0.274
 2964TIP3    H1 8898   1.777   4.012   0.225
 2964TIP3    H2 8899   1.772   4.156   0.272
 2965TIP3   OH2 8900   2.742   1.873   3.208
 2965TIP3    H1 8901   2.834   1.899   3.201
 2965TIP3    H2 8902   2.718   1.896   3.298
 2966TIP3   OH2 8903   2.225   0.942   0.107
 2966TIP3    H1 8904   2.250   0.896   0.027
 2966TIP3    H2 8905   2.290   0.916   0.172
 2967TIP3   OH2 8906   4.313   5.302   0.756
 2967TIP3    H1 8907   4.383   5.241   0.733
 2967TIP3    H2 8908   4.305   5.295   0.851
 2968TIP3   OH2 8909   5.653   3.141   4.104
 2968TIP3    H1 8910   5.647   3.121   4.010
 2968TIP3    H2 8911   5.622   3.231   4.111
 2969TIP3   OH2 8912   1.504   5.840   4.014
 2969TIP3    H1 8913   1.588   5.833   3.969
 2969TIP3    H2 8914   1.439   5.818   3.948
 2970TIP3   OH2 8915   4.251   3.586   3.058
 2970TIP3    H1 8916   4.314   3.596   3.129
 2970TIP3    H2 8917   4.255   3.493   3.035
 2971TIP3   OH2 8918   1.024   0.592   2.278
 2971TIP3    H1 8919   0.950   0.642   2.245
 2971TIP3    H2 8920   1.074   0.570   2.199
 2972TIP3   OH2 8921   2.881   1.229   2.631
 2972TIP3    H1 8922   2.864   1.139   2.659
 2972TIP3    H2 8923   2.889   1.223   2.536
 2973TIP3   OH2 8924   6.221   1.036   1.296
 2973TIP3    H1 8925   6.296   1.096   1.302
 2973TIP3    H2 8926   6.250   0.967   1.237
 2974TIP3   OH2 8927   1.344   1.003   3.557
 2974TIP3    H1 8928   1.301   0.923   3.587
 2974TIP3    H2 8929   1.276   1.051   3.511
 2975TIP3   OH2 8930   0.599   0.023   5.012
 2975TIP3    H1 8931   0.668  -0.037   5.039
 2975TIP3    H2 8932   0.531  -0.033   4.974
 2976TIP3   OH2 8933   1.221   0.156   0.546
 2976TIP3    H1 8934   1.179   0.091   0.602
 2976TIP3    H2 8935   1.291   0.194   0.601
 2977TIP3   OH2 8936   2.788   4.250   1.251
 2977TIP3    H1 8937   2.762   4.341   1.261
 2977TIP3    H2 8938   2.831   4.228   1.334
 2978TIP3   OH2 8939   2.066   5.178   2.122
 2978TIP3    H1 8940   2.050   5.105   2.182
 2978TIP3    H2 8941   2.062   5.139   2.035
 2979TIP3   OH2 8942   2.816   0.453   0.116
 2979TIP3    H1 8943   2.773   0.482   0.196
 2979TIP3    H2 8944   2.772   0.502   0.046
 2980TIP3   OH2 8945   0.680   1.345   3.537
 2980TIP3    H1 8946   0.589   1.372   3.549
 2980TIP3    H2 8947   0.694   1.278   3.605
 2981TIP3   OH2 8948   4.914   4.320   1.720
 2981TIP3    H1 8949   4.987   4.373   1.688
 2981TIP3    H2 8950   4.882   4.274   1.642
 2982TIP3   OH2 8951   2.377   1.825   1.216
 2982TIP3    H1 8952   2.417   1.899   1.263
 2982TIP3    H2 8953   2.390   1.847   1.124
 2983TIP3   OH2 8954   4.101   5.290   0.593
 2983TIP3    H1 8955   4.126   5.251   0.509
 2983TIP3    H2 8956   4.183   5.294   0.642
 2984TIP3   OH2 8957   0.214   3.324   3.679
 2984TIP3    H1 8958   0.278   3.299   3.746
 2984TIP3    H2 8959   0.236   3.271   3.603
 2985TIP3   OH2 8960   4.623   5.414   4.226
 2985TIP3    H1 8961   4.590   5.360   4.154
 2985TIP3    H2 8962   4.702   5.369   4.255
 2986TIP3   OH2 8963   1.702   1.617   0.166
 2986TIP3    H1 8964   1.652   1.536   0.179
 2986TIP3    H2 8965   1.636   1.687   0.174
 2987TIP3   OH2 8966   3.717   4.308   2.883
 2987TIP3    H1 8967   3.700   4.289   2.791
 2987TIP3    H2 8968   3.644   4.364   2.910
 2988TIP3   OH2 8969   0.230   3.185   2.366
 2988TIP3    H1 8970   0.137   3.208   2.356
 2988TIP3    H2 8971   0.274   3.234   2.297
 2989TIP3   OH2 8972   2.601   2.854   2.394
 2989TIP3    H1 8973   2.638   2.939   2.416
 2989TIP3    H2 8974   2.544   2.832   2.467
 2990TIP3   OH2 8975   5.681   1.786   0.376
 2990TIP3    H1 8976   5.643   1.781   0.463
 2990TIP3    H2 8977   5.637   1.860   0.335
 2991TIP3   OH2 8978   0.547   2.332   1.557
 2991TIP3    H1 8979   0.629   2.335   1.507
 2991TIP3    H2 8980   0.484   2.380   1.502
 2992TIP3   OH2 8981   5.280   1.631   2.093
 2992TIP3    H1 8982   5.337   1.693   2.049
 2992TIP3    H2 8983   5.218   1.685   2.142
 2993TIP3   OH2 8984   1.872   0.892   3.520
 2993TIP3    H1 8985   1.779   0.901   3.538
 2993TIP3    H2 8986   1.907   0.980   3.533
 2994TIP3   OH2 8987   3.550   4.273   1.676
 2994TIP3    H1 8988   3.556   4.273   1.580
 2994TIP3    H2 8989   3.457   4.260   1.694
 2995TIP3   OH2 8990   6.031   0.455   0.410
 2995TIP3    H1 8991   5.957   0.438   0.468
 2995TIP3    H2 8992   6.104   0.473   0.470
 2996TIP3   OH2 8993   0.112   2.958   0.238
 2996TIP3    H1 8994   0.163   3.038   0.243
 2996TIP3    H2 8995   0.047   2.975   0.170
 2997TIP3   OH2 8996   2.452   1.629   4.144
 2997TIP3    H1 8997   2.369   1.667   4.172
 2997TIP3    H2 8998   2.475   1.678   4.065
 2998TIP3   OH2 8999   4.920   3.828   5.089
 2998TIP3    H1 9000   5.008   3.816   5.052
 2998TIP3    H2 9001   4.909   3.923   5.096
 2999TIP3   OH2 9002   4.309   1.043   0.315
 2999TIP3    H1 9003   4.289   1.115   0.254
 2999TIP3    H2 9004   4.281   1.076   0.400
 3000TIP3   OH2 9005   4.064   4.692   3.615
 3000TIP3    H1 9006   4.151   4.677   3.653
 3000TIP3    H2 9007   4.023   4.757   3.672
 3001TIP3   OH2 9008   4.452   2.818   3.021
 3001TIP3    H1 9009   4.515   2.745   3.017
 3001TIP3    H2 9010   4.503   2.891   3.055
 3002TIP3   OH2 9011   2.085   2.674   5.004
 3002TIP3    H1 9012   2.039   2.673   5.088
 3002TIP3    H2 9013   2.169   2.716   5.023
 3003TIP3   OH2 9014   4.872   4.909   4.954
 3003TIP3    H1 9015   4.901   4.997   4.931
 3003TIP3    H2 9016   4.833   4.875   4.874
 3004TIP3   OH2 9017   5.137   1.140   0.370
 3004TIP3    H1 9018   5.202   1.070   0.370
 3004TIP3    H2 9019   5.092   1.131   0.285
 3005TIP3   OH2 9020   4.743   3.429   4.031
 3005TIP3    H1 9021   4.770   3.359   3.970
 3005TIP3    H2 9022   4.659   3.398   4.066
 3006TIP3   OH2 9023   3.439   1.449   1.252
 3006TIP3    H1 9024   3.431   1.539   1.221
 3006TIP3    H2 9025   3.526   1.421   1.224
 3007TIP3   OH2 9026   5.981   2.928   4.953
 3007TIP3    H1 9027   5.986   2.972   5.038
 3007TIP3    H2 9028   6.023   2.843   4.968
 3008TIP3   OH2 9029   5.257   0.276   4.151
 3008TIP3    H1 9030   5.265   0.192   4.195
 3008TIP3    H2 9031   5.317   0.334   4.200
 3009TIP3   OH2 9032   3.252   3.861   0.052
 3009TIP3    H1 9033   3.334   3.906   0.035
 3009TIP3    H2 9034   3.242   3.863   0.147
 3010TIP3   OH2 9035   4.937   1.649   0.313
 3010TIP3    H1 9036   5.023   1.690   0.309
 3010TIP3    H2 9037   4.876   1.721   0.329
 3011TIP3   OH2 9038   1.109   5.312   0.844
 3011TIP3    H1 9039   1.063   5.250   0.788
 3011TIP3    H2 9040   1.092   5.397   0.804
 3012TIP3   OH2 9041   1.400   2.915   3.833
 3012TIP3    H1 9042   1.454   2.994   3.827
 3012TIP3    H2 9043   1.318   2.944   3.873
 3013TIP3   OH2 9044   0.446   5.011   3.345
 3013TIP3    H1 9045   0.367   4.973   3.383
 3013TIP3    H2 9046   0.477   5.073   3.411
 3014TIP3   OH2 9047   4.258   0.149   0.770
 3014TIP3    H1 9048   4.350   0.135   0.744
 3014TIP3    H2 9049   4.242   0.241   0.750
 3015TIP3   OH2 9050   2.734   0.494   2.280
 3015TIP3    H1 9051   2.710   0.435   2.210
 3015TIP3    H2 9052   2.667   0.562   2.279
 3016TIP3   OH2 9053   1.788   4.718   0.603
 3016TIP3    H1 9054   1.759   4.695   0.515
 3016TIP3    H2 9055   1.819   4.808   0.596
 3017TIP3   OH2 9056   3.489   4.974   5.013
 3017TIP3    H1 9057   3.540   5.052   4.990
 3017TIP3    H2 9058   3.399   4.998   4.994
 3018TIP3   OH2 9059   5.829   3.622   3.565
 3018TIP3    H1 9060   5.748   3.669   3.547
 3018TIP3    H2 9061   5.837   3.559   3.493
 3019TIP3   OH2 9062   4.334   5.764   2.866
 3019TIP3    H1 9063   4.265   5.703   2.840
 3019TIP3    H2 9064   4.389   5.713   2.926
 3020TIP3   OH2 9065   3.619   2.121   1.198
 3020TIP3    H1 9066   3.659   2.035   1.208
 3020TIP3    H2 9067   3.693   2.181   1.187
 3021TIP3   OH2 9068   0.333   0.699   5.130
 3021TIP3    H1 9069   0.260   0.758   5.113
 3021TIP3    H2 9070   0.395   0.716   5.059
 3022TIP3   OH2 9071   4.278   3.065   2.103
 3022TIP3    H1 9072   4.280   2.976   2.069
 3022TIP3    H2 9073   4.365   3.079   2.140
 3023TIP3   OH2 9074   1.844   0.371   5.085
 3023TIP3    H1 9075   1.866   0.279   5.073
 3023TIP3    H2 9076   1.749   0.372   5.096
 3024TIP3   OH2 9077   2.059   1.139   2.637
 3024TIP3    H1 9078   1.978   1.096   2.607
 3024TIP3    H2 9079   2.093   1.181   2.558
 3025TIP3   OH2 9080   6.264   2.370   3.978
 3025TIP3    H1 9081   6.249   2.277   3.964
 3025TIP3    H2 9082   6.302   2.375   4.066
 3026TIP3   OH2 9083   4.203   1.372   4.379
 3026TIP3    H1 9084   4.107   1.366   4.380
 3026TIP3    H2 9085   4.228   1.364   4.471
 3027TIP3   OH2 9086   0.506   3.557   0.908
 3027TIP3    H1 9087   0.580   3.613   0.932
 3027TIP3    H2 9088   0.483   3.511   0.989
 3028TIP3   OH2 9089   4.182   1.111   0.623
 3028TIP3    H1 9090   4.239   1.174   0.667
 3028TIP3    H2 9091   4.099   1.116   0.670
 3029TIP3   OH2 9092   1.872   5.218   4.044
 3029TIP3    H1 9093   1.913   5.279   3.982
 3029TIP3    H2 9094   1.830   5.152   3.989
 3030TIP3   OH2 9095   4.430   3.218   1.434
 3030TIP3    H1 9096   4.444   3.207   1.528
 3030TIP3    H2 9097   4.462   3.136   1.396
 3031TIP3   OH2 9098   3.863   3.179   3.335
 3031TIP3    H1 9099   3.769   3.176   3.355
 3031TIP3    H2 9100   3.905   3.187   3.421
 3032TIP3   OH2 9101   2.526   3.678   2.393
 3032TIP3    H1 9102   2.472   3.719   2.325
 3032TIP3    H2 9103   2.539   3.748   2.458
 3033TIP3   OH2 9104   4.859   1.492   2.996
 3033TIP3    H1 9105   4.868   1.405   2.957
 3033TIP3    H2 9106   4.889   1.552   2.928
 3034TIP3   OH2 9107   2.275   4.343   5.055
 3034TIP3    H1 9108   2.290   4.325   5.148
 3034TIP3    H2 9109   2.338   4.287   5.009
 3035TIP3   OH2 9110   5.192   0.922   4.184
 3035TIP3    H1 9111   5.098   0.931   4.169
 3035TIP3    H2 9112   5.227   1.011   4.178
 3036TIP3   OH2 9113   1.839   4.124   2.591
 3036TIP3    H1 9114   1.756   4.095   2.554
 3036TIP3    H2 9115   1.854   4.211   2.553
 3037TIP3   OH2 9116   5.218   3.613   2.514
 3037TIP3    H1 9117   5.180   3.666   2.443
 3037TIP3    H2 9118   5.156   3.541   2.525
 3038TIP3   OH2 9119   5.811   5.789   3.123
 3038TIP3    H1 9120   5.734   5.751   3.166
 3038TIP3    H2 9121   5.846   5.851   3.188
 3039TIP3   OH2 9122   1.796   2.041   0.434
 3039TIP3    H1 9123   1.769   1.950   0.421
 3039TIP3    H2 9124   1.753   2.089   0.363
 3040TIP3   OH2 9125   4.579   2.504   3.356
 3040TIP3    H1 9126   4.654   2.539   3.306
 3040TIP3    H2 9127   4.519   2.578   3.364
 3041TIP3   OH2 9128   5.750   1.621   1.891
 3041TIP3    H1 9129   5.671   1.595   1.939
 3041TIP3    H2 9130   5.816   1.632   1.959
 3042TIP3   OH2 9131   1.140   5.771   0.508
 3042TIP3    H1 9132   1.153   5.705   0.576
 3042TIP3    H2 9133   1.116   5.720   0.430
 3043TIP3   OH2 9134   2.272   4.850   0.581
 3043TIP3    H1 9135   2.329   4.775   0.567
 3043TIP3    H2 9136   2.183   4.813   0.579
 3044TIP3   OH2 9137   0.844   3.057   2.188
 3044TIP3    H1 9138   0.753   3.067   2.162
 3044TIP3    H2 9139   0.841   3.012   2.272
 3045TIP3   OH2 9140   5.182   1.093   3.182
 3045TIP3    H1 9141   5.225   1.067   3.263
 3045TIP3    H2 9142   5.097   1.127   3.210
 3046TIP3   OH2 9143   2.255   1.993   1.463
 3046TIP3    H1 9144   2.270   2.053   1.536
 3046TIP3    H2 9145   2.281   1.907   1.497
 3047TIP3   OH2 9146   2.122   1.946   2.520
 3047TIP3    H1 9147   2.030   1.943   2.496
 3047TIP3    H2 9148   2.153   2.030   2.487
 3048TIP3   OH2 9149   3.556   0.259   1.770
 3048TIP3    H1 9150   3.632   0.202   1.781
 3048TIP3    H2 9151   3.516   0.230   1.688
 3049TIP3   OH2 9152   0.648   4.993   0.009
 3049TIP3    H1 9153   0.679   5.083   0.000
 3049TIP3    H2 9154   0.698   4.959   0.084
 3050TIP3   OH2 9155   1.018   1.118   1.604
 3050TIP3    H1 9156   1.017   1.212   1.616
 3050TIP3    H2 9157   1.110   1.093   1.608
 3051TIP3   OH2 9158   1.804   3.667   2.127
 3051TIP3    H1 9159   1.849   3.605   2.185
 3051TIP3    H2 9160   1.798   3.621   2.043
 3052TIP3   OH2 9161   6.308   4.327   4.327
 3052TIP3    H1 9162   6.252   4.334   4.403
 3052TIP3    H2 9163   6.396   4.312   4.363
 3053TIP3   OH2 9164   5.833   5.790   3.723
 3053TIP3    H1 9165   5.772   5.831   3.784
 3053TIP3    H2 9166   5.812   5.830   3.638
 3054TIP3   OH2 9167   4.757   4.107   0.329
 3054TIP3    H1 9168   4.774   4.051   0.405
 3054TIP3    H2 9169   4.838   4.105   0.279
 3055TIP3   OH2 9170   3.395   5.324   4.561
 3055TIP3    H1 9171   3.419   5.414   4.586
 3055TIP3    H2 9172   3.420   5.318   4.469
 3056TIP3   OH2 9173   5.502   0.750   0.881
 3056TIP3    H1 9174   5.568   0.819   0.867
 3056TIP3    H2 9175   5.534   0.701   0.957
 3057TIP3   OH2 9176   0.978   2.662   0.304
 3057TIP3    H1 9177   1.067   2.688   0.330
 3057TIP3    H2 9178   0.921   2.725   0.349
 3058TIP3   OH2 9179   3.543   0.202   2.788
 3058TIP3    H1 9180   3.581   0.116   2.773
 3058TIP3    H2 9181   3.556   0.220   2.881
 3059TIP3   OH2 9182   2.025   0.420   0.526
 3059TIP3    H1 9183   2.001   0.382   0.611
 3059TIP3    H2 9184   1.959   0.487   0.510
 3060TIP3   OH2 9185   3.751   3.398   1.658
 3060TIP3    H1 9186   3.831   3.445   1.684
 3060TIP3    H2 9187   3.682   3.464   1.665
 3061TIP3   OH2 9188   5.581   4.927   4.777
 3061TIP3    H1 9189   5.602   5.020   4.768
 3061TIP3    H2 9190   5.493   4.920   4.739
 3062TIP3   OH2 9191   6.303   0.947   4.988
 3062TIP3    H1 9192   6.252   0.866   4.988
 3062TIP3    H2 9193   6.238   1.017   4.997
 3063TIP3   OH2 9194   3.369   5.308   1.457
 3063TIP3    H1 9195   3.453   5.284   1.495
 3063TIP3    H2 9196   3.365   5.403   1.465
 3064TIP3   OH2 9197   5.030   0.989   0.162
 3064TIP3    H1 9198   4.999   0.934   0.089
 3064TIP3    H2 9199   4.950   1.020   0.204
 3065TIP3   OH2 9200   6.227   1.630   2.624
 3065TIP3    H1 9201   6.203   1.661   2.537
 3065TIP3    H2 9202   6.146   1.592   2.658
 3066TIP3   OH2 9203   1.440   1.493   4.657
 3066TIP3    H1 9204   1.428   1.512   4.564
 3066TIP3    H2 9205   1.354   1.461   4.685
 3067TIP3   OH2 9206   1.566   5.180   4.959
 3067TIP3    H1 9207   1.622   5.234   5.014
 3067TIP3    H2 9208   1.620   5.104   4.936
 3068TIP3   OH2 9209   6.323   4.507   0.882
 3068TIP3    H1 9210   6.228   4.521   0.891
 3068TIP3    H2 9211   6.362   4.589   0.910
 3069TIP3   OH2 9212   0.511   2.709   2.696
 3069TIP3    H1 9213   0.443   2.706   2.629
 3069TIP3    H2 9214   0.566   2.784   2.672
 3070TIP3   OH2 9215   4.393   5.602   4.084
 3070TIP3    H1 9216   4.443   5.546   4.025
 3070TIP3    H2 9217   4.416   5.691   4.058
 3071TIP3   OH2 9218   5.088   5.407   1.973
 3071TIP3    H1 9219   5.114   5.424   2.063
 3071TIP3    H2 9220   5.169   5.414   1.922
 3072TIP3   OH2 9221   6.042   3.030   1.476
 3072TIP3    H1 9222   5.998   3.109   1.445
 3072TIP3    H2 9223   6.010   3.018   1.566
 3073TIP3   OH2 9224   3.034   2.293   2.679
 3073TIP3    H1 9225   2.957   2.238   2.695
 3073TIP3    H2 9226   3.100   2.232   2.645
 3074TIP3   OH2 9227   1.878   2.831   1.265
 3074TIP3    H1 9228   1.886   2.807   1.358
 3074TIP3    H2 9229   1.787   2.810   1.243
 3075TIP3   OH2 9230   5.321   2.067   0.647
 3075TIP3    H1 9231   5.381   2.134   0.616
 3075TIP3    H2 9232   5.331   1.995   0.584
 3076TIP3   OH2 9233   0.634   0.294   2.335
 3076TIP3    H1 9234   0.661   0.379   2.299
 3076TIP3    H2 9235   0.608   0.243   2.258
 3077TIP3   OH2 9236   2.776   4.037   1.944
 3077TIP3    H1 9237   2.832   4.010   1.872
 3077TIP3    H2 9238   2.789   4.132   1.950
 3078TIP3   OH2 9239   4.402   4.123   3.224
 3078TIP3    H1 9240   4.457   4.168   3.289
 3078TIP3    H2 9241   4.420   4.030   3.238
 3079TIP3   OH2 9242   5.814   1.139   4.553
 3079TIP3    H1 9243   5.743   1.162   4.614
 3079TIP3    H2 9244   5.810   1.043   4.548
 3080TIP3   OH2 9245   2.014   5.401   4.705
 3080TIP3    H1 9246   2.106   5.426   4.717
 3080TIP3    H2 9247   2.012   5.308   4.728
 3081TIP3   OH2 9248   0.151   5.803   1.110
 3081TIP3    H1 9249   0.088   5.855   1.060
 3081TIP3    H2 9250   0.170   5.728   1.054
 3082TIP3   OH2 9251   1.518   3.158   3.841
 3082TIP3    H1 9252   1.533   3.211   3.763
 3082TIP3    H2 9253   1.592   3.178   3.898
 3083TIP3   OH2 9254   6.383   4.674   4.514
 3083TIP3    H1 9255   6.374   4.595   4.460
 3083TIP3    H2 9256   6.394   4.745   4.451
 3084TIP3   OH2 9257   0.744   2.084   4.633
 3084TIP3    H1 9258   0.793   2.164   4.614
 3084TIP3    H2 9259   0.791   2.043   4.706
 3085TIP3   OH2 9260   4.884   2.366   2.777
 3085TIP3    H1 9261   4.974   2.395   2.794
 3085TIP3    H2 9262   4.851   2.427   2.711
 3086TIP3   OH2 9263   2.083   3.586   3.142
 3086TIP3    H1 9264   2.037   3.582   3.226
 3086TIP3    H2 9265   2.105   3.678   3.131
 3087TIP3   OH2 9266   2.165   4.303   3.883
 3087TIP3    H1 9267   2.109   4.257   3.945
 3087TIP3    H2 9268   2.166   4.394   3.914
 3088TIP3   OH2 9269   5.731   4.901   0.569
 3088TIP3    H1 9270   5.641   4.890   0.598
 3088TIP3    H2 9271   5.777   4.826   0.606
 3089TIP3   OH2 9272   6.182   0.972   3.874
 3089TIP3    H1 9273   6.199   1.034   3.944
 3089TIP3    H2 9274   6.194   0.886   3.914
 3090TIP3   OH2 9275   3.310   5.273   0.755
 3090TIP3    H1 9276   3.317   5.212   0.829
 3090TIP3    H2 9277   3.219   5.265   0.727
 3091TIP3   OH2 9278   0.661   4.351   4.199
 3091TIP3    H1 9279   0.608   4.395   4.265
 3091TIP3    H2 9280   0.745   4.398   4.200
 3092TIP3   OH2 9281   2.959   2.513   0.387
 3092TIP3    H1 9282   2.869   2.512   0.420
 3092TIP3    H2 9283   2.967   2.596   0.341
 3093TIP3   OH2 9284   0.754   2.133   1.703
 3093TIP3    H1 9285   0.662   2.117   1.682
 3093TIP3    H2 9286   0.785   2.051   1.743
 3094TIP3   OH2 9287   3.621   1.867   1.380
 3094TIP3    H1 9288   3.621   1.805   1.454
 3094TIP3    H2 9289   3.710   1.900   1.376
 3095TIP3   OH2 9290   5.825   3.699   0.284
 3095TIP3    H1 9291   5.760   3.654   0.339
 3095TIP3    H2 9292   5.808   3.792   0.298
 3096TIP3   OH2 9293   2.515   2.872   1.983
 3096TIP3    H1 9294   2.465   2.873   2.065
 3096TIP3    H2 9295   2.524   2.780   1.962
 3097TIP3   OH2 9296   0.149   4.218   3.850
 3097TIP3    H1 9297   0.143   4.183   3.761
 3097TIP3    H2 9298   0.059   4.242   3.872
 3098TIP3   OH2 9299   3.018   4.177   2.861
 3098TIP3    H1 9300   3.103   4.220   2.875
 3098TIP3    H2 9301   3.035   4.115   2.789
 3099TIP3   OH2 9302   1.039   3.750   1.800
 3099TIP3    H1 9303   0.996   3.680   1.851
 3099TIP3    H2 9304   1.114   3.708   1.760
 3100TIP3   OH2 9305   3.766   1.462   2.090
 3100TIP3    H1 9306   3.705   1.448   2.161
 3100TIP3    H2 9307   3.757   1.555   2.067
 3101TIP3   OH2 9308   3.293   3.143   4.741
 3101TIP3    H1 9309   3.213   3.164   4.692
 3101TIP3    H2 9310   3.302   3.048   4.732
 3102TIP3   OH2 9311   3.866   1.994   1.352
 3102TIP3    H1 9312   3.887   2.086   1.364
 3102TIP3    H2 9313   3.949   1.954   1.325
 3103TIP3   OH2 9314   0.595   4.922   2.999
 3103TIP3    H1 9315   0.552   4.836   2.997
 3103TIP3    H2 9316   0.617   4.940   2.908
 3104TIP3   OH2 9317   5.152   2.438   2.796
 3104TIP3    H1 9318   5.203   2.508   2.756
 3104TIP3    H2 9319   5.197   2.419   2.878
 3105TIP3   OH2 9320   1.570   0.585   3.729
 3105TIP3    H1 9321   1.638   0.572   3.795
 3105TIP3    H2 9322   1.557   0.680   3.725
 3106TIP3   OH2 9323   5.296   3.402   2.209
 3106TIP3    H1 9324   5.325   3.397   2.118
 3106TIP3    H2 9325   5.292   3.496   2.227
 3107TIP3   OH2 9326   2.054   1.519   0.603
 3107TIP3    H1 9327   2.119   1.513   0.532
 3107TIP3    H2 9328   1.984   1.573   0.567
 3108TIP3   OH2 9329   1.451   3.649   3.435
 3108TIP3    H1 9330   1.529   3.703   3.449
 3108TIP3    H2 9331   1.438   3.604   3.518
 3109TIP3   OH2 9332   2.204   0.101   1.197
 3109TIP3    H1 9333   2.145   0.157   1.247
 3109TIP3    H2 9334   2.150   0.067   1.125
 3110TIP3   OH2 9335   2.723   4.671   4.105
 3110TIP3    H1 9336   2.798   4.689   4.162
 3110TIP3    H2 9337   2.647   4.678   4.162
 3111TIP3   OH2 9338   4.669   2.351   2.973
 3111TIP3    H1 9339   4.715   2.400   2.905
 3111TIP3    H2 9340   4.734   2.337   3.041
 3112TIP3   OH2 9341   3.108   5.753   2.390
 3112TIP3    H1 9342   3.113   5.699   2.469
 3112TIP3    H2 9343   3.169   5.824   2.406
 3113TIP3   OH2 9344   1.639   3.552   1.032
 3113TIP3    H1 9345   1.638   3.648   1.032
 3113TIP3    H2 9346   1.614   3.528   1.121
 3114TIP3   OH2 9347   3.272   4.180   4.318
 3114TIP3    H1 9348   3.222   4.109   4.278
 3114TIP3    H2 9349   3.276   4.156   4.411
 3115TIP3   OH2 9350   3.881   5.625   0.243
 3115TIP3    H1 9351   3.823   5.612   0.168
 3115TIP3    H2 9352   3.826   5.609   0.320
 3116TIP3   OH2 9353   3.133   4.786   1.456
 3116TIP3    H1 9354   3.166   4.859   1.509
 3116TIP3    H2 9355   3.128   4.821   1.367
 3117TIP3   OH2 9356   1.592   0.429   0.422
 3117TIP3    H1 9357   1.681   0.414   0.387
 3117TIP3    H2 9358   1.541   0.356   0.387
 3118TIP3   OH2 9359   4.362   2.247   2.936
 3118TIP3    H1 9360   4.452   2.271   2.915
 3118TIP3    H2 9361   4.367   2.210   3.025
 3119TIP3   OH2 9362   0.358   1.295   4.669
 3119TIP3    H1 9363   0.283   1.303   4.727
 3119TIP3    H2 9364   0.353   1.206   4.634
 3120TIP3   OH2 9365   4.560   3.487   1.552
 3120TIP3    H1 9366   4.533   3.530   1.634
 3120TIP3    H2 9367   4.578   3.559   1.492
 3121TIP3   OH2 9368   2.867   5.093   2.181
 3121TIP3    H1 9369   2.906   5.110   2.095
 3121TIP3    H2 9370   2.843   5.180   2.213
 3122TIP3   OH2 9371   5.073   1.815   0.581
 3122TIP3    H1 9372   5.022   1.871   0.640
 3122TIP3    H2 9373   5.088   1.869   0.504
 3123TIP3   OH2 9374   0.041   1.216   3.943
 3123TIP3    H1 9375  -0.006   1.300   3.943
 3123TIP3    H2 9376   0.043   1.191   4.036
 3124TIP3   OH2 9377   3.835   2.138   3.959
 3124TIP3    H1 9378   3.835   2.067   3.894
 3124TIP3    H2 9379   3.755   2.187   3.940
 3125TIP3   OH2 9380   4.684   5.112   0.198
 3125TIP3    H1 9381   4.767   5.132   0.241
 3125TIP3    H2 9382   4.709   5.077   0.112
 3126TIP3   OH2 9383   5.788   3.479   2.000
 3126TIP3    H1 9384   5.884   3.479   1.999
 3126TIP3    H2 9385   5.765   3.553   2.056
 3127TIP3   OH2 9386   1.235   3.151   0.395
 3127TIP3    H1 9387   1.175   3.120   0.463
 3127TIP3    H2 9388   1.178   3.187   0.327
 3128TIP3   OH2 9389   2.030   0.142   2.946
 3128TIP3    H1 9390   1.985   0.083   3.007
 3128TIP3    H2 9391   1.968   0.213   2.933
 3129TIP3   OH2 9392   2.408   5.070   2.788
 3129TIP3    H1 9393   2.349   5.118   2.731
 3129TIP3    H2 9394   2.495   5.083   2.749
 3130TIP3   OH2 9395   3.768   2.754   1.884
 3130TIP3    H1 9396   3.676   2.731   1.872
 3130TIP3    H2 9397   3.814   2.703   1.817
 3131TIP3   OH2 9398   2.196   1.927   4.383
 3131TIP3    H1 9399   2.203   2.005   4.328
 3131TIP3    H2 9400   2.287   1.902   4.401
 3132TIP3   OH2 9401   0.394   5.889   4.234
 3132TIP3    H1 9402   0.451   5.941   4.177
 3132TIP3    H2 9403   0.452   5.857   4.303
 3133TIP3   OH2 9404   2.244   5.084   4.566
 3133TIP3    H1 9405   2.194   5.114   4.642
 3133TIP3    H2 9406   2.303   5.157   4.546
 3134TIP3   OH2 9407   3.850   2.932   3.197
 3134TIP3    H1 9408   3.852   2.970   3.109
 3134TIP3    H2 9409   3.892   2.999   3.252
 3135TIP3   OH2 9410   5.544   0.750   1.249
 3135TIP3    H1 9411   5.607   0.785   1.312
 3135TIP3    H2 9412   5.594   0.686   1.199
 3136TIP3   OH2 9413   2.694   1.071   0.121
 3136TIP3    H1 9414   2.771   1.029   0.160
 3136TIP3    H2 9415   2.724   1.099   0.034
 3137TIP3   OH2 9416   3.745   3.331   4.763
 3137TIP3    H1 9417   3.707   3.407   4.719
 3137TIP3    H2 9418   3.700   3.256   4.723
 3138TIP3   OH2 9419   5.987   1.036   4.788
 3138TIP3    H1 9420   5.896   1.025   4.816
 3138TIP3    H2 9421   6.028   1.085   4.858
 3139TIP3   OH2 9422   2.930   0.711   3.945
 3139TIP3    H1 9423   2.908   0.678   3.858
 3139TIP3    H2 9424   2.896   0.800   3.947
 3140TIP3   OH2 9425   6.090   4.280   4.518
 3140TIP3    H1 9426   6.052   4.344   4.578
 3140TIP3    H2 9427   6.096   4.199   4.569
 3141TIP3   OH2 9428   3.351   5.783   2.785
 3141TIP3    H1 9429   3.425   5.816   2.735
 3141TIP3    H2 9430   3.345   5.840   2.862
 3142TIP3   OH2 9431   3.616   3.848   3.731
 3142TIP3    H1 9432   3.659   3.858   3.816
 3142TIP3    H2 9433   3.688   3.846   3.668
 3143TIP3   OH2 9434   5.817   0.784   1.769
 3143TIP3    H1 9435   5.745   0.793   1.832
 3143TIP3    H2 9436   5.849   0.695   1.781
 3144TIP3   OH2 9437   2.668   0.987   4.137
 3144TIP3    H1 9438   2.674   0.920   4.205
 3144TIP3    H2 9439   2.677   1.070   4.185
 3145TIP3   OH2 9440   2.247   5.991   2.679
 3145TIP3    H1 9441   2.156   6.001   2.707
 3145TIP3    H2 9442   2.263   5.897   2.682
 3146TIP3   OH2 9443   3.083   2.349   1.273
 3146TIP3    H1 9444   3.140   2.426   1.263
 3146TIP3    H2 9445   3.115   2.306   1.352
 3147TIP3   OH2 9446   3.604   4.032   2.743
 3147TIP3    H1 9447   3.685   4.033   2.795
 3147TIP3    H2 9448   3.628   4.076   2.662
 3148TIP3   OH2 9449   5.494   1.053   0.973
 3148TIP3    H1 9450   5.482   1.129   0.916
 3148TIP3    H2 9451   5.578   1.068   1.016
 3149TIP3   OH2 9452   6.048   1.275   4.447
 3149TIP3    H1 9453   5.973   1.255   4.504
 3149TIP3    H2 9454   6.079   1.189   4.420
 3150TIP3   OH2 9455   1.438   4.220   2.179
 3150TIP3    H1 9456   1.394   4.140   2.208
 3150TIP3    H2 9457   1.374   4.290   2.195
 3151TIP3   OH2 9458   2.584   0.947   2.019
 3151TIP3    H1 9459   2.508   1.006   2.011
 3151TIP3    H2 9460   2.590   0.905   1.934
 3152TIP3   OH2 9461   6.150   4.144   1.854
 3152TIP3    H1 9462   6.138   4.227   1.807
 3152TIP3    H2 9463   6.113   4.078   1.796
 3153TIP3   OH2 9464   2.202   3.062   5.216
 3153TIP3    H1 9465   2.281   3.013   5.237
 3153TIP3    H2 9466   2.233   3.151   5.198
 3154TIP3   OH2 9467   4.950   0.039   1.301
 3154TIP3    H1 9468   5.032   0.043   1.251
 3154TIP3    H2 9469   4.937   0.129   1.333
 3155TIP3   OH2 9470   1.352   3.345   1.172
 3155TIP3    H1 9471   1.441   3.333   1.206
 3155TIP3    H2 9472   1.301   3.274   1.211
 3156TIP3   OH2 9473   4.031   1.364   4.655
 3156TIP3    H1 9474   4.098   1.401   4.712
 3156TIP3    H2 9475   3.949   1.380   4.701
 3157TIP3   OH2 9476   4.399   4.641   1.994
 3157TIP3    H1 9477   4.343   4.622   2.069
 3157TIP3    H2 9478   4.486   4.654   2.031
 3158TIP3   OH2 9479   3.090   1.545   2.478
 3158TIP3    H1 9480   3.123   1.462   2.445
 3158TIP3    H2 9481   3.038   1.522   2.555
 3159TIP3   OH2 9482   4.454   5.729   2.340
 3159TIP3    H1 9483   4.385   5.760   2.281
 3159TIP3    H2 9484   4.410   5.718   2.424
 3160TIP3   OH2 9485   1.287   3.078   1.706
 3160TIP3    H1 9486   1.296   2.987   1.678
 3160TIP3    H2 9487   1.353   3.125   1.656
 3161TIP3   OH2 9488   0.768   4.640   3.815
 3161TIP3    H1 9489   0.797   4.556   3.780
 3161TIP3    H2 9490   0.675   4.644   3.793
 3162TIP3   OH2 9491   6.138   2.897   0.643
 3162TIP3    H1 9492   6.048   2.925   0.663
 3162TIP3    H2 9493   6.161   2.944   0.563
 3163TIP3   OH2 9494   3.223   1.328   0.939
 3163TIP3    H1 9495   3.222   1.260   0.872
 3163TIP3    H2 9496   3.208   1.409   0.892
 3164TIP3   OH2 9497   4.638   4.645   5.104
 3164TIP3    H1 9498   4.715   4.598   5.136
 3164TIP3    H2 9499   4.650   4.651   5.009
 3165TIP3   OH2 9500   4.902   3.513   3.658
 3165TIP3    H1 9501   4.834   3.507   3.591
 3165TIP3    H2 9502   4.854   3.524   3.740
 3166TIP3   OH2 9503   5.678   2.380   4.073
 3166TIP3    H1 9504   5.753   2.331   4.037
 3166TIP3    H2 9505   5.618   2.389   3.999
 3167TIP3   OH2 9506   4.873   5.860   1.836
 3167TIP3    H1 9507   4.786   5.822   1.853
 3167TIP3    H2 9508   4.934   5.801   1.882
 3168TIP3   OH2 9509   2.142   3.864   3.131
 3168TIP3    H1 9510   2.057   3.897   3.160
 3168TIP3    H2 9511   2.162   3.914   3.052
 3169TIP3   OH2 9512   2.376   0.096   4.485
 3169TIP3    H1 9513   2.447   0.038   4.461
 3169TIP3    H2 9514   2.410   0.184   4.467
 3170TIP3   OH2 9515   2.371   4.699   1.311
 3170TIP3    H1 9516   2.283   4.704   1.273
 3170TIP3    H2 9517   2.389   4.605   1.318
 3171TIP3   OH2 9518   1.286   2.014   3.295
 3171TIP3    H1 9519   1.245   2.013   3.381
 3171TIP3    H2 9520   1.372   1.974   3.308
 3172TIP3   OH2 9521   2.342   3.814   3.881
 3172TIP3    H1 9522   2.382   3.760   3.813
 3172TIP3    H2 9523   2.404   3.885   3.895
 3173TIP3   OH2 9524   1.339   4.866   2.515
 3173TIP3    H1 9525   1.335   4.948   2.565
 3173TIP3    H2 9526   1.366   4.800   2.580
 3174TIP3   OH2 9527   3.578   0.081   2.445
 3174TIP3    H1 9528   3.518   0.155   2.442
 3174TIP3    H2 9529   3.544   0.019   2.382
 3175TIP3   OH2 9530   2.010   5.347   3.859
 3175TIP3    H1 9531   2.033   5.416   3.797
 3175TIP3    H2 9532   2.045   5.267   3.820
 3176TIP3   OH2 9533   4.417   4.197   2.834
 3176TIP3    H1 9534   4.358   4.124   2.813
 3176TIP3    H2 9535   4.427   4.192   2.929
 3177TIP3   OH2 9536   5.394   1.009   5.076
 3177TIP3    H1 9537   5.413   0.945   5.145
 3177TIP3    H2 9538   5.301   0.997   5.057
 3178TIP3   OH2 9539   4.290   1.120   3.829
 3178TIP3    H1 9540   4.231   1.177   3.780
 3178TIP3    H2 9541   4.232   1.070   3.887
 3179TIP3   OH2 9542   1.373   0.277   1.242
 3179TIP3    H1 9543   1.465   0.296   1.258
 3179TIP3    H2 9544   1.331   0.287   1.328
 3180TIP3   OH2 9545   2.345   0.738   4.221
 3180TIP3    H1 9546   2.259   0.781   4.216
 3180TIP3    H2 9547   2.337   0.679   4.296
 3181TIP3   OH2 9548   0.299   0.893   1.550
 3181TIP3    H1 9549   0.313   0.862   1.460
 3181TIP3    H2 9550   0.259   0.819   1.595
 3182TIP3   OH2 9551   4.951   3.110   4.236
 3182TIP3    H1 9552   4.944   3.129   4.329
 3182TIP3    H2 9553   4.876   3.154   4.196
 3183TIP3   OH2 9554   0.116   3.792   4.628
 3183TIP3    H1 9555   0.105   3.730   4.556
 3183TIP3    H2 9556   0.168   3.745   4.693
 3184TIP3   OH2 9557   3.189   2.173   1.471
 3184TIP3    H1 9558   3.279   2.155   1.499
 3184TIP3    H2 9559   3.151   2.087   1.453
 3185TIP3   OH2 9560   1.027   0.870   4.283
 3185TIP3    H1 9561   0.931   0.869   4.282
 3185TIP3    H2 9562   1.051   0.957   4.250
 3186TIP3   OH2 9563   3.099   2.698   1.103
 3186TIP3    H1 9564   3.004   2.698   1.110
 3186TIP3    H2 9565   3.124   2.606   1.103
 3187TIP3   OH2 9566   0.699   0.528   0.525
 3187TIP3    H1 9567   0.784   0.565   0.501
 3187TIP3    H2 9568   0.687   0.454   0.465
 3188TIP3   OH2 9569   2.016   4.630   3.703
 3188TIP3    H1 9570   1.930   4.606   3.738
 3188TIP3    H2 9571   2.000   4.710   3.654
 3189TIP3   OH2 9572   1.518   2.673   0.399
 3189TIP3    H1 9573   1.568   2.752   0.377
 3189TIP3    H2 9574   1.545   2.609   0.333
 3190TIP3   OH2 9575   1.573   1.655   2.014
 3190TIP3    H1 9576   1.505   1.608   2.061
 3190TIP3    H2 9577   1.610   1.589   1.955
 3191TIP3   OH2 9578   5.935   1.067   3.764
 3191TIP3    H1 9579   5.872   1.098   3.829
 3191TIP3    H2 9580   6.012   1.041   3.815
 3192TIP3   OH2 9581   1.665   4.524   2.641
 3192TIP3    H1 9582   1.668   4.619   2.626
 3192TIP3    H2 9583   1.748   4.492   2.606
 3193TIP3   OH2 9584   2.712   2.209   0.476
 3193TIP3    H1 9585   2.684   2.120   0.497
 3193TIP3    H2 9586   2.783   2.198   0.413
 3194TIP3   OH2 9587   1.379   0.616   4.722
 3194TIP3    H1 9588   1.371   0.546   4.786
 3194TIP3    H2 9589   1.366   0.697   4.772
 3195TIP3   OH2 9590   1.717   3.110   1.456
 3195TIP3    H1 9591   1.718   3.016   1.438
 3195TIP3    H2 9592   1.779   3.122   1.527
 3196TIP3   OH2 9593   4.448   1.420   1.997
 3196TIP3    H1 9594   4.484   1.338   2.031
 3196TIP3    H2 9595   4.380   1.394   1.935
 3197TIP3   OH2 9596   1.779   1.989   4.374
 3197TIP3    H1 9597   1.709   2.008   4.438
 3197TIP3    H2 9598   1.853   1.962   4.428
 3198TIP3   OH2 9599   0.292   1.502   1.584
 3198TIP3    H1 9600   0.259   1.558   1.514
 3198TIP3    H2 9601   0.376   1.469   1.551
 3199TIP3   OH2 9602   2.785   0.403   0.735
 3199TIP3    H1 9603   2.870   0.373   0.767
 3199TIP3    H2 9604   2.730   0.325   0.738
 3200TIP3   OH2 9605   2.917   5.882   1.812
 3200TIP3    H1 9606   2.857   5.883   1.737
 3200TIP3    H2 9607   2.865   5.916   1.884
 3201TIP3   OH2 9608   5.548   4.806   1.219
 3201TIP3    H1 9609   5.610   4.879   1.215
 3201TIP3    H2 9610   5.479   4.837   1.278
 3202TIP3   OH2 9611   3.535   3.675   3.512
 3202TIP3    H1 9612   3.524   3.725   3.592
 3202TIP3    H2 9613   3.448   3.675   3.471
 3203TIP3   OH2 9614   3.858   5.849   3.773
 3203TIP3    H1 9615   3.890   5.935   3.798
 3203TIP3    H2 9616   3.765   5.850   3.795
 3204TIP3   OH2 9617   4.841   2.915   4.961
 3204TIP3    H1 9618   4.826   2.862   5.039
 3204TIP3    H2 9619   4.765   2.972   4.955
 3205TIP3   OH2 9620   5.691   3.010   1.146
 3205TIP3    H1 9621   5.637   3.074   1.099
 3205TIP3    H2 9622   5.779   3.048   1.146
 3206TIP3   OH2 9623   5.071   3.161   3.077
 3206TIP3    H1 9624   4.996   3.104   3.093
 3206TIP3    H2 9625   5.079   3.213   3.157
 3207TIP3   OH2 9626   3.831   4.606   1.006
 3207TIP3    H1 9627   3.820   4.699   0.985
 3207TIP3    H2 9628   3.809   4.599   1.099
 3208TIP3   OH2 9629   3.779   5.076   0.331
 3208TIP3    H1 9630   3.687   5.061   0.312
 3208TIP3    H2 9631   3.793   5.170   0.316
 3209TIP3   OH2 9632   5.301   0.468   3.124
 3209TIP3    H1 9633   5.343   0.536   3.070
 3209TIP3    H2 9634   5.229   0.513   3.167
 3210TIP3   OH2 9635   2.621   3.739   1.428
 3210TIP3    H1 9636   2.595   3.686   1.503
 3210TIP3    H2 9637   2.696   3.692   1.391
 3211TIP3   OH2 9638   3.001   4.787   0.069
 3211TIP3    H1 9639   3.076   4.842   0.045
 3211TIP3    H2 9640   2.978   4.741  -0.012
 3212TIP3   OH2 9641   3.953   4.783   2.130
 3212TIP3    H1 9642   4.034   4.764   2.178
 3212TIP3    H2 9643   3.936   4.704   2.080
 3213TIP3   OH2 9644   4.667   4.699   2.160
 3213TIP3    H1 9645   4.662   4.791   2.134
 3213TIP3    H2 9646   4.626   4.697   2.247
 3214TIP3   OH2 9647   4.939   3.179   2.544
 3214TIP3    H1 9648   5.015   3.121   2.539
 3214TIP3    H2 9649   4.894   3.165   2.461
 3215TIP3   OH2 9650   3.333   3.610   0.322
 3215TIP3    H1 9651   3.258   3.668   0.339
 3215TIP3    H2 9652   3.314   3.531   0.371
 3216TIP3   OH2 9653   3.845   0.714   2.350
 3216TIP3    H1 9654   3.887   0.783   2.299
 3216TIP3    H2 9655   3.894   0.713   2.433
 3217TIP3   OH2 9656   0.733   3.628   1.006
 3217TIP3    H1 9657   0.774   3.548   1.040
 3217TIP3    H2 9658   0.806   3.689   0.995
 3218TIP3   OH2 9659   3.103   2.193   4.684
 3218TIP3    H1 9660   3.100   2.222   4.593
 3218TIP3    H2 9661   3.076   2.270   4.735
 3219TIP3   OH2 9662   1.245   5.134   1.692
 3219TIP3    H1 9663   1.170   5.185   1.662
 3219TIP3    H2 9664   1.321   5.190   1.676
 3220TIP3   OH2 9665   1.027   2.019   4.442
 3220TIP3    H1 9666   0.980   2.085   4.493
 3220TIP3    H2 9667   0.988   2.022   4.355
 3221TIP3   OH2 9668   5.362   3.604   4.441
 3221TIP3    H1 9669   5.387   3.622   4.351
 3221TIP3    H2 9670   5.269   3.580   4.435
 3222TIP3   OH2 9671   2.049   0.458   3.318
 3222TIP3    H1 9672   2.046   0.552   3.335
 3222TIP3    H2 9673   1.972   0.424   3.365
 3223TIP3   OH2 9674   4.436   4.382   3.709
 3223TIP3    H1 9675   4.531   4.366   3.705
 3223TIP3    H2 9676   4.410   4.393   3.617
 3224TIP3   OH2 9677   4.279   0.275   2.446
 3224TIP3    H1 9678   4.238   0.277   2.533
 3224TIP3    H2 9679   4.222   0.329   2.392
 3225TIP3   OH2 9680   1.071   4.409   2.468
 3225TIP3    H1 9681   1.141   4.362   2.513
 3225TIP3    H2 9682   1.046   4.352   2.396
 3226TIP3   OH2 9683   2.634   0.779   2.823
 3226TIP3    H1 9684   2.661   0.708   2.764
 3226TIP3    H2 9685   2.618   0.854   2.766
 3227TIP3   OH2 9686   2.488   3.167   0.416
 3227TIP3    H1 9687   2.491   3.110   0.493
 3227TIP3    H2 9688   2.404   3.146   0.374
 3228TIP3   OH2 9689   2.434   1.974   0.998
 3228TIP3    H1 9690   2.435   1.999   0.906
 3228TIP3    H2 9691   2.526   1.978   1.025
 3229TIP3   OH2 9692   1.056   2.976   1.852
 3229TIP3    H1 9693   1.119   3.012   1.789
 3229TIP3    H2 9694   0.980   3.034   1.846
 3230TIP3   OH2 9695   1.296   1.219   4.471
 3230TIP3    H1 9696   1.365   1.195   4.409
 3230TIP3    H2 9697   1.216   1.220   4.418
 3231TIP3   OH2 9698   0.729   5.616   3.918
 3231TIP3    H1 9699   0.696   5.704   3.902
 3231TIP3    H2 9700   0.714   5.569   3.836
 3232TIP3   OH2 9701   3.459   4.099   2.361
 3232TIP3    H1 9702   3.547   4.137   2.363
 3232TIP3    H2 9703   3.474   4.005   2.351
 3233TIP3   OH2 9704   5.761   4.039   1.514
 3233TIP3    H1 9705   5.778   4.063   1.423
 3233TIP3    H2 9706   5.725   3.951   1.510
 3234TIP3   OH2 9707   4.062   5.306   0.121
 3234TIP3    H1 9708   4.038   5.266   0.038
 3234TIP3    H2 9709   4.098   5.392   0.097
 3235TIP3   OH2 9710   2.193   5.204   0.732
 3235TIP3    H1 9711   2.144   5.162   0.661
 3235TIP3    H2 9712   2.269   5.243   0.689
 3236TIP3   OH2 9713   6.150   4.247   2.202
 3236TIP3    H1 9714   6.071   4.215   2.159
 3236TIP3    H2 9715   6.208   4.171   2.206
 3237TIP3   OH2 9716   0.954   5.119   1.040
 3237TIP3    H1 9717   1.047   5.126   1.064
 3237TIP3    H2 9718   0.919   5.207   1.055
 3238TIP3   OH2 9719   4.842   0.734   1.572
 3238TIP3    H1 9720   4.790   0.745   1.492
 3238TIP3    H2 9721   4.877   0.645   1.565
 3239TIP3   OH2 9722   2.630   4.336   5.160
 3239TIP3    H1 9723   2.721   4.346   5.188
 3239TIP3    H2 9724   2.594   4.424   5.166
 3240TIP3   OH2 9725   2.003   4.515   4.574
 3240TIP3    H1 9726   2.042   4.472   4.650
 3240TIP3    H2 9727   2.076   4.558   4.530
 3241TIP3   OH2 9728   1.764   3.530   2.649
 3241TIP3    H1 9729   1.812   3.585   2.586
 3241TIP3    H2 9730   1.731   3.457   2.596
 3242TIP3   OH2 9731   5.828   1.806   0.784
 3242TIP3    H1 9732   5.744   1.813   0.739
 3242TIP3    H2 9733   5.806   1.779   0.873
 3243TIP3   OH2 9734   1.933   3.788   1.146
 3243TIP3    H1 9735   2.012   3.823   1.103
 3243TIP3    H2 9736   1.967   3.725   1.209
 3244TIP3   OH2 9737   2.284   2.839   4.099
 3244TIP3    H1 9738   2.338   2.918   4.095
 3244TIP3    H2 9739   2.194   2.871   4.089
 3245TIP3   OH2 9740   1.999   2.767   3.057
 3245TIP3    H1 9741   2.071   2.818   3.092
 3245TIP3    H2 9742   2.040   2.688   3.022
 3246TIP3   OH2 9743   2.497   3.851   2.598
 3246TIP3    H1 9744   2.531   3.792   2.665
 3246TIP3    H2 9745   2.407   3.824   2.585
 3247TIP3   OH2 9746   4.010   0.975   1.736
 3247TIP3    H1 9747   4.034   0.913   1.667
 3247TIP3    H2 9748   3.938   0.932   1.783
 3248TIP3   OH2 9749   4.387   5.321   1.377
 3248TIP3    H1 9750   4.401   5.227   1.386
 3248TIP3    H2 9751   4.475   5.358   1.368
 3249TIP3   OH2 9752   4.344   1.943   5.138
 3249TIP3    H1 9753   4.277   1.878   5.116
 3249TIP3    H2 9754   4.350   1.999   5.060
 3250TIP3   OH2 9755   1.771   3.746   0.747
 3250TIP3    H1 9756   1.733   3.767   0.832
 3250TIP3    H2 9757   1.865   3.749   0.762
 3251TIP3   OH2 9758   5.045   3.930   4.821
 3251TIP3    H1 9759   5.125   3.878   4.814
 3251TIP3    H2 9760   4.975   3.870   4.795
 3252TIP3   OH2 9761   5.512   2.932   3.241
 3252TIP3    H1 9762   5.571   2.985   3.294
 3252TIP3    H2 9763   5.452   2.892   3.304
 3253TIP3   OH2 9764   1.458   1.447   1.044
 3253TIP3    H1 9765   1.413   1.474   1.124
 3253TIP3    H2 9766   1.425   1.506   0.977
 3254TIP3   OH2 9767   5.058   2.055   1.115
 3254TIP3    H1 9768   5.084   2.146   1.103
 3254TIP3    H2 9769   5.129   2.004   1.078
 3255TIP3   OH2 9770   3.971   1.987   2.166
 3255TIP3    H1 9771   3.985   2.070   2.211
 3255TIP3    H2 9772   3.956   2.012   2.075
 3256TIP3   OH2 9773   6.116   4.706   4.303
 3256TIP3    H1 9774   6.054   4.649   4.258
 3256TIP3    H2 9775   6.091   4.794   4.276
 3257TIP3   OH2 9776   2.665   1.274   3.787
 3257TIP3    H1 9777   2.618   1.300   3.866
 3257TIP3    H2 9778   2.599   1.277   3.718
 3258TIP3   OH2 9779   4.214   4.635   2.659
 3258TIP3    H1 9780   4.265   4.561   2.694
 3258TIP3    H2 9781   4.207   4.696   2.732
 3259TIP3   OH2 9782   4.182   4.264   1.085
 3259TIP3    H1 9783   4.197   4.262   1.179
 3259TIP3    H2 9784   4.087   4.262   1.075
 3260TIP3   OH2 9785   3.034   2.923   2.137
 3260TIP3    H1 9786   2.947   2.949   2.108
 3260TIP3    H2 9787   3.038   2.949   2.229
 3261TIP3   OH2 9788   5.787   2.843   4.732
 3261TIP3    H1 9789   5.856   2.887   4.780
 3261TIP3    H2 9790   5.748   2.783   4.796
 3262TIP3   OH2 9791   2.962   1.186   2.337
 3262TIP3    H1 9792   2.895   1.132   2.294
 3262TIP3    H2 9793   3.019   1.215   2.266
 3263TIP3   OH2 9794   2.266   5.685  -0.005
 3263TIP3    H1 9795   2.278   5.661   0.087
 3263TIP3    H2 9796   2.338   5.640  -0.051
 3264TIP3   OH2 9797   5.347   0.500   0.030
 3264TIP3    H1 9798   5.383   0.529   0.114
 3264TIP3    H2 9799   5.345   0.405   0.036
 3265TIP3   OH2 9800   4.631   3.009   1.604
 3265TIP3    H1 9801   4.667   2.941   1.660
 3265TIP3    H2 9802   4.689   3.084   1.614
 3266TIP3   OH2 9803   4.563   0.371   3.996
 3266TIP3    H1 9804   4.597   0.413   4.076
 3266TIP3    H2 9805   4.469   0.390   3.998
 3267TIP3   OH2 9806   4.204   1.124   3.031
 3267TIP3    H1 9807   4.245   1.204   2.996
 3267TIP3    H2 9808   4.235   1.054   2.973
 3268TIP3   OH2 9809   6.045   5.024   2.527
 3268TIP3    H1 9810   6.033   4.979   2.610
 3268TIP3    H2 9811   6.111   5.090   2.545
 3269TIP3   OH2 9812   4.789   0.502   2.844
 3269TIP3    H1 9813   4.732   0.562   2.893
 3269TIP3    H2 9814   4.771   0.416   2.883
 3270TIP3   OH2 9815   5.037   3.606   1.704
 3270TIP3    H1 9816   5.102   3.671   1.678
 3270TIP3    H2 9817   5.078   3.558   1.775
 3271TIP3   OH2 9818   0.100   0.144   5.190
 3271TIP3    H1 9819   0.186   0.178   5.165
 3271TIP3    H2 9820   0.077   0.083   5.121
 3272TIP3   OH2 9821   1.094   5.512   4.642
 3272TIP3    H1 9822   1.061   5.480   4.558
 3272TIP3    H2 9823   1.022   5.497   4.703
 3273TIP3   OH2 9824   4.800   2.935   1.305
 3273TIP3    H1 9825   4.824   3.014   1.257
 3273TIP3    H2 9826   4.882   2.905   1.344
 3274TIP3   OH2 9827   3.268   4.594   1.904
 3274TIP3    H1 9828   3.321   4.673   1.918
 3274TIP3    H2 9829   3.183   4.615   1.942
 3275TIP3   OH2 9830   4.496   0.782   3.753
 3275TIP3    H1 9831   4.449   0.699   3.745
 3275TIP3    H2 9832   4.467   0.817   3.838
 3276TIP3   OH2 9833   0.386   1.089   4.963
 3276TIP3    H1 9834   0.371   1.182   4.980
 3276TIP3    H2 9835   0.303   1.059   4.925
 3277TIP3   OH2 9836   4.240   2.030   1.529
 3277TIP3    H1 9837   4.255   2.095   1.461
 3277TIP3    H2 9838   4.328   2.004   1.557
 3278TIP3   OH2 9839   1.001   4.407   0.470
 3278TIP3    H1 9840   0.961   4.494   0.472
 3278TIP3    H2 9841   1.007   4.382   0.563
 3279TIP3   OH2 9842   0.263   4.535   4.321
 3279TIP3    H1 9843   0.276   4.440   4.327
 3279TIP3    H2 9844   0.198   4.546   4.251
 3280TIP3   OH2 9845   0.905   4.849   1.803
 3280TIP3    H1 9846   0.994   4.843   1.837
 3280TIP3    H2 9847   0.889   4.764   1.763
 3281TIP3   OH2 9848   2.263   5.864   3.645
 3281TIP3    H1 9849   2.212   5.937   3.679
 3281TIP3    H2 9850   2.343   5.864   3.698
 3282TIP3   OH2 9851   2.257   1.784   4.806
 3282TIP3    H1 9852   2.305   1.740   4.736
 3282TIP3    H2 9853   2.254   1.876   4.779
 3283TIP3   OH2 9854   3.822   0.587   1.688
 3283TIP3    H1 9855   3.764   0.612   1.616
 3283TIP3    H2 9856   3.777   0.515   1.732
 3284TIP3   OH2 9857   4.749   0.295   0.847
 3284TIP3    H1 9858   4.682   0.328   0.905
 3284TIP3    H2 9859   4.831   0.307   0.895
 3285TIP3   OH2 9860   4.712   3.009   0.184
 3285TIP3    H1 9861   4.649   3.041   0.249
 3285TIP3    H2 9862   4.798   3.026   0.223
 3286TIP3   OH2 9863   1.462   5.829   0.722
 3286TIP3    H1 9864   1.460   5.741   0.683
 3286TIP3    H2 9865   1.544   5.867   0.692
 3287TIP3   OH2 9866   1.376   5.737   3.406
 3287TIP3    H1 9867   1.293   5.746   3.454
 3287TIP3    H2 9868   1.351   5.696   3.323
 3288TIP3   OH2 9869   5.437   0.245   0.136
 3288TIP3    H1 9870   5.491   0.179   0.093
 3288TIP3    H2 9871   5.473   0.252   0.224
 3289TIP3   OH2 9872   2.820   1.010   2.195
 3289TIP3    H1 9873   2.724   1.002   2.188
 3289TIP3    H2 9874   2.853   0.951   2.128
 3290TIP3   OH2 9875   0.588   2.356   0.769
 3290TIP3    H1 9876   0.501   2.387   0.746
 3290TIP3    H2 9877   0.588   2.263   0.747
 3291TIP3   OH2 9878   1.533   0.068   1.136
 3291TIP3    H1 9879   1.463   0.134   1.135
 3291TIP3    H2 9880   1.511   0.013   1.211
 3292TIP3   OH2 9881   0.024   5.269   4.473
 3292TIP3    H1 9882   0.037   5.209   4.399
 3292TIP3    H2 9883   0.051   5.219   4.550
 3293TIP3   OH2 9884   1.852   2.740   2.693
 3293TIP3    H1 9885   1.793   2.743   2.618
 3293TIP3    H2 9886   1.940   2.749   2.655
 3294TIP3   OH2 9887   6.313   3.447   4.890
 3294TIP3    H1 9888   6.334   3.540   4.891
 3294TIP3    H2 9889   6.220   3.443   4.869
 3295TIP3   OH2 9890   1.469   1.742   1.206
 3295TIP3    H1 9891   1.410   1.667   1.215
 3295TIP3    H2 9892   1.412   1.817   1.198
 3296TIP3   OH2 9893   3.161   0.148   5.123
 3296TIP3    H1 9894   3.144   0.225   5.069
 3296TIP3    H2 9895   3.122   0.075   5.075
 3297TIP3   OH2 9896   0.842   5.586   2.053
 3297TIP3    H1 9897   0.782   5.531   2.002
 3297TIP3    H2 9898   0.854   5.665   2.000
 3298TIP3   OH2 9899   4.617   4.382   0.048
 3298TIP3    H1 9900   4.619   4.473   0.017
 3298TIP3    H2 9901   4.708   4.354   0.049
 3299TIP3   OH2 9902   3.093   0.559   1.911
 3299TIP3    H1 9903   3.134   0.630   1.862
 3299TIP3    H2 9904   3.000   0.580   1.909
 3300TIP3   OH2 9905   4.555   4.715   1.757
 3300TIP3    H1 9906   4.482   4.678   1.806
 3300TIP3    H2 9907   4.520   4.727   1.668
 3301TIP3   OH2 9908   3.634   1.145   3.187
 3301TIP3    H1 9909   3.633   1.055   3.153
 3301TIP3    H2 9910   3.617   1.199   3.110
 3302TIP3   OH2 9911   3.471   0.521   4.611
 3302TIP3    H1 9912   3.417   0.532   4.689
 3302TIP3    H2 9913   3.517   0.605   4.601
 3303TIP3   OH2 9914   5.646   4.674   4.969
 3303TIP3    H1 9915   5.639   4.761   4.930
 3303TIP3    H2 9916   5.740   4.656   4.972
 3304TIP3   OH2 9917   6.337   4.572   4.187
 3304TIP3    H1 9918   6.312   4.527   4.268
 3304TIP3    H2 9919   6.290   4.656   4.191
 3305TIP3   OH2 9920   0.692   5.091   3.202
 3305TIP3    H1 9921   0.613   5.143   3.218
 3305TIP3    H2 9922   0.662   5.021   3.144
 3306TIP3   OH2 9923   5.209   4.300   0.310
 3306TIP3    H1 9924   5.268   4.367   0.343
 3306TIP3    H2 9925   5.141   4.349   0.263
 3307TIP3   OH2 9926   4.395   3.665   2.513
 3307TIP3    H1 9927   4.378   3.627   2.427
 3307TIP3    H2 9928   4.408   3.589   2.570
 3308TIP3   OH2 9929   4.116   2.287   0.067
 3308TIP3    H1 9930   4.163   2.272  -0.015
 3308TIP3    H2 9931   4.127   2.381   0.084
 3309TIP3   OH2 9932   5.084   1.807   4.455
 3309TIP3    H1 9933   5.132   1.851   4.386
 3309TIP3    H2 9934   5.150   1.784   4.520
 3310TIP3   OH2 9935   2.245   1.715   0.241
 3310TIP3    H1 9936   2.340   1.709   0.257
 3310TIP3    H2 9937   2.228   1.648   0.175
 3311TIP3   OH2 9938   5.492   2.753   2.490
 3311TIP3    H1 9939   5.464   2.841   2.467
 3311TIP3    H2 9940   5.588   2.757   2.491
 3312TIP3   OH2 9941   6.247   4.584   0.039
 3312TIP3    H1 9942   6.190   4.522  -0.008
 3312TIP3    H2 9943   6.294   4.630  -0.030
 3313TIP3   OH2 9944   5.882   2.991   0.709
 3313TIP3    H1 9945   5.809   2.934   0.685
 3313TIP3    H2 9946   5.851   3.036   0.788
 3314TIP3   OH2 9947   4.559   5.647   2.993
 3314TIP3    H1 9948   4.610   5.708   3.047
 3314TIP3    H2 9949   4.570   5.563   3.037
 3315TIP3   OH2 9950   3.057   3.047   1.321
 3315TIP3    H1 9951   2.995   3.008   1.382
 3315TIP3    H2 9952   3.031   3.014   1.235
 3316TIP3   OH2 9953   4.479   2.454   2.533
 3316TIP3    H1 9954   4.385   2.440   2.529
 3316TIP3    H2 9955   4.490   2.548   2.547
 3317TIP3   OH2 9956   1.489   3.217  -0.043
 3317TIP3    H1 9957   1.478   3.234   0.051
 3317TIP3    H2 9958   1.468   3.301  -0.085
 3318TIP3   OH2 9959   1.610   5.032   4.507
 3318TIP3    H1 9960   1.593   5.125   4.521
 3318TIP3    H2 9961   1.705   5.026   4.505
 3319TIP3   OH2 9962   2.932   3.389   4.954
 3319TIP3    H1 9963   2.919   3.380   4.860
 3319TIP3    H2 9964   3.013   3.440   4.963
 3320TIP3   OH2 9965   1.736   5.849   2.680
 3320TIP3    H1 9966   1.645   5.875   2.699
 3320TIP3    H2 9967   1.739   5.756   2.700
 3321TIP3   OH2 9968   3.892   2.031   4.669
 3321TIP3    H1 9969   3.839   2.062   4.596
 3321TIP3    H2 9970   3.975   2.005   4.629
 3322TIP3   OH2 9971   2.388   1.278   0.857
 3322TIP3    H1 9972   2.397   1.368   0.888
 3322TIP3    H2 9973   2.348   1.287   0.770
 3323TIP3   OH2 9974   3.824   0.151   1.875
 3323TIP3    H1 9975   3.803   0.130   1.966
 3323TIP3    H2 9976   3.918   0.135   1.868
 3324TIP3   OH2 9977   5.066   1.313   5.168
 3324TIP3    H1 9978   4.985   1.314   5.219
 3324TIP3    H2 9979   5.087   1.220   5.158
 3325TIP3   OH2 9980   4.398   0.791   3.331
 3325TIP3    H1 9981   4.338   0.839   3.388
 3325TIP3    H2 9982   4.378   0.822   3.243
 3326TIP3   OH2 9983   4.117   3.433   3.379
 3326TIP3    H1 9984   4.094   3.346   3.346
 3326TIP3    H2 9985   4.208   3.446   3.351
 3327TIP3   OH2 9986   3.075   1.852   2.116
 3327TIP3    H1 9987   2.993   1.896   2.139
 3327TIP3    H2 9988   3.115   1.829   2.200
 3328TIP3   OH2 9989   2.370   0.638   0.072
 3328TIP3    H1 9990   2.350   0.708   0.010
 3328TIP3    H2 9991   2.358   0.678   0.158
 3329TIP3   OH2 9992   2.873   5.373   0.528
 3329TIP3    H1 9993   2.945   5.391   0.467
 3329TIP3    H2 9994   2.814   5.447   0.517
 3330TIP3   OH2 9995   2.128   3.151   1.951
 3330TIP3    H1 9996   2.195   3.088   1.925
 3330TIP3    H2 9997   2.074   3.161   1.872
 3331TIP3   OH2 9998   2.032   1.004   0.598
 3331TIP3    H1 9999   1.989   1.010   0.513
 3331TIP3    H210000   2.068   0.915   0.601
 3332TIP3   OH210001   1.316   1.800   0.057
 3332TIP3    H110002   1.337   1.843  -0.026
 3332TIP3    H210003   1.251   1.734   0.034
 3333TIP3   OH210004   2.559   3.279   4.871
 3333TIP3    H110005   2.609   3.200   4.887
 3333TIP3    H210006   2.515   3.297   4.954
 3334TIP3   OH210007   6.138   4.757   3.290
 3334TIP3    H110008   6.057   4.788   3.331
 3334TIP3    H210009   6.108   4.710   3.212
 3335TIP3   OH210010   0.162   5.128   4.695
 3335TIP3    H110011   0.258   5.128   4.703
 3335TIP3    H210012   0.138   5.035   4.701
 3336TIP3   OH210013   3.751   2.904   4.636
 3336TIP3    H110014   3.690   2.978   4.639
 3336TIP3    H210015   3.836   2.945   4.619
 3337TIP3   OH210016   1.656   0.095   3.263
 3337TIP3    H110017   1.591   0.165   3.275
 3337TIP3    H210018   1.693   0.082   3.351
 3338TIP3   OH210019   2.385   2.202   2.218
 3338TIP3    H110020   2.396   2.109   2.198
 3338TIP3    H210021   2.381   2.244   2.132
 3339TIP3   OH210022   2.600   2.080   1.276
 3339TIP3    H110023   2.596   2.113   1.365
 3339TIP3    H210024   2.646   1.996   1.283
 3340TIP3   OH210025   3.029   5.124   3.553
 3340TIP3    H110026   3.047   5.217   3.543
 3340TIP3    H210027   2.971   5.102   3.479
 3341TIP3   OH210028   2.203   1.871   2.759
 3341TIP3    H110029   2.138   1.892   2.826
 3341TIP3    H210030   2.175   1.919   2.681
 3342TIP3   OH210031   4.872   0.723   1.075
 3342TIP3    H110032   4.930   0.796   1.055
 3342TIP3    H210033   4.930   0.647   1.077
 3343TIP3   OH210034   5.020   1.961   0.054
 3343TIP3    H110035   4.979   2.025  -0.004
 3343TIP3    H210036   5.106   1.945   0.015
 3344TIP3   OH210037   5.003   5.308   1.474
 3344TIP3    H110038   4.967   5.381   1.525
 3344TIP3    H210039   4.999   5.337   1.383
 3345TIP3   OH210040   4.677   3.782   1.929
 3345TIP3    H110041   4.678   3.698   1.974
 3345TIP3    H210042   4.599   3.779   1.873
 3346TIP3   OH210043   0.630   5.476   3.693
 3346TIP3    H110044   0.572   5.421   3.745
 3346TIP3    H210045   0.572   5.523   3.633
 3347TIP3   OH210046   2.240   2.697   4.480
 3347TIP3    H110047   2.155   2.679   4.439
 3347TIP3    H210048   2.223   2.688   4.574
 3348TIP3   OH210049   2.567   0.877   1.442
 3348TIP3    H110050   2.587   0.938   1.371
 3348TIP3    H210051   2.475   0.893   1.463
 3349TIP3   OH210052   5.908   4.882   5.121
 3349TIP3    H110053   5.909   4.824   5.045
 3349TIP3    H210054   5.974   4.948   5.101
 3350TIP3   OH210055   5.702   0.741   3.357
 3350TIP3    H110056   5.633   0.735   3.424
 3350TIP3    H210057   5.726   0.650   3.339
 3351TIP3   OH210058   3.511   2.884   2.687
 3351TIP3    H110059   3.566   2.944   2.637
 3351TIP3    H210060   3.573   2.836   2.743
 3352TIP3   OH210061   3.794   2.936   5.090
 3352TIP3    H110062   3.765   2.994   5.160
 3352TIP3    H210063   3.809   2.994   5.015
 3353TIP3   OH210064   5.981   3.329   3.487
 3353TIP3    H110065   5.920   3.309   3.416
 3353TIP3    H210066   5.941   3.291   3.564
 3354TIP3   OH210067   4.185   4.336   0.822
 3354TIP3    H110068   4.089   4.325   0.820
 3354TIP3    H210069   4.209   4.318   0.913
 3355TIP3   OH210070   2.281   0.331   2.893
 3355TIP3    H110071   2.218   0.288   2.835
 3355TIP3    H210072   2.233   0.405   2.930
 3356TIP3   OH210073   3.647   4.765   1.612
 3356TIP3    H110074   3.734   4.727   1.598
 3356TIP3    H210075   3.588   4.711   1.558
 3357TIP3   OH210076   1.846   3.216   3.628
 3357TIP3    H110077   1.761   3.228   3.585
 3357TIP3    H210078   1.853   3.290   3.688
 3358TIP3   OH210079   1.194   5.941   2.861
 3358TIP3    H110080   1.154   5.881   2.797
 3358TIP3    H210081   1.122   5.993   2.895
 3359TIP3   OH210082   3.192   2.081   2.571
 3359TIP3    H110083   3.280   2.050   2.550
 3359TIP3    H210084   3.163   2.025   2.643
 3360TIP3   OH210085   0.282   5.271   3.587
 3360TIP3    H110086   0.204   5.327   3.588
 3360TIP3    H210087   0.250   5.186   3.617
 3361TIP3   OH210088   0.917   0.550   3.373
 3361TIP3    H110089   0.968   0.508   3.303
 3361TIP3    H210090   0.946   0.641   3.372
 3362TIP3   OH210091   5.467   2.307   0.147
 3362TIP3    H110092   5.528   2.325   0.218
 3362TIP3    H210093   5.384   2.344   0.177
 3363TIP3   OH210094   2.978   1.985   4.835
 3363TIP3    H110095   3.055   1.932   4.813
 3363TIP3    H210096   3.000   2.073   4.805
 3364TIP3   OH210097   3.491   1.790   5.017
 3364TIP3    H110098   3.417   1.830   4.971
 3364TIP3    H210099   3.470   1.803   5.110
 3365TIP3   OH210100   6.036   1.378   1.680
 3365TIP3    H110101   6.036   1.422   1.595
 3365TIP3    H210102   5.978   1.430   1.735
 3366TIP3   OH210103   3.595   2.076   3.381
 3366TIP3    H110104   3.631   2.035   3.302
 3366TIP3    H210105   3.503   2.093   3.359
 3367TIP3   OH210106   5.138   5.296   3.098
 3367TIP3    H110107   5.117   5.285   3.190
 3367TIP3    H210108   5.234   5.305   3.096
 3368TIP3   OH210109   2.889   2.364   1.921
 3368TIP3    H110110   2.824   2.382   1.853
 3368TIP3    H210111   2.887   2.442   1.978
 3369TIP3   OH210112   4.977   3.002   2.833
 3369TIP3    H110113   5.032   3.020   2.757
 3369TIP3    H210114   5.038   3.002   2.907
 3370TIP3   OH210115   1.907   1.995   0.971
 3370TIP3    H110116   1.897   2.080   1.014
 3370TIP3    H210117   1.902   2.015   0.877
 3371TIP3   OH210118   1.388   3.113   5.145
 3371TIP3    H110119   1.350   3.127   5.058
 3371TIP3    H210120   1.479   3.088   5.129
 3372TIP3   OH210121   4.229   4.603   0.494
 3372TIP3    H110122   4.241   4.670   0.427
 3372TIP3    H210123   4.134   4.593   0.500
 3373TIP3   OH210124   5.115   3.038   3.960
 3373TIP3    H110125   5.107   3.132   3.979
 3373TIP3    H210126   5.055   2.996   4.020
 3374TIP3   OH210127   4.989   2.480   1.448
 3374TIP3    H110128   4.976   2.452   1.358
 3374TIP3    H210129   5.006   2.399   1.497
 3375TIP3   OH210130   1.053   4.831   3.537
 3375TIP3    H110131   0.981   4.829   3.474
 3375TIP3    H210132   1.074   4.739   3.553
 3376TIP3   OH210133   1.711   4.167   4.752
 3376TIP3    H110134   1.778   4.120   4.704
 3376TIP3    H210135   1.658   4.099   4.794
 3377TIP3   OH210136   4.827   6.034   0.312
 3377TIP3    H110137   4.755   6.028   0.375
 3377TIP3    H210138   4.820   5.955   0.259
 3378TIP3   OH210139   5.576   1.835   0.660
 3378TIP3    H110140   5.551   1.921   0.625
 3378TIP3    H210141   5.495   1.785   0.661
 3379TIP3   OH210142   1.739   4.324   0.916
 3379TIP3    H110143   1.747   4.418   0.896
 3379TIP3    H210144   1.646   4.305   0.905
 3380TIP3   OH210145   3.338   0.444   3.804
 3380TIP3    H110146   3.311   0.533   3.781
 3380TIP3    H210147   3.328   0.440   3.900
 3381TIP3   OH210148   5.929   1.139   3.496
 3381TIP3    H110149   5.835   1.145   3.479
 3381TIP3    H210150   5.935   1.122   3.590
 3382TIP3   OH210151   3.801   5.339   0.275
 3382TIP3    H110152   3.782   5.410   0.335
 3382TIP3    H210153   3.896   5.343   0.262
 3383TIP3   OH210154   1.797   0.316   4.751
 3383TIP3    H110155   1.729   0.270   4.800
 3383TIP3    H210156   1.852   0.356   4.817
 3384TIP3   OH210157   3.261   0.210   2.749
 3384TIP3    H110158   3.249   0.116   2.745
 3384TIP3    H210159   3.355   0.223   2.756
 3385TIP3   OH210160   3.270   3.261   5.004
 3385TIP3    H110161   3.241   3.191   5.063
 3385TIP3    H210162   3.262   3.223   4.916
 3386TIP3   OH210163   0.574   5.830   1.330
 3386TIP3    H110164   0.514   5.893   1.369
 3386TIP3    H210165   0.521   5.781   1.267
 3387TIP3   OH210166   2.731   0.245   0.426
 3387TIP3    H110167   2.767   0.316   0.373
 3387TIP3    H210168   2.646   0.278   0.455
 3388TIP3   OH210169   1.019   4.292   0.725
 3388TIP3    H110170   1.110   4.302   0.754
 3388TIP3    H210171   1.013   4.202   0.694
 3389TIP3   OH210172   3.962   2.892   4.066
 3389TIP3    H110173   4.057   2.894   4.063
 3389TIP3    H210174   3.936   2.849   3.984
 3390TIP3   OH210175   2.431   3.485   5.170
 3390TIP3    H110176   2.458   3.535   5.248
 3390TIP3    H210177   2.431   3.549   5.099
 3391TIP3   OH210178   3.537   5.314   2.994
 3391TIP3    H110179   3.574   5.396   3.029
 3391TIP3    H210180   3.575   5.245   3.048
 3392TIP3   OH210181   0.773   4.517   3.440
 3392TIP3    H110182   0.717   4.441   3.454
 3392TIP3    H210183   0.716   4.592   3.457
 3393TIP3   OH210184   2.620   1.771   0.280
 3393TIP3    H110185   2.713   1.791   0.288
 3393TIP3    H210186   2.608   1.690   0.328
 3394TIP3   OH210187   5.452   2.796   4.861
 3394TIP3    H110188   5.438   2.879   4.815
 3394TIP3    H210189   5.444   2.730   4.792
 3395TIP3   OH210190   2.720   4.352  -0.015
 3395TIP3    H110191   2.754   4.394   0.065
 3395TIP3    H210192   2.675   4.274   0.017
 3396TIP3   OH210193   1.456   4.759   2.249
 3396TIP3    H110194   1.426   4.820   2.316
 3396TIP3    H210195   1.385   4.695   2.240
 3397TIP3   OH210196   1.893   3.261   0.657
 3397TIP3    H110197   1.935   3.178   0.678
 3397TIP3    H210198   1.846   3.285   0.738
 3398TIP3   OH210199   5.586   3.373   2.244
 3398TIP3    H110200   5.633   3.438   2.192
 3398TIP3    H210201   5.503   3.361   2.197
 3399TIP3   OH210202   0.762   0.470   0.977
 3399TIP3    H110203   0.750   0.564   0.985
 3399TIP3    H210204   0.836   0.450   1.034
 3400TIP3   OH210205   4.045   1.961   2.938
 3400TIP3    H110206   4.080   1.879   2.973
 3400TIP3    H210207   4.054   1.953   2.843
 3401TIP3   OH210208   3.420   4.036   3.370
 3401TIP3    H110209   3.512   4.052   3.345
 3401TIP3    H210210   3.372   4.041   3.287
 3402TIP3   OH210211   3.948   0.234   3.537
 3402TIP3    H110212   3.941   0.329   3.524
 3402TIP3    H210213   3.893   0.216   3.614
 3403TIP3   OH210214   1.074   0.319   4.015
 3403TIP3    H110215   1.091   0.323   4.109
 3403TIP3    H210216   1.160   0.332   3.974
 3404TIP3   OH210217   1.835   2.039   0.718
 3404TIP3    H110218   1.828   2.099   0.643
 3404TIP3    H210219   1.745   2.008   0.732
 3405TIP3   OH210220   1.485   2.669   4.825
 3405TIP3    H110221   1.389   2.662   4.819
 3405TIP3    H210222   1.510   2.606   4.892
 3406TIP3   OH210223   2.926   1.356   3.733
 3406TIP3    H110224   2.950   1.340   3.824
 3406TIP3    H210225   2.835   1.325   3.726
 3407TIP3   OH210226   3.245   4.887   2.729
 3407TIP3    H110227   3.312   4.851   2.671
 3407TIP3    H210228   3.195   4.811   2.758
 3408TIP3   OH210229   3.783   0.304   5.173
 3408TIP3    H110230   3.869   0.336   5.145
 3408TIP3    H210231   3.782   0.315   5.268
 3409TIP3   OH210232   4.239   1.645   4.366
 3409TIP3    H110233   4.199   1.659   4.281
 3409TIP3    H210234   4.229   1.551   4.383
 3410TIP3   OH210235   0.114   5.823   3.526
 3410TIP3    H110236   0.192   5.769   3.514
 3410TIP3    H210237   0.073   5.789   3.605
 3411TIP3   OH210238   4.483   3.840   2.880
 3411TIP3    H110239   4.505   3.751   2.855
 3411TIP3    H210240   4.532   3.895   2.818
 3412TIP3   OH210241   3.219   5.062   5.031
 3412TIP3    H110242   3.204   5.077   4.938
 3412TIP3    H210243   3.186   5.141   5.074
 3413TIP3   OH210244   2.422   5.126   3.812
 3413TIP3    H110245   2.341   5.077   3.829
 3413TIP3    H210246   2.405   5.212   3.849
 3414TIP3   OH210247   5.098   2.905   0.090
 3414TIP3    H110248   5.170   2.853   0.126
 3414TIP3    H210249   5.102   2.890  -0.005
 3415TIP3   OH210250   1.473   2.372   4.893
 3415TIP3    H110251   1.551   2.338   4.937
 3415TIP3    H210252   1.400   2.337   4.945
 3416TIP3   OH210253   2.203   5.526   0.822
 3416TIP3    H110254   2.168   5.483   0.900
 3416TIP3    H210255   2.127   5.534   0.764
 3417TIP3   OH210256   1.327   0.846   3.883
 3417TIP3    H110257   1.368   0.881   3.963
 3417TIP3    H210258   1.262   0.784   3.915
 3418TIP3   OH210259   4.957   0.212   5.182
 3418TIP3    H110260   4.956   0.301   5.217
 3418TIP3    H210261   4.865   0.191   5.167
 3419TIP3   OH210262   2.177   3.132   1.503
 3419TIP3    H110263   2.116   3.125   1.577
 3419TIP3    H210264   2.123   3.115   1.426
 3420TIP3   OH210265   5.441   2.542   2.694
 3420TIP3    H110266   5.432   2.463   2.640
 3420TIP3    H210267   5.474   2.609   2.633
 3421TIP3   OH210268   0.259   4.743   0.049
 3421TIP3    H110269   0.203   4.819   0.033
 3421TIP3    H210270   0.231   4.710   0.134
 3422TIP3   OH210271   4.345   0.610   4.584
 3422TIP3    H110272   4.317   0.654   4.665
 3422TIP3    H210273   4.270   0.616   4.526
 3423TIP3   OH210274   2.062   1.271   3.908
 3423TIP3    H110275   2.158   1.273   3.898
 3423TIP3    H210276   2.038   1.181   3.888
 3424TIP3   OH210277   2.004   5.870   3.380
 3424TIP3    H110278   1.965   5.954   3.405
 3424TIP3    H210279   2.097   5.890   3.367
 3425TIP3   OH210280   0.648   5.519   4.339
 3425TIP3    H110281   0.575   5.543   4.282
 3425TIP3    H210282   0.692   5.601   4.359
 3426TIP3   OH210283   3.468   2.661   2.061
 3426TIP3    H110284   3.541   2.662   2.122
 3426TIP3    H210285   3.392   2.688   2.114
 3427TIP3   OH210286   4.164   4.690   1.823
 3427TIP3    H110287   4.187   4.671   1.732
 3427TIP3    H210288   4.248   4.700   1.867
 3428TIP3   OH210289   4.145   4.447   1.384
 3428TIP3    H110290   4.233   4.415   1.362
 3428TIP3    H210291   4.121   4.399   1.463
 3429TIP3   OH210292   4.121   2.228   3.300
 3429TIP3    H110293   4.056   2.232   3.371
 3429TIP3    H210294   4.188   2.292   3.325
 3430TIP3   OH210295   1.610   5.076   2.774
 3430TIP3    H110296   1.527   5.094   2.730
 3430TIP3    H210297   1.674   5.068   2.703
 3431TIP3   OH210298   5.245   5.993   2.431
 3431TIP3    H110299   5.156   6.023   2.451
 3431TIP3    H210300   5.257   5.917   2.489
 3432TIP3   OH210301   1.162   4.843   1.875
 3432TIP3    H110302   1.206   4.844   1.790
 3432TIP3    H210303   1.191   4.923   1.918
 3433TIP3   OH210304   5.204   1.928   1.990
 3433TIP3    H110305   5.244   2.000   1.942
 3433TIP3    H210306   5.184   1.863   1.923
 3434TIP3   OH210307   5.771   2.479   2.557
 3434TIP3    H110308   5.802   2.565   2.530
 3434TIP3    H210309   5.793   2.474   2.651
 3435TIP3   OH210310   2.816   0.607   1.939
 3435TIP3    H110311   2.768   0.634   1.861
 3435TIP3    H210312   2.749   0.571   1.998
 3436TIP3   OH210313   5.348   1.013   0.711
 3436TIP3    H110314   5.394   1.094   0.733
 3436TIP3    H210315   5.362   0.956   0.787
 3437TIP3   OH210316   3.755   3.202   0.237
 3437TIP3    H110317   3.707   3.144   0.178
 3437TIP3    H210318   3.842   3.164   0.242
 3438TIP3   OH210319   2.854   0.567   2.509
 3438TIP3    H110320   2.805   0.648   2.494
 3438TIP3    H210321   2.821   0.506   2.443
 3439TIP3   OH210322   6.187   2.495   0.421
 3439TIP3    H110323   6.161   2.518   0.510
 3439TIP3    H210324   6.280   2.514   0.418
 3440TIP3   OH210325   1.786   5.514   0.857
 3440TIP3    H110326   1.872   5.503   0.899
 3440TIP3    H210327   1.805   5.565   0.778
 3441TIP3   OH210328   5.974   5.123   3.620
 3441TIP3    H110329   5.904   5.058   3.622
 3441TIP3    H210330   6.039   5.086   3.561
 3442TIP3   OH210331   3.419   2.851   2.357
 3442TIP3    H110332   3.459   2.786   2.416
 3442TIP3    H210333   3.351   2.803   2.311
 3443TIP3   OH210334   5.496   3.602   0.014
 3443TIP3    H110335   5.555   3.631  -0.056
 3443TIP3    H210336   5.545   3.532   0.058
 3444TIP3   OH210337   5.891   2.348   0.635
 3444TIP3    H110338   5.931   2.331   0.550
 3444TIP3    H210339   5.891   2.443   0.644
 3445TIP3   OH210340   1.931   2.209   4.581
 3445TIP3    H110341   2.012   2.252   4.606
 3445TIP3    H210342   1.956   2.117   4.568
 3446TIP3   OH210343   3.618   3.375   0.414
 3446TIP3    H110344   3.654   3.329   0.489
 3446TIP3    H210345   3.637   3.318   0.339
 3447TIP3   OH210346   5.592   2.083   1.395
 3447TIP3    H110347   5.657   2.154   1.394
 3447TIP3    H210348   5.619   2.027   1.468
 3448TIP3   OH210349   6.011   0.380   3.514
 3448TIP3    H110350   5.941   0.316   3.521
 3448TIP3    H210351   6.015   0.401   3.420
 3449TIP3   OH210352   4.108   1.630   4.144
 3449TIP3    H110353   4.100   1.546   4.100
 3449TIP3    H210354   4.023   1.673   4.131
 3450TIP3   OH210355   5.378   2.560   0.485
 3450TIP3    H110356   5.343   2.640   0.445
 3450TIP3    H210357   5.337   2.489   0.436
 3451TIP3   OH210358   0.883   0.830   4.605
 3451TIP3    H110359   0.971   0.861   4.623
 3451TIP3    H210360   0.829   0.909   4.601
 3452TIP3   OH210361   5.828   0.929   2.439
 3452TIP3    H110362   5.911   0.976   2.441
 3452TIP3    H210363   5.770   0.980   2.496
 3453TIP3   OH210364   4.117   3.740   0.555
 3453TIP3    H110365   4.157   3.657   0.582
 3453TIP3    H210366   4.065   3.767   0.631
 3454TIP3   OH210367   1.113   5.771   2.357
 3454TIP3    H110368   1.076   5.853   2.323
 3454TIP3    H210369   1.041   5.729   2.403
 3455TIP3   OH210370   4.146   3.778   2.209
 3455TIP3    H110371   4.080   3.816   2.267
 3455TIP3    H210372   4.127   3.684   2.210
 3456TIP3   OH210373   4.851   4.182   3.208
 3456TIP3    H110374   4.838   4.255   3.147
 3456TIP3    H210375   4.924   4.209   3.262
 3457TIP3   OH210376   3.553   2.478   4.465
 3457TIP3    H110377   3.562   2.448   4.555
 3457TIP3    H210378   3.602   2.414   4.413
 3458TIP3   OH210379   0.399   2.780   4.971
 3458TIP3    H110380   0.448   2.810   5.048
 3458TIP3    H210381   0.359   2.860   4.936
 3459TIP3   OH210382   2.902   5.831   2.159
 3459TIP3    H110383   2.876   5.920   2.136
 3459TIP3    H210384   2.911   5.832   2.255
 3460TIP3   OH210385   5.988   3.659   2.554
 3460TIP3    H110386   5.999   3.649   2.459
 3460TIP3    H210387   6.000   3.571   2.589
 3461TIP3   OH210388   3.632   3.347   5.137
 3461TIP3    H110389   3.656   3.408   5.067
 3461TIP3    H210390   3.623   3.262   5.093
 3462TIP3   OH210391   4.293   3.541   0.298
 3462TIP3    H110392   4.348   3.589   0.360
 3462TIP3    H210393   4.287   3.598   0.222
 3463TIP3   OH210394   4.213   1.463   2.559
 3463TIP3    H110395   4.212   1.386   2.502
 3463TIP3    H210396   4.154   1.525   2.517
 3464TIP3   OH210397   2.910   0.927   3.531
 3464TIP3    H110398   2.906   0.836   3.562
 3464TIP3    H210399   2.850   0.974   3.588
 3465TIP3   OH210400   2.065   0.795   0.335
 3465TIP3    H110401   2.017   0.778   0.417
 3465TIP3    H210402   2.010   0.756   0.267
 3466TIP3   OH210403   0.562   0.905   3.007
 3466TIP3    H110404   0.647   0.942   3.032
 3466TIP3    H210405   0.507   0.918   3.084
 3467TIP3   OH210406   6.249   5.177   3.286
 3467TIP3    H110407   6.156   5.188   3.264
 3467TIP3    H210408   6.248   5.123   3.365
 3468TIP3   OH210409   4.513   5.281   5.068
 3468TIP3    H110410   4.455   5.220   5.113
 3468TIP3    H210411   4.554   5.229   4.999
 3469TIP3   OH210412   2.203   4.654   5.087
 3469TIP3    H110413   2.158   4.669   5.004
 3469TIP3    H210414   2.265   4.584   5.068
 3470TIP3   OH210415   2.379   2.417   2.982
 3470TIP3    H110416   2.428   2.426   3.064
 3470TIP3    H210417   2.447   2.418   2.914
 3471TIP3   OH210418   0.884   2.231   0.714
 3471TIP3    H110419   0.827   2.307   0.730
 3471TIP3    H210420   0.830   2.156   0.739
 3472TIP3   OH210421   6.228   3.216   0.827
 3472TIP3    H110422   6.238   3.121   0.835
 3472TIP3    H210423   6.311   3.252   0.860
 3473TIP3   OH210424   5.093   0.696   0.215
 3473TIP3    H110425   5.078   0.661   0.127
 3473TIP3    H210426   5.187   0.713   0.219
 3474TIP3   OH210427   3.205   0.277   1.327
 3474TIP3    H110428   3.178   0.297   1.417
 3474TIP3    H210429   3.222   0.362   1.287
 3475TIP3   OH210430   3.026   1.534   0.589
 3475TIP3    H110431   3.073   1.525   0.671
 3475TIP3    H210432   3.024   1.445   0.552
 3476TIP3   OH210433   2.475   2.767   2.617
 3476TIP3    H110434   2.543   2.824   2.653
 3476TIP3    H210435   2.429   2.734   2.694
 3477TIP3   OH210436   3.721   5.486   3.362
 3477TIP3    H110437   3.762   5.538   3.432
 3477TIP3    H210438   3.781   5.494   3.288
 3478TIP3   OH210439   2.394   3.264   3.401
 3478TIP3    H110440   2.375   3.251   3.309
 3478TIP3    H210441   2.339   3.338   3.427
 3479TIP3   OH210442   0.296   5.882   2.412
 3479TIP3    H110443   0.227   5.869   2.347
 3479TIP3    H210444   0.301   5.799   2.460
 3480TIP3   OH210445   0.684   5.367   0.407
 3480TIP3    H110446   0.658   5.455   0.434
 3480TIP3    H210447   0.619   5.310   0.447
 3481TIP3   OH210448   0.358   3.775   0.063
 3481TIP3    H110449   0.411   3.738   0.133
 3481TIP3    H210450   0.395   3.863   0.049
 3482TIP3   OH210451   3.593   3.294   3.474
 3482TIP3    H110452   3.657   3.363   3.461
 3482TIP3    H210453   3.519   3.320   3.419
 3483TIP3   OH210454   4.157   1.891   0.384
 3483TIP3    H110455   4.156   1.815   0.325
 3483TIP3    H210456   4.067   1.923   0.382
 3484TIP3   OH210457   2.974   3.722   4.837
 3484TIP3    H110458   2.882   3.698   4.848
 3484TIP3    H210459   2.999   3.682   4.754
 3485TIP3   OH210460   4.209   0.157   4.056
 3485TIP3    H110461   4.163   0.235   4.024
 3485TIP3    H210462   4.184   0.151   4.148
 3486TIP3   OH210463   3.777   0.110   0.829
 3486TIP3    H110464   3.795   0.071   0.914
 3486TIP3    H210465   3.858   0.101   0.780
 3487TIP3   OH210466   1.695   1.067   0.949
 3487TIP3    H110467   1.655   0.986   0.919
 3487TIP3    H210468   1.624   1.131   0.948
 3488TIP3   OH210469   0.128   4.864   1.851
 3488TIP3    H110470   0.147   4.918   1.774
 3488TIP3    H210471   0.211   4.821   1.870
 3489TIP3   OH210472   3.067   2.671   4.785
 3489TIP3    H110473   3.140   2.677   4.723
 3489TIP3    H210474   3.108   2.682   4.870
 3490TIP3   OH210475   0.800   1.444   0.814
 3490TIP3    H110476   0.798   1.397   0.731
 3490TIP3    H210477   0.820   1.376   0.879
 3491TIP3   OH210478   0.609   0.672   4.944
 3491TIP3    H110479   0.615   0.648   4.851
 3491TIP3    H210480   0.595   0.766   4.944
 3492TIP3   OH210481   1.770   4.667   0.354
 3492TIP3    H110482   1.784   4.760   0.335
 3492TIP3    H210483   1.681   4.650   0.324
 3493TIP3   OH210484   2.802   3.166   4.534
 3493TIP3    H110485   2.842   3.141   4.450
 3493TIP3    H210486   2.717   3.201   4.510
 3494TIP3   OH210487   0.439   5.352   3.830
 3494TIP3    H110488   0.420   5.413   3.901
 3494TIP3    H210489   0.353   5.327   3.796
 3495TIP3   OH210490   2.044   3.330   3.324
 3495TIP3    H110491   1.959   3.343   3.283
 3495TIP3    H210492   2.098   3.292   3.254
 3496TIP3   OH210493   1.144   2.550   1.429
 3496TIP3    H110494   1.096   2.633   1.434
 3496TIP3    H210495   1.087   2.493   1.377
 3497TIP3   OH210496   3.539   1.042   4.003
 3497TIP3    H110497   3.587   1.110   4.050
 3497TIP3    H210498   3.489   1.090   3.937
 3498TIP3   OH210499   4.734   1.700   0.622
 3498TIP3    H110500   4.740   1.630   0.557
 3498TIP3    H210501   4.641   1.725   0.622
 3499TIP3   OH210502   5.297   2.856   0.706
 3499TIP3    H110503   5.298   2.794   0.633
 3499TIP3    H210504   5.274   2.940   0.667
 3500TIP3   OH210505   3.630   3.651   1.927
 3500TIP3    H110506   3.678   3.717   1.978
 3500TIP3    H210507   3.686   3.573   1.931
 3501TIP3   OH210508   3.435   3.191   3.076
 3501TIP3    H110509   3.440   3.101   3.108
 3501TIP3    H210510   3.448   3.184   2.981
 3502TIP3   OH210511   5.900   4.604   3.456
 3502TIP3    H110512   5.902   4.564   3.369
 3502TIP3    H210513   5.866   4.535   3.513
 3503TIP3   OH210514   4.102   5.534   1.644
 3503TIP3    H110515   4.036   5.578   1.591
 3503TIP3    H210516   4.056   5.460   1.682
 3504TIP3   OH210517   0.478   1.815   0.541
 3504TIP3    H110518   0.384   1.834   0.546
 3504TIP3    H210519   0.495   1.762   0.619
 3505TIP3   OH210520   5.203   3.075   0.535
 3505TIP3    H110521   5.254   3.153   0.516
 3505TIP3    H210522   5.112   3.100   0.517
 3506TIP3   OH210523   2.419   2.265   0.259
 3506TIP3    H110524   2.459   2.184   0.227
 3506TIP3    H210525   2.331   2.264   0.222
 3507TIP3   OH210526   0.778   1.668   0.602
 3507TIP3    H110527   0.772   1.749   0.551
 3507TIP3    H210528   0.820   1.605   0.543
 3508TIP3   OH210529   1.531   4.348   4.672
 3508TIP3    H110530   1.504   4.399   4.748
 3508TIP3    H210531   1.574   4.271   4.708
 3509TIP3   OH210532   3.312   3.701   1.557
 3509TIP3    H110533   3.354   3.615   1.548
 3509TIP3    H210534   3.379   3.763   1.525
 3510TIP3   OH210535   6.041   1.984   1.545
 3510TIP3    H110536   6.037   1.959   1.637
 3510TIP3    H210537   6.020   1.903   1.498
 3511TIP3   OH210538   2.994   1.606   4.560
 3511TIP3    H110539   3.041   1.638   4.484
 3511TIP3    H210540   2.951   1.526   4.530
 3512TIP3   OH210541   3.870   2.541   4.845
 3512TIP3    H110542   3.896   2.473   4.908
 3512TIP3    H210543   3.809   2.596   4.894
 3513TIP3   OH210544   1.292   3.759   2.544
 3513TIP3    H110545   1.228   3.830   2.549
 3513TIP3    H210546   1.292   3.734   2.452
 3514TIP3   OH210547   1.736   0.077   1.435
 3514TIP3    H110548   1.675   0.012   1.400
 3514TIP3    H210549   1.683   0.132   1.492
 3515TIP3   OH210550   1.057   5.220   1.944
 3515TIP3    H110551   1.010   5.174   2.014
 3515TIP3    H210552   1.131   5.163   1.923
 3516TIP3   OH210553   2.777   0.112   3.390
 3516TIP3    H110554   2.714   0.118   3.318
 3516TIP3    H210555   2.859   0.087   3.348
 3517TIP3   OH210556   4.029   4.103   3.484
 3517TIP3    H110557   4.033   4.035   3.551
 3517TIP3    H210558   3.986   4.177   3.527
 3518TIP3   OH210559   4.762   5.594   3.310
 3518TIP3    H110560   4.848   5.555   3.322
 3518TIP3    H210561   4.777   5.668   3.252
 3519TIP3   OH210562   5.468   3.532   0.672
 3519TIP3    H110563   5.476   3.464   0.604
 3519TIP3    H210564   5.376   3.528   0.698
 3520TIP3   OH210565   3.008   1.497   1.987
 3520TIP3    H110566   2.989   1.512   1.894
 3520TIP3    H210567   2.928   1.459   2.022
 3521TIP3   OH210568   3.773   5.970   2.455
 3521TIP3    H110569   3.802   5.959   2.365
 3521TIP3    H210570   3.849   6.009   2.500
 3522TIP3   OH210571   3.972   4.702   0.291
 3522TIP3    H110572   3.927   4.716   0.207
 3522TIP3    H210573   4.054   4.751   0.283
 3523TIP3   OH210574   0.159   1.998   1.671
 3523TIP3    H110575   0.155   2.016   1.765
 3523TIP3    H210576   0.252   2.006   1.649
 3524TIP3   OH210577   5.342   3.011   3.033
 3524TIP3    H110578   5.392   2.970   3.103
 3524TIP3    H210579   5.251   3.000   3.059
 3525TIP3   OH210580   5.217   1.779   3.446
 3525TIP3    H110581   5.297   1.830   3.435
 3525TIP3    H210582   5.241   1.709   3.506
 3526TIP3   OH210583   3.707   3.374   0.007
 3526TIP3    H110584   3.726   3.334   0.092
 3526TIP3    H210585   3.629   3.427   0.022
 3527TIP3   OH210586   0.894   2.751   1.920
 3527TIP3    H110587   0.898   2.760   2.015
 3527TIP3    H210588   0.963   2.809   1.887
 3528TIP3   OH210589   5.799   0.177   3.641
 3528TIP3    H110590   5.747   0.098   3.627
 3528TIP3    H210591   5.809   0.182   3.736
 3529TIP3   OH210592   4.656   1.149   2.693
 3529TIP3    H110593   4.711   1.071   2.695
 3529TIP3    H210594   4.638   1.163   2.600
 3530TIP3   OH210595   1.291   3.168   4.389
 3530TIP3    H110596   1.357   3.137   4.328
 3530TIP3    H210597   1.208   3.147   4.347
 3531TIP3   OH210598   4.636   0.692   2.950
 3531TIP3    H110599   4.692   0.769   2.945
 3531TIP3    H210600   4.547   0.726   2.962
 3532TIP3   OH210601   0.991   2.882   4.826
 3532TIP3    H110602   0.976   2.879   4.732
 3532TIP3    H210603   0.906   2.906   4.864
 3533TIP3   OH210604   5.298   5.459   1.330
 3533TIP3    H110605   5.344   5.447   1.413
 3533TIP3    H210606   5.253   5.543   1.338
 3534TIP3   OH210607   1.068   3.653   3.883
 3534TIP3    H110608   1.033   3.740   3.868
 3534TIP3    H210609   0.998   3.593   3.857
 3535TIP3   OH210610   2.127   4.057   1.766
 3535TIP3    H110611   2.213   4.073   1.725
 3535TIP3    H210612   2.081   4.002   1.703
 3536TIP3   OH210613   1.785   1.985   4.071
 3536TIP3    H110614   1.713   1.980   4.134
 3536TIP3    H210615   1.860   2.016   4.123
 3537TIP3   OH210616   0.031   4.169   2.435
 3537TIP3    H110617   0.060   4.208   2.353
 3537TIP3    H210618   0.103   4.186   2.496
 3538TIP3   OH210619   2.876   3.756   0.247
 3538TIP3    H110620   2.942   3.824   0.233
 3538TIP3    H210621   2.847   3.732   0.159
 3539TIP3   OH210622   2.833   1.031   4.838
 3539TIP3    H110623   2.744   0.994   4.844
 3539TIP3    H210624   2.879   0.993   4.913
 3540TIP3   OH210625   2.963   4.397   0.711
 3540TIP3    H110626   2.970   4.440   0.796
 3540TIP3    H210627   2.878   4.354   0.711
 3541TIP3   OH210628   2.766   1.240   3.079
 3541TIP3    H110629   2.772   1.152   3.115
 3541TIP3    H210630   2.854   1.277   3.091
 3542TIP3   OH210631   5.332   0.018   4.714
 3542TIP3    H110632   5.253   0.013   4.662
 3542TIP3    H210633   5.312   0.082   4.783
 3543TIP3   OH210634   3.534   3.807   2.554
 3543TIP3    H110635   3.532   3.897   2.585
 3543TIP3    H210636   3.606   3.767   2.603
 3544TIP3   OH210637   3.764   4.274   1.454
 3544TIP3    H110638   3.742   4.274   1.361
 3544TIP3    H210639   3.855   4.242   1.457
 3545TIP3   OH210640   5.410   5.717   4.642
 3545TIP3    H110641   5.322   5.695   4.672
 3545TIP3    H210642   5.452   5.632   4.629
 3546TIP3   OH210643   6.260   4.844   2.338
 3546TIP3    H110644   6.291   4.798   2.259
 3546TIP3    H210645   6.179   4.887   2.310
 3547TIP3   OH210646   5.965   4.489   4.707
 3547TIP3    H110647   5.897   4.438   4.751
 3547TIP3    H210648   5.922   4.527   4.631
 3548TIP3   OH210649   4.092   1.753   3.171
 3548TIP3    H110650   4.164   1.775   3.231
 3548TIP3    H210651   4.134   1.700   3.102
 3549TIP3   OH210652   5.403   4.724   2.964
 3549TIP3    H110653   5.413   4.663   3.037
 3549TIP3    H210654   5.313   4.712   2.935
 3550TIP3   OH210655   5.655   0.805   2.264
 3550TIP3    H110656   5.706   0.725   2.252
 3550TIP3    H210657   5.709   0.860   2.320
 3551TIP3   OH210658   4.233   4.780   0.272
 3551TIP3    H110659   4.284   4.707   0.237
 3551TIP3    H210660   4.296   4.851   0.281
 3552TIP3   OH210661   1.257   4.499   0.380
 3552TIP3    H110662   1.178   4.528   0.426
 3552TIP3    H210663   1.305   4.446   0.445
 3553TIP3   OH210664   0.267   4.024   2.127
 3553TIP3    H110665   0.328   4.005   2.056
 3553TIP3    H210666   0.193   3.966   2.112
 3554TIP3   OH210667   2.958   4.040   0.171
 3554TIP3    H110668   2.917   4.033   0.085
 3554TIP3    H210669   3.052   4.034   0.153
 3555TIP3   OH210670   0.869   4.398   1.026
 3555TIP3    H110671   0.779   4.366   1.018
 3555TIP3    H210672   0.919   4.347   0.962
 3556TIP3   OH210673   1.238   0.205   1.466
 3556TIP3    H110674   1.258   0.195   1.559
 3556TIP3    H210675   1.213   0.117   1.437
 3557TIP3   OH210676   1.011   5.788   1.515
 3557TIP3    H110677   0.960   5.727   1.568
 3557TIP3    H210678   0.948   5.855   1.487
 3558TIP3   OH210679   2.159   4.841   3.383
 3558TIP3    H110680   2.246   4.819   3.417
 3558TIP3    H210681   2.169   4.843   3.288
 3559TIP3   OH210682   5.453   2.960   3.601
 3559TIP3    H110683   5.519   3.015   3.559
 3559TIP3    H210684   5.369   2.998   3.573
 3560TIP3   OH210685   3.281   0.248   0.061
 3560TIP3    H110686   3.192   0.272   0.036
 3560TIP3    H210687   3.273   0.213   0.150
 3561TIP3   OH210688   3.646   3.435   3.905
 3561TIP3    H110689   3.668   3.470   3.819
 3561TIP3    H210690   3.610   3.348   3.887
 3562TIP3   OH210691   1.781   4.299   5.058
 3562TIP3    H110692   1.695   4.279   5.095
 3562TIP3    H210693   1.781   4.256   4.972
 3563TIP3   OH210694   1.333   1.989   1.219
 3563TIP3    H110695   1.332   2.085   1.227
 3563TIP3    H210696   1.265   1.959   1.279
 3564TIP3   OH210697   4.405   0.722   1.998
 3564TIP3    H110698   4.333   0.753   1.943
 3564TIP3    H210699   4.382   0.748   2.086
 3565TIP3   OH210700   3.524   1.217   0.943
 3565TIP3    H110701   3.472   1.293   0.971
 3565TIP3    H210702   3.460   1.156   0.907
 3566TIP3   OH210703   1.157   3.509   1.095
 3566TIP3    H110704   1.230   3.448   1.098
 3566TIP3    H210705   1.186   3.585   1.145
 3567TIP3   OH210706   5.600   0.556   4.893
 3567TIP3    H110707   5.680   0.555   4.947
 3567TIP3    H210708   5.574   0.464   4.889
 3568TIP3   OH210709   1.602   1.253   4.858
 3568TIP3    H110710   1.563   1.284   4.776
 3568TIP3    H210711   1.535   1.272   4.924
 3569TIP3   OH210712   5.914   4.967   0.898
 3569TIP3    H110713   5.918   4.890   0.842
 3569TIP3    H210714   6.001   5.006   0.892
 3570TIP3   OH210715   1.084   5.553   2.933
 3570TIP3    H110716   1.161   5.554   2.990
 3570TIP3    H210717   1.116   5.516   2.850
 3571TIP3   OH210718   2.671   3.562   3.981
 3571TIP3    H110719   2.685   3.562   4.076
 3571TIP3    H210720   2.750   3.603   3.945
 3572TIP3   OH210721   2.939   2.724   2.498
 3572TIP3    H110722   3.007   2.660   2.520
 3572TIP3    H210723   2.924   2.712   2.404
 3573TIP3   OH210724   2.012   0.096   2.514
 3573TIP3    H110725   2.085   0.149   2.547
 3573TIP3    H210726   1.938   0.119   2.570
 3574TIP3   OH210727   2.992   2.820   0.325
 3574TIP3    H110728   2.924   2.877   0.361
 3574TIP3    H210729   2.950   2.778   0.250
 3575TIP3   OH210730   1.848   2.830   0.679
 3575TIP3    H110731   1.849   2.735   0.667
 3575TIP3    H210732   1.819   2.864   0.593
 3576TIP3   OH210733   5.657   5.564   1.630
 3576TIP3    H110734   5.603   5.542   1.554
 3576TIP3    H210735   5.654   5.659   1.635
 3577TIP3   OH210736   3.704   3.023   0.532
 3577TIP3    H110737   3.765   2.950   0.540
 3577TIP3    H210738   3.648   3.000   0.458
 3578TIP3   OH210739   5.931   0.451   4.074
 3578TIP3    H110740   5.877   0.424   4.148
 3578TIP3    H210741   5.869   0.475   4.006
 3579TIP3   OH210742   3.269   1.274   0.052
 3579TIP3    H110743   3.261   1.279   0.148
 3579TIP3    H210744   3.338   1.337   0.031
 3580TIP3   OH210745   1.290   2.167   4.691
 3580TIP3    H110746   1.243   2.211   4.762
 3580TIP3    H210747   1.361   2.227   4.668
 3581TIP3   OH210748   5.712   0.464   4.511
 3581TIP3    H110749   5.622   0.494   4.526
 3581TIP3    H210750   5.704   0.392   4.448
 3582TIP3   OH210751   2.555   3.840   4.567
 3582TIP3    H110752   2.615   3.773   4.534
 3582TIP3    H210753   2.605   3.883   4.636
 3583TIP3   OH210754   3.909   3.124   1.810
 3583TIP3    H110755   3.898   3.071   1.889
 3583TIP3    H210756   3.919   3.059   1.739
 3584TIP3   OH210757   3.808   3.902   3.498
 3584TIP3    H110758   3.885   3.895   3.442
 3584TIP3    H210759   3.743   3.945   3.444
 3585TIP3   OH210760   2.663   1.672   4.371
 3585TIP3    H110761   2.605   1.597   4.360
 3585TIP3    H210762   2.708   1.681   4.287
 3586TIP3   OH210763   3.751   4.445   4.031
 3586TIP3    H110764   3.829   4.498   4.012
 3586TIP3    H210765   3.686   4.509   4.060
 3587TIP3   OH210766   0.337   3.796   2.481
 3587TIP3    H110767   0.318   3.889   2.490
 3587TIP3    H210768   0.430   3.793   2.458
 3588TIP3   OH210769   0.701   3.195   0.859
 3588TIP3    H110770   0.629   3.241   0.814
 3588TIP3    H210771   0.775   3.203   0.799
 3589TIP3   OH210772   4.452   1.780   2.445
 3589TIP3    H110773   4.433   1.714   2.378
 3589TIP3    H210774   4.465   1.729   2.525
 3590TIP3   OH210775   4.354   0.666   0.664
 3590TIP3    H110776   4.282   0.712   0.619
 3590TIP3    H210777   4.430   0.723   0.651
 3591TIP3   OH210778   3.655   4.166   3.955
 3591TIP3    H110779   3.561   4.161   3.933
 3591TIP3    H210780   3.671   4.260   3.964
 3592TIP3   OH210781   5.964   0.369   2.077
 3592TIP3    H110782   6.042   0.378   2.022
 3592TIP3    H210783   5.987   0.303   2.142
 3593TIP3   OH210784   4.754   3.553   1.753
 3593TIP3    H110785   4.746   3.508   1.669
 3593TIP3    H210786   4.848   3.572   1.761
 3594TIP3   OH210787   3.215   4.056   4.582
 3594TIP3    H110788   3.158   4.091   4.652
 3594TIP3    H210789   3.303   4.062   4.618
 3595TIP3   OH210790   2.367   2.902   0.215
 3595TIP3    H110791   2.316   2.982   0.225
 3595TIP3    H210792   2.355   2.877   0.123
 3596TIP3   OH210793   4.117   3.209   2.733
 3596TIP3    H110794   4.078   3.125   2.756
 3596TIP3    H210795   4.103   3.217   2.639
 3597TIP3   OH210796   5.055   4.901   2.667
 3597TIP3    H110797   5.140   4.902   2.623
 3597TIP3    H210798   5.019   4.815   2.647
 3598TIP3   OH210799   5.586   0.787   1.896
 3598TIP3    H110800   5.557   0.878   1.909
 3598TIP3    H210801   5.539   0.738   1.963
 3599TIP3   OH210802   0.258   5.342   0.308
 3599TIP3    H110803   0.287   5.251   0.316
 3599TIP3    H210804   0.336   5.394   0.326
 3600TIP3   OH210805   5.846   5.326   1.366
 3600TIP3    H110806   5.797   5.339   1.448
 3600TIP3    H210807   5.914   5.263   1.389
 3601TIP3   OH210808   0.473   4.355   1.727
 3601TIP3    H110809   0.554   4.404   1.716
 3601TIP3    H210810   0.406   4.422   1.744
 3602TIP3   OH210811   6.101   5.879   2.050
 3602TIP3    H110812   6.172   5.894   1.987
 3602TIP3    H210813   6.067   5.967   2.069
 3603TIP3   OH210814   5.325   3.225   0.181
 3603TIP3    H110815   5.302   3.210   0.090
 3603TIP3    H210816   5.349   3.139   0.215
 3604TIP3   OH210817   2.591   2.471   0.920
 3604TIP3    H110818   2.517   2.411   0.932
 3604TIP3    H210819   2.666   2.414   0.908
 3605TIP3   OH210820   1.500   5.891   1.988
 3605TIP3    H110821   1.472   5.838   1.913
 3605TIP3    H210822   1.589   5.862   2.006
 3606TIP3   OH210823   6.184   0.692   2.396
 3606TIP3    H110824   6.175   0.699   2.491
 3606TIP3    H210825   6.254   0.628   2.383
 3607TIP3   OH210826   3.504   2.896   0.772
 3607TIP3    H110827   3.578   2.866   0.718
 3607TIP3    H210828   3.461   2.963   0.718
 3608TIP3   OH210829   4.830   0.537   2.269
 3608TIP3    H110830   4.836   0.536   2.365
 3608TIP3    H210831   4.894   0.471   2.241
 3609TIP3   OH210832   5.655   5.104   1.387
 3609TIP3    H110833   5.707   5.177   1.420
 3609TIP3    H210834   5.572   5.109   1.435
 3610TIP3   OH210835   5.910   0.102   0.921
 3610TIP3    H110836   5.946   0.025   0.875
 3610TIP3    H210837   5.844   0.065   0.979
 3611TIP3   OH210838   2.488   1.238   1.434
 3611TIP3    H110839   2.522   1.160   1.478
 3611TIP3    H210840   2.438   1.204   1.360
 3612TIP3   OH210841   2.104   4.776   2.630
 3612TIP3    H110842   2.187   4.797   2.587
 3612TIP3    H210843   2.104   4.680   2.634
 3613TIP3   OH210844   4.406   2.736   1.649
 3613TIP3    H110845   4.328   2.709   1.697
 3613TIP3    H210846   4.449   2.654   1.626
 3614TIP3   OH210847   1.489   0.328   3.681
 3614TIP3    H110848   1.554   0.393   3.708
 3614TIP3    H210849   1.534   0.244   3.691
 3615TIP3   OH210850   2.588   3.344   4.445
 3615TIP3    H110851   2.514   3.335   4.505
 3615TIP3    H210852   2.548   3.356   4.359
 3616TIP3   OH210853   0.788   3.798   3.958
 3616TIP3    H110854   0.868   3.844   3.933
 3616TIP3    H210855   0.718   3.845   3.914
 3617TIP3   OH210856   3.487   4.649   3.260
 3617TIP3    H110857   3.517   4.739   3.250
 3617TIP3    H210858   3.430   4.651   3.337
 3618TIP3   OH210859   4.788   2.336   0.583
 3618TIP3    H110860   4.698   2.356   0.556
 3618TIP3    H210861   4.780   2.258   0.637
 3619TIP3   OH210862   3.838   5.476   2.076
 3619TIP3    H110863   3.830   5.494   2.170
 3619TIP3    H210864   3.797   5.551   2.033
 3620TIP3   OH210865   5.392   1.707   4.163
 3620TIP3    H110866   5.327   1.659   4.215
 3620TIP3    H210867   5.404   1.789   4.211
 3621TIP3   OH210868   3.738   2.287   1.665
 3621TIP3    H110869   3.729   2.290   1.760
 3621TIP3    H210870   3.795   2.212   1.648
 3622TIP3   OH210871   1.112   2.841   2.476
 3622TIP3    H110872   1.101   2.749   2.499
 3622TIP3    H210873   1.023   2.874   2.465
 3623TIP3   OH210874   4.669   4.922   2.654
 3623TIP3    H110875   4.665   4.861   2.728
 3623TIP3    H210876   4.627   5.002   2.685
 3624TIP3   OH210877   2.863   1.317   0.122
 3624TIP3    H110878   2.933   1.255   0.101
 3624TIP3    H210879   2.786   1.262   0.137
 3625TIP3   OH210880   0.395   5.593   3.275
 3625TIP3    H110881   0.442   5.544   3.207
 3625TIP3    H210882   0.417   5.685   3.257
 3626TIP3   OH210883   3.165   4.988   0.736
 3626TIP3    H110884   3.248   5.012   0.695
 3626TIP3    H210885   3.123   5.072   0.756
 3627TIP3   OH210886   1.332   5.054   4.225
 3627TIP3    H110887   1.336   5.085   4.315
 3627TIP3    H210888   1.239   5.057   4.203
 3628TIP3   OH210889   2.571   1.381   4.037
 3628TIP3    H110890   2.541   1.463   4.076
 3628TIP3    H210891   2.657   1.365   4.077
 3629TIP3   OH210892   1.082   1.977   2.435
 3629TIP3    H110893   1.148   2.004   2.499
 3629TIP3    H210894   1.113   1.892   2.402
 3630TIP3   OH210895   0.535   1.088   5.215
 3630TIP3    H110896   0.535   1.005   5.263
 3630TIP3    H210897   0.469   1.076   5.147
 3631TIP3   OH210898   1.878   1.740   2.858
 3631TIP3    H110899   1.919   1.669   2.907
 3631TIP3    H210900   1.940   1.813   2.865
 3632TIP3   OH210901   3.403   3.514   4.425
 3632TIP3    H110902   3.325   3.480   4.470
 3632TIP3    H210903   3.375   3.598   4.389
 3633TIP3   OH210904   0.729   2.948   4.152
 3633TIP3    H110905   0.769   2.866   4.179
 3633TIP3    H210906   0.649   2.923   4.106
 3634TIP3   OH210907   4.806   2.125   1.445
 3634TIP3    H110908   4.781   2.071   1.520
 3634TIP3    H210909   4.864   2.192   1.481
 3635TIP3   OH210910   5.469   0.134   1.773
 3635TIP3    H110911   5.379   0.144   1.805
 3635TIP3    H210912   5.502   0.057   1.820
 3636TIP3   OH210913   6.034   0.981   0.983
 3636TIP3    H110914   6.128   0.967   0.994
 3636TIP3    H210915   6.021   1.075   0.993
 3637TIP3   OH210916   3.439   1.581   0.937
 3637TIP3    H110917   3.526   1.592   0.900
 3637TIP3    H210918   3.437   1.640   1.012
 3638TIP3   OH210919   0.483   4.044   4.119
 3638TIP3    H110920   0.418   4.114   4.128
 3638TIP3    H210921   0.481   4.021   4.026
 3639TIP3   OH210922   6.116   1.057   2.501
 3639TIP3    H110923   6.168   1.089   2.427
 3639TIP3    H210924   6.074   1.135   2.537
 3640TIP3   OH210925   5.959   1.615   2.086
 3640TIP3    H110926   6.021   1.677   2.125
 3640TIP3    H210927   6.011   1.536   2.070
 3641TIP3   OH210928   1.824   3.348   0.959
 3641TIP3    H110929   1.742   3.397   0.962
 3641TIP3    H210930   1.891   3.413   0.936
 3642TIP3   OH210931   4.211   1.726   5.013
 3642TIP3    H110932   4.136   1.781   4.988
 3642TIP3    H210933   4.217   1.660   4.944
 3643TIP3   OH210934   0.286   3.592   3.923
 3643TIP3    H110935   0.294   3.503   3.958
 3643TIP3    H210936   0.376   3.621   3.911
 3644TIP3   OH210937   1.339   2.954   2.775
 3644TIP3    H110938   1.362   3.003   2.697
 3644TIP3    H210939   1.407   2.977   2.839
 3645TIP3   OH210940   6.058   2.700   5.131
 3645TIP3    H110941   6.075   2.713   5.224
 3645TIP3    H210942   5.987   2.636   5.128
 3646TIP3   OH210943   3.761   2.426   2.908
 3646TIP3    H110944   3.764   2.330   2.905
 3646TIP3    H210945   3.809   2.449   2.987
 3647TIP3   OH210946   4.565   1.515   4.832
 3647TIP3    H110947   4.607   1.506   4.917
 3647TIP3    H210948   4.473   1.496   4.849
 3648TIP3   OH210949   4.716   2.712   4.201
 3648TIP3    H110950   4.722   2.652   4.275
 3648TIP3    H210951   4.707   2.798   4.240
 3649TIP3   OH210952   1.636   5.047   0.673
 3649TIP3    H110953   1.543   5.024   0.676
 3649TIP3    H210954   1.640   5.133   0.716
 3650TIP3   OH210955   5.373   4.560   0.418
 3650TIP3    H110956   5.455   4.594   0.382
 3650TIP3    H210957   5.308   4.628   0.397
 3651TIP3   OH210958   4.635   1.849   0.865
 3651TIP3    H110959   4.643   1.789   0.791
 3651TIP3    H210960   4.720   1.844   0.909
 3652TIP3   OH210961   1.592   2.576   5.207
 3652TIP3    H110962   1.523   2.633   5.172
 3652TIP3    H210963   1.554   2.488   5.203
 3653TIP3   OH210964   3.470   0.766   3.311
 3653TIP3    H110965   3.526   0.794   3.383
 3653TIP3    H210966   3.519   0.696   3.268
 3654TIP3   OH210967   2.215   0.466   3.684
 3654TIP3    H110968   2.228   0.447   3.777
 3654TIP3    H210969   2.240   0.558   3.674
 3655TIP3   OH210970   1.273   3.336   3.153
 3655TIP3    H110971   1.269   3.415   3.205
 3655TIP3    H210972   1.217   3.353   3.077
 3656TIP3   OH210973   0.831   3.146   1.784
 3656TIP3    H110974   0.785   3.071   1.821
 3656TIP3    H210975   0.764   3.193   1.733
 3657TIP3   OH210976   5.173   2.474   4.586
 3657TIP3    H110977   5.253   2.483   4.534
 3657TIP3    H210978   5.188   2.396   4.639
 3658TIP3   OH210979   3.132   3.657   4.065
 3658TIP3    H110980   3.062   3.645   4.001
 3658TIP3    H210981   3.213   3.653   4.015
 3659TIP3   OH210982   4.868   0.313   0.268
 3659TIP3    H110983   4.883   0.296   0.175
 3659TIP3    H210984   4.843   0.406   0.271
 3660TIP3   OH210985   3.819   0.531   4.449
 3660TIP3    H110986   3.749   0.591   4.475
 3660TIP3    H210987   3.833   0.550   4.356
 3661TIP3   OH210988   5.460   3.551   3.173
 3661TIP3    H110989   5.450   3.456   3.165
 3661TIP3    H210990   5.461   3.566   3.268
 3662TIP3   OH210991   0.333   2.909   4.548
 3662TIP3    H110992   0.372   2.911   4.460
 3662TIP3    H210993   0.374   2.834   4.591
 3663TIP3   OH210994   4.015   1.661   2.604
 3663TIP3    H110995   3.949   1.661   2.534
 3663TIP3    H210996   4.027   1.754   2.626
 3664TIP3   OH210997   4.261   4.250   3.870
 3664TIP3    H110998   4.306   4.292   3.797
 3664TIP3    H210999   4.172   4.236   3.837
 3665TIP3   OH211000   0.418   4.853   1.385
 3665TIP3    H111001   0.438   4.931   1.436
 3665TIP3    H211002   0.388   4.789   1.450
 3666TIP3   OH211003   3.981   5.665   1.383
 3666TIP3    H111004   3.921   5.738   1.365
 3666TIP3    H211005   3.925   5.587   1.377
 3667TIP3   OH211006   1.757   0.681   0.822
 3667TIP3    H111007   1.785   0.631   0.745
 3667TIP3    H211008   1.683   0.733   0.791
 3668TIP3   OH211009   3.091   0.540   5.200
 3668TIP3    H111010   3.121   0.491   5.123
 3668TIP3    H211011   3.170   0.584   5.233
 3669TIP3   OH211012   5.669   4.265   0.559
 3669TIP3    H111013   5.746   4.218   0.593
 3669TIP3    H211014   5.607   4.196   0.536
 3670TIP3   OH211015   4.213   3.965   2.597
 3670TIP3    H111016   4.256   4.047   2.575
 3670TIP3    H211017   4.256   3.900   2.541
 3671TIP3   OH211018   3.364   3.516   4.740
 3671TIP3    H111019   3.455   3.490   4.726
 3671TIP3    H211020   3.369   3.610   4.759
 3672TIP3   OH211021   2.050   1.848   4.091
 3672TIP3    H111022   2.108   1.916   4.125
 3672TIP3    H211023   2.063   1.851   3.996
 3673TIP3   OH211024   1.755   5.380   4.775
 3673TIP3    H111025   1.764   5.289   4.803
 3673TIP3    H211026   1.838   5.401   4.732
 3674TIP3   OH211027   3.471   3.487   2.290
 3674TIP3    H111028   3.557   3.512   2.323
 3674TIP3    H211029   3.443   3.415   2.346
 3675TIP3   OH211030   5.502   3.107   3.840
 3675TIP3    H111031   5.492   3.035   3.778
 3675TIP3    H211032   5.453   3.179   3.801
 3676TIP3   OH211033   5.832   2.803   3.189
 3676TIP3    H111034   5.826   2.730   3.127
 3676TIP3    H211035   5.741   2.832   3.200
 3677TIP3   OH211036   2.531   2.015   0.169
 3677TIP3    H111037   2.509   1.993   0.079
 3677TIP3    H211038   2.547   1.931   0.212
 3678TIP3   OH211039   4.732   4.458   4.724
 3678TIP3    H111040   4.823   4.431   4.738
 3678TIP3    H211041   4.727   4.479   4.631
 3679TIP3   OH211042   5.147   2.822   3.180
 3679TIP3    H111043   5.211   2.765   3.221
 3679TIP3    H211044   5.119   2.882   3.249
 3680TIP3   OH211045   0.856   2.734   1.335
 3680TIP3    H111046   0.837   2.723   1.428
 3680TIP3    H211047   0.934   2.789   1.332
 3681TIP3   OH211048   1.478   1.888   2.647
 3681TIP3    H111049   1.486   1.930   2.733
 3681TIP3    H211050   1.556   1.833   2.640
 3682TIP3   OH211051   2.123   0.932   3.131
 3682TIP3    H111052   2.145   0.855   3.079
 3682TIP3    H211053   2.141   1.006   3.072
 3683TIP3   OH211054   5.569   4.043   3.550
 3683TIP3    H111055   5.509   4.087   3.490
 3683TIP3    H211056   5.654   4.082   3.532
 3684TIP3   OH211057   1.196   0.139   1.057
 3684TIP3    H111058   1.262   0.167   1.122
 3684TIP3    H211059   1.239   0.069   1.009
 3685TIP3   OH211060   5.292   0.646   3.722
 3685TIP3    H111061   5.367   0.659   3.780
 3685TIP3    H211062   5.228   0.599   3.776
 3686TIP3   OH211063   5.447   2.131   3.585
 3686TIP3    H111064   5.433   2.046   3.542
 3686TIP3    H211065   5.396   2.193   3.533
 3687TIP3   OH211066   6.333   2.652   4.263
 3687TIP3    H111067   6.299   2.577   4.311
 3687TIP3    H211068   6.323   2.725   4.323
 3688TIP3   OH211069   4.424   2.573   4.653
 3688TIP3    H111070   4.331   2.580   4.672
 3688TIP3    H211071   4.446   2.654   4.608
 3689TIP3   OH211072   1.953   5.592   1.794
 3689TIP3    H111073   1.900   5.514   1.812
 3689TIP3    H211074   1.892   5.655   1.758
 3690TIP3   OH211075   4.849   2.536   2.271
 3690TIP3    H111076   4.814   2.600   2.209
 3690TIP3    H211077   4.942   2.558   2.277
 3691TIP3   OH211078   4.245   3.966   2.853
 3691TIP3    H111079   4.221   3.930   2.768
 3691TIP3    H211080   4.321   3.914   2.880
 3692TIP3   OH211081   5.548   1.661   3.926
 3692TIP3    H111082   5.518   1.660   4.016
 3692TIP3    H211083   5.497   1.732   3.885
 3693TIP3   OH211084   2.640   0.221   0.063
 3693TIP3    H111085   2.700   0.294   0.078
 3693TIP3    H211086   2.622   0.223  -0.031
 3694TIP3   OH211087   3.671   2.296   4.310
 3694TIP3    H111088   3.756   2.253   4.319
 3694TIP3    H211089   3.651   2.290   4.217
 3695TIP3   OH211090   0.062   1.503   3.382
 3695TIP3    H111091   0.054   1.429   3.322
 3695TIP3    H211092   0.036   1.467   3.467
 3696TIP3   OH211093   6.251   4.890   0.631
 3696TIP3    H111094   6.204   4.935   0.561
 3696TIP3    H211095   6.224   4.798   0.623
 3697TIP3   OH211096   1.617   4.231   1.954
 3697TIP3    H111097   1.630   4.305   1.893
 3697TIP3    H211098   1.554   4.263   2.018
 3698TIP3   OH211099   2.103   1.956   2.200
 3698TIP3    H111100   2.075   1.875   2.158
 3698TIP3    H211101   2.028   2.016   2.188
 3699TIP3   OH211102   3.407   3.787   4.234
 3699TIP3    H111103   3.418   3.718   4.168
 3699TIP3    H211104   3.343   3.847   4.196
 3700TIP3   OH211105   1.175   1.839   4.871
 3700TIP3    H111106   1.230   1.860   4.795
 3700TIP3    H211107   1.207   1.754   4.901
 3701TIP3   OH211108   1.100   4.998   3.757
 3701TIP3    H111109   1.051   5.075   3.730
 3701TIP3    H211110   1.109   4.945   3.678
 3702TIP3   OH211111   2.178   2.973   3.404
 3702TIP3    H111112   2.268   2.970   3.372
 3702TIP3    H211113   2.182   3.025   3.484
 3703TIP3   OH211114   0.499   4.531   0.058
 3703TIP3    H111115   0.569   4.597   0.066
 3703TIP3    H211116   0.419   4.583   0.052
 3704TIP3   OH211117   0.259   3.880   1.625
 3704TIP3    H111118   0.222   3.816   1.686
 3704TIP3    H211119   0.354   3.867   1.632
 3705TIP3   OH211120   3.175   2.755   2.809
 3705TIP3    H111121   3.265   2.735   2.781
 3705TIP3    H211122   3.144   2.672   2.846
 3706TIP3   OH211123   1.673   3.491   0.724
 3706TIP3    H111124   1.708   3.575   0.694
 3706TIP3    H211125   1.646   3.508   0.815
 3707TIP3   OH211126   4.809   5.757   0.221
 3707TIP3    H111127   4.858   5.747   0.302
 3707TIP3    H211128   4.753   5.679   0.216
 3708TIP3   OH211129   3.858   4.997   4.079
 3708TIP3    H111130   3.795   5.031   4.143
 3708TIP3    H211131   3.835   5.040   3.997
 3709TIP3   OH211132   4.188   2.499   5.007
 3709TIP3    H111133   4.099   2.498   5.041
 3709TIP3    H211134   4.184   2.447   4.927
 3710TIP3   OH211135   2.826   3.128   0.075
 3710TIP3    H111136   2.768   3.067   0.120
 3710TIP3    H211137   2.785   3.143  -0.010
 3711TIP3   OH211138   3.533   2.283   0.827
 3711TIP3    H111139   3.620   2.319   0.843
 3711TIP3    H211140   3.534   2.258   0.735
 3712TIP3   OH211141   3.724   1.995   4.897
 3712TIP3    H111142   3.653   2.057   4.881
 3712TIP3    H211143   3.769   1.988   4.813
 3713TIP3   OH211144   5.883   3.172   3.036
 3713TIP3    H111145   5.905   3.182   2.944
 3713TIP3    H211146   5.967   3.183   3.082
 3714TIP3   OH211147   4.150   0.871   4.431
 3714TIP3    H111148   4.102   0.936   4.482
 3714TIP3    H211149   4.082   0.818   4.389
 3715TIP3   OH211150   5.496   3.036   1.811
 3715TIP3    H111151   5.430   3.104   1.815
 3715TIP3    H211152   5.568   3.068   1.866
 3716TIP3   OH211153   3.796   0.380   0.900
 3716TIP3    H111154   3.788   0.287   0.878
 3716TIP3    H211155   3.713   0.401   0.943
 3717TIP3   OH211156   1.306   1.523   1.272
 3717TIP3    H111157   1.277   1.483   1.354
 3717TIP3    H211158   1.237   1.503   1.209
 3718TIP3   OH211159   1.144  -0.033   4.477
 3718TIP3    H111160   1.083   0.010   4.537
 3718TIP3    H211161   1.159  -0.119   4.516
 3719TIP3   OH211162   0.223   1.356   2.073
 3719TIP3    H111163   0.195   1.408   1.997
 3719TIP3    H211164   0.287   1.412   2.117
 3720TIP3   OH211165   1.770   3.024   3.117
 3720TIP3    H111166   1.819   3.003   3.038
 3720TIP3    H211167   1.836   3.054   3.179
 3721TIP3   OH211168  -0.015   2.190   2.685
 3721TIP3    H111169  -0.110   2.198   2.690
 3721TIP3    H211170   0.014   2.181   2.777
 3722TIP3   OH211171   4.544   3.999   1.571
 3722TIP3    H111172   4.544   4.024   1.478
 3722TIP3    H211173   4.608   4.057   1.611
 3723TIP3   OH211174   3.099   3.084   0.026
 3723TIP3    H111175   3.078   2.995  -0.004
 3723TIP3    H211176   3.014   3.126   0.038
 3724TIP3   OH211177   1.145   0.772   3.471
 3724TIP3    H111178   1.190   0.702   3.518
 3724TIP3    H211179   1.081   0.806   3.533
 3725TIP3   OH211180   2.449   3.746   1.014
 3725TIP3    H111181   2.444   3.794   1.096
 3725TIP3    H211182   2.502   3.801   0.956
 3726TIP3   OH211183   1.658   0.253   4.414
 3726TIP3    H111184   1.575   0.212   4.389
 3726TIP3    H211185   1.644   0.283   4.504
 3727TIP3   OH211186   0.798   2.496   0.600
 3727TIP3    H111187   0.749   2.572   0.634
 3727TIP3    H211188   0.887   2.528   0.589
 3728TIP3   OH211189   0.389   0.394   0.352
 3728TIP3    H111190   0.321   0.336   0.318
 3728TIP3    H211191   0.417   0.352   0.434
 3729TIP3   OH211192   2.276   2.552   0.247
 3729TIP3    H111193   2.328   2.584   0.321
 3729TIP3    H211194   2.340   2.538   0.177
 3730TIP3   OH211195   5.483   3.249   4.977
 3730TIP3    H111196   5.448   3.222   5.063
 3730TIP3    H211197   5.568   3.205   4.971
 3731TIP3   OH211198   4.881   1.551   4.791
 3731TIP3    H111199   4.933   1.617   4.838
 3731TIP3    H211200   4.914   1.554   4.701
 3732TIP3   OH211201   0.110   0.459   4.950
 3732TIP3    H111202   0.178   0.423   5.007
 3732TIP3    H211203   0.059   0.516   5.008
 3733TIP3   OH211204   2.633   2.936   0.157
 3733TIP3    H111205   2.629   2.859   0.101
 3733TIP3    H211206   2.543   2.950   0.186
 3734TIP3   OH211207   4.880   4.162   4.013
 3734TIP3    H111208   4.802   4.193   4.058
 3734TIP3    H211209   4.891   4.222   3.939
 3735TIP3   OH211210   5.682   1.333   1.088
 3735TIP3    H111211   5.718   1.245   1.085
 3735TIP3    H211212   5.616   1.329   1.158
 3736TIP3   OH211213   0.848   5.414   2.320
 3736TIP3    H111214   0.894   5.480   2.372
 3736TIP3    H211215   0.828   5.458   2.237
 3737TIP3   OH211216   5.432   5.987   4.151
 3737TIP3    H111217   5.430   6.083   4.157
 3737TIP3    H211218   5.480   5.959   4.229
 3738TIP3   OH211219   0.665   2.395   2.019
 3738TIP3    H111220   0.648   2.323   2.080
 3738TIP3    H211221   0.608   2.377   1.944
 3739TIP3   OH211222   2.175   4.203   3.379
 3739TIP3    H111223   2.082   4.227   3.381
 3739TIP3    H211224   2.179   4.123   3.431
 3740TIP3   OH211225   4.491   0.653   1.363
 3740TIP3    H111226   4.582   0.680   1.348
 3740TIP3    H211227   4.447   0.734   1.390
 3741TIP3   OH211228   4.533   2.753   5.158
 3741TIP3    H111229   4.584   2.814   5.211
 3741TIP3    H211230   4.545   2.782   5.068
 3742TIP3   OH211231   6.120   5.419   3.072
 3742TIP3    H111232   6.113   5.515   3.074
 3742TIP3    H211233   6.211   5.402   3.048
 3743TIP3   OH211234   0.998   1.678   0.815
 3743TIP3    H111235   0.980   1.595   0.771
 3743TIP3    H211236   0.945   1.675   0.895
 3744TIP3   OH211237   6.266   1.073   4.646
 3744TIP3    H111238   6.276   1.164   4.675
 3744TIP3    H211239   6.175   1.051   4.667
 3745TIP3   OH211240   5.184   2.401   3.874
 3745TIP3    H111241   5.117   2.347   3.915
 3745TIP3    H211242   5.136   2.468   3.826
 3746TIP3   OH211243   0.042   2.305   4.202
 3746TIP3    H111244   0.070   2.342   4.286
 3746TIP3    H211245  -0.001   2.223   4.225
 3747TIP3   OH211246   0.035   4.249   0.482
 3747TIP3    H111247   0.051   4.339   0.453
 3747TIP3    H211248  -0.029   4.258   0.553
 3748TIP3   OH211249   0.867   3.496   1.208
 3748TIP3    H111250   0.959   3.499   1.182
 3748TIP3    H211251   0.868   3.498   1.303
 3749TIP3   OH211252   1.179   3.063   3.974
 3749TIP3    H111253   1.092   3.093   3.998
 3749TIP3    H211254   1.239   3.120   4.022
 3750TIP3   OH211255   1.878   3.919   4.181
 3750TIP3    H111256   1.787   3.945   4.167
 3750TIP3    H211257   1.879   3.824   4.164
 3751TIP3   OH211258   1.579   1.286   1.452
 3751TIP3    H111259   1.595   1.198   1.420
 3751TIP3    H211260   1.607   1.343   1.380
 3752TIP3   OH211261   0.601   1.578   5.030
 3752TIP3    H111262   0.594   1.504   5.091
 3752TIP3    H211263   0.596   1.539   4.943
 3753TIP3   OH211264   5.264   2.740   2.802
 3753TIP3    H111265   5.292   2.827   2.772
 3753TIP3    H211266   5.334   2.682   2.773
 3754TIP3   OH211267   1.892   3.048   4.493
 3754TIP3    H111268   1.948   3.054   4.416
 3754TIP3    H211269   1.813   3.003   4.462
 3755TIP3   OH211270   3.738   5.308   4.587
 3755TIP3    H111271   3.678   5.240   4.617
 3755TIP3    H211272   3.823   5.265   4.584
 3756TIP3   OH211273   4.324   0.746   4.023
 3756TIP3    H111274   4.312   0.764   4.116
 3756TIP3    H211275   4.248   0.786   3.981
 3757TIP3   OH211276   3.340   0.503   0.586
 3757TIP3    H111277   3.396   0.500   0.508
 3757TIP3    H211278   3.274   0.436   0.571
 3758TIP3   OH211279   0.414   4.686   1.605
 3758TIP3    H111280   0.359   4.630   1.660
 3758TIP3    H211281   0.439   4.630   1.532
 3759TIP3   OH211282   3.392   5.328   1.125
 3759TIP3    H111283   3.418   5.274   1.200
 3759TIP3    H211284   3.471   5.378   1.104
 3760TIP3   OH211285   4.200   5.203   2.202
 3760TIP3    H111286   4.142   5.213   2.278
 3760TIP3    H211287   4.233   5.292   2.186
 3761TIP3   OH211288   0.880   2.418   0.227
 3761TIP3    H111289   0.911   2.501   0.265
 3761TIP3    H211290   0.959   2.376   0.193
 3762TIP3   OH211291   4.646   0.636   3.312
 3762TIP3    H111292   4.561   0.680   3.315
 3762TIP3    H211293   4.640   0.569   3.380
 3763TIP3   OH211294   2.440   5.742   3.011
 3763TIP3    H111295   2.480   5.715   2.928
 3763TIP3    H211296   2.348   5.758   2.989
 3764TIP3   OH211297   5.535   5.119   4.040
 3764TIP3    H111298   5.579   5.188   3.991
 3764TIP3    H211299   5.557   5.038   3.993
 3765TIP3   OH211300   4.343   4.774   3.717
 3765TIP3    H111301   4.344   4.862   3.755
 3765TIP3    H211302   4.396   4.781   3.637
 3766TIP3   OH211303   6.200   2.152   1.843
 3766TIP3    H111304   6.205   2.187   1.754
 3766TIP3    H211305   6.289   2.118   1.860
 3767TIP3   OH211306   1.410   5.209   4.720
 3767TIP3    H111307   1.404   5.304   4.713
 3767TIP3    H211308   1.468   5.194   4.795
 3768TIP3   OH211309   1.743   0.680   3.118
 3768TIP3    H111310   1.713   0.744   3.183
 3768TIP3    H211311   1.817   0.721   3.075
 3769TIP3   OH211312   1.148   4.358   4.926
 3769TIP3    H111313   1.078   4.407   4.883
 3769TIP3    H211314   1.106   4.278   4.957
 3770TIP3   OH211315   0.360   5.470   0.017
 3770TIP3    H111316   0.328   5.560   0.020
 3770TIP3    H211317   0.282   5.416   0.031
 3771TIP3   OH211318   2.662   5.145   0.258
 3771TIP3    H111319   2.648   5.082   0.329
 3771TIP3    H211320   2.756   5.139   0.238
 3772TIP3   OH211321   2.620   0.846   4.843
 3772TIP3    H111322   2.628   0.753   4.867
 3772TIP3    H211323   2.568   0.884   4.915
 3773TIP3   OH211324   0.319   5.358   0.603
 3773TIP3    H111325   0.297   5.439   0.557
 3773TIP3    H211326   0.261   5.356   0.679
 3774TIP3   OH211327   2.426   3.620   4.239
 3774TIP3    H111328   2.380   3.540   4.266
 3774TIP3    H211329   2.517   3.593   4.230
 3775TIP3   OH211330   1.707   2.479   2.482
 3775TIP3    H111331   1.687   2.572   2.490
 3775TIP3    H211332   1.635   2.434   2.525
 3776TIP3   OH211333   3.805   0.078   2.158
 3776TIP3    H111334   3.827   0.098   2.250
 3776TIP3    H211335   3.820  -0.016   2.150
 3777TIP3   OH211336   2.931   4.868   3.369
 3777TIP3    H111337   2.926   4.782   3.410
 3777TIP3    H211338   3.008   4.863   3.312
 3778TIP3   OH211339   3.760   3.715   2.686
 3778TIP3    H111340   3.815   3.658   2.741
 3778TIP3    H211341   3.820   3.782   2.653
 3779TIP3   OH211342   2.689   5.140   2.997
 3779TIP3    H111343   2.783   5.148   3.008
 3779TIP3    H211344   2.655   5.227   3.017
 3780TIP3   OH211345   0.036   3.730   0.876
 3780TIP3    H111346   0.061   3.821   0.861
 3780TIP3    H211347   0.025   3.724   0.971
 3781TIP3   OH211348   1.397   1.916   2.019
 3781TIP3    H111349   1.479   1.867   2.024
 3781TIP3    H211350   1.334   1.862   2.068
 3782TIP3   OH211351   6.270   3.837   1.760
 3782TIP3    H111352   6.289   3.837   1.666
 3782TIP3    H211353   6.182   3.875   1.766
 3783TIP3   OH211354   1.308   1.338   1.467
 3783TIP3    H111355   1.281   1.332   1.559
 3783TIP3    H211356   1.404   1.337   1.471
 3784TIP3   OH211357   3.352   4.822   0.442
 3784TIP3    H111358   3.302   4.741   0.430
 3784TIP3    H211359   3.442   4.798   0.416
 3785TIP3   OH211360   2.500   3.015   4.394
 3785TIP3    H111361   2.539   3.031   4.308
 3785TIP3    H211362   2.459   3.098   4.418
 3786TIP3   OH211363   0.223   4.720   0.319
 3786TIP3    H111364   0.165   4.646   0.332
 3786TIP3    H211365   0.207   4.777   0.395
 3787TIP3   OH211366   4.460   2.674   0.240
 3787TIP3    H111367   4.473   2.735   0.168
 3787TIP3    H211368   4.482   2.724   0.319
 3788TIP3   OH211369   3.891   5.863   1.186
 3788TIP3    H111370   3.887   5.779   1.141
 3788TIP3    H211371   3.819   5.914   1.149
 3789TIP3   OH211372   6.295   1.848   4.795
 3789TIP3    H111373   6.215   1.797   4.784
 3789TIP3    H211374   6.364   1.794   4.755
 3790TIP3   OH211375   1.625   0.149   4.855
 3790TIP3    H111376   1.623   0.064   4.811
 3790TIP3    H211377   1.548   0.195   4.822
 3791TIP3   OH211378   2.952   1.869   1.014
 3791TIP3    H111379   3.021   1.811   1.047
 3791TIP3    H211380   2.999   1.937   0.965
 3792TIP3   OH211381   5.225   5.760   4.173
 3792TIP3    H111382   5.278   5.840   4.172
 3792TIP3    H211383   5.237   5.724   4.261
 3793TIP3   OH211384   4.712   5.310   1.088
 3793TIP3    H111385   4.646   5.270   1.032
 3793TIP3    H211386   4.708   5.404   1.068
 3794TIP3   OH211387   0.841   4.774   2.110
 3794TIP3    H111388   0.798   4.774   2.024
 3794TIP3    H211389   0.875   4.862   2.119
 3795TIP3   OH211390   4.326   1.306   0.158
 3795TIP3    H111391   4.254   1.352   0.113
 3795TIP3    H211392   4.403   1.362   0.143
 3796TIP3   OH211393   1.206   1.764   3.138
 3796TIP3    H111394   1.296   1.734   3.146
 3796TIP3    H211395   1.197   1.833   3.204
 3797TIP3   OH211396   2.246   4.573   0.410
 3797TIP3    H111397   2.178   4.585   0.477
 3797TIP3    H211398   2.206   4.606   0.329
 3798TIP3   OH211399   1.055   5.457   0.490
 3798TIP3    H111400   1.144   5.478   0.463
 3798TIP3    H211401   1.007   5.446   0.408
 3799TIP3   OH211402   5.592   2.006   4.935
 3799TIP3    H111403   5.522   1.998   5.000
 3799TIP3    H211404   5.657   1.941   4.961
 3800TIP3   OH211405   3.838   1.450   3.106
 3800TIP3    H111406   3.905   1.398   3.061
 3800TIP3    H211407   3.863   1.541   3.091
 3801TIP3   OH211408   2.091   5.856   4.005
 3801TIP3    H111409   2.154   5.884   4.071
 3801TIP3    H211410   2.012   5.907   4.023
 3802TIP3   OH211411   4.252   1.545   3.788
 3802TIP3    H111412   4.229   1.493   3.866
 3802TIP3    H211413   4.264   1.634   3.822
 3803TIP3   OH211414   4.468   0.076   3.298
 3803TIP3    H111415   4.391   0.109   3.345
 3803TIP3    H211416   4.540   0.131   3.329
 3804TIP3   OH211417   2.480   2.116   4.004
 3804TIP3    H111418   2.495   2.205   4.038
 3804TIP3    H211419   2.551   2.103   3.941
 3805TIP3   OH211420   3.664   1.139   3.742
 3805TIP3    H111421   3.661   1.158   3.648
 3805TIP3    H211422   3.586   1.180   3.778
 3806TIP3   OH211423   0.167   2.468   2.502
 3806TIP3    H111424   0.100   2.443   2.438
 3806TIP3    H211425   0.131   2.443   2.586
 3807TIP3   OH211426   3.677   2.941   3.413
 3807TIP3    H111427   3.732   2.944   3.334
 3807TIP3    H211428   3.712   2.867   3.464
 3808TIP3   OH211429   0.516   4.429   2.866
 3808TIP3    H111430   0.559   4.364   2.920
 3808TIP3    H211431   0.461   4.379   2.806
 3809TIP3   OH211432   0.158   2.219   4.673
 3809TIP3    H111433   0.120   2.131   4.678
 3809TIP3    H211434   0.180   2.241   4.763
 3810TIP3   OH211435   0.163   0.749   4.123
 3810TIP3    H111436   0.203   0.792   4.199
 3810TIP3    H211437   0.237   0.712   4.075
 3811TIP3   OH211438   1.884   5.778   0.201
 3811TIP3    H111439   1.976   5.794   0.220
 3811TIP3    H211440   1.854   5.859   0.159
 3812TIP3   OH211441   2.239   2.578   1.560
 3812TIP3    H111442   2.176   2.635   1.517
 3812TIP3    H211443   2.319   2.586   1.508
 3813TIP3   OH211444   6.005   3.105   4.724
 3813TIP3    H111445   6.010   3.058   4.807
 3813TIP3    H211446   6.011   3.037   4.657
 3814TIP3   OH211447   2.380   1.914   2.234
 3814TIP3    H111448   2.287   1.915   2.211
 3814TIP3    H211449   2.381   1.919   2.329
 3815TIP3   OH211450   0.991   1.600   3.801
 3815TIP3    H111451   0.957   1.511   3.795
 3815TIP3    H211452   1.066   1.593   3.860
 3816TIP3   OH211453   0.029   2.854   2.039
 3816TIP3    H111454   0.065   2.766   2.048
 3816TIP3    H211455  -0.054   2.851   2.085
 3817TIP3   OH211456   5.445   3.744   2.834
 3817TIP3    H111457   5.426   3.660   2.793
 3817TIP3    H211458   5.387   3.747   2.910
 3818TIP3   OH211459   4.933   2.736   1.111
 3818TIP3    H111460   4.960   2.737   1.203
 3818TIP3    H211461   4.863   2.671   1.106
 3819TIP3   OH211462   1.608   4.998   4.171
 3819TIP3    H111463   1.528   4.967   4.214
 3819TIP3    H211464   1.677   4.942   4.205
 3820TIP3   OH211465   6.138   3.735   3.363
 3820TIP3    H111466   6.097   3.797   3.424
 3820TIP3    H211467   6.144   3.784   3.280
 3821TIP3   OH211468   4.804   1.848   0.197
 3821TIP3    H111469   4.761   1.783   0.141
 3821TIP3    H211470   4.872   1.886   0.142
 3822TIP3   OH211471   4.149   0.844   3.817
 3822TIP3    H111472   4.144   0.894   3.735
 3822TIP3    H211473   4.067   0.862   3.862
 3823TIP3   OH211474   3.904   4.193   3.703
 3823TIP3    H111475   3.908   4.221   3.795
 3823TIP3    H211476   3.819   4.149   3.696
 3824TIP3   OH211477   5.998   5.328   2.328
 3824TIP3    H111478   6.024   5.362   2.413
 3824TIP3    H211479   6.061   5.258   2.310
 3825TIP3   OH211480   2.776   4.197   0.708
 3825TIP3    H111481   2.808   4.184   0.797
 3825TIP3    H211482   2.732   4.115   0.686
 3826TIP3   OH211483   5.468   4.670   1.598
 3826TIP3    H111484   5.526   4.596   1.579
 3826TIP3    H211485   5.512   4.718   1.668
 3827TIP3   OH211486   4.778   1.678   1.179
 3827TIP3    H111487   4.824   1.760   1.196
 3827TIP3    H211488   4.846   1.611   1.176
 3828TIP3   OH211489   5.659   1.092   1.930
 3828TIP3    H111490   5.637   1.064   2.018
 3828TIP3    H211491   5.646   1.187   1.930
 3829TIP3   OH211492   1.530   5.690   3.049
 3829TIP3    H111493   1.443   5.716   3.078
 3829TIP3    H211494   1.525   5.691   2.953
 3830TIP3   OH211495   0.804   0.724   2.608
 3830TIP3    H111496   0.783   0.702   2.698
 3830TIP3    H211497   0.725   0.703   2.559
 3831TIP3   OH211498   2.341   3.204   0.693
 3831TIP3    H111499   2.390   3.241   0.766
 3831TIP3    H211500   2.268   3.265   0.680
 3832TIP3   OH211501   4.505   5.853   4.054
 3832TIP3    H111502   4.472   5.916   3.991
 3832TIP3    H211503   4.547   5.906   4.122
 3833TIP3   OH211504   4.515   0.427   0.915
 3833TIP3    H111505   4.455   0.410   0.842
 3833TIP3    H211506   4.458   0.437   0.991
 3834TIP3   OH211507   2.719   5.138   4.134
 3834TIP3    H111508   2.806   5.108   4.161
 3834TIP3    H211509   2.685   5.186   4.210
 3835TIP3   OH211510   3.430   2.772   5.059
 3835TIP3    H111511   3.469   2.702   5.006
 3835TIP3    H211512   3.481   2.774   5.139
 3836TIP3   OH211513   1.264   1.837   2.882
 3836TIP3    H111514   1.337   1.790   2.842
 3836TIP3    H211515   1.232   1.777   2.950
 3837TIP3   OH211516   3.869   0.843   4.338
 3837TIP3    H111517   3.891   0.919   4.285
 3837TIP3    H211518   3.816   0.877   4.410
 3838TIP3   OH211519   3.343   2.346   2.711
 3838TIP3    H111520   3.308   2.278   2.653
 3838TIP3    H211521   3.281   2.419   2.701
 3839TIP3   OH211522   2.159   4.615   3.022
 3839TIP3    H111523   2.203   4.674   2.961
 3839TIP3    H211524   2.089   4.668   3.060
 3840TIP3   OH211525   2.280   4.266   4.404
 3840TIP3    H111526   2.215   4.251   4.335
 3840TIP3    H211527   2.292   4.361   4.405
 3841TIP3   OH211528   5.198   3.835   1.704
 3841TIP3    H111529   5.259   3.885   1.758
 3841TIP3    H211530   5.230   3.847   1.615
 3842TIP3   OH211531   5.201   5.142   2.455
 3842TIP3    H111532   5.164   5.055   2.439
 3842TIP3    H211533   5.275   5.149   2.395
 3843TIP3   OH211534   4.951   3.143   0.474
 3843TIP3    H111535   4.897   3.063   0.474
 3843TIP3    H211536   4.946   3.174   0.384
 3844TIP3   OH211537   2.458   2.334   4.568
 3844TIP3    H111538   2.515   2.319   4.492
 3844TIP3    H211539   2.518   2.337   4.642
 3845TIP3   OH211540   0.443   5.313   1.795
 3845TIP3    H111541   0.441   5.265   1.877
 3845TIP3    H211542   0.351   5.328   1.774
 3846TIP3   OH211543   2.143   5.656   3.237
 3846TIP3    H111544   2.193   5.640   3.318
 3846TIP3    H211545   2.054   5.674   3.267
 3847TIP3   OH211546   4.186   5.546   3.132
 3847TIP3    H111547   4.094   5.519   3.128
 3847TIP3    H211548   4.182   5.640   3.152
 3848TIP3   OH211549   1.755   5.919   1.413
 3848TIP3    H111550   1.680   5.959   1.458
 3848TIP3    H211551   1.717   5.854   1.354
 3849TIP3   OH211552   5.069   2.183   0.729
 3849TIP3    H111553   5.156   2.156   0.697
 3849TIP3    H211554   5.008   2.133   0.676
 3850TIP3   OH211555   0.359   5.866   2.117
 3850TIP3    H111556   0.416   5.837   2.188
 3850TIP3    H211557   0.271   5.837   2.144
 3851TIP3   OH211558   0.808   5.376   4.517
 3851TIP3    H111559   0.866   5.322   4.462
 3851TIP3    H211560   0.756   5.426   4.454
 3852TIP3   OH211561   1.105   1.504   1.084
 3852TIP3    H111562   1.066   1.484   1.169
 3852TIP3    H211563   1.032   1.537   1.032
 3853TIP3   OH211564   1.956   0.558  -0.038
 3853TIP3    H111565   1.994   0.502   0.030
 3853TIP3    H211566   1.990   0.645  -0.019
 3854TIP3   OH211567   1.859   3.781   0.150
 3854TIP3    H111568   1.852   3.820   0.237
 3854TIP3    H211569   1.941   3.816   0.115
 3855TIP3   OH211570   5.176   2.651   1.001
 3855TIP3    H111571   5.089   2.686   1.018
 3855TIP3    H211572   5.166   2.599   0.921
 3856TIP3   OH211573   1.615   1.034   1.380
 3856TIP3    H111574   1.597   1.007   1.290
 3856TIP3    H211575   1.549   0.990   1.433
 3857TIP3   OH211576   2.604   0.487   4.777
 3857TIP3    H111577   2.626   0.394   4.784
 3857TIP3    H211578   2.669   0.531   4.833
 3858TIP3   OH211579   2.903   4.832   1.875
 3858TIP3    H111580   2.964   4.871   1.938
 3858TIP3    H211581   2.904   4.892   1.801
 3859TIP3   OH211582   4.975   2.257   1.608
 3859TIP3    H111583   4.949   2.319   1.676
 3859TIP3    H211584   5.030   2.193   1.653
 3860TIP3   OH211585   4.891   2.810   3.730
 3860TIP3    H111586   4.844   2.833   3.650
 3860TIP3    H211587   4.956   2.880   3.741
 3861TIP3   OH211588   6.302   0.374   0.124
 3861TIP3    H111589   6.332   0.383   0.215
 3861TIP3    H211590   6.224   0.317   0.131
 3862TIP3   OH211591   4.867   0.988   4.401
 3862TIP3    H111592   4.923   0.985   4.323
 3862TIP3    H211593   4.920   1.035   4.466
 3863TIP3   OH211594   0.206   2.758   2.732
 3863TIP3    H111595   0.116   2.781   2.757
 3863TIP3    H211596   0.258   2.776   2.811
 3864TIP3   OH211597   6.014   0.543   1.104
 3864TIP3    H111598   5.968   0.591   1.173
 3864TIP3    H211599   6.026   0.455   1.140
 3865TIP3   OH211600   2.086   4.111   4.856
 3865TIP3    H111601   1.996   4.084   4.838
 3865TIP3    H211602   2.086   4.135   4.948
 3866TIP3   OH211603   2.377   5.985   4.992
 3866TIP3    H111604   2.286   6.015   4.995
 3866TIP3    H211605   2.379   5.911   5.053
 3867TIP3   OH211606   2.595   0.097   1.995
 3867TIP3    H111607   2.553   0.012   2.007
 3867TIP3    H211608   2.524   0.161   1.999
 3868TIP3   OH211609   2.224   0.954   3.385
 3868TIP3    H111610   2.213   0.936   3.291
 3868TIP3    H211611   2.307   1.001   3.391
 3869TIP3   OH211612   6.107   4.089   1.314
 3869TIP3    H111613   6.060   4.166   1.282
 3869TIP3    H211614   6.185   4.125   1.356
 3870TIP3   OH211615   5.612   5.452   4.519
 3870TIP3    H111616   5.681   5.488   4.574
 3870TIP3    H211617   5.657   5.392   4.460
 3871TIP3   OH211618   1.109   3.233   5.048
 3871TIP3    H111619   1.141   3.207   5.134
 3871TIP3    H211620   1.145   3.167   4.989
 3872TIP3   OH211621   1.607   1.710   0.495
 3872TIP3    H111622   1.608   1.666   0.580
 3872TIP3    H211623   1.515   1.705   0.467
 3873TIP3   OH211624   4.184   3.935   3.632
 3873TIP3    H111625   4.202   3.843   3.653
 3873TIP3    H211626   4.268   3.979   3.644
 3874TIP3   OH211627   6.042   3.515   2.816
 3874TIP3    H111628   6.070   3.604   2.839
 3874TIP3    H211629   6.101   3.489   2.745
 3875TIP3   OH211630   4.786   2.122   2.397
 3875TIP3    H111631   4.709   2.174   2.374
 3875TIP3    H211632   4.855   2.187   2.410
 3876TIP3   OH211633   2.712   2.191   5.074
 3876TIP3    H111634   2.683   2.281   5.064
 3876TIP3    H211635   2.636   2.138   5.048
 3877TIP3   OH211636   3.418   0.614   2.454
 3877TIP3    H111637   3.326   0.603   2.478
 3877TIP3    H211638   3.464   0.546   2.502
 3878TIP3   OH211639   3.953   4.965   2.409
 3878TIP3    H111640   3.934   5.056   2.385
 3878TIP3    H211641   4.039   4.969   2.449
 3879TIP3   OH211642   6.154   3.958   0.121
 3879TIP3    H111643   6.135   3.875   0.166
 3879TIP3    H211644   6.068   3.998   0.108
 3880TIP3   OH211645   1.080   5.463   3.346
 3880TIP3    H111646   0.985   5.472   3.351
 3880TIP3    H211647   1.113   5.516   3.418
 3881TIP3   OH211648   4.393   4.028   4.699
 3881TIP3    H111649   4.394   4.090   4.625
 3881TIP3    H211650   4.320   3.969   4.681
 3882TIP3   OH211651   0.613   4.346   0.460
 3882TIP3    H111652   0.528   4.377   0.492
 3882TIP3    H211653   0.678   4.398   0.508
 3883TIP3   OH211654   3.164   0.589   3.447
 3883TIP3    H111655   3.069   0.603   3.456
 3883TIP3    H211656   3.176   0.496   3.467
 3884TIP3   OH211657  -0.029   2.958   4.322
 3884TIP3    H111658  -0.088   3.017   4.275
 3884TIP3    H211659   0.015   3.013   4.386
 3885TIP3   OH211660   1.122   0.055   0.301
 3885TIP3    H111661   1.124   0.111   0.379
 3885TIP3    H211662   1.029   0.049   0.279
 3886TIP3   OH211663   0.260   5.897   4.955
 3886TIP3    H111664   0.194   5.961   4.982
 3886TIP3    H211665   0.272   5.914   4.861
 3887TIP3   OH211666   3.660   1.015   1.238
 3887TIP3    H111667   3.567   1.033   1.226
 3887TIP3    H211668   3.672   1.011   1.333
 3888TIP3   OH211669   4.110   2.254   0.348
 3888TIP3    H111670   4.181   2.308   0.383
 3888TIP3    H211671   4.134   2.241   0.256
 3889TIP3   OH211672   4.172   0.034   2.331
 3889TIP3    H111673   4.246  -0.026   2.341
 3889TIP3    H211674   4.197   0.111   2.384
 3890TIP3   OH211675   0.135   0.951   2.346
 3890TIP3    H111676   0.129   0.924   2.255
 3890TIP3    H211677   0.171   1.040   2.343
 3891TIP3   OH211678   0.423   5.734   1.117
 3891TIP3    H111679   0.329   5.749   1.104
 3891TIP3    H211680   0.465   5.784   1.047
 3892TIP3   OH211681   1.146   1.422   4.213
 3892TIP3    H111682   1.185   1.474   4.142
 3892TIP3    H211683   1.066   1.469   4.236
 3893TIP3   OH211684   0.315   3.641   4.833
 3893TIP3    H111685   0.396   3.686   4.854
 3893TIP3    H211686   0.246   3.698   4.869
 3894TIP3   OH211687   1.043   5.647   5.051
 3894TIP3    H111688   1.110   5.662   4.985
 3894TIP3    H211689   0.963   5.627   5.002
 3895TIP3   OH211690   3.886   5.633   1.047
 3895TIP3    H111691   3.926   5.546   1.055
 3895TIP3    H211692   3.812   5.619   0.988
 3896TIP3   OH211693   1.978   4.405   4.277
 3896TIP3    H111694   1.968   4.470   4.207
 3896TIP3    H211695   1.978   4.457   4.358
 3897TIP3   OH211696   4.681   3.750   1.267
 3897TIP3    H111697   4.717   3.838   1.275
 3897TIP3    H211698   4.708   3.722   1.179
 3898TIP3   OH211699   1.299   1.190   2.364
 3898TIP3    H111700   1.270   1.236   2.286
 3898TIP3    H211701   1.355   1.253   2.410
 3899TIP3   OH211702   0.147   1.936   2.784
 3899TIP3    H111703   0.080   1.967   2.723
 3899TIP3    H211704   0.116   1.849   2.810
 3900TIP3   OH211705   0.477   3.491   1.901
 3900TIP3    H111706   0.507   3.579   1.926
 3900TIP3    H211707   0.496   3.437   1.978
 3901TIP3   OH211708   1.583   2.002   1.696
 3901TIP3    H111709   1.577   1.950   1.616
 3901TIP3    H211710   1.627   2.083   1.670
 3902TIP3   OH211711   3.909   1.255   2.605
 3902TIP3    H111712   3.874   1.275   2.518
 3902TIP3    H211713   3.836   1.270   2.664
 3903TIP3   OH211714   1.720   4.793   2.617
 3903TIP3    H111715   1.784   4.816   2.549
 3903TIP3    H211716   1.686   4.876   2.647
 3904TIP3   OH211717   0.303   0.585   2.185
 3904TIP3    H111718   0.389   0.548   2.165
 3904TIP3    H211719   0.321   0.659   2.243
 3905TIP3   OH211720   2.240   4.459   2.015
 3905TIP3    H111721   2.237   4.366   2.034
 3905TIP3    H211722   2.315   4.469   1.955
 3906TIP3   OH211723   5.228   4.989   0.157
 3906TIP3    H111724   5.234   5.070   0.208
 3906TIP3    H211725   5.156   5.004   0.096
 3907TIP3   OH211726   6.223   2.103   3.152
 3907TIP3    H111727   6.204   2.064   3.067
 3907TIP3    H211728   6.255   2.190   3.132
 3908TIP3   OH211729   1.071   5.617   4.292
 3908TIP3    H111730   1.062   5.531   4.251
 3908TIP3    H211731   1.162   5.620   4.321
 3909TIP3   OH211732   5.557   0.401   0.525
 3909TIP3    H111733   5.466   0.373   0.537
 3909TIP3    H211734   5.562   0.486   0.569
 3910TIP3   OH211735   2.603   1.796   2.042
 3910TIP3    H111736   2.596   1.800   2.138
 3910TIP3    H211737   2.515   1.775   2.012
 3911TIP3   OH211738   3.226   3.170   2.873
 3911TIP3    H111739   3.321   3.165   2.861
 3911TIP3    H211740   3.205   3.263   2.862
 3912TIP3   OH211741   1.824   1.772   3.478
 3912TIP3    H111742   1.752   1.708   3.479
 3912TIP3    H211743   1.784   1.852   3.445
 3913TIP3   OH211744   1.195   5.888   4.668
 3913TIP3    H111745   1.220   5.846   4.586
 3913TIP3    H211746   1.276   5.929   4.699
 3914TIP3   OH211747   1.772   0.797   3.911
 3914TIP3    H111748   1.699   0.818   3.854
 3914TIP3    H211749   1.777   0.702   3.910
 3915TIP3   OH211750   0.176   4.610   3.089
 3915TIP3    H111751   0.129   4.663   3.153
 3915TIP3    H211752   0.114   4.540   3.065
 3916TIP3   OH211753   1.653   5.494   4.111
 3916TIP3    H111754   1.615   5.411   4.141
 3916TIP3    H211755   1.697   5.472   4.029
 3917TIP3   OH211756   2.025   0.857   2.424
 3917TIP3    H111757   1.966   0.782   2.424
 3917TIP3    H211758   1.967   0.933   2.423
 3918TIP3   OH211759   0.828   0.498   1.839
 3918TIP3    H111760   0.800   0.590   1.842
 3918TIP3    H211761   0.894   0.491   1.907
 3919TIP3   OH211762   0.307   0.555   3.577
 3919TIP3    H111763   0.396   0.563   3.541
 3919TIP3    H211764   0.301   0.463   3.604
 3920TIP3   OH211765   3.067   0.066   2.921
 3920TIP3    H111766   3.002   0.012   2.966
 3920TIP3    H211767   3.037   0.156   2.934
 3921TIP3   OH211768   5.756   2.644   1.564
 3921TIP3    H111769   5.754   2.717   1.503
 3921TIP3    H211770   5.709   2.675   1.641
 3922TIP3   OH211771   1.610   1.256   1.723
 3922TIP3    H111772   1.549   1.185   1.743
 3922TIP3    H211773   1.587   1.283   1.634
 3923TIP3   OH211774   2.335   1.439   2.979
 3923TIP3    H111775   2.345   1.534   2.982
 3923TIP3    H211776   2.303   1.421   2.890
 3924TIP3   OH211777   3.350   2.291   3.717
 3924TIP3    H111778   3.353   2.317   3.625
 3924TIP3    H211779   3.301   2.362   3.760
 3925TIP3   OH211780   4.792   3.721   3.476
 3925TIP3    H111781   4.703   3.756   3.482
 3925TIP3    H211782   4.844   3.776   3.534
 3926TIP3   OH211783   2.037   3.318   3.909
 3926TIP3    H111784   1.957   3.368   3.892
 3926TIP3    H211785   2.009   3.227   3.906
 3927TIP3   OH211786   5.668   5.820   2.545
 3927TIP3    H111787   5.681   5.815   2.450
 3927TIP3    H211788   5.723   5.750   2.580
 3928TIP3   OH211789   2.729   0.600   3.664
 3928TIP3    H111790   2.677   0.679   3.682
 3928TIP3    H211791   2.786   0.625   3.592
 3929TIP3   OH211792   4.444   1.711   0.611
 3929TIP3    H111793   4.436   1.665   0.528
 3929TIP3    H211794   4.356   1.710   0.648
 3930TIP3   OH211795   2.123   3.156   3.604
 3930TIP3    H111796   2.139   3.247   3.579
 3930TIP3    H211797   2.036   3.156   3.642
 3931TIP3   OH211798   4.938   3.663   2.298
 3931TIP3    H111799   4.950   3.578   2.255
 3931TIP3    H211800   4.958   3.727   2.230
 3932TIP3   OH211801   0.259   1.661   3.518
 3932TIP3    H111802   0.180   1.622   3.480
 3932TIP3    H211803   0.241   1.755   3.521
 3933TIP3   OH211804   5.928   5.673   1.607
 3933TIP3    H111805   5.849   5.653   1.557
 3933TIP3    H211806   5.897   5.686   1.697
 3934TIP3   OH211807   5.992   3.847   3.112
 3934TIP3    H111808   5.964   3.893   3.033
 3934TIP3    H211809   5.950   3.762   3.107
 3935TIP3   OH211810   3.523   5.448   3.729
 3935TIP3    H111811   3.497   5.428   3.639
 3935TIP3    H211812   3.441   5.445   3.778
 3936TIP3   OH211813   0.781   3.871   5.068
 3936TIP3    H111814   0.815   3.783   5.085
 3936TIP3    H211815   0.820   3.895   4.984
 3937TIP3   OH211816   4.122   1.000   4.055
 3937TIP3    H111817   4.191   1.019   4.118
 3937TIP3    H211818   4.044   1.040   4.093
 3938TIP3   OH211819   3.486   4.548   0.554
 3938TIP3    H111820   3.399   4.564   0.517
 3938TIP3    H211821   3.530   4.633   0.550
 3939TIP3   OH211822   5.991   1.132   1.949
 3939TIP3    H111823   5.900   1.157   1.932
 3939TIP3    H211824   5.995   1.039   1.924
 3940TIP3   OH211825   5.313   4.867   1.392
 3940TIP3    H111826   5.361   4.852   1.473
 3940TIP3    H211827   5.250   4.936   1.415
 3941TIP3   OH211828   0.069   5.463   3.664
 3941TIP3    H111829   0.099   5.491   3.577
 3941TIP3    H211830   0.033   5.542   3.703
 3942TIP3   OH211831   3.442   2.130   1.536
 3942TIP3    H111832   3.503   2.073   1.490
 3942TIP3    H211833   3.478   2.218   1.526
 3943TIP3   OH211834   5.213   3.655   3.033
 3943TIP3    H111835   5.164   3.583   2.994
 3943TIP3    H211836   5.284   3.613   3.082
 3944TIP3   OH211837   2.926   2.849   2.733
 3944TIP3    H111838   2.934   2.824   2.641
 3944TIP3    H211839   3.013   2.832   2.770
 3945TIP3   OH211840   4.374   2.444   1.874
 3945TIP3    H111841   4.459   2.420   1.837
 3945TIP3    H211842   4.310   2.394   1.822
 3946TIP3   OH211843   1.263   3.592   3.247
 3946TIP3    H111844   1.345   3.599   3.296
 3946TIP3    H211845   1.267   3.663   3.183
 3947TIP3   OH211846   2.299   1.747   3.538
 3947TIP3    H111847   2.252   1.717   3.461
 3947TIP3    H211848   2.377   1.790   3.503
 3948TIP3   OH211849   3.650   2.454   1.903
 3948TIP3    H111850   3.687   2.502   1.977
 3948TIP3    H211851   3.561   2.433   1.930
 3949TIP3   OH211852   5.461   3.332   1.155
 3949TIP3    H111853   5.373   3.361   1.133
 3949TIP3    H211854   5.485   3.271   1.086
 3950TIP3   OH211855   2.352   1.632   2.484
 3950TIP3    H111856   2.261   1.602   2.480
 3950TIP3    H211857   2.393   1.576   2.549
 3951TIP3   OH211858   3.836   3.893   0.445
 3951TIP3    H111859   3.819   3.934   0.361
 3951TIP3    H211860   3.820   3.799   0.430
 3952TIP3   OH211861   1.517   5.972   4.855
 3952TIP3    H111862   1.492   6.039   4.918
 3952TIP3    H211863   1.511   5.890   4.903
 3953TIP3   OH211864   5.003   5.175   4.958
 3953TIP3    H111865   5.008   5.185   5.053
 3953TIP3    H211866   5.093   5.154   4.932
 3954TIP3   OH211867   3.307   1.289   5.194
 3954TIP3    H111868   3.309   1.282   5.099
 3954TIP3    H211869   3.215   1.307   5.215
 3955TIP3   OH211870   4.594   5.396   4.691
 3955TIP3    H111871   4.622   5.353   4.772
 3955TIP3    H211872   4.672   5.442   4.659
 3956TIP3   OH211873   2.205   0.114   0.855
 3956TIP3    H111874   2.146   0.042   0.832
 3956TIP3    H211875   2.292   0.083   0.829
 3957TIP3   OH211876   0.695   2.066   0.829
 3957TIP3    H111877   0.772   2.018   0.800
 3957TIP3    H211878   0.622   2.007   0.812
 3958TIP3   OH211879   2.719   0.954   0.931
 3958TIP3    H111880   2.643   1.010   0.946
 3958TIP3    H211881   2.693   0.897   0.859
 3959TIP3   OH211882   1.985   5.557   0.646
 3959TIP3    H111883   1.919   5.528   0.582
 3959TIP3    H211884   2.000   5.649   0.624
 3960TIP3   OH211885   1.380   3.393   0.887
 3960TIP3    H111886   1.419   3.317   0.844
 3960TIP3    H211887   1.386   3.373   0.981
 3961TIP3   OH211888   5.189   5.905   0.616
 3961TIP3    H111889   5.195   5.953   0.534
 3961TIP3    H211890   5.205   5.971   0.684
 3962TIP3   OH211891   2.564   5.114   3.583
 3962TIP3    H111892   2.489   5.125   3.641
 3962TIP3    H211893   2.639   5.109   3.642
 3963TIP3   OH211894   1.006   3.827   4.597
 3963TIP3    H111895   1.031   3.756   4.656
 3963TIP3    H211896   1.053   3.807   4.516
 3964TIP3   OH211897   0.378   4.848   4.643
 3964TIP3    H111898   0.462   4.806   4.658
 3964TIP3    H211899   0.399   4.938   4.619
 3965TIP3   OH211900   1.123   1.877   1.347
 3965TIP3    H111901   1.085   1.948   1.399
 3965TIP3    H211902   1.058   1.808   1.349
 3966TIP3   OH211903   2.698   2.649   3.928
 3966TIP3    H111904   2.772   2.677   3.981
 3966TIP3    H211905   2.649   2.729   3.909
 3967TIP3   OH211906   1.812   0.673   1.863
 3967TIP3    H111907   1.906   0.683   1.877
 3967TIP3    H211908   1.798   0.703   1.773
 3968TIP3   OH211909   3.762   4.268   2.623
 3968TIP3    H111910   3.741   4.262   2.530
 3968TIP3    H211911   3.850   4.305   2.626
 3969TIP3   OH211912   5.112   3.934   3.321
 3969TIP3    H111913   5.107   3.874   3.396
 3969TIP3    H211914   5.070   4.014   3.353
 3970TIP3   OH211915   2.322   4.027   4.536
 3970TIP3    H111916   2.250   3.968   4.516
 3970TIP3    H211917   2.297   4.111   4.496
 3971TIP3   OH211918   1.475   1.194   3.726
 3971TIP3    H111919   1.434   1.139   3.659
 3971TIP3    H211920   1.405   1.211   3.789
 3972TIP3   OH211921   5.496   3.367   4.566
 3972TIP3    H111922   5.465   3.425   4.496
 3972TIP3    H211923   5.429   3.299   4.572
 3973TIP3   OH211924   5.189   5.414   2.529
 3973TIP3    H111925   5.182   5.341   2.468
 3973TIP3    H211926   5.104   5.416   2.574
 3974TIP3   OH211927   5.129   4.162   4.260
 3974TIP3    H111928   5.133   4.228   4.329
 3974TIP3    H211929   5.049   4.181   4.212
 3975TIP3   OH211930   1.828   0.384   3.459
 3975TIP3    H111931   1.735   0.398   3.441
 3975TIP3    H211932   1.837   0.289   3.465
 3976TIP3   OH211933   5.836   0.265   2.994
 3976TIP3    H111934   5.802   0.354   2.985
 3976TIP3    H211935   5.908   0.261   2.930
 3977TIP3   OH211936   4.909   3.534   1.450
 3977TIP3    H111937   4.945   3.589   1.519
 3977TIP3    H211938   4.831   3.581   1.420
 3978TIP3   OH211939   0.932   4.729   4.198
 3978TIP3    H111940   0.880   4.755   4.121
 3978TIP3    H211941   0.915   4.635   4.207
 3979TIP3   OH211942   2.974   2.072   4.200
 3979TIP3    H111943   2.982   1.988   4.154
 3979TIP3    H211944   2.962   2.048   4.292
 3980TIP3   OH211945   1.881   4.416   2.539
 3980TIP3    H111946   1.943   4.416   2.612
 3980TIP3    H211947   1.936   4.426   2.461
 3981TIP3   OH211948   3.235   0.568   1.414
 3981TIP3    H111949   3.262   0.552   1.504
 3981TIP3    H211950   3.144   0.596   1.421
 3982TIP3   OH211951   3.556   1.752   0.710
 3982TIP3    H111952   3.479   1.738   0.656
 3982TIP3    H211953   3.529   1.817   0.775
 3983TIP3   OH211954   0.709   3.111   4.397
 3983TIP3    H111955   0.714   3.061   4.315
 3983TIP3    H211956   0.619   3.140   4.403
 3984TIP3   OH211957   5.318   2.688   1.448
 3984TIP3    H111958   5.395   2.736   1.419
 3984TIP3    H211959   5.292   2.635   1.373
 3985TIP3   OH211960   0.205   5.378   4.155
 3985TIP3    H111961   0.253   5.457   4.181
 3985TIP3    H211962   0.158   5.403   4.075
 3986TIP3   OH211963   4.250   2.486   2.757
 3986TIP3    H111964   4.171   2.452   2.799
 3986TIP3    H211965   4.311   2.412   2.758
 3987TIP3   OH211966   5.579   4.515   1.264
 3987TIP3    H111967   5.577   4.610   1.278
 3987TIP3    H211968   5.494   4.496   1.223
 3988TIP3   OH211969   4.724   1.811   2.752
 3988TIP3    H111970   4.733   1.854   2.666
 3988TIP3    H211971   4.724   1.882   2.815
 3989TIP3   OH211972   3.901   0.989   0.242
 3989TIP3    H111973   3.920   1.064   0.299
 3989TIP3    H211974   3.852   0.928   0.298
 3990TIP3   OH211975   2.817   2.359   4.381
 3990TIP3    H111976   2.737   2.412   4.379
 3990TIP3    H211977   2.807   2.299   4.307
 3991TIP3   OH211978   4.562   5.124   1.700
 3991TIP3    H111979   4.638   5.089   1.746
 3991TIP3    H211980   4.511   5.047   1.675
 3992TIP3   OH211981   5.094   5.033   2.993
 3992TIP3    H111982   5.071   5.122   3.018
 3992TIP3    H211983   5.133   5.041   2.906
 3993TIP3   OH211984   0.311   1.368   5.035
 3993TIP3    H111985   0.227   1.330   5.009
 3993TIP3    H211986   0.317   1.449   4.984
 3994TIP3   OH211987   1.237   5.679   4.853
 3994TIP3    H111988   1.268   5.620   4.785
 3994TIP3    H211989   1.199   5.753   4.804
 3995TIP3   OH211990   4.997   1.408   3.223
 3995TIP3    H111991   4.999   1.313   3.210
 3995TIP3    H211992   4.921   1.437   3.171
 3996TIP3   OH211993   0.500   1.361   1.490
 3996TIP3    H111994   0.580   1.414   1.484
 3996TIP3    H211995   0.530   1.271   1.476
 3997TIP3   OH211996   3.325   2.506   0.414
 3997TIP3    H111997   3.300   2.570   0.347
 3997TIP3    H211998   3.300   2.548   0.497
 3998TIP3   OH211999   0.210   2.250   3.023
 3998TIP3    H112000   0.281   2.235   3.085
 3998TIP3    H212001   0.207   2.170   2.970
 3999TIP3   OH212002   2.308   1.028   2.048
 3999TIP3    H112003   2.307   1.101   1.987
 3999TIP3    H212004   2.218   1.023   2.081
 4000TIP3   OH212005   3.443   3.517   2.651
 4000TIP3    H112006   3.523   3.558   2.618
 4000TIP3    H212007   3.410   3.465   2.578
 4001TIP3   OH212008   1.121   5.651   0.260
 4001TIP3    H112009   1.043   5.604   0.232
 4001TIP3    H212010   1.119   5.733   0.211
 4002TIP3   OH212011   4.516   1.102   3.153
 4002TIP3    H112012   4.427   1.083   3.184
 4002TIP3    H212013   4.529   1.195   3.173
 4003TIP3   OH212014   4.233   3.648   1.820
 4003TIP3    H112015   4.248   3.554   1.828
 4003TIP3    H212016   4.254   3.668   1.729
 4004TIP3   OH212017   5.926   0.900   3.349
 4004TIP3    H112018   5.927   0.955   3.427
 4004TIP3    H212019   5.838   0.861   3.347
 4005TIP3   OH212020   4.676   0.015   2.999
 4005TIP3    H112021   4.687  -0.063   3.054
 4005TIP3    H212022   4.581   0.030   2.998
 4006TIP3   OH212023   3.884   5.866   2.197
 4006TIP3    H112024   3.873   5.810   2.120
 4006TIP3    H212025   3.923   5.946   2.163
 4007TIP3   OH212026   0.817   3.759   1.544
 4007TIP3    H112027   0.843   3.668   1.530
 4007TIP3    H212028   0.813   3.769   1.639
 4008TIP3   OH212029   5.464   5.992   4.911
 4008TIP3    H112030   5.526   6.024   4.977
 4008TIP3    H212031   5.517   5.976   4.833
 4009TIP3   OH212032   1.837   1.425   0.309
 4009TIP3    H112033   1.795   1.439   0.394
 4009TIP3    H212034   1.815   1.502   0.258
 4010TIP3   OH212035   1.913   5.653   3.816
 4010TIP3    H112036   1.942   5.625   3.730
 4010TIP3    H212037   1.819   5.634   3.818
 4011TIP3   OH212038   0.553   4.359   3.732
 4011TIP3    H112039   0.524   4.450   3.728
 4011TIP3    H212040   0.540   4.333   3.824
 4012TIP3   OH212041   3.739   1.927   2.911
 4012TIP3    H112042   3.817   1.981   2.899
 4012TIP3    H212043   3.712   1.906   2.821
 4013TIP3   OH212044   1.402   2.221   3.497
 4013TIP3    H112045   1.338   2.151   3.482
 4013TIP3    H212046   1.446   2.197   3.578
 4014TIP3   OH212047   0.930   3.860   0.755
 4014TIP3    H112048   0.954   3.862   0.848
 4014TIP3    H212049   0.974   3.936   0.717
 4015TIP3   OH212050   3.225   4.987   3.330
 4015TIP3    H112051   3.311   5.009   3.366
 4015TIP3    H212052   3.244   4.942   3.248
 4016TIP3   OH212053   1.218   2.159   1.554
 4016TIP3    H112054   1.126   2.135   1.567
 4016TIP3    H212055   1.250   2.178   1.643
 4017TIP3   OH212056   3.155   3.716   3.747
 4017TIP3    H112057   3.072   3.673   3.767
 4017TIP3    H212058   3.151   3.799   3.795
 4018TIP3   OH212059   4.038   0.735   4.783
 4018TIP3    H112060   4.002   0.731   4.872
 4018TIP3    H212061   4.129   0.760   4.795
 4019TIP3   OH212062   3.897   4.161   1.136
 4019TIP3    H112063   3.925   4.081   1.180
 4019TIP3    H212064   3.898   4.228   1.204
 4020TIP3   OH212065   5.238   3.215   2.402
 4020TIP3    H112066   5.222   3.251   2.315
 4020TIP3    H212067   5.271   3.289   2.453
 4021TIP3   OH212068   4.385   2.008   0.268
 4021TIP3    H112069   4.303   1.971   0.302
 4021TIP3    H212070   4.412   2.070   0.335
 4022TIP3   OH212071   0.151   3.020   2.588
 4022TIP3    H112072   0.195   3.049   2.508
 4022TIP3    H212073   0.221   3.017   2.653
 4023TIP3   OH212074   5.781   0.511   2.931
 4023TIP3    H112075   5.763   0.575   3.000
 4023TIP3    H212076   5.866   0.537   2.897
 4024TIP3   OH212077   5.697   5.829   3.478
 4024TIP3    H112078   5.711   5.755   3.420
 4024TIP3    H212079   5.617   5.808   3.526
 4025TIP3   OH212080   5.101   0.795   1.675
 4025TIP3    H112081   5.106   0.802   1.771
 4025TIP3    H212082   5.009   0.815   1.655
 4026TIP3   OH212083   6.117   5.512   1.332
 4026TIP3    H112084   6.191   5.555   1.377
 4026TIP3    H212085   6.159   5.448   1.274
 4027TIP3   OH212086   3.992   5.615   3.871
 4027TIP3    H112087   3.906   5.579   3.893
 4027TIP3    H212088   3.974   5.707   3.850
 4028TIP3   OH212089   0.740   2.691   3.340
 4028TIP3    H112090   0.647   2.670   3.336
 4028TIP3    H212091   0.746   2.764   3.401
 4029TIP3   OH212092   3.375   0.531   4.062
 4029TIP3    H112093   3.421   0.615   4.054
 4029TIP3    H212094   3.418   0.486   4.134
 4030TIP3   OH212095   1.215   4.526   1.595
 4030TIP3    H112096   1.179   4.496   1.512
 4030TIP3    H212097   1.278   4.458   1.620
 4031TIP3   OH212098   1.810   0.499   2.862
 4031TIP3    H112099   1.722   0.536   2.854
 4031TIP3    H212100   1.863   0.552   2.802
 4032TIP3   OH212101   2.669   5.436   3.023
 4032TIP3    H112102   2.748   5.449   2.971
 4032TIP3    H212103   2.600   5.418   2.958
 4033TIP3   OH212104   2.403   2.349   2.606
 4033TIP3    H112105   2.470   2.359   2.673
 4033TIP3    H212106   2.413   2.426   2.550
 4034TIP3   OH212107   2.891   5.165   4.884
 4034TIP3    H112108   2.857   5.126   4.964
 4034TIP3    H212109   2.944   5.239   4.914
 4035TIP3   OH212110   1.272   5.029   2.047
 4035TIP3    H112111   1.284   5.076   2.130
 4035TIP3    H212112   1.360   5.004   2.021
 4036TIP3   OH212113   5.431   4.389   4.307
 4036TIP3    H112114   5.508   4.331   4.304
 4036TIP3    H212115   5.468   4.476   4.323
 4037TIP3   OH212116   3.246   4.506   2.642
 4037TIP3    H112117   3.264   4.557   2.563
 4037TIP3    H212118   3.156   4.476   2.632
 4038TIP3   OH212119   3.807   4.742   4.712
 4038TIP3    H112120   3.712   4.731   4.711
 4038TIP3    H212121   3.820   4.836   4.729
 4039TIP3   OH212122   1.660   4.923   4.889
 4039TIP3    H112123   1.688   4.923   4.797
 4039TIP3    H212124   1.731   4.880   4.936
 4040TIP3   OH212125   2.235   2.046   3.309
 4040TIP3    H112126   2.317   2.042   3.358
 4040TIP3    H212127   2.259   2.086   3.225
 4041TIP3   OH212128   3.461   5.560   1.852
 4041TIP3    H112129   3.368   5.576   1.839
 4041TIP3    H212130   3.468   5.530   1.943
 4042TIP3   OH212131   1.746   2.258   2.271
 4042TIP3    H112132   1.651   2.252   2.280
 4042TIP3    H212133   1.763   2.237   2.180
 4043TIP3   OH212134   5.376   4.766   3.545
 4043TIP3    H112135   5.465   4.765   3.577
 4043TIP3    H212136   5.330   4.827   3.603
 4044TIP3   OH212137   4.062   2.959   2.790
 4044TIP3    H112138   3.982   2.908   2.785
 4044TIP3    H212139   4.132   2.896   2.773
 4045TIP3   OH212140   5.164   2.525   2.066
 4045TIP3    H112141   5.106   2.461   2.025
 4045TIP3    H212142   5.249   2.509   2.025
 4046TIP3   OH212143   1.607   0.964   3.435
 4046TIP3    H112144   1.646   1.005   3.358
 4046TIP3    H212145   1.513   0.963   3.416
 4047TIP3   OH212146   0.937   4.413   3.754
 4047TIP3    H112147   0.859   4.360   3.767
 4047TIP3    H212148   1.002   4.352   3.719
 4048TIP3   OH212149   2.472   1.909   4.421
 4048TIP3    H112150   2.547   1.851   4.405
 4048TIP3    H212151   2.477   1.974   4.351
 4049TIP3   OH212152   3.232   5.497   0.562
 4049TIP3    H112153   3.176   5.574   0.566
 4049TIP3    H212154   3.195   5.444   0.491
 4050TIP3   OH212155   6.229   5.258   0.054
 4050TIP3    H112156   6.287   5.334   0.062
 4050TIP3    H212157   6.271   5.190   0.106
 4051TIP3   OH212158   5.749   4.332   4.706
 4051TIP3    H112159   5.763   4.237   4.710
 4051TIP3    H212160   5.653   4.342   4.709
 4052TIP3   OH212161   0.869   2.343   1.525
 4052TIP3    H112162   0.897   2.403   1.594
 4052TIP3    H212163   0.845   2.262   1.572
 4053TIP3   OH212164   2.347   4.571   2.681
 4053TIP3    H112165   2.258   4.539   2.694
 4053TIP3    H212166   2.340   4.632   2.608
 4054TIP3   OH212167   2.454   4.362   3.221
 4054TIP3    H112168   2.417   4.443   3.186
 4054TIP3    H212169   2.535   4.349   3.172
 4055TIP3   OH212170   5.578   2.402   1.275
 4055TIP3    H112171   5.597   2.334   1.211
 4055TIP3    H212172   5.623   2.480   1.241
 4056TIP3   OH212173   2.133   0.659   5.155
 4056TIP3    H112174   2.133   0.566   5.133
 4056TIP3    H212175   2.064   0.696   5.100
 4057TIP3   OH212176   5.894   2.495   3.152
 4057TIP3    H112177   5.913   2.439   3.228
 4057TIP3    H212178   5.938   2.452   3.079
 4058TIP3   OH212179   3.623   2.566   0.396
 4058TIP3    H112180   3.712   2.546   0.425
 4058TIP3    H212181   3.566   2.517   0.455
 4059TIP3   OH212182   1.412   2.392   4.237
 4059TIP3    H112183   1.378   2.308   4.267
 4059TIP3    H212184   1.347   2.456   4.265
 4060TIP3   OH212185   2.356   3.221   3.124
 4060TIP3    H112186   2.288   3.244   3.061
 4060TIP3    H212187   2.391   3.138   3.092
 4061TIP3   OH212188   0.511   3.291   2.854
 4061TIP3    H112189   0.490   3.346   2.779
 4061TIP3    H212190   0.460   3.329   2.926
 4062TIP3   OH212191   0.958   2.717   0.038
 4062TIP3    H112192   0.940   2.676   0.122
 4062TIP3    H212193   0.920   2.805   0.045
 4063TIP3   OH212194   1.886   4.199   1.736
 4063TIP3    H112195   1.840   4.145   1.801
 4063TIP3    H212196   1.978   4.178   1.749
 4064TIP3   OH212197   5.981   4.525   4.132
 4064TIP3    H112198   5.963   4.440   4.173
 4064TIP3    H212199   5.894   4.562   4.115
 4065TIP3   OH212200   1.734   5.587   4.534
 4065TIP3    H112201   1.759   5.553   4.619
 4065TIP3    H212202   1.661   5.532   4.506
 4066TIP3   OH212203   1.388   2.745   5.126
 4066TIP3    H112204   1.349   2.762   5.040
 4066TIP3    H212205   1.323   2.694   5.173
 4067TIP3   OH212206   2.758   3.882   3.678
 4067TIP3    H112207   2.789   3.923   3.597
 4067TIP3    H212208   2.816   3.916   3.745
 4068TIP3   OH212209   0.663   3.658   1.966
 4068TIP3    H112210   0.734   3.661   1.902
 4068TIP3    H212211   0.705   3.628   2.047
 4069TIP3   OH212212   3.908   4.410   1.253
 4069TIP3    H112213   3.990   4.431   1.297
 4069TIP3    H212214   3.848   4.480   1.280
 4070TIP3   OH212215   2.113   2.094   3.908
 4070TIP3    H112216   2.087   2.184   3.891
 4070TIP3    H212217   2.121   2.054   3.821
 4071TIP3   OH212218   3.466   3.837   4.783
 4071TIP3    H112219   3.378   3.850   4.820
 4071TIP3    H212220   3.471   3.902   4.713
 4072TIP3   OH212221   4.838   4.912   3.061
 4072TIP3    H112222   4.868   4.841   3.118
 4072TIP3    H212223   4.917   4.962   3.042
 4073TIP3   OH212224   4.027   3.430   3.713
 4073TIP3    H112225   4.093   3.367   3.743
 4073TIP3    H212226   4.011   3.406   3.621
 4074TIP3   OH212227   3.151   5.950   2.094
 4074TIP3    H112228   3.233   5.906   2.070
 4074TIP3    H212229   3.087   5.880   2.100
 4075TIP3   OH212230   3.339   2.930   0.047
 4075TIP3    H112231   3.413   2.991   0.050
 4075TIP3    H212232   3.269   2.974   0.096
 4076TIP3   OH212233   0.035   5.333   0.455
 4076TIP3    H112234   0.064   5.273   0.524
 4076TIP3    H212235   0.112   5.346   0.400
 4077TIP3   OH212236   3.946   3.831   0.747
 4077TIP3    H112237   3.879   3.899   0.750
 4077TIP3    H212238   3.930   3.778   0.824
 4078TIP3   OH212239   4.833   1.240   2.901
 4078TIP3    H112240   4.753   1.202   2.864
 4078TIP3    H212241   4.903   1.180   2.874
 4079TIP3   OH212242   5.170   3.388   5.149
 4079TIP3    H112243   5.125   3.408   5.231
 4079TIP3    H212244   5.109   3.333   5.100
 4080TIP3   OH212245   1.794   3.452   3.761
 4080TIP3    H112246   1.759   3.453   3.850
 4080TIP3    H212247   1.823   3.542   3.746
 4081TIP3   OH212248   3.044   1.487   1.707
 4081TIP3    H112249   3.127   1.443   1.690
 4081TIP3    H212250   2.988   1.463   1.633
 4082TIP3   OH212251   2.505   2.396   4.072
 4082TIP3    H112252   2.447   2.390   4.147
 4082TIP3    H212253   2.591   2.417   4.109
 4083TIP3   OH212254   1.047   2.742   0.719
 4083TIP3    H112255   1.070   2.650   0.705
 4083TIP3    H212256   1.036   2.750   0.813
 4084TIP3   OH212257   3.322   0.559   4.855
 4084TIP3    H112258   3.266   0.636   4.851
 4084TIP3    H212259   3.389   0.581   4.920
 4085TIP3   OH212260   4.479   1.013   3.993
 4085TIP3    H112261   4.422   0.996   4.068
 4085TIP3    H212262   4.429   1.072   3.937
 4086TIP3   OH212263   5.272   5.110   4.884
 4086TIP3    H112264   5.300   5.195   4.848
 4086TIP3    H212265   5.214   5.074   4.817
 4087TIP3   OH212266   3.287   4.644   1.006
 4087TIP3    H112267   3.230   4.669   0.934
 4087TIP3    H212268   3.309   4.727   1.049
 4088TIP3   OH212269   1.312   1.880   1.750
 4088TIP3    H112270   1.381   1.944   1.733
 4088TIP3    H212271   1.287   1.896   1.841
 4089TIP3   OH212272   4.736   4.086   3.582
 4089TIP3    H112273   4.829   4.100   3.597
 4089TIP3    H212274   4.730   3.993   3.559
 4090TIP3   OH212275   5.692   2.389   1.897
 4090TIP3    H112276   5.673   2.311   1.845
 4090TIP3    H212277   5.762   2.434   1.849
 4091TIP3   OH212278   3.675   5.598   2.569
 4091TIP3    H112279   3.742   5.664   2.588
 4091TIP3    H212280   3.707   5.518   2.610
 4092TIP3   OH212281   4.286   2.985   4.952
 4092TIP3    H112282   4.275   3.066   5.002
 4092TIP3    H212283   4.255   2.916   5.011
 4093TIP3   OH212284   4.331   4.517   4.854
 4093TIP3    H112285   4.330   4.471   4.770
 4093TIP3    H212286   4.419   4.555   4.860
 4094TIP3   OH212287   2.169   2.487   4.080
 4094TIP3    H112288   2.223   2.428   4.132
 4094TIP3    H212289   2.215   2.571   4.083
 4095TIP3   OH212290   0.413   1.005   4.160
 4095TIP3    H112291   0.325   1.000   4.198
 4095TIP3    H212292   0.444   1.093   4.181
 4096TIP3   OH212293   5.552   4.129   4.428
 4096TIP3    H112294   5.467   4.150   4.467
 4096TIP3    H212295   5.573   4.042   4.463
 4097TIP3   OH212296   1.022   2.246   3.440
 4097TIP3    H112297   1.092   2.234   3.504
 4097TIP3    H212298   1.012   2.160   3.400
 4098TIP3   OH212299   0.463   3.015   1.026
 4098TIP3    H112300   0.382   2.975   1.057
 4098TIP3    H212301   0.467   2.991   0.933
 4099TIP3   OH212302   3.692   3.537   2.447
 4099TIP3    H112303   3.696   3.623   2.489
 4099TIP3    H212304   3.759   3.485   2.492
 4100TIP3   OH212305   4.426   3.191   0.690
 4100TIP3    H112306   4.485   3.226   0.623
 4100TIP3    H212307   4.424   3.260   0.757
 4101TIP3   OH212308   0.124   0.053   4.349
 4101TIP3    H112309   0.080   0.135   4.370
 4101TIP3    H212310   0.077  -0.014   4.399
 4102TIP3   OH212311   6.282   2.014   1.297
 4102TIP3    H112312   6.194   2.020   1.333
 4102TIP3    H212313   6.339   2.047   1.366
 4103TIP3   OH212314   5.044   0.724   4.727
 4103TIP3    H112315   4.987   0.648   4.715
 4103TIP3    H212316   5.098   0.701   4.803
 4104TIP3   OH212317   3.035   3.066   4.656
 4104TIP3    H112318   2.999   3.018   4.730
 4104TIP3    H212319   2.962   3.116   4.621
 4105TIP3   OH212320   5.503   0.295   4.951
 4105TIP3    H112321   5.507   0.247   5.034
 4105TIP3    H212322   5.414   0.278   4.919
 4106TIP3   OH212323   0.076   2.740   0.435
 4106TIP3    H112324   0.056   2.821   0.388
 4106TIP3    H212325   0.151   2.703   0.388
 4107TIP3   OH212326   0.692   1.734   3.954
 4107TIP3    H112327   0.698   1.639   3.937
 4107TIP3    H212328   0.599   1.753   3.950
 4108TIP3   OH212329   0.878   3.715   2.883
 4108TIP3    H112330   0.816   3.677   2.820
 4108TIP3    H212331   0.828   3.721   2.965
 4109TIP3   OH212332   0.584   5.024   2.575
 4109TIP3    H112333   0.496   5.060   2.570
 4109TIP3    H212334   0.636   5.080   2.517
 4110TIP3   OH212335   3.632   4.179   0.051
 4110TIP3    H112336   3.626   4.274   0.053
 4110TIP3    H212337   3.724   4.160   0.032
 4111TIP3   OH212338   5.264   5.506   4.013
 4111TIP3    H112339   5.284   5.440   4.080
 4111TIP3    H212340   5.272   5.590   4.060
 4112TIP3   OH212341   3.429   4.403   4.603
 4112TIP3    H112342   3.493   4.418   4.535
 4112TIP3    H212343   3.344   4.411   4.559
 4113TIP3   OH212344   6.138   0.294   3.080
 4113TIP3    H112345   6.110   0.310   2.990
 4113TIP3    H212346   6.233   0.306   3.078
 4114TIP3   OH212347   2.264   4.885   4.364
 4114TIP3    H112348   2.244   4.944   4.437
 4114TIP3    H212349   2.178   4.861   4.329
 4115TIP3   OH212350   0.759   2.973   1.540
 4115TIP3    H112351   0.759   2.882   1.570
 4115TIP3    H212352   0.766   2.968   1.445
 4116TIP3   OH212353   3.875   3.333   3.100
 4116TIP3    H112354   3.880   3.281   3.180
 4116TIP3    H212355   3.819   3.407   3.124
 4117TIP3   OH212356   4.619   3.185   1.980
 4117TIP3    H112357   4.670   3.225   1.910
 4117TIP3    H212358   4.613   3.253   2.047
 4118TIP3   OH212359   2.223   1.230   3.158
 4118TIP3    H112360   2.186   1.239   3.070
 4118TIP3    H212361   2.166   1.284   3.213
 4119TIP3   OH212362   3.577   0.628   4.995
 4119TIP3    H112363   3.614   0.646   4.909
 4119TIP3    H212364   3.649   0.644   5.056
 4120TIP3   OH212365   3.696   1.559   0.799
 4120TIP3    H112366   3.789   1.573   0.818
 4120TIP3    H212367   3.673   1.630   0.739
 4121TIP3   OH212368   5.271   1.180   4.131
 4121TIP3    H112369   5.345   1.183   4.191
 4121TIP3    H212370   5.231   1.267   4.138
 4122TIP3   OH212371   3.253   3.139   3.290
 4122TIP3    H112372   3.269   3.232   3.303
 4122TIP3    H212373   3.317   3.112   3.225
 4123TIP3   OH212374   2.886   2.752   5.051
 4123TIP3    H112375   2.982   2.752   5.046
 4123TIP3    H212376   2.864   2.676   5.103
 4124TIP3   OH212377   2.361   4.337   0.539
 4124TIP3    H112378   2.304   4.398   0.493
 4124TIP3    H212379   2.445   4.344   0.493
 4125TIP3   OH212380   3.961   5.227   3.607
 4125TIP3    H112381   4.023   5.161   3.638
 4125TIP3    H212382   4.002   5.310   3.628
 4126TIP3   OH212383   5.314   4.424   1.208
 4126TIP3    H112384   5.233   4.476   1.216
 4126TIP3    H212385   5.292   4.340   1.247
 4127TIP3   OH212386   3.133   5.102   4.041
 4127TIP3    H112387   3.169   5.190   4.056
 4127TIP3    H212388   3.159   5.081   3.951
 4128TIP3   OH212389   5.200   4.398   3.840
 4128TIP3    H112390   5.132   4.447   3.886
 4128TIP3    H212391   5.254   4.362   3.910
 4129TIP3   OH212392   1.642   2.759   1.156
 4129TIP3    H112393   1.587   2.836   1.160
 4129TIP3    H212394   1.591   2.695   1.106
 4130TIP3   OH212395   6.010   4.028   3.327
 4130TIP3    H112396   6.003   3.965   3.255
 4130TIP3    H212397   5.921   4.063   3.337
 4131TIP3   OH212398   2.936   2.116   1.230
 4131TIP3    H112399   2.986   2.197   1.218
 4131TIP3    H212400   2.951   2.092   1.321
 4132TIP3   OH212401   0.622   2.331   1.079
 4132TIP3    H112402   0.577   2.300   1.000
 4132TIP3    H212403   0.625   2.426   1.068
 4133TIP3   OH212404   2.507   5.775   1.039
 4133TIP3    H112405   2.459   5.770   1.121
 4133TIP3    H212406   2.526   5.868   1.027
 4134TIP3   OH212407   5.504   5.345   0.454
 4134TIP3    H112408   5.456   5.392   0.523
 4134TIP3    H212409   5.549   5.274   0.500
 4135TIP3   OH212410   5.424   0.511   4.529
 4135TIP3    H112411   5.442   0.431   4.480
 4135TIP3    H212412   5.341   0.543   4.493
 4136TIP3   OH212413   5.889   1.750   4.498
 4136TIP3    H112414   5.888   1.796   4.582
 4136TIP3    H212415   5.836   1.671   4.513
 4137TIP3   OH212416   3.307   2.102   3.119
 4137TIP3    H112417   3.318   2.119   3.025
 4137TIP3    H212418   3.336   2.011   3.130
 4138TIP3   OH212419   5.104   4.640   3.981
 4138TIP3    H112420   5.010   4.627   3.996
 4138TIP3    H212421   5.144   4.627   4.067
 4139TIP3   OH212422   5.254   4.039   3.619
 4139TIP3    H112423   5.271   4.132   3.601
 4139TIP3    H212424   5.270   3.996   3.535
 4140TIP3   OH212425   5.299   3.851   1.422
 4140TIP3    H112426   5.298   3.924   1.359
 4140TIP3    H212427   5.391   3.843   1.448
 4141TIP3   OH212428   2.707   1.556   3.830
 4141TIP3    H112429   2.765   1.491   3.870
 4141TIP3    H212430   2.631   1.506   3.801
 4142TIP3   OH212431   4.792   3.574   5.095
 4142TIP3    H112432   4.817   3.664   5.073
 4142TIP3    H212433   4.751   3.540   5.016
 4143TIP3   OH212434   3.693   1.376   3.337
 4143TIP3    H112435   3.756   1.400   3.270
 4143TIP3    H212436   3.628   1.322   3.291
 4144TIP3   OH212437   3.398   4.146   3.104
 4144TIP3    H112438   3.328   4.199   3.066
 4144TIP3    H212439   3.478   4.178   3.060
 4145TIP3   OH212440   5.742   4.893   0.122
 4145TIP3    H112441   5.649   4.872   0.130
 4145TIP3    H212442   5.744   4.972   0.067
 4146TIP3   OH212443   5.055   1.183   4.543
 4146TIP3    H112444   5.033   1.135   4.622
 4146TIP3    H212445   5.148   1.206   4.553
 4147TIP3   OH212446   5.444   1.797   2.954
 4147TIP3    H112447   5.473   1.886   2.937
 4147TIP3    H212448   5.525   1.747   2.967
 4148TIP3   OH212449   0.675   0.682   3.220
 4148TIP3    H112450   0.607   0.737   3.180
 4148TIP3    H212451   0.757   0.725   3.198
 4149TIP3   OH212452   3.163   0.280   3.523
 4149TIP3    H112453   3.117   0.282   3.607
 4149TIP3    H212454   3.100   0.239   3.463
 4150TIP3   OH212455   3.129   1.118   0.473
 4150TIP3    H112456   3.097   1.033   0.445
 4150TIP3    H212457   3.060   1.151   0.533
 4151TIP3   OH212458   0.704   0.132   2.115
 4151TIP3    H112459   0.737   0.132   2.025
 4151TIP3    H212460   0.686   0.040   2.134
 4152TIP3   OH212461   5.089   4.507   3.265
 4152TIP3    H112462   5.157   4.562   3.304
 4152TIP3    H212463   5.108   4.509   3.171
 4153TIP3   OH212464   2.238   3.902   2.327
 4153TIP3    H112465   2.175   3.904   2.254
 4153TIP3    H212466   2.212   3.826   2.378
 4154TIP3   OH212467   3.299   2.085   2.179
 4154TIP3    H112468   3.227   2.038   2.139
 4154TIP3    H212469   3.259   2.164   2.215
 4155TIP3   OH212470   4.051   4.506   2.004
 4155TIP3    H112471   3.986   4.543   1.944
 4155TIP3    H212472   4.121   4.475   1.947
 4156TIP3   OH212473   3.779   3.122   4.119
 4156TIP3    H112474   3.858   3.069   4.110
 4156TIP3    H212475   3.708   3.059   4.133
 4157TIP3   OH212476   1.573   0.871   3.743
 4157TIP3    H112477   1.482   0.869   3.772
 4157TIP3    H212478   1.572   0.921   3.661
 4158TIP3   OH212479   5.470   3.797   4.227
 4158TIP3    H112480   5.415   3.875   4.213
 4158TIP3    H212481   5.550   3.817   4.178
 4159TIP3   OH212482   4.539   1.372   4.101
 4159TIP3    H112483   4.559   1.395   4.010
 4159TIP3    H212484   4.464   1.313   4.096
 4160TIP3   OH212485   0.960   5.226   3.652
 4160TIP3    H112486   0.958   5.319   3.627
 4160TIP3    H212487   0.922   5.180   3.577
 4161TIP3   OH212488   5.276   1.513   3.586
 4161TIP3    H112489   5.240   1.486   3.671
 4161TIP3    H212490   5.239   1.451   3.524
 4162TIP3   OH212491   6.298   6.023   3.671
 4162TIP3    H112492   6.347   6.000   3.592
 4162TIP3    H212493   6.292   5.941   3.721
 4163TIP3   OH212494   6.162   5.835   1.717
 4163TIP3    H112495   6.101   5.800   1.653
 4163TIP3    H212496   6.139   5.791   1.799
 4164TIP3   OH212497   3.080   4.490   1.556
 4164TIP3    H112498   3.028   4.517   1.631
 4164TIP3    H212499   3.133   4.566   1.534
 4165TIP3   OH212500   0.228   5.335   2.153
 4165TIP3    H112501   0.265   5.363   2.069
 4165TIP3    H212502   0.239   5.240   2.154
 4166TIP3   OH212503   2.495   3.998   2.325
 4166TIP3    H112504   2.513   4.008   2.419
 4166TIP3    H212505   2.408   3.957   2.322
 4167TIP3   OH212506   4.208   3.993   0.775
 4167TIP3    H112507   4.113   3.991   0.778
 4167TIP3    H212508   4.229   4.038   0.693
 4168TIP3   OH212509   4.224   2.846   3.186
 4168TIP3    H112510   4.289   2.847   3.116
 4168TIP3    H212511   4.141   2.830   3.141
 4169TIP3   OH212512   4.602   0.082   0.064
 4169TIP3    H112513   4.515   0.065   0.029
 4169TIP3    H212514   4.647  -0.002   0.059
 4170TIP3   OH212515   1.025   1.382   2.333
 4170TIP3    H112516   1.070   1.349   2.255
 4170TIP3    H212517   1.012   1.304   2.388
 4171TIP3   OH212518   3.162   2.290   1.893
 4171TIP3    H112519   3.162   2.196   1.908
 4171TIP3    H212520   3.073   2.318   1.913
 4172TIP3   OH212521   5.082   0.840   3.431
 4172TIP3    H112522   5.129   0.813   3.352
 4172TIP3    H212523   5.027   0.764   3.453
 4173TIP3   OH212524   5.928   2.078   1.976
 4173TIP3    H112525   5.922   2.165   1.938
 4173TIP3    H212526   5.986   2.030   1.916
 4174TIP3   OH212527   3.862   1.700   3.013
 4174TIP3    H112528   3.932   1.737   3.067
 4174TIP3    H212529   3.812   1.776   2.982
 4175TIP3   OH212530   1.933   0.368   0.798
 4175TIP3    H112531   1.861   0.312   0.824
 4175TIP3    H212532   2.005   0.344   0.857
 4176TIP3   OH212533   1.653   3.483   5.119
 4176TIP3    H112534   1.684   3.549   5.182
 4176TIP3    H212535   1.612   3.415   5.173
 4177TIP3   OH212536   0.922   4.224   0.260
 4177TIP3    H112537   0.955   4.288   0.324
 4177TIP3    H212538   0.883   4.278   0.191
 4178TIP3   OH212539   4.862   0.201   2.903
 4178TIP3    H112540   4.940   0.188   2.957
 4178TIP3    H212541   4.800   0.135   2.935
 4179TIP3   OH212542   5.285   1.331   2.967
 4179TIP3    H112543   5.269   1.302   2.877
 4179TIP3    H212544   5.215   1.393   2.986
 4180TIP3   OH212545   0.787   5.474   0.841
 4180TIP3    H112546   0.816   5.436   0.923
 4180TIP3    H212547   0.786   5.401   0.779
 4181TIP3   OH212548   0.550   1.604   2.891
 4181TIP3    H112549   0.497   1.584   2.968
 4181TIP3    H212550   0.486   1.615   2.820
 4182TIP3   OH212551   5.942   3.603   5.139
 4182TIP3    H112552   6.012   3.670   5.142
 4182TIP3    H212553   5.883   3.633   5.071
 4183TIP3   OH212554   5.646   2.024   1.947
 4183TIP3    H112555   5.646   2.105   1.896
 4183TIP3    H212556   5.736   2.014   1.977
 4184TIP3   OH212557   5.419   5.817   3.925
 4184TIP3    H112558   5.449   5.883   3.862
 4184TIP3    H212559   5.435   5.857   4.010
 4185TIP3   OH212560   2.902   4.451   3.678
 4185TIP3    H112561   2.945   4.496   3.750
 4185TIP3    H212562   2.888   4.362   3.710
 4186TIP3   OH212563   4.716   3.014   2.888
 4186TIP3    H112564   4.812   3.011   2.890
 4186TIP3    H212565   4.695   3.060   2.806
 4187TIP3   OH212566   0.145   2.195   0.071
 4187TIP3    H112567   0.192   2.270   0.035
 4187TIP3    H212568   0.168   2.195   0.164
 4188TIP3   OH212569   6.274   3.560   1.855
 4188TIP3    H112570   6.259   3.627   1.788
 4188TIP3    H212571   6.208   3.493   1.839
 4189TIP3   OH212572   1.954   3.031   5.123
 4189TIP3    H112573   1.933   3.114   5.079
 4189TIP3    H212574   2.040   3.046   5.162
 4190TIP3   OH212575   4.051   0.531   0.551
 4190TIP3    H112576   4.082   0.621   0.555
 4190TIP3    H212577   3.958   0.537   0.572
 4191TIP3   OH212578   5.623   3.918   2.306
 4191TIP3    H112579   5.579   3.915   2.390
 4191TIP3    H212580   5.705   3.964   2.323
 4192TIP3   OH212581   2.971   2.151   2.174
 4192TIP3    H112582   2.919   2.136   2.096
 4192TIP3    H212583   2.932   2.095   2.241
 4193TIP3   OH212584   2.858   0.302   2.729
 4193TIP3    H112585   2.921   0.326   2.661
 4193TIP3    H212586   2.820   0.220   2.699
 4194TIP3   OH212587   4.383   1.639   2.720
 4194TIP3    H112588   4.326   1.577   2.675
 4194TIP3    H212589   4.472   1.608   2.702
 4195TIP3   OH212590   3.456   2.335   2.256
 4195TIP3    H112591   3.374   2.329   2.306
 4195TIP3    H212592   3.429   2.352   2.166
 4196TIP3   OH212593   1.951   4.035   4.612
 4196TIP3    H112594   1.913   3.963   4.561
 4196TIP3    H212595   2.030   4.059   4.564
 4197TIP3   OH212596   4.527   0.449   1.525
 4197TIP3    H112597   4.444   0.403   1.536
 4197TIP3    H212598   4.505   0.526   1.473
 4198TIP3   OH212599   0.765   5.038   2.767
 4198TIP3    H112600   0.800   5.127   2.771
 4198TIP3    H212601   0.679   5.048   2.724
 4199TIP3   OH212602   2.429   5.736   1.959
 4199TIP3    H112603   2.379   5.659   1.932
 4199TIP3    H212604   2.415   5.742   2.054
 4200TIP3   OH212605   3.039   2.930   3.819
 4200TIP3    H112606   2.991   2.893   3.893
 4200TIP3    H212607   2.980   2.995   3.783
 4201TIP3   OH212608   5.731   1.337   1.598
 4201TIP3    H112609   5.760   1.357   1.509
 4201TIP3    H212610   5.744   1.243   1.607
 4202TIP3   OH212611   0.747   0.272   4.209
 4202TIP3    H112612   0.719   0.186   4.177
 4202TIP3    H212613   0.820   0.253   4.268
 4203TIP3   OH212614   0.469   1.657   3.744
 4203TIP3    H112615   0.484   1.734   3.690
 4203TIP3    H212616   0.434   1.592   3.684
 4204TIP3   OH212617   3.690   3.736   1.635
 4204TIP3    H112618   3.777   3.774   1.623
 4204TIP3    H212619   3.676   3.737   1.730
 4205TIP3   OH212620   4.670   4.353   0.583
 4205TIP3    H112621   4.754   4.353   0.537
 4205TIP3    H212622   4.623   4.428   0.547
 4206TIP3   OH212623   0.118   5.286   1.565
 4206TIP3    H112624   0.211   5.304   1.576
 4206TIP3    H212625   0.082   5.365   1.523
 4207TIP3   OH212626   3.956   0.845   0.807
 4207TIP3    H112627   3.897   0.793   0.751
 4207TIP3    H212628   3.898   0.884   0.872
 4208TIP3   OH212629   0.397   4.531   4.883
 4208TIP3    H112630   0.309   4.566   4.890
 4208TIP3    H212631   0.433   4.572   4.805
 4209TIP3   OH212632   0.083   5.730   1.733
 4209TIP3    H112633  -0.006   5.736   1.698
 4209TIP3    H212634   0.111   5.821   1.742
 4210TIP3   OH212635   2.535   1.421   4.355
 4210TIP3    H112636   2.454   1.435   4.306
 4210TIP3    H212637   2.565   1.334   4.327
 4211TIP3   OH212638   3.309   1.490   2.020
 4211TIP3    H112639   3.230   1.519   1.975
 4211TIP3    H212640   3.323   1.554   2.089
 4212TIP3   OH212641   6.381   1.209   0.717
 4212TIP3    H112642   6.323   1.139   0.690
 4212TIP3    H212643   6.342   1.242   0.799
 4213TIP3   OH212644   2.306   5.921   4.211
 4213TIP3    H112645   2.356   5.855   4.259
 4213TIP3    H212646   2.372   5.975   4.168
 4214TIP3   OH212647   5.212   1.374   1.014
 4214TIP3    H112648   5.263   1.361   0.935
 4214TIP3    H212649   5.224   1.294   1.065
 4215TIP3   OH212650   4.389   3.541   3.486
 4215TIP3    H112651   4.436   3.471   3.531
 4215TIP3    H212652   4.309   3.554   3.538
 4216TIP3   OH212653   1.102   2.358   0.097
 4216TIP3    H112654   1.139   2.427   0.042
 4216TIP3    H212655   1.167   2.344   0.166
 4217TIP3   OH212656   0.111   1.660   3.034
 4217TIP3    H112657   0.072   1.691   3.116
 4217TIP3    H212658   0.046   1.681   2.968
 4218TIP3   OH212659   1.508   2.032   4.805
 4218TIP3    H112660   1.430   2.082   4.781
 4218TIP3    H212661   1.581   2.084   4.772
 4219TIP3   OH212662   1.179   3.774   4.178
 4219TIP3    H112663   1.274   3.763   4.167
 4219TIP3    H212664   1.160   3.858   4.136
 4220TIP3   OH212665   5.443   5.652   0.219
 4220TIP3    H112666   5.534   5.631   0.240
 4220TIP3    H212667   5.424   5.730   0.270
 4221TIP3   OH212668   6.288   0.609   0.826
 4221TIP3    H112669   6.259   0.528   0.867
 4221TIP3    H212670   6.375   0.625   0.861
 4222TIP3   OH212671   4.289   2.780   2.058
 4222TIP3    H112672   4.287   2.717   1.986
 4222TIP3    H212673   4.381   2.788   2.081
 4223TIP3   OH212674   0.536   0.924   2.190
 4223TIP3    H112675   0.474   0.938   2.262
 4223TIP3    H212676   0.505   0.981   2.120
 4224TIP3   OH212677   2.068   4.097   0.794
 4224TIP3    H112678   2.025   4.084   0.709
 4224TIP3    H212679   2.121   4.175   0.783
 4225TIP3   OH212680   5.057   0.526   0.460
 4225TIP3    H112681   5.106   0.578   0.397
 4225TIP3    H212682   4.979   0.498   0.413
 4226TIP3   OH212683   2.632   4.825   2.611
 4226TIP3    H112684   2.618   4.917   2.588
 4226TIP3    H212685   2.677   4.828   2.695
 4227TIP3   OH212686   4.728   5.603   2.761
 4227TIP3    H112687   4.809   5.651   2.779
 4227TIP3    H212688   4.672   5.621   2.836
 4228TIP3   OH212689   2.882   5.391   1.488
 4228TIP3    H112690   2.906   5.478   1.520
 4228TIP3    H212691   2.854   5.406   1.398
 4229TIP3   OH212692   5.498   0.375   3.904
 4229TIP3    H112693   5.412   0.412   3.924
 4229TIP3    H212694   5.483   0.281   3.894
 4230TIP3   OH212695   6.234   4.280   0.705
 4230TIP3    H112696   6.259   4.345   0.770
 4230TIP3    H212697   6.152   4.243   0.738
 4231TIP3   OH212698   0.135   1.034   3.024
 4231TIP3    H112699   0.155   0.956   2.972
 4231TIP3    H212700   0.137   1.003   3.115
 4232TIP3   OH212701   4.297   3.376   1.876
 4232TIP3    H112702   4.211   3.359   1.913
 4232TIP3    H212703   4.315   3.300   1.820
 4233TIP3   OH212704   1.415   3.975   3.700
 4233TIP3    H112705   1.473   3.928   3.640
 4233TIP3    H212706   1.380   3.908   3.758
 4234TIP3   OH212707   4.708   0.762   2.329
 4234TIP3    H112708   4.622   0.724   2.349
 4234TIP3    H212709   4.759   0.689   2.293
 4235TIP3   OH212710   1.348   0.455   1.616
 4235TIP3    H112711   1.274   0.484   1.563
 4235TIP3    H212712   1.402   0.533   1.626
 4236TIP3   OH212713   4.320   0.408   3.641
 4236TIP3    H112714   4.274   0.332   3.604
 4236TIP3    H212715   4.252   0.455   3.690
 4237TIP3   OH212716   1.601   3.988   4.909
 4237TIP3    H112717   1.666   3.927   4.943
 4237TIP3    H212718   1.586   4.050   4.980
 4238TIP3   OH212719   4.020   0.514   3.470
 4238TIP3    H112720   4.024   0.499   3.564
 4238TIP3    H212721   4.111   0.508   3.441
 4239TIP3   OH212722   5.098   0.869   2.396
 4239TIP3    H112723   5.050   0.902   2.472
 4239TIP3    H212724   5.190   0.879   2.420
 4240TIP3   OH212725   2.032   2.248   3.381
 4240TIP3    H112726   2.066   2.246   3.292
 4240TIP3    H212727   2.100   2.293   3.432
 4241TIP3   OH212728   3.485   4.340   2.204
 4241TIP3    H112729   3.459   4.258   2.246
 4241TIP3    H212730   3.406   4.394   2.206
 4242TIP3   OH212731   0.430   3.131   0.570
 4242TIP3    H112732   0.348   3.169   0.540
 4242TIP3    H212733   0.459   3.188   0.641
 4243TIP3   OH212734   1.058   4.725   0.352
 4243TIP3    H112735   0.997   4.749   0.283
 4243TIP3    H212736   1.080   4.808   0.395
 4244TIP3   OH212737   5.122   3.972   2.506
 4244TIP3    H112738   5.104   4.046   2.447
 4244TIP3    H212739   5.035   3.940   2.531
 4245TIP3   OH212740   4.620   3.086   0.975
 4245TIP3    H112741   4.627   3.161   1.034
 4245TIP3    H212742   4.548   3.034   1.010
 4246TIP3   OH212743   3.876   1.857   4.110
 4246TIP3    H112744   3.811   1.895   4.052
 4246TIP3    H212745   3.838   1.866   4.198
 4247TIP3   OH212746   5.004   4.030   2.924
 4247TIP3    H112747   5.026   4.121   2.904
 4247TIP3    H212748   5.067   4.004   2.991
 4248TIP3   OH212749   5.659   5.902   1.627
 4248TIP3    H112750   5.587   5.964   1.640
 4248TIP3    H212751   5.729   5.935   1.683
 4249TIP3   OH212752   5.803   4.648   1.107
 4249TIP3    H112753   5.742   4.624   1.037
 4249TIP3    H212754   5.783   4.739   1.126
 4250TIP3   OH212755   1.586   2.651   2.185
 4250TIP3    H112756   1.635   2.728   2.158
 4250TIP3    H212757   1.526   2.683   2.252
 4251TIP3   OH212758   3.989   0.708   5.060
 4251TIP3    H112759   3.917   0.719   5.122
 4251TIP3    H212760   4.023   0.620   5.078
 4252TIP3   OH212761   4.469   4.347   4.064
 4252TIP3    H112762   4.378   4.353   4.037
 4252TIP3    H212763   4.515   4.310   3.989
 4253TIP3   OH212764   6.032   2.738   1.927
 4253TIP3    H112765   5.991   2.794   1.993
 4253TIP3    H212766   6.021   2.649   1.961
 4254TIP3   OH212767   4.879   4.972   4.543
 4254TIP3    H112768   4.809   5.026   4.506
 4254TIP3    H212769   4.910   4.920   4.469
 4255TIP3   OH212770   3.813   4.517   1.635
 4255TIP3    H112771   3.784   4.441   1.584
 4255TIP3    H212772   3.856   4.574   1.571
 4256TIP3   OH212773   0.279   3.990   4.461
 4256TIP3    H112774   0.208   3.945   4.508
 4256TIP3    H212775   0.353   3.984   4.521
 4257TIP3   OH212776   0.789   0.443   4.012
 4257TIP3    H112777   0.778   0.393   4.093
 4257TIP3    H212778   0.879   0.423   3.984
 4258TIP3   OH212779   1.664   1.337   4.067
 4258TIP3    H112780   1.681   1.275   3.996
 4258TIP3    H212781   1.746   1.386   4.075
 4259TIP3   OH212782   5.636   0.101   4.518
 4259TIP3    H112783   5.618   0.008   4.506
 4259TIP3    H212784   5.699   0.123   4.450
 4260TIP3   OH212785   5.982   1.147   1.343
 4260TIP3    H112786   5.982   1.234   1.304
 4260TIP3    H212787   6.068   1.111   1.320
 4261TIP3   OH212788   1.558   2.106   2.839
 4261TIP3    H112789   1.598   2.175   2.891
 4261TIP3    H212790   1.500   2.060   2.899
 4262TIP3   OH212791   2.606   5.173   2.372
 4262TIP3    H112792   2.512   5.182   2.353
 4262TIP3    H212793   2.650   5.211   2.296
 4263TIP3   OH212794   5.123   2.058   4.262
 4263TIP3    H112795   5.034   2.039   4.233
 4263TIP3    H212796   5.126   2.154   4.270
 4264TIP3   OH212797   4.046   3.416   0.179
 4264TIP3    H112798   4.036   3.427   0.085
 4264TIP3    H212799   4.116   3.476   0.204
 4265TIP3   OH212800   5.756   0.372   1.443
 4265TIP3    H112801   5.759   0.276   1.434
 4265TIP3    H212802   5.681   0.388   1.500
 4266TIP3   OH212803   3.420   3.596   2.918
 4266TIP3    H112804   3.392   3.544   2.843
 4266TIP3    H212805   3.515   3.592   2.916
 4267TIP3   OH212806   0.134   1.166   4.873
 4267TIP3    H112807   0.086   1.207   4.945
 4267TIP3    H212808   0.101   1.077   4.868
 4268TIP3   OH212809   2.735   3.994   4.050
 4268TIP3    H112810   2.825   3.978   4.022
 4268TIP3    H212811   2.683   3.990   3.970
 4269TIP3   OH212812   0.088   1.625   4.712
 4269TIP3    H112813   0.003   1.584   4.726
 4269TIP3    H212814   0.091   1.643   4.618
 4270TIP3   OH212815   5.018   1.554   4.524
 4270TIP3    H112816   5.111   1.542   4.547
 4270TIP3    H212817   5.013   1.644   4.492
 4271TIP3   OH212818   2.859   5.517   2.563
 4271TIP3    H112819   2.885   5.427   2.585
 4271TIP3    H212820   2.941   5.563   2.547
 4272TIP3   OH212821   3.188   4.915   1.991
 4272TIP3    H112822   3.247   4.967   2.046
 4272TIP3    H212823   3.238   4.898   1.912
 4273TIP3   OH212824   1.643   5.642   3.437
 4273TIP3    H112825   1.559   5.676   3.407
 4273TIP3    H212826   1.621   5.560   3.482
 4274TIP3   OH212827   4.342   4.952   4.671
 4274TIP3    H112828   4.356   4.858   4.657
 4274TIP3    H212829   4.249   4.965   4.650
 4275TIP3   OH212830   1.511   4.210   4.128
 4275TIP3    H112831   1.598   4.176   4.147
 4275TIP3    H212832   1.462   4.199   4.209
 4276TIP3   OH212833   1.461   2.569   1.020
 4276TIP3    H112834   1.442   2.503   0.954
 4276TIP3    H212835   1.437   2.652   0.978
 4277TIP3   OH212836   6.306   5.763   0.589
 4277TIP3    H112837   6.252   5.689   0.617
 4277TIP3    H212838   6.376   5.768   0.653
 4278TIP3   OH212839   0.785   3.862   1.813
 4278TIP3    H112840   0.759   3.934   1.870
 4278TIP3    H212841   0.879   3.852   1.828
 4279TIP3   OH212842   1.470   4.685   3.989
 4279TIP3    H112843   1.389   4.731   4.012
 4279TIP3    H212844   1.483   4.704   3.896
 4280TIP3   OH212845   2.566   5.127   1.638
 4280TIP3    H112846   2.509   5.131   1.715
 4280TIP3    H212847   2.648   5.168   1.667
 4281TIP3   OH212848   2.784   5.813   3.110
 4281TIP3    H112849   2.860   5.760   3.085
 4281TIP3    H212850   2.812   5.903   3.098
 4282TIP3   OH212851   0.511   5.240   4.871
 4282TIP3    H112852   0.595   5.206   4.841
 4282TIP3    H212853   0.486   5.305   4.805
 4283TIP3   OH212854   5.353   3.015   4.117
 4283TIP3    H112855   5.428   2.996   4.061
 4283TIP3    H212856   5.277   3.004   4.059
 4284TIP3   OH212857   6.022   4.936   2.780
 4284TIP3    H112858   5.975   4.895   2.853
 4284TIP3    H212859   6.104   4.966   2.819
 4285TIP3   OH212860   2.767   4.882   2.850
 4285TIP3    H112861   2.792   4.974   2.850
 4285TIP3    H212862   2.697   4.876   2.916
 4286TIP3   OH212863   6.265   1.466   3.969
 4286TIP3    H112864   6.258   1.505   4.055
 4286TIP3    H212865   6.337   1.513   3.926
 4287TIP3   OH212866   5.963   2.468   1.604
 4287TIP3    H112867   5.894   2.534   1.599
 4287TIP3    H212868   6.042   2.513   1.575
 4288TIP3   OH212869   2.335   3.030   1.818
 4288TIP3    H112870   2.394   2.978   1.873
 4288TIP3    H212871   2.286   2.965   1.768
 4289TIP3   OH212872   3.482   5.369   0.338
 4289TIP3    H112873   3.485   5.279   0.305
 4289TIP3    H212874   3.533   5.367   0.419
 4290TIP3   OH212875   1.465   2.685   3.996
 4290TIP3    H112876   1.482   2.766   3.948
 4290TIP3    H212877   1.371   2.686   4.013
 4291TIP3   OH212878   6.153   0.189   5.140
 4291TIP3    H112879   6.232   0.187   5.086
 4291TIP3    H212880   6.080   0.190   5.078
 4292TIP3   OH212881   0.605   2.489   5.064
 4292TIP3    H112882   0.638   2.540   4.989
 4292TIP3    H212883   0.512   2.478   5.046
 4293TIP3   OH212884   5.096   1.744   1.807
 4293TIP3    H112885   5.059   1.680   1.868
 4293TIP3    H212886   5.148   1.692   1.746
 4294TIP3   OH212887   4.667   1.891   2.251
 4294TIP3    H112888   4.699   1.978   2.274
 4294TIP3    H212889   4.601   1.871   2.317
 4295TIP3   OH212890   5.529  -0.024   3.364
 4295TIP3    H112891   5.551   0.068   3.379
 4295TIP3    H212892   5.452  -0.021   3.307
 4296TIP3   OH212893   1.124   1.504   4.686
 4296TIP3    H112894   1.085   1.420   4.662
 4296TIP3    H212895   1.102   1.515   4.778
 4297TIP3   OH212896   4.066   5.085   0.310
 4297TIP3    H112897   3.977   5.053   0.298
 4297TIP3    H212898   4.075   5.156   0.246
 4298TIP3   OH212899   2.345   5.669   1.267
 4298TIP3    H112900   2.284   5.613   1.218
 4298TIP3    H212901   2.335   5.640   1.358
 4299TIP3   OH212902   2.365   0.066   3.488
 4299TIP3    H112903   2.311  -0.012   3.472
 4299TIP3    H212904   2.449   0.030   3.516
 4300TIP3   OH212905   4.399   1.931   2.731
 4300TIP3    H112906   4.404   1.944   2.637
 4300TIP3    H212907   4.366   1.842   2.742
 4301TIP3   OH212908   4.152   0.353   0.059
 4301TIP3    H112909   4.126   0.439   0.028
 4301TIP3    H212910   4.247   0.352   0.051
 4302TIP3   OH212911   3.471   4.313   4.200
 4302TIP3    H112912   3.444   4.289   4.112
 4302TIP3    H212913   3.407   4.270   4.257
 4303TIP3   OH212914   1.530   0.632   1.703
 4303TIP3    H112915   1.619   0.667   1.697
 4303TIP3    H212916   1.541   0.546   1.742
 4304TIP3   OH212917   1.072   4.009   2.074
 4304TIP3    H112918   1.009   3.960   2.126
 4304TIP3    H212919   1.018   4.060   2.013
 4305TIP3   OH212920   5.823   2.260   4.550
 4305TIP3    H112921   5.833   2.355   4.557
 4305TIP3    H212922   5.728   2.246   4.550
 4306TIP3   OH212923   6.245   2.910   4.790
 4306TIP3    H112924   6.295   2.867   4.859
 4306TIP3    H212925   6.310   2.954   4.736
 4307TIP3   OH212926   5.738   5.742   2.278
 4307TIP3    H112927   5.730   5.809   2.211
 4307TIP3    H212928   5.833   5.726   2.285
 4308TIP3   OH212929   2.937   0.901   1.128
 4308TIP3    H112930   3.024   0.930   1.100
 4308TIP3    H212931   2.881   0.914   1.051
 4309TIP3   OH212932   0.629   2.615   1.009
 4309TIP3    H112933   0.561   2.627   0.943
 4309TIP3    H212934   0.617   2.688   1.070
 4310TIP3   OH212935   5.886   3.002   3.408
 4310TIP3    H112936   5.961   3.002   3.348
 4310TIP3    H212937   5.872   2.910   3.430
 4311TIP3   OH212938   1.486   1.912   3.565
 4311TIP3    H112939   1.557   1.870   3.613
 4311TIP3    H212940   1.420   1.931   3.631
 4312TIP3   OH212941   3.783   1.386   2.400
 4312TIP3    H112942   3.722   1.429   2.459
 4312TIP3    H212943   3.843   1.455   2.373
 4313TIP3   OH212944   5.720   0.719   3.084
 4313TIP3    H112945   5.733   0.761   3.169
 4313TIP3    H212946   5.772   0.772   3.023
 4314TIP3   OH212947   1.071   3.713   4.846
 4314TIP3    H112948   1.162   3.704   4.875
 4314TIP3    H212949   1.027   3.634   4.879
 4315TIP3   OH212950   1.449   0.980   4.095
 4315TIP3    H112951   1.497   0.906   4.130
 4315TIP3    H212952   1.502   1.056   4.118
 4316TIP3   OH212953   3.264   1.929   1.096
 4316TIP3    H112954   3.265   1.948   1.190
 4316TIP3    H212955   3.233   1.839   1.090
 4317TIP3   OH212956   3.376   3.660   2.012
 4317TIP3    H112957   3.466   3.659   1.980
 4317TIP3    H212958   3.342   3.745   1.987
 4318TIP3   OH212959   3.057   3.691   2.713
 4318TIP3    H112960   3.003   3.724   2.785
 4318TIP3    H212961   3.083   3.770   2.665
 4319TIP3   OH212962   4.474   3.399   5.107
 4319TIP3    H112963   4.494   3.477   5.159
 4319TIP3    H212964   4.558   3.353   5.100
 4320TIP3   OH212965   4.389   3.573   3.922
 4320TIP3    H112966   4.434   3.656   3.907
 4320TIP3    H212967   4.298   3.597   3.941
 4321TIP3   OH212968   1.270   4.365   0.845
 4321TIP3    H112969   1.256   4.417   0.924
 4321TIP3    H212970   1.342   4.306   0.866
 4322TIP3   OH212971   6.279   3.484   2.647
 4322TIP3    H112972   6.320   3.569   2.629
 4322TIP3    H212973   6.353   3.425   2.664
 4323TIP3   OH212974   2.700   2.952   4.686
 4323TIP3    H112975   2.660   2.894   4.621
 4323TIP3    H212976   2.717   3.033   4.640
 4324TIP3   OH212977   1.844   5.199   3.592
 4324TIP3    H112978   1.821   5.139   3.522
 4324TIP3    H212979   1.850   5.144   3.670
 4325TIP3   OH212980   1.014   3.107   4.385
 4325TIP3    H112981   1.046   3.170   4.449
 4325TIP3    H212982   0.919   3.108   4.397
 4326TIP3   OH212983   4.249   3.649   0.973
 4326TIP3    H112984   4.158   3.625   0.987
 4326TIP3    H212985   4.250   3.745   0.981
 4327TIP3   OH212986   2.354   2.813   0.657
 4327TIP3    H112987   2.397   2.731   0.633
 4327TIP3    H212988   2.426   2.874   0.674
 4328TIP3   OH212989   3.187   1.290   3.719
 4328TIP3    H112990   3.243   1.362   3.689
 4328TIP3    H212991   3.101   1.310   3.683
 4329TIP3   OH212992   1.270   2.117   4.028
 4329TIP3    H112993   1.176   2.137   4.033
 4329TIP3    H212994   1.298   2.111   4.119
 4330TIP3   OH212995   0.887   0.212   0.528
 4330TIP3    H112996   0.804   0.231   0.483
 4330TIP3    H212997   0.878   0.253   0.614
 4331TIP3   OH212998   2.503   0.690   1.267
 4331TIP3    H112999   2.532   0.704   1.358
 4331TIP3    H213000   2.423   0.742   1.259
 4332TIP3   OH213001   5.872   1.891   3.206
 4332TIP3    H113002   5.868   1.889   3.302
 4332TIP3    H213003   5.901   1.980   3.185
 4333TIP3   OH213004   3.404   4.877   3.632
 4333TIP3    H113005   3.484   4.924   3.608
 4333TIP3    H213006   3.403   4.801   3.574
 4334TIP3   OH213007   4.808   5.907   2.187
 4334TIP3    H113008   4.842   5.832   2.138
 4334TIP3    H213009   4.779   5.871   2.270
 4335TIP3   OH213010   3.697   4.547   2.132
 4335TIP3    H113011   3.739   4.572   2.049
 4335TIP3    H213012   3.617   4.501   2.106
 4336TIP3   OH213013   2.739   3.137   1.584
 4336TIP3    H113014   2.655   3.122   1.541
 4336TIP3    H213015   2.770   3.220   1.549
 4337TIP3   OH213016   2.941   1.061   5.139
 4337TIP3    H113017   2.960   0.991   5.201
 4337TIP3    H213018   2.855   1.039   5.103
 4338TIP3   OH213019   3.603   4.479   4.377
 4338TIP3    H113020   3.573   4.426   4.303
 4338TIP3    H213021   3.643   4.556   4.337
 4339TIP3   OH213022   4.658   3.751   1.526
 4339TIP3    H113023   4.645   3.743   1.432
 4339TIP3    H213024   4.610   3.830   1.550
 4340TIP3   OH213025   4.025   1.285   1.366
 4340TIP3    H113026   3.979   1.202   1.379
 4340TIP3    H213027   4.118   1.263   1.377
 4341TIP3   OH213028   6.019   0.764   3.786
 4341TIP3    H113029   6.061   0.850   3.789
 4341TIP3    H213030   6.091   0.702   3.776
 4342TIP3   OH213031   2.099   0.031   1.974
 4342TIP3    H113032   2.171  -0.007   1.924
 4342TIP3    H213033   2.113   0.126   1.968
 4343TIP3   OH213034   1.866   1.953   2.422
 4343TIP3    H113035   1.841   1.981   2.510
 4343TIP3    H213036   1.802   1.995   2.364
 4344TIP3   OH213037   3.592   4.320   3.649
 4344TIP3    H113038   3.591   4.336   3.554
 4344TIP3    H213039   3.520   4.258   3.663
 4345TIP3   OH213040   6.224   0.430   2.682
 4345TIP3    H113041   6.189   0.410   2.595
 4345TIP3    H213042   6.283   0.505   2.668
 4346TIP3   OH213043   4.570   4.476   3.117
 4346TIP3    H113044   4.655   4.518   3.127
 4346TIP3    H213045   4.584   4.387   3.149
 4347TIP3   OH213046   2.435   4.335   2.200
 4347TIP3    H113047   2.352   4.378   2.220
 4347TIP3    H213048   2.470   4.309   2.285
 4348TIP3   OH213049   0.888   1.934   2.775
 4348TIP3    H113050   0.854   1.856   2.731
 4348TIP3    H213051   0.880   1.915   2.868
 4349TIP3   OH213052   1.553   2.225   0.523
 4349TIP3    H113053   1.598   2.218   0.607
 4349TIP3    H213054   1.467   2.261   0.546
 4350TIP3   OH213055   4.001   5.849   0.865
 4350TIP3    H113056   3.977   5.776   0.922
 4350TIP3    H213057   3.922   5.868   0.816
 4351TIP3   OH213058   2.488   2.291   3.576
 4351TIP3    H113059   2.569   2.341   3.583
 4351TIP3    H213060   2.446   2.301   3.662
 4352TIP3   OH213061   2.358   4.577   0.928
 4352TIP3    H113062   2.443   4.599   0.890
 4352TIP3    H213063   2.373   4.496   0.976
 4353TIP3   OH213064   4.298   3.329  -0.015
 4353TIP3    H113065   4.259   3.288  -0.093
 4353TIP3    H213066   4.323   3.256   0.041
 4354TIP3   OH213067   2.992   4.314   2.521
 4354TIP3    H113068   3.075   4.270   2.539
 4354TIP3    H213069   2.969   4.287   2.432
 4355TIP3   OH213070   3.566   2.718   4.741
 4355TIP3    H113071   3.629   2.786   4.715
 4355TIP3    H213072   3.592   2.695   4.830
 4356TIP3   OH213073   0.803   2.852   0.497
 4356TIP3    H113074   0.736   2.918   0.478
 4356TIP3    H213075   0.770   2.806   0.573
 4357TIP3   OH213076   6.234   1.211   1.789
 4357TIP3    H113077   6.172   1.255   1.730
 4357TIP3    H213078   6.182   1.188   1.865
 4358TIP3   OH213079   5.918   1.729   0.222
 4358TIP3    H113080   5.878   1.674   0.154
 4358TIP3    H213081   5.846   1.747   0.283
 4359TIP3   OH213082   6.047   0.330   4.437
 4359TIP3    H113083   6.044   0.419   4.403
 4359TIP3    H213084   5.999   0.278   4.372
 4360TIP3   OH213085   5.806   4.782   4.735
 4360TIP3    H113086   5.852   4.811   4.656
 4360TIP3    H213087   5.723   4.830   4.733
 4361TIP3   OH213088   1.941   0.601   2.318
 4361TIP3    H113089   1.894   0.524   2.350
 4361TIP3    H213090   2.034   0.578   2.329
 4362TIP3   OH213091   2.350   1.203   1.839
 4362TIP3    H113092   2.327   1.250   1.759
 4362TIP3    H213093   2.392   1.122   1.808
 4363TIP3   OH213094   5.696   3.615   2.610
 4363TIP3    H113095   5.779   3.634   2.566
 4363TIP3    H213096   5.632   3.610   2.539
 4364TIP3   OH213097   3.893   2.482   2.241
 4364TIP3    H113098   3.865   2.498   2.331
 4364TIP3    H213099   3.980   2.522   2.236
 4365TIP3   OH213100   5.412   4.155   3.358
 4365TIP3    H113101   5.408   4.246   3.328
 4365TIP3    H213102   5.437   4.105   3.281
 4366TIP3   OH213103   0.875   3.421   2.995
 4366TIP3    H113104   0.893   3.489   3.060
 4366TIP3    H213105   0.787   3.441   2.963
 4367TIP3   OH213106   0.150   5.543   3.417
 4367TIP3    H113107   0.090   5.588   3.358
 4367TIP3    H213108   0.229   5.529   3.365
 4368TIP3   OH213109   4.921   1.584   2.721
 4368TIP3    H113110   4.864   1.660   2.726
 4368TIP3    H213111   4.942   1.576   2.627
 4369TIP3   OH213112   5.303   5.274   4.134
 4369TIP3    H113113   5.373   5.218   4.100
 4369TIP3    H213114   5.331   5.296   4.222
 4370TIP3   OH213115   1.496   4.805   4.604
 4370TIP3    H113116   1.541   4.738   4.554
 4370TIP3    H213117   1.541   4.886   4.582
 4371TIP3   OH213118   2.398   4.414   4.710
 4371TIP3    H113119   2.307   4.384   4.713
 4371TIP3    H213120   2.447   4.340   4.675
 4372TIP3   OH213121   4.325   0.144   3.790
 4372TIP3    H113122   4.386   0.218   3.788
 4372TIP3    H213123   4.321   0.119   3.883
 4373TIP3   OH213124   5.685   2.650   0.222
 4373TIP3    H113125   5.614   2.640   0.159
 4373TIP3    H213126   5.762   2.614   0.177
 4374TIP3   OH213127   5.331   3.397   4.831
 4374TIP3    H113128   5.378   3.354   4.903
 4374TIP3    H213129   5.274   3.328   4.795
 4375TIP3   OH213130   5.049   4.500   0.224
 4375TIP3    H113131   4.990   4.574   0.241
 4375TIP3    H213132   5.134   4.539   0.206
 4376TIP3   OH213133   4.933   5.434   2.700
 4376TIP3    H113134   4.844   5.465   2.712
 4376TIP3    H213135   4.928   5.340   2.715
 4377TIP3   OH213136   0.887   3.482   1.513
 4377TIP3    H113137   0.942   3.413   1.550
 4377TIP3    H213138   0.807   3.478   1.565
 4378TIP3   OH213139   0.451   4.030   1.357
 4378TIP3    H113140   0.480   3.939   1.352
 4378TIP3    H213141   0.524   4.076   1.398
 4379TIP3   OH213142   0.692   1.201   0.664
 4379TIP3    H113143   0.666   1.272   0.604
 4379TIP3    H213144   0.637   1.127   0.638
 4380TIP3   OH213145   5.722   5.315   2.883
 4380TIP3    H113146   5.812   5.292   2.861
 4380TIP3    H213147   5.727   5.405   2.917
 4381TIP3   OH213148   0.748   4.174   3.726
 4381TIP3    H113149   0.816   4.160   3.660
 4381TIP3    H213150   0.694   4.245   3.690
 4382TIP3   OH213151   4.071   2.271   3.998
 4382TIP3    H113152   3.979   2.249   4.014
 4382TIP3    H213153   4.082   2.358   4.036
 4383TIP3   OH213154   5.163   4.705   1.243
 4383TIP3    H113155   5.159   4.737   1.153
 4383TIP3    H213156   5.228   4.761   1.286
 4384TIP3   OH213157   1.544   4.522   2.895
 4384TIP3    H113158   1.600   4.551   2.823
 4384TIP3    H213159   1.589   4.554   2.974
 4385TIP3   OH213160   4.749   1.855   3.347
 4385TIP3    H113161   4.813   1.832   3.415
 4385TIP3    H213162   4.769   1.796   3.275
 4386TIP3   OH213163   2.378   4.879   4.716
 4386TIP3    H113164   2.465   4.907   4.687
 4386TIP3    H213165   2.320   4.949   4.688
 4387TIP3   OH213166   0.574   0.488   2.110
 4387TIP3    H113167   0.593   0.451   2.024
 4387TIP3    H213168   0.621   0.571   2.112
 4388TIP3   OH213169   5.578   0.197   1.201
 4388TIP3    H113170   5.519   0.244   1.260
 4388TIP3    H213171   5.645   0.161   1.259
 4389TIP3   OH213172   3.248   0.277   1.693
 4389TIP3    H113173   3.165   0.260   1.649
 4389TIP3    H213174   3.233   0.360   1.740
 4390TIP3   OH213175   2.966   5.127   1.059
 4390TIP3    H113176   2.905   5.127   1.133
 4390TIP3    H213177   2.985   5.220   1.043
 4391TIP3   OH213178   4.856   3.184   1.252
 4391TIP3    H113179   4.923   3.171   1.184
 4391TIP3    H213180   4.792   3.243   1.211
 4392TIP3   OH213181   2.054   0.874   4.896
 4392TIP3    H113182   2.149   0.879   4.885
 4392TIP3    H213183   2.032   0.951   4.947
 4393TIP3   OH213184   1.351   3.661   0.817
 4393TIP3    H113185   1.378   3.702   0.899
 4393TIP3    H213186   1.373   3.568   0.829
 4394TIP3   OH213187   0.468   0.102   3.832
 4394TIP3    H113188   0.372   0.101   3.827
 4394TIP3    H213189   0.488   0.077   3.922
 4395TIP3   OH213190   0.780   5.314   1.056
 4395TIP3    H113191   0.788   5.394   1.106
 4395TIP3    H213192   0.689   5.288   1.064
 4396TIP3   OH213193   4.602   4.169   1.352
 4396TIP3    H113194   4.588   4.175   1.258
 4396TIP3    H213195   4.683   4.217   1.369
 4397TIP3   OH213196   6.320   2.896   0.840
 4397TIP3    H113197   6.254   2.891   0.771
 4397TIP3    H213198   6.297   2.826   0.901
 4398TIP3   OH213199   4.561   3.064   3.118
 4398TIP3    H113200   4.615   3.073   3.040
 4398TIP3    H213201   4.612   3.106   3.187
 4399TIP3   OH213202   0.141   5.274   3.895
 4399TIP3    H113203   0.100   5.359   3.914
 4399TIP3    H213204   0.068   5.215   3.878
 4400TIP3   OH213205   0.051   5.815   1.369
 4400TIP3    H113206   0.000   5.896   1.364
 4400TIP3    H213207   0.105   5.816   1.290
 4401TIP3   OH213208   1.064   2.398   2.702
 4401TIP3    H113209   1.127   2.414   2.772
 4401TIP3    H213210   1.053   2.302   2.701
 4402TIP3   OH213211   4.271   5.959   1.175
 4402TIP3    H113212   4.264   6.045   1.217
 4402TIP3    H213213   4.246   5.974   1.084
 4403TIP3   OH213214   1.221   3.129   0.684
 4403TIP3    H113215   1.270   3.061   0.638
 4403TIP3    H213216   1.271   3.209   0.671
 4404TIP3   OH213217   0.800   1.526   4.737
 4404TIP3    H113218   0.706   1.511   4.747
 4404TIP3    H213219   0.841   1.462   4.795
 4405TIP3   OH213220   5.895   5.232   1.122
 4405TIP3    H113221   5.875   5.268   1.208
 4405TIP3    H213222   5.990   5.223   1.120
 4406TIP3   OH213223   6.229   1.240   3.735
 4406TIP3    H113224   6.283   1.233   3.814
 4406TIP3    H213225   6.179   1.159   3.733
 4407TIP3   OH213226   0.829   1.718   2.593
 4407TIP3    H113227   0.821   1.783   2.523
 4407TIP3    H213228   0.817   1.634   2.549
 4408TIP3   OH213229   2.902   2.959   4.880
 4408TIP3    H113230   2.907   2.885   4.941
 4408TIP3    H213231   2.830   2.935   4.821
 4409TIP3   OH213232   0.394   0.273   2.067
 4409TIP3    H113233   0.425   0.362   2.083
 4409TIP3    H213234   0.472   0.225   2.041
 4410TIP3   OH213235   3.955   0.522   1.078
 4410TIP3    H113236   3.944   0.615   1.059
 4410TIP3    H213237   3.892   0.478   1.022
 4411TIP3   OH213238   1.305   2.765   4.429
 4411TIP3    H113239   1.376   2.706   4.453
 4411TIP3    H213240   1.279   2.806   4.511
 4412TIP3   OH213241   2.159   3.844   0.307
 4412TIP3    H113242   2.226   3.778   0.288
 4412TIP3    H213243   2.111   3.810   0.382
 4413TIP3   OH213244   0.456   5.111   4.613
 4413TIP3    H113245   0.422   5.187   4.567
 4413TIP3    H213246   0.542   5.139   4.646
 4414TIP3   OH213247   1.544   2.299   1.026
 4414TIP3    H113248   1.454   2.319   1.052
 4414TIP3    H213249   1.588   2.385   1.025
 4415TIP3   OH213250   4.535   1.385   0.643
 4415TIP3    H113251   4.466   1.355   0.584
 4415TIP3    H213252   4.605   1.414   0.585
 4416TIP3   OH213253   3.855   2.177   2.797
 4416TIP3    H113254   3.923   2.209   2.856
 4416TIP3    H213255   3.893   2.184   2.710
 4417TIP3   OH213256   6.196   1.725   1.402
 4417TIP3    H113257   6.254   1.734   1.478
 4417TIP3    H213258   6.250   1.751   1.328
 4418TIP3   OH213259   1.850   5.210   5.088
 4418TIP3    H113260   1.895   5.132   5.122
 4418TIP3    H213261   1.917   5.278   5.088
 4419TIP3   OH213262   0.666   4.035   0.272
 4419TIP3    H113263   0.616   4.015   0.351
 4419TIP3    H213264   0.633   4.120   0.243
 4420TIP3   OH213265   3.735   1.265   0.770
 4420TIP3    H113266   3.738   1.356   0.798
 4420TIP3    H213267   3.647   1.235   0.792
 4421TIP3   OH213268   5.400   5.085   3.374
 4421TIP3    H113269   5.313   5.045   3.369
 4421TIP3    H213270   5.384   5.179   3.380
 4422TIP3   OH213271   1.144   3.078   2.957
 4422TIP3    H113272   1.197   3.014   2.909
 4422TIP3    H213273   1.196   3.158   2.956
 4423TIP3   OH213274   5.034   2.668   2.999
 4423TIP3    H113275   5.071   2.726   3.066
 4423TIP3    H213276   5.097   2.673   2.926
 4424TIP3   OH213277   3.463   3.340   4.189
 4424TIP3    H113278   3.528   3.390   4.141
 4424TIP3    H213279   3.424   3.403   4.250
 4425TIP3   OH213280   5.766   2.029   4.181
 4425TIP3    H113281   5.798   2.106   4.134
 4425TIP3    H213282   5.701   2.064   4.243
 4426TIP3   OH213283   4.570   2.493   1.596
 4426TIP3    H113284   4.662   2.483   1.570
 4426TIP3    H213285   4.520   2.459   1.522
 4427TIP3   OH213286   6.036   4.962   4.244
 4427TIP3    H113287   6.113   5.004   4.206
 4427TIP3    H213288   5.969   4.968   4.176
 4428TIP3   OH213289   3.763   4.556   0.632
 4428TIP3    H113290   3.804   4.634   0.668
 4428TIP3    H213291   3.709   4.522   0.703
 4429TIP3   OH213292   6.067   1.356   0.155
 4429TIP3    H113293   6.062   1.447   0.184
 4429TIP3    H213294   6.067   1.361   0.060
 4430TIP3   OH213295   5.614   5.891   4.683
 4430TIP3    H113296   5.584   5.804   4.657
 4430TIP3    H213297   5.710   5.883   4.685
 4431TIP3   OH213298   4.252   5.643   5.103
 4431TIP3    H113299   4.176   5.686   5.065
 4431TIP3    H213300   4.235   5.642   5.198
 4432TIP3   OH213301   1.706   3.323   4.469
 4432TIP3    H113302   1.628   3.366   4.435
 4432TIP3    H213303   1.771   3.392   4.475
 4433TIP3   OH213304   4.612   3.612   2.828
 4433TIP3    H113305   4.666   3.604   2.907
 4433TIP3    H213306   4.676   3.628   2.758
 4434TIP3   OH213307   4.541   1.810   4.820
 4434TIP3    H113308   4.529   1.715   4.820
 4434TIP3    H213309   4.619   1.824   4.875
 4435TIP3   OH213310   0.674   5.464   2.874
 4435TIP3    H113311   0.587   5.424   2.866
 4435TIP3    H213312   0.733   5.391   2.893
 4436TIP3   OH213313   1.457   2.646   1.771
 4436TIP3    H113314   1.372   2.604   1.753
 4436TIP3    H213315   1.484   2.611   1.856
 4437TIP3   OH213316   5.618   3.830   4.476
 4437TIP3    H113317   5.701   3.783   4.462
 4437TIP3    H213318   5.565   3.808   4.400
 4438TIP3   OH213319   3.182   4.100   2.446
 4438TIP3    H113320   3.153   4.110   2.355
 4438TIP3    H213321   3.278   4.099   2.440
 4439TIP3   OH213322   5.316   1.824   0.785
 4439TIP3    H113323   5.312   1.915   0.754
 4439TIP3    H213324   5.296   1.830   0.878
 4440TIP3   OH213325   0.970   3.194   3.127
 4440TIP3    H113326   0.960   3.279   3.084
 4440TIP3    H213327   1.034   3.147   3.074
 4441TIP3   OH213328   2.829   4.880   2.344
 4441TIP3    H113329   2.850   4.954   2.287
 4441TIP3    H213330   2.739   4.856   2.321
 4442TIP3   OH213331   4.040   1.141   3.237
 4442TIP3    H113332   3.960   1.138   3.184
 4442TIP3    H213333   4.111   1.131   3.174
 4443TIP3   OH213334   6.096   2.901   3.153
 4443TIP3    H113335   6.115   2.928   3.243
 4443TIP3    H213336   6.006   2.869   3.156
 4444TIP3   OH213337   4.647   2.151   4.299
 4444TIP3    H113338   4.571   2.117   4.252
 4444TIP3    H213339   4.617   2.162   4.389
 4445TIP3   OH213340   3.069   4.834   5.090
 4445TIP3    H113341   3.140   4.896   5.075
 4445TIP3    H213342   3.089   4.796   5.176
 4446TIP3   OH213343   6.164   1.637   0.084
 4446TIP3    H113344   6.244   1.608   0.041
 4446TIP3    H213345   6.190   1.712   0.137
 4447TIP3   OH213346   1.969   5.913   2.778
 4447TIP3    H113347   1.946   5.907   2.871
 4447TIP3    H213348   1.889   5.888   2.732
 4448TIP3   OH213349   0.713   3.768   3.156
 4448TIP3    H113350   0.738   3.844   3.208
 4448TIP3    H213351   0.700   3.698   3.220
 4449TIP3   OH213352   3.353   4.747   3.874
 4449TIP3    H113353   3.355   4.815   3.806
 4449TIP3    H213354   3.426   4.689   3.851
 4450TIP3   OH213355   4.884   3.161   4.493
 4450TIP3    H113356   4.823   3.233   4.508
 4450TIP3    H213357   4.954   3.176   4.556
 4451TIP3   OH213358   1.559   4.294   3.774
 4451TIP3    H113359   1.487   4.285   3.835
 4451TIP3    H213360   1.519   4.326   3.693
 4452TIP3   OH213361   3.816   3.793   3.948
 4452TIP3    H113362   3.785   3.709   3.916
 4452TIP3    H213363   3.912   3.787   3.942
 4453TIP3   OH213364   3.666   4.871   0.072
 4453TIP3    H113365   3.748   4.900   0.032
 4453TIP3    H213366   3.664   4.776   0.056
 4454TIP3   OH213367   4.618   5.029   2.966
 4454TIP3    H113368   4.693   4.995   3.014
 4454TIP3    H213369   4.561   4.953   2.953
 4455TIP3   OH213370   0.892   4.049   0.044
 4455TIP3    H113371   0.829   3.978   0.055
 4455TIP3    H213372   0.916   4.075   0.133
 4456TIP3   OH213373   2.803   0.064   1.629
 4456TIP3    H113374   2.797  -0.005   1.695
 4456TIP3    H213375   2.728   0.121   1.646
 4457TIP3   OH213376   5.769   2.081   0.644
 4457TIP3    H113377   5.821   2.011   0.606
 4457TIP3    H213378   5.825   2.158   0.639
 4458TIP3   OH213379   1.486   4.918   1.815
 4458TIP3    H113380   1.544   4.975   1.865
 4458TIP3    H213381   1.414   4.975   1.788
 4459TIP3   OH213382   5.865   0.290   2.330
 4459TIP3    H113383   5.798   0.223   2.314
 4459TIP3    H213384   5.845   0.359   2.267
 4460TIP3   OH213385   5.654   0.645   2.717
 4460TIP3    H113386   5.705   0.605   2.788
 4460TIP3    H213387   5.699   0.618   2.637
 4461TIP3   OH213388   0.524   2.345   0.234
 4461TIP3    H113389   0.562   2.318   0.318
 4461TIP3    H213390   0.589   2.405   0.197
 4462TIP3   OH213391   3.575   2.194   3.852
 4462TIP3    H113392   3.536   2.116   3.893
 4462TIP3    H213393   3.503   2.257   3.848
 4463TIP3   OH213394   0.318   5.626   2.547
 4463TIP3    H113395   0.382   5.599   2.482
 4463TIP3    H213396   0.274   5.545   2.572
 4464TIP3   OH213397   3.477   3.824   2.269
 4464TIP3    H113398   3.382   3.838   2.264
 4464TIP3    H213399   3.489   3.768   2.346
 4465TIP3   OH213400   0.894   0.105   3.945
 4465TIP3    H113401   0.846   0.091   4.026
 4465TIP3    H213402   0.964   0.166   3.968
 4466TIP3   OH213403   4.991   5.463   3.918
 4466TIP3    H113404   5.085   5.483   3.918
 4466TIP3    H213405   4.983   5.388   3.858
 4467TIP3   OH213406   1.319   0.885   4.804
 4467TIP3    H113407   1.299   0.970   4.842
 4467TIP3    H213408   1.251   0.870   4.739
 4468TIP3   OH213409   4.488   2.511   0.557
 4468TIP3    H113410   4.431   2.497   0.633
 4468TIP3    H213411   4.548   2.580   0.585
 4469TIP3   OH213412   5.511   5.535   2.391
 4469TIP3    H113413   5.596   5.547   2.349
 4469TIP3    H213414   5.524   5.462   2.451
 4470TIP3   OH213415   5.766   2.358   0.051
 4470TIP3    H113416   5.832   2.427   0.055
 4470TIP3    H213417   5.707   2.383  -0.020
 4471TIP3   OH213418   1.861   3.589   4.389
 4471TIP3    H113419   1.798   3.646   4.434
 4471TIP3    H213420   1.897   3.645   4.320
 4472TIP3   OH213421   6.104   4.523   2.308
 4472TIP3    H113422   6.118   4.431   2.333
 4472TIP3    H213423   6.153   4.573   2.373
 4473TIP3   OH213424   1.369   0.485   4.277
 4473TIP3    H113425   1.319   0.404   4.267
 4473TIP3    H213426   1.436   0.481   4.209
 4474TIP3   OH213427   1.661   4.271   1.597
 4474TIP3    H113428   1.648   4.223   1.515
 4474TIP3    H213429   1.745   4.240   1.630
 4475TIP3   OH213430   3.259   1.241   2.770
 4475TIP3    H113431   3.239   1.148   2.758
 4475TIP3    H213432   3.214   1.284   2.696
 4476TIP3   OH213433   3.709   3.045   1.258
 4476TIP3    H113434   3.800   3.066   1.276
 4476TIP3    H213435   3.663   3.129   1.261
 4477TIP3   OH213436   0.641   5.799   0.690
 4477TIP3    H113437   0.588   5.798   0.770
 4477TIP3    H213438   0.620   5.882   0.648
 4478TIP3   OH213439   3.055   2.692   1.496
 4478TIP3    H113440   3.006   2.632   1.553
 4478TIP3    H213441   2.996   2.766   1.484
 4479TIP3   OH213442   4.070   0.580   4.534
 4479TIP3    H113443   3.979   0.560   4.515
 4479TIP3    H213444   4.067   0.648   4.601
 4480TIP3   OH213445   2.563   4.619   0.134
 4480TIP3    H113446   2.656   4.638   0.127
 4480TIP3    H213447   2.557   4.546   0.195
 4481TIP3   OH213448   3.296   0.871   4.553
 4481TIP3    H113449   3.290   0.808   4.481
 4481TIP3    H213450   3.230   0.842   4.615
 4482TIP3   OH213451   2.347   2.683   1.837
 4482TIP3    H113452   2.363   2.589   1.842
 4482TIP3    H213453   2.286   2.693   1.763
 4483TIP3   OH213454   5.266   2.892   1.118
 4483TIP3    H113455   5.353   2.915   1.084
 4483TIP3    H213456   5.240   2.814   1.068
 4484TIP3   OH213457   2.118   4.114   0.373
 4484TIP3    H113458   2.124   4.019   0.370
 4484TIP3    H213459   2.041   4.131   0.428
 4485TIP3   OH213460   5.219   4.025   2.081
 4485TIP3    H113461   5.187   4.051   1.995
 4485TIP3    H213462   5.313   4.043   2.079
 4486TIP3   OH213463   4.235   3.434   4.959
 4486TIP3    H113464   4.159   3.483   4.990
 4486TIP3    H213465   4.308   3.467   5.010
 4487TIP3   OH213466   4.309   0.825   1.751
 4487TIP3    H113467   4.403   0.810   1.754
 4487TIP3    H213468   4.299   0.908   1.704
 4488TIP3   OH213469   5.501   5.134   2.855
 4488TIP3    H113470   5.456   5.145   2.938
 4488TIP3    H213471   5.575   5.194   2.860
 4489TIP3   OH213472   0.033   4.048   0.025
 4489TIP3    H113473  -0.050   4.048   0.072
 4489TIP3    H213474   0.078   4.127   0.056
 4490TIP3   OH213475   3.330   4.273  -0.025
 4490TIP3    H113476   3.242   4.309  -0.009
 4490TIP3    H213477   3.319   4.178  -0.018
 4491TIP3   OH213478   3.895   4.039   0.065
 4491TIP3    H113479   3.872   3.947   0.076
 4491TIP3    H213480   3.898   4.074   0.154
 4492TIP3   OH213481   2.981   4.884   3.995
 4492TIP3    H113482   2.980   4.862   4.088
 4492TIP3    H213483   2.998   4.978   3.993
 4493TIP3   OH213484   2.821   0.525   3.120
 4493TIP3    H113485   2.773   0.597   3.079
 4493TIP3    H213486   2.908   0.561   3.138
 4494TIP3   OH213487   5.482   3.962  -0.020
 4494TIP3    H113488   5.456   4.049   0.010
 4494TIP3    H213489   5.447   3.902   0.045
 4495TIP3   OH213490   4.527   0.565   2.703
 4495TIP3    H113491   4.548   0.519   2.622
 4495TIP3    H213492   4.525   0.497   2.770
 4496TIP3   OH213493   3.585   1.952   1.815
 4496TIP3    H113494   3.523   1.880   1.829
 4496TIP3    H213495   3.544   2.028   1.855
 4497TIP3   OH213496   4.363   0.108   1.765
 4497TIP3    H113497   4.360   0.149   1.852
 4497TIP3    H213498   4.455   0.087   1.751
 4498TIP3   OH213499   5.078   3.829   0.692
 4498TIP3    H113500   5.099   3.834   0.785
 4498TIP3    H213501   4.983   3.812   0.690
 4499TIP3   OH213502   5.527   0.800   0.121
 4499TIP3    H113503   5.536   0.725   0.181
 4499TIP3    H213504   5.437   0.829   0.132
 4500TIP3   OH213505   0.738   1.502   1.413
 4500TIP3    H113506   0.832   1.507   1.395
 4500TIP3    H213507   0.697   1.539   1.335
 4501TIP3   OH213508   2.999   2.192   0.018
 4501TIP3    H113509   3.047   2.270  -0.010
 4501TIP3    H213510   3.066   2.125   0.030
 4502TIP3   OH213511   5.184   5.572   4.727
 4502TIP3    H113512   5.129   5.600   4.799
 4502TIP3    H213513   5.125   5.571   4.651
 4503TIP3   OH213514   5.911   2.218   1.389
 4503TIP3    H113515   5.934   2.154   1.456
 4503TIP3    H213516   5.872   2.291   1.438
 4504TIP3   OH213517   0.186   3.322   5.192
 4504TIP3    H113518   0.250   3.393   5.192
 4504TIP3    H213519   0.206   3.272   5.113
 4505TIP3   OH213520   1.391   4.750   3.675
 4505TIP3    H113521   1.378   4.656   3.667
 4505TIP3    H213522   1.314   4.780   3.724
 4506TIP3   OH213523   3.232   1.333   4.780
 4506TIP3    H113524   3.211   1.427   4.784
 4506TIP3    H213525   3.153   1.293   4.743
 4507TIP3   OH213526   5.609   3.768   3.466
 4507TIP3    H113527   5.614   3.801   3.377
 4507TIP3    H213528   5.590   3.845   3.519
 4508TIP3   OH213529   3.696   0.261   4.448
 4508TIP3    H113530   3.709   0.351   4.479
 4508TIP3    H213531   3.750   0.255   4.369
 4509TIP3   OH213532   2.127   5.872   1.554
 4509TIP3    H113533   2.189   5.799   1.558
 4509TIP3    H213534   2.131   5.912   1.641
 4510TIP3   OH213535   2.608   4.189   3.641
 4510TIP3    H113536   2.523   4.214   3.676
 4510TIP3    H213537   2.667   4.260   3.667
 4511TIP3   OH213538   5.792   1.760   5.003
 4511TIP3    H113539   5.758   1.682   5.045
 4511TIP3    H213540   5.809   1.821   5.075
 4512TIP3   OH213541   5.890   4.061   3.687
 4512TIP3    H113542   5.926   4.077   3.600
 4512TIP3    H213543   5.966   4.035   3.740
 4513TIP3   OH213544   1.988   3.089   1.275
 4513TIP3    H113545   1.938   3.011   1.297
 4513TIP3    H213546   1.975   3.100   1.180
 4514TIP3   OH213547   0.527   5.850   3.835
 4514TIP3    H113548   0.517   5.891   3.749
 4514TIP3    H213549   0.523   5.923   3.897
 4515TIP3   OH213550   0.635   2.083   2.713
 4515TIP3    H113551   0.723   2.046   2.718
 4515TIP3    H213552   0.624   2.130   2.795
 4516TIP3   OH213553   4.159   3.048   1.045
 4516TIP3    H113554   4.084   3.071   1.099
 4516TIP3    H213555   4.171   3.123   0.986
 4517TIP3   OH213556   3.906   2.734   2.843
 4517TIP3    H113557   3.923   2.661   2.783
 4517TIP3    H213558   3.960   2.715   2.920
 4518TIP3   OH213559   4.824   5.250   4.306
 4518TIP3    H113560   4.870   5.239   4.390
 4518TIP3    H213561   4.895   5.252   4.241
 4519TIP3   OH213562   4.253   4.851   4.269
 4519TIP3    H113563   4.221   4.937   4.292
 4519TIP3    H213564   4.202   4.791   4.323
 4520TIP3   OH213565   3.696   5.260   1.403
 4520TIP3    H113566   3.651   5.179   1.381
 4520TIP3    H213567   3.696   5.262   1.499
 4521TIP3   OH213568   5.920   3.487   4.522
 4521TIP3    H113569   5.967   3.406   4.503
 4521TIP3    H213570   5.863   3.465   4.595
 4522TIP3   OH213571   0.927   5.010   4.735
 4522TIP3    H113572   1.002   5.068   4.755
 4522TIP3    H213573   0.963   4.945   4.675
 4523TIP3   OH213574   5.620   2.690   0.488
 4523TIP3    H113575   5.528   2.667   0.498
 4523TIP3    H213576   5.637   2.683   0.394
 4524TIP3   OH213577   3.724   2.783   0.111
 4524TIP3    H113578   3.788   2.782   0.182
 4524TIP3    H213579   3.676   2.700   0.122
 4525TIP3   OH213580   2.686   0.749   0.165
 4525TIP3    H113581   2.725   0.756   0.077
 4525TIP3    H213582   2.636   0.830   0.175
 4526TIP3   OH213583   1.121   2.971   0.070
 4526TIP3    H113584   1.097   2.927  -0.011
 4526TIP3    H213585   1.039   3.008   0.103
 4527TIP3   OH213586   1.783   2.266   4.312
 4527TIP3    H113587   1.773   2.174   4.337
 4527TIP3    H213588   1.831   2.306   4.385
 4528TIP3   OH213589   4.293   4.366   4.638
 4528TIP3    H113590   4.307   4.273   4.620
 4528TIP3    H213591   4.227   4.393   4.574
 4529TIP3   OH213592   3.942   0.313   1.247
 4529TIP3    H113593   3.958   0.369   1.171
 4529TIP3    H213594   4.029   0.283   1.273
 4530TIP3   OH213595   2.656   1.059   5.123
 4530TIP3    H113596   2.665   1.141   5.173
 4530TIP3    H213597   2.563   1.057   5.098
 4531TIP3   OH213598   4.874   4.290   0.094
 4531TIP3    H113599   4.945   4.233   0.122
 4531TIP3    H213600   4.882   4.367   0.150
 4532TIP3   OH213601   6.015   4.434   1.869
 4532TIP3    H113602   6.072   4.472   1.802
 4532TIP3    H213603   5.998   4.506   1.930
 4533TIP3   OH213604   2.091   0.664   3.988
 4533TIP3    H113605   2.044   0.707   3.917
 4533TIP3    H213606   2.107   0.733   4.052
 4534TIP3   OH213607   2.506   2.543   3.211
 4534TIP3    H113608   2.514   2.621   3.156
 4534TIP3    H213609   2.574   2.555   3.278
 4535TIP3   OH213610   4.431   2.740   3.317
 4535TIP3    H113611   4.348   2.776   3.285
 4535TIP3    H213612   4.425   2.747   3.412
 4536TIP3   OH213613   2.688   0.756   3.090
 4536TIP3    H113614   2.738   0.832   3.121
 4536TIP3    H213615   2.666   0.777   2.999
 4537TIP3   OH213616   6.090   5.684   1.101
 4537TIP3    H113617   6.082   5.645   1.188
 4537TIP3    H213618   6.003   5.716   1.081
 4538TIP3   OH213619   2.292   5.538   0.260
 4538TIP3    H113620   2.306   5.589   0.340
 4538TIP3    H213621   2.336   5.455   0.277
 4539TIP3   OH213622   3.174   2.394   0.984
 4539TIP3    H113623   3.249   2.360   1.033
 4539TIP3    H213624   3.103   2.333   1.003
 4540TIP3   OH213625   0.685   5.509   1.297
 4540TIP3    H113626   0.684   5.596   1.338
 4540TIP3    H213627   0.748   5.459   1.348
 4541TIP3   OH213628   3.862   1.774   0.661
 4541TIP3    H113629   3.789   1.833   0.676
 4541TIP3    H213630   3.828   1.709   0.599
 4542TIP3   OH213631   0.772   4.042   3.196
 4542TIP3    H113632   0.846   3.988   3.167
 4542TIP3    H213633   0.746   4.092   3.118
 4543TIP3   OH213634   2.833   3.587   3.636
 4543TIP3    H113635   2.895   3.554   3.572
 4543TIP3    H213636   2.812   3.675   3.606
 4544TIP3   OH213637   5.541   1.392   2.769
 4544TIP3    H113638   5.569   1.308   2.735
 4544TIP3    H213639   5.542   1.381   2.864
 4545TIP3   OH213640   4.256   5.804   2.145
 4545TIP3    H113641   4.204   5.725   2.138
 4545TIP3    H213642   4.249   5.846   2.059
 4546TIP3   OH213643   1.091   0.559   4.904
 4546TIP3    H113644   1.066   0.490   4.966
 4546TIP3    H213645   1.151   0.515   4.844
 4547TIP3   OH213646   2.978   1.588   3.968
 4547TIP3    H113647   3.071   1.585   3.988
 4547TIP3    H213648   2.968   1.663   3.910
 4548TIP3   OH213649   5.352   0.603   4.137
 4548TIP3    H113650   5.257   0.600   4.141
 4548TIP3    H213651   5.380   0.626   4.226
 4549TIP3   OH213652   2.894   3.812   2.923
 4549TIP3    H113653   2.843   3.875   2.871
 4549TIP3    H213654   2.974   3.860   2.945
 4550TIP3   OH213655   4.255   2.898   4.134
 4550TIP3    H113656   4.275   2.938   4.218
 4550TIP3    H213657   4.241   2.806   4.153
 4551TIP3   OH213658   3.764   5.856   1.463
 4551TIP3    H113659   3.695   5.804   1.422
 4551TIP3    H213660   3.753   5.841   1.557
 4552TIP3   OH213661   6.200   1.801   0.547
 4552TIP3    H113662   6.157   1.717   0.529
 4552TIP3    H213663   6.227   1.833   0.461
 4553TIP3   OH213664   4.606   1.545   2.544
 4553TIP3    H113665   4.552   1.486   2.491
 4553TIP3    H213666   4.694   1.535   2.508
 4554TIP3   OH213667   0.088   4.106   1.782
 4554TIP3    H113668   0.011   4.051   1.766
 4554TIP3    H213669   0.140   4.098   1.702
 4555TIP3   OH213670   0.692   5.832   4.762
 4555TIP3    H113671   0.653   5.881   4.835
 4555TIP3    H213672   0.774   5.877   4.745
 4556TIP3   OH213673   0.636   4.319   0.176
 4556TIP3    H113674   0.623   4.326   0.270
 4556TIP3    H213675   0.594   4.397   0.140
 4557TIP3   OH213676   4.182   5.561   0.961
 4557TIP3    H113677   4.181   5.552   1.056
 4557TIP3    H213678   4.251   5.625   0.943
 4558TIP3   OH213679   4.687   2.759   1.741
 4558TIP3    H113680   4.599   2.729   1.717
 4558TIP3    H213681   4.735   2.679   1.759
 4559TIP3   OH213682   1.849   5.190   1.638
 4559TIP3    H113683   1.814   5.183   1.549
 4559TIP3    H213684   1.774   5.217   1.691
 4560TIP3   OH213685   4.672   0.385   1.730
 4560TIP3    H113686   4.633   0.424   1.651
 4560TIP3    H213687   4.613   0.411   1.800
 4561TIP3   OH213688   0.563   1.207   3.262
 4561TIP3    H113689   0.483   1.252   3.237
 4561TIP3    H213690   0.605   1.265   3.325
 4562TIP3   OH213691   3.935   0.332   2.891
 4562TIP3    H113692   4.019   0.349   2.933
 4562TIP3    H213693   3.878   0.301   2.962
 4563TIP3   OH213694   2.097   4.519   2.783
 4563TIP3    H113695   2.091   4.552   2.872
 4563TIP3    H213696   2.055   4.433   2.786
 4564TIP3   OH213697   3.819   4.595   1.874
 4564TIP3    H113698   3.724   4.603   1.872
 4564TIP3    H213699   3.844   4.579   1.783
 4565TIP3   OH213700   4.707   1.353   1.009
 4565TIP3    H113701   4.783   1.353   1.067
 4565TIP3    H213702   4.633   1.367   1.067
 4566TIP3   OH213703   0.728   1.637   3.528
 4566TIP3    H113704   0.682   1.668   3.450
 4566TIP3    H213705   0.749   1.546   3.508
 4567TIP3   OH213706   4.715   2.612   0.776
 4567TIP3    H113707   4.761   2.623   0.859
 4567TIP3    H213708   4.785   2.610   0.710
 4568TIP3   OH213709   5.588   1.769   1.306
 4568TIP3    H113710   5.493   1.783   1.309
 4568TIP3    H213711   5.616   1.816   1.227
 4569TIP3   OH213712   1.352   0.966   5.138
 4569TIP3    H113713   1.410   1.041   5.147
 4569TIP3    H213714   1.401   0.904   5.083
 4570TIP3   OH213715   0.938   5.911   4.615
 4570TIP3    H113716   0.950   5.983   4.553
 4570TIP3    H213717   1.022   5.905   4.660
 4571TIP3   OH213718   2.520   1.182   2.964
 4571TIP3    H113719   2.602   1.201   3.009
 4571TIP3    H213720   2.473   1.265   2.964
 4572TIP3   OH213721   5.874   5.434   1.835
 4572TIP3    H113722   5.940   5.415   1.901
 4572TIP3    H213723   5.872   5.530   1.830
 4573TIP3   OH213724   5.682   3.078   4.656
 4573TIP3    H113725   5.699   3.096   4.564
 4573TIP3    H213726   5.725   2.993   4.672
 4574TIP3   OH213727   6.224   2.951   2.521
 4574TIP3    H113728   6.294   2.982   2.578
 4574TIP3    H213729   6.264   2.881   2.469
 4575TIP3   OH213730   2.428   5.343   2.910
 4575TIP3    H113731   2.357   5.368   2.969
 4575TIP3    H213732   2.405   5.255   2.881
 4576TIP3   OH213733   3.761   5.744   1.975
 4576TIP3    H113734   3.742   5.788   1.892
 4576TIP3    H213735   3.677   5.743   2.021
 4577TIP3   OH213736   1.214   5.138   0.105
 4577TIP3    H113737   1.187   5.165   0.017
 4577TIP3    H213738   1.212   5.218   0.156
 4578TIP3   OH213739   1.191   4.692   3.206
 4578TIP3    H113740   1.174   4.787   3.207
 4578TIP3    H213741   1.154   4.663   3.123
 4579TIP3   OH213742   1.592   4.566   4.462
 4579TIP3    H113743   1.608   4.489   4.516
 4579TIP3    H213744   1.579   4.532   4.374
 4580TIP3   OH213745   5.738   5.166   0.042
 4580TIP3    H113746   5.747   5.223  -0.035
 4580TIP3    H213747   5.809   5.193   0.100
 4581TIP3   OH213748   1.170   1.056   4.078
 4581TIP3    H113749   1.255   1.016   4.095
 4581TIP3    H213750   1.156   1.114   4.153
 4582TIP3   OH213751   0.568   4.876   0.843
 4582TIP3    H113752   0.550   4.853   0.934
 4582TIP3    H213753   0.656   4.913   0.844
 4583TIP3   OH213754   1.341   4.288   3.921
 4583TIP3    H113755   1.270   4.347   3.947
 4583TIP3    H213756   1.397   4.281   3.998
 4584TIP3   OH213757   1.616   1.255   2.079
 4584TIP3    H113758   1.528   1.217   2.086
 4584TIP3    H213759   1.605   1.329   2.019
 4585TIP3   OH213760   4.651   2.697   1.374
 4585TIP3    H113761   4.634   2.701   1.468
 4585TIP3    H213762   4.721   2.760   1.360
 4586TIP3   OH213763   1.189   4.022   4.989
 4586TIP3    H113764   1.220   3.932   4.978
 4586TIP3    H213765   1.269   4.074   5.000
 4587TIP3   OH213766   5.960   2.647   0.841
 4587TIP3    H113767   5.867   2.624   0.847
 4587TIP3    H213768   5.971   2.717   0.906
 4588TIP3   OH213769   4.427   0.311   5.110
 4588TIP3    H113770   4.459   0.401   5.111
 4588TIP3    H213771   4.397   0.297   5.020
 4589TIP3   OH213772   6.149   2.111   3.833
 4589TIP3    H113773   6.184   2.125   3.745
 4589TIP3    H213774   6.104   2.027   3.828
 4590TIP3   OH213775   5.503   3.720   1.632
 4590TIP3    H113776   5.459   3.765   1.704
 4590TIP3    H213777   5.533   3.637   1.670
 4591TIP3   OH213778   6.086   5.842   4.230
 4591TIP3    H113779   6.170   5.839   4.184
 4591TIP3    H213780   6.054   5.931   4.217
 4592TIP3   OH213781   6.100   5.343   4.355
 4592TIP3    H113782   6.137   5.396   4.285
 4592TIP3    H213783   6.170   5.338   4.421
 4593TIP3   OH213784   3.814   0.326   4.052
 4593TIP3    H113785   3.728   0.296   4.080
 4593TIP3    H213786   3.874   0.290   4.117
 4594TIP3   OH213787   4.188   5.710   1.229
 4594TIP3    H113788   4.101   5.718   1.268
 4594TIP3    H213789   4.213   5.800   1.206
 4595TIP3   OH213790   0.704   4.953   3.850
 4595TIP3    H113791   0.699   5.006   3.770
 4595TIP3    H213792   0.733   4.867   3.819
 4596TIP3   OH213793   0.515   5.207   1.059
 4596TIP3    H113794   0.454   5.139   1.032
 4596TIP3    H213795   0.465   5.288   1.053
 4597TIP3   OH213796   4.511   1.728   3.000
 4597TIP3    H113797   4.464   1.809   3.016
 4597TIP3    H213798   4.496   1.709   2.907
 4598TIP3   OH213799   4.520   5.924   1.987
 4598TIP3    H113800   4.549   5.833   1.979
 4598TIP3    H213801   4.595   5.970   2.024
 4599TIP3   OH213802   2.978   5.578   2.016
 4599TIP3    H113803   2.960   5.568   2.109
 4599TIP3    H213804   2.972   5.672   2.000
 4600TIP3   OH213805   3.101   2.333   0.601
 4600TIP3    H113806   3.056   2.412   0.571
 4600TIP3    H213807   3.133   2.356   0.688
 4601TIP3   OH213808   3.337   0.715   4.327
 4601TIP3    H113809   3.379   0.632   4.350
 4601TIP3    H213810   3.285   0.695   4.250
 4602TIP3   OH213811   4.147   5.479   4.079
 4602TIP3    H113812   4.094   5.535   4.023
 4602TIP3    H213813   4.235   5.517   4.073
 4603TIP3   OH213814   1.046   4.285   2.203
 4603TIP3    H113815   1.066   4.195   2.230
 4603TIP3    H213816   0.984   4.275   2.131
 4604TIP3   OH213817   4.799   0.728   0.622
 4604TIP3    H113818   4.727   0.744   0.683
 4604TIP3    H213819   4.805   0.633   0.615
 4605TIP3   OH213820   5.582   5.488   4.892
 4605TIP3    H113821   5.566   5.565   4.947
 4605TIP3    H213822   5.647   5.437   4.941
 4606TIP3   OH213823   5.195   5.936   2.791
 4606TIP3    H113824   5.250   5.858   2.785
 4606TIP3    H213825   5.254   6.008   2.772
 4607TIP3   OH213826   6.013   3.919   1.727
 4607TIP3    H113827   5.933   3.866   1.730
 4607TIP3    H213828   5.998   3.980   1.655
 4608TIP3   OH213829   1.765   0.960   4.312
 4608TIP3    H113830   1.765   1.039   4.365
 4608TIP3    H213831   1.856   0.950   4.283
 4609TIP3   OH213832   1.923   0.192   3.877
 4609TIP3    H113833   1.917   0.271   3.823
 4609TIP3    H213834   1.985   0.136   3.830
 4610TIP3   OH213835   4.977   4.605   4.457
 4610TIP3    H113836   4.938   4.683   4.416
 4610TIP3    H213837   4.911   4.537   4.444
 4611TIP3   OH213838   0.400   1.547   3.095
 4611TIP3    H113839   0.314   1.589   3.093
 4611TIP3    H213840   0.390   1.475   3.157
 4612TIP3   OH213841   2.465   5.037   0.497
 4612TIP3    H113842   2.491   4.977   0.427
 4612TIP3    H213843   2.384   5.001   0.532
 4613TIP3   OH213844   3.420   0.216   3.442
 4613TIP3    H113845   3.466   0.298   3.429
 4613TIP3    H213846   3.329   0.241   3.459
 4614TIP3   OH213847   1.879   5.004   4.460
 4614TIP3    H113848   1.849   4.913   4.460
 4614TIP3    H213849   1.933   5.011   4.381
 4615TIP3   OH213850   1.260   4.451   2.174
 4615TIP3    H113851   1.232   4.542   2.182
 4615TIP3    H213852   1.180   4.402   2.157
 4616TIP3   OH213853   1.446   1.500   0.064
 4616TIP3    H113854   1.401   1.425   0.024
 4616TIP3    H213855   1.476   1.467   0.148
 4617TIP3   OH213856   3.422   2.552   4.050
 4617TIP3    H113857   3.411   2.604   4.129
 4617TIP3    H213858   3.444   2.464   4.081
 4618TIP3   OH213859   3.973   4.462   0.439
 4618TIP3    H113860   3.965   4.528   0.370
 4618TIP3    H213861   3.906   4.485   0.503
 4619TIP3   OH213862   2.791   1.732   2.503
 4619TIP3    H113863   2.812   1.648   2.545
 4619TIP3    H213864   2.816   1.719   2.412
 4620TIP3   OH213865   6.090   3.353   4.790
 4620TIP3    H113866   6.073   3.260   4.779
 4620TIP3    H213867   6.012   3.396   4.753
 4621TIP3   OH213868   1.795   3.593   4.741
 4621TIP3    H113869   1.875   3.581   4.690
 4621TIP3    H213870   1.820   3.572   4.831
 4622TIP3   OH213871   2.944   0.371   4.670
 4622TIP3    H113872   3.036   0.344   4.677
 4622TIP3    H213873   2.947   0.450   4.616
 4623TIP3   OH213874   4.191   5.077   3.652
 4623TIP3    H113875   4.255   5.028   3.600
 4623TIP3    H213876   4.142   5.009   3.699
 4624TIP3   OH213877   5.202   4.580   1.506
 4624TIP3    H113878   5.280   4.609   1.553
 4624TIP3    H213879   5.227   4.583   1.414
 4625TIP3   OH213880   2.142   4.470   2.465
 4625TIP3    H113881   2.167   4.378   2.453
 4625TIP3    H213882   2.091   4.491   2.387
 4626TIP3   OH213883   6.219   4.522   3.408
 4626TIP3    H113884   6.165   4.600   3.390
 4626TIP3    H213885   6.305   4.544   3.371
 4627TIP3   OH213886   5.038   2.738   1.404
 4627TIP3    H113887   5.007   2.656   1.441
 4627TIP3    H213888   5.134   2.734   1.412
 4628TIP3   OH213889   3.951   1.052   1.179
 4628TIP3    H113890   3.934   0.993   1.253
 4628TIP3    H213891   3.867   1.058   1.133
 4629TIP3   OH213892   2.234   5.012   1.344
 4629TIP3    H113893   2.278   4.930   1.367
 4629TIP3    H213894   2.205   4.999   1.254
 4630TIP3   OH213895   5.572   3.180   0.950
 4630TIP3    H113896   5.500   3.173   0.887
 4630TIP3    H213897   5.645   3.215   0.899
 4631TIP3   OH213898   1.694   0.501   4.587
 4631TIP3    H113899   1.615   0.508   4.641
 4631TIP3    H213900   1.748   0.437   4.633
 4632TIP3   OH213901   5.559   1.362   0.183
 4632TIP3    H113902   5.489   1.426   0.167
 4632TIP3    H213903   5.525   1.281   0.146
 4633TIP3   OH213904   0.925   0.907   0.607
 4633TIP3    H113905   0.929   0.877   0.697
 4633TIP3    H213906   0.934   0.827   0.555
 4634TIP3   OH213907   2.382   4.021   0.527
 4634TIP3    H113908   2.323   4.095   0.533
 4634TIP3    H213909   2.388   4.004   0.433
 4635TIP3   OH213910   0.097   2.331   0.372
 4635TIP3    H113911   0.045   2.253   0.353
 4635TIP3    H213912   0.088   2.343   0.467
 4636TIP3   OH213913   4.620   4.660   2.817
 4636TIP3    H113914   4.563   4.699   2.882
 4636TIP3    H213915   4.577   4.578   2.794
 4637TIP3   OH213916   4.059   0.402   3.982
 4637TIP3    H113917   3.967   0.374   3.982
 4637TIP3    H213918   4.066   0.461   3.907
 4638TIP3   OH213919   0.317   4.963   3.092
 4638TIP3    H113920   0.393   4.962   3.033
 4638TIP3    H213921   0.352   4.993   3.176
 4639TIP3   OH213922   2.704   3.621   0.457
 4639TIP3    H113923   2.767   3.680   0.416
 4639TIP3    H213924   2.758   3.557   0.503
 4640TIP3   OH213925   5.763   2.790   2.497
 4640TIP3    H113926   5.817   2.800   2.419
 4640TIP3    H213927   5.803   2.850   2.561
 4641TIP3   OH213928   1.653   1.519   1.245
 4641TIP3    H113929   1.588   1.584   1.217
 4641TIP3    H213930   1.648   1.451   1.178
 4642TIP3   OH213931   3.888   4.031   4.536
 4642TIP3    H113932   3.885   4.121   4.504
 4642TIP3    H213933   3.850   4.035   4.624
 4643TIP3   OH213934   5.718   3.149   2.004
 4643TIP3    H113935   5.795   3.205   2.013
 4643TIP3    H213936   5.740   3.071   2.055
 4644TIP3   OH213937   3.992   0.142   3.299
 4644TIP3    H113938   3.978   0.174   3.388
 4644TIP3    H213939   3.907   0.152   3.256
 4645TIP3   OH213940   2.288   4.199   2.783
 4645TIP3    H113941   2.311   4.238   2.699
 4645TIP3    H213942   2.358   4.225   2.842
 4646TIP3   OH213943   3.295   2.402   1.627
 4646TIP3    H113944   3.228   2.355   1.578
 4646TIP3    H213945   3.290   2.366   1.716
 4647TIP3   OH213946   2.729   2.702   0.546
 4647TIP3    H113947   2.645   2.670   0.579
 4647TIP3    H213948   2.793   2.637   0.578
 4648TIP3   OH213949   1.222   3.849   3.393
 4648TIP3    H113950   1.274   3.770   3.374
 4648TIP3    H213951   1.145   3.816   3.440
 4649TIP3   OH213952   0.844   1.171   4.413
 4649TIP3    H113953   0.772   1.115   4.381
 4649TIP3    H213954   0.805   1.258   4.420
 4650TIP3   OH213955   0.599   3.866   1.041
 4650TIP3    H113956   0.657   3.917   1.097
 4650TIP3    H213957   0.653   3.794   1.008
 4651TIP3   OH213958   0.212   4.971   3.526
 4651TIP3    H113959   0.237   4.923   3.605
 4651TIP3    H213960   0.127   4.935   3.502
 4652TIP3   OH213961   0.437   1.933   1.294
 4652TIP3    H113962   0.361   1.953   1.238
 4652TIP3    H213963   0.508   1.916   1.232
 4653TIP3   OH213964   5.737   4.126   1.215
 4653TIP3    H113965   5.677   4.177   1.160
 4653TIP3    H213966   5.773   4.190   1.277
 4654TIP3   OH213967   3.575   1.725   3.363
 4654TIP3    H113968   3.536   1.661   3.304
 4654TIP3    H213969   3.661   1.744   3.326
 4655TIP3   OH213970   4.603   0.077   4.664
 4655TIP3    H113971   4.586   0.166   4.634
 4655TIP3    H213972   4.612   0.086   4.759
 4656TIP3   OH213973   3.501   0.286   3.076
 4656TIP3    H113974   3.453   0.210   3.109
 4656TIP3    H213975   3.447   0.361   3.101
 4657TIP3   OH213976   3.225   1.283   2.455
 4657TIP3    H113977   3.286   1.212   2.474
 4657TIP3    H213978   3.149   1.239   2.416
 4658TIP3   OH213979   5.290   4.302   2.605
 4658TIP3    H113980   5.253   4.305   2.516
 4658TIP3    H213981   5.356   4.233   2.601
 4659TIP3   OH213982   1.175   5.443   1.387
 4659TIP3    H113983   1.229   5.384   1.336
 4659TIP3    H213984   1.204   5.531   1.361
 4660TIP3   OH213985   1.447   5.808   2.785
 4660TIP3    H113986   1.379   5.824   2.720
 4660TIP3    H213987   1.415   5.850   2.865
 4661TIP3   OH213988   4.227   5.023   1.681
 4661TIP3    H113989   4.249   5.111   1.711
 4661TIP3    H213990   4.148   4.999   1.730
 4662TIP3   OH213991   2.582   4.837   3.785
 4662TIP3    H113992   2.674   4.847   3.758
 4662TIP3    H213993   2.561   4.919   3.829
 4663TIP3   OH213994   2.088   5.333   1.641
 4663TIP3    H113995   2.003   5.290   1.645
 4663TIP3    H213996   2.133   5.306   1.721
 4664TIP3   OH213997   6.220   5.053   4.059
 4664TIP3    H113998   6.207   5.104   3.979
 4664TIP3    H213999   6.277   4.981   4.032
 4665TIP3   OH214000   4.896   1.906   1.279
 4665TIP3    H114001   4.970   1.938   1.227
 4665TIP3    H214002   4.885   1.973   1.347
 4666TIP3   OH214003   2.640   4.450   4.868
 4666TIP3    H114004   2.555   4.432   4.829
 4666TIP3    H214005   2.662   4.538   4.837
 4667TIP3   OH214006   1.963   4.434   1.529
 4667TIP3    H114007   1.985   4.459   1.619
 4667TIP3    H214008   1.874   4.467   1.516
 4668TIP3   OH214009   5.664   1.923   3.565
 4668TIP3    H114010   5.671   1.859   3.635
 4668TIP3    H214011   5.745   1.915   3.516
 4669TIP3   OH214012   2.337   0.025   2.674
 4669TIP3    H114013   2.357   0.015   2.581
 4669TIP3    H214014   2.244   0.003   2.682
 4670TIP3   OH214015   6.217   2.177   0.614
 4670TIP3    H114016   6.267   2.101   0.644
 4670TIP3    H214017   6.147   2.139   0.561
 4671TIP3   OH214018   2.940   2.429   4.794
 4671TIP3    H114019   2.987   2.512   4.795
 4671TIP3    H214020   2.866   2.443   4.854
 4672TIP3   OH214021   5.088   5.030   3.994
 4672TIP3    H114022   5.161   5.082   3.959
 4672TIP3    H214023   5.054   4.984   3.918
 4673TIP3   OH214024   3.739   2.733   0.731
 4673TIP3    H114025   3.828   2.700   0.724
 4673TIP3    H214026   3.685   2.654   0.741
 4674TIP3   OH214027   5.487   4.749   2.216
 4674TIP3    H114028   5.515   4.760   2.125
 4674TIP3    H214029   5.473   4.655   2.226
 4675TIP3   OH214030   1.233   2.237   2.108
 4675TIP3    H114031   1.267   2.299   2.173
 4675TIP3    H214032   1.298   2.168   2.104
 4676TIP3   OH214033   2.827   3.363   1.148
 4676TIP3    H114034   2.763   3.295   1.125
 4676TIP3    H214035   2.903   3.314   1.182
 4677TIP3   OH214036   0.966   3.981   4.832
 4677TIP3    H114037   1.044   4.014   4.876
 4677TIP3    H214038   0.995   3.902   4.787
 4678TIP3   OH214039   3.362   5.564   0.814
 4678TIP3    H114040   3.324   5.580   0.727
 4678TIP3    H214041   3.355   5.470   0.826
 4679TIP3   OH214042   3.182   1.092   4.093
 4679TIP3    H114043   3.216   1.017   4.045
 4679TIP3    H214044   3.208   1.077   4.184
 4680TIP3   OH214045   5.160   5.723   3.164
 4680TIP3    H114046   5.157   5.681   3.078
 4680TIP3    H214047   5.131   5.654   3.225
 4681TIP3   OH214048   5.053   3.534   4.493
 4681TIP3    H114049   5.021   3.582   4.570
 4681TIP3    H214050   5.067   3.602   4.427
 4682TIP3   OH214051   5.726   4.276   3.727
 4682TIP3    H114052   5.765   4.189   3.735
 4682TIP3    H214053   5.659   4.279   3.795
 4683TIP3   OH214054   5.509   1.313   1.783
 4683TIP3    H114055   5.439   1.265   1.739
 4683TIP3    H214056   5.554   1.359   1.712
 4684TIP3   OH214057   3.622   0.017   3.330
 4684TIP3    H114058   3.639  -0.008   3.421
 4684TIP3    H214059   3.575   0.100   3.337
 4685TIP3   OH214060   6.038   0.137   3.906
 4685TIP3    H114061   6.119   0.124   3.955
 4685TIP3    H214062   6.047   0.224   3.866
 4686TIP3   OH214063   5.937   4.793   2.996
 4686TIP3    H114064   5.913   4.862   3.059
 4686TIP3    H214065   5.864   4.731   3.000
 4687TIP3   OH214066   3.242   2.075   3.844
 4687TIP3    H114067   3.153   2.084   3.808
 4687TIP3    H214068   3.295   2.136   3.793
 4688TIP3   OH214069   6.192   1.865   4.154
 4688TIP3    H114070   6.147   1.947   4.173
 4688TIP3    H214071   6.170   1.808   4.228
 4689TIP3   OH214072   5.403   1.216   3.634
 4689TIP3    H114073   5.349   1.249   3.561
 4689TIP3    H214074   5.367   1.130   3.653
 4690TIP3   OH214075   0.813   1.595   1.715
 4690TIP3    H114076   0.746   1.586   1.782
 4690TIP3    H214077   0.850   1.507   1.707
 4691TIP3   OH214078   1.408   4.338   1.656
 4691TIP3    H114079   1.389   4.352   1.749
 4691TIP3    H214080   1.501   4.317   1.654
 4692TIP3   OH214081   2.228   5.709   2.676
 4692TIP3    H114082   2.303   5.650   2.682
 4692TIP3    H214083   2.197   5.717   2.766
 4693TIP3   OH214084   4.831   0.599   0.249
 4693TIP3    H114085   4.758   0.644   0.206
 4693TIP3    H214086   4.897   0.667   0.261
 4694TIP3   OH214087   4.224   3.261   3.800
 4694TIP3    H114088   4.275   3.188   3.765
 4694TIP3    H214089   4.235   3.255   3.895
 4695TIP3   OH214090   2.472   5.560   2.739
 4695TIP3    H114091   2.525   5.531   2.664
 4695TIP3    H214092   2.459   5.480   2.791
 4696TIP3   OH214093   6.104   0.339   0.888
 4696TIP3    H114094   6.047   0.410   0.856
 4696TIP3    H214095   6.043   0.271   0.917
 4697TIP3   OH214096   2.170   0.101   4.977
 4697TIP3    H114097   2.135   0.132   4.894
 4697TIP3    H214098   2.122   0.020   4.994
 4698TIP3   OH214099   5.300   4.031   3.898
 4698TIP3    H114100   5.277   3.990   3.815
 4698TIP3    H214101   5.372   4.090   3.876
 4699TIP3   OH214102   2.027   1.428   1.639
 4699TIP3    H114103   1.964   1.437   1.567
 4699TIP3    H214104   2.011   1.340   1.673
 4700TIP3   OH214105   5.652   3.475   4.258
 4700TIP3    H114106   5.583   3.432   4.310
 4700TIP3    H214107   5.733   3.431   4.284
 4701TIP3   OH214108   5.818   0.919   1.327
 4701TIP3    H114109   5.756   0.968   1.380
 4701TIP3    H214110   5.893   0.978   1.317
 4702TIP3   OH214111   0.019   1.873   4.475
 4702TIP3    H114112   0.094   1.864   4.417
 4702TIP3    H214113   0.001   1.967   4.477
 4703TIP3   OH214114   4.437   1.702   1.868
 4703TIP3    H114115   4.448   1.607   1.872
 4703TIP3    H214116   4.514   1.737   1.913
 4704TIP3   OH214117   0.249   3.008   4.854
 4704TIP3    H114118   0.195   3.085   4.869
 4704TIP3    H214119   0.231   2.983   4.763
 4705TIP3   OH214120   4.694   1.539   2.100
 4705TIP3    H114121   4.600   1.542   2.086
 4705TIP3    H214122   4.717   1.447   2.092
 4706TIP3   OH214123   5.948   2.066   2.546
 4706TIP3    H114124   5.903   2.074   2.462
 4706TIP3    H214125   5.981   1.976   2.546
 4707TIP3   OH214126   2.904   0.710   2.781
 4707TIP3    H114127   2.956   0.728   2.859
 4707TIP3    H214128   2.930   0.621   2.755
 4708TIP3   OH214129   6.065   0.854   2.226
 4708TIP3    H114130   6.000   0.792   2.194
 4708TIP3    H214131   6.121   0.803   2.285
 4709TIP3   OH214132   1.978   0.628   4.249
 4709TIP3    H114133   2.020   0.609   4.165
 4709TIP3    H214134   1.976   0.723   4.254
 4710TIP3   OH214135   4.554   5.231   2.256
 4710TIP3    H114136   4.542   5.225   2.161
 4710TIP3    H214137   4.572   5.323   2.272
 4711TIP3   OH214138   3.457   0.163   5.173
 4711TIP3    H114139   3.388   0.106   5.208
 4711TIP3    H214140   3.538   0.121   5.201
 4712TIP3   OH214141   0.208   4.251   4.390
 4712TIP3    H114142   0.266   4.175   4.382
 4712TIP3    H214143   0.160   4.236   4.472
 4713TIP3   OH214144   2.623   4.913   0.028
 4713TIP3    H114145   2.586   4.966   0.099
 4713TIP3    H214146   2.553   4.853   0.004
 4714TIP3   OH214147   2.726   0.118   2.274
 4714TIP3    H114148   2.673   0.118   2.194
 4714TIP3    H214149   2.817   0.121   2.243
 4715TIP3   OH214150   4.905   5.834   1.570
 4715TIP3    H114151   4.900   5.846   1.665
 4715TIP3    H214152   4.947   5.914   1.538
 4716TIP3   OH214153   1.494   4.103   0.384
 4716TIP3    H114154   1.545   4.052   0.321
 4716TIP3    H214155   1.555   4.171   0.414
 4717TIP3   OH214156   5.720   2.204   3.635
 4717TIP3    H114157   5.626   2.220   3.643
 4717TIP3    H214158   5.735   2.125   3.687
 4718TIP3   OH214159   0.407   2.886   1.937
 4718TIP3    H114160   0.372   2.801   1.961
 4718TIP3    H214161   0.379   2.945   2.006
 4719TIP3   OH214162   2.014   4.100   1.163
 4719TIP3    H114163   1.947   4.108   1.095
 4719TIP3    H214164   1.967   4.118   1.245
 4720TIP3   OH214165   5.993   2.110   4.923
 4720TIP3    H114166   6.088   2.100   4.917
 4720TIP3    H214167   5.975   2.190   4.874
 4721TIP3   OH214168   3.660   1.482   3.837
 4721TIP3    H114169   3.675   1.548   3.770
 4721TIP3    H214170   3.714   1.407   3.810
 4722TIP3   OH214171   4.762   0.395   5.072
 4722TIP3    H114172   4.759   0.465   5.137
 4722TIP3    H214173   4.845   0.408   5.027
 4723TIP3   OH214174   4.346   5.619   1.771
 4723TIP3    H114175   4.421   5.560   1.761
 4723TIP3    H214176   4.280   5.584   1.711
 4724TIP3   OH214177   1.673   3.473   4.001
 4724TIP3    H114178   1.600   3.485   4.061
 4724TIP3    H214179   1.702   3.383   4.016
 4725TIP3   OH214180   4.548   3.006   3.483
 4725TIP3    H114181   4.581   2.916   3.477
 4725TIP3    H214182   4.587   3.051   3.409
 4726TIP3   OH214183   3.034   5.268   5.085
 4726TIP3    H114184   3.118   5.302   5.116
 4726TIP3    H214185   2.985   5.248   5.166
 4727TIP3   OH214186   4.797   4.984   3.474
 4727TIP3    H114187   4.890   4.983   3.495
 4727TIP3    H214188   4.788   5.053   3.408
 4728TIP3   OH214189   0.308   5.118   4.991
 4728TIP3    H114190   0.295   5.142   5.083
 4728TIP3    H214191   0.384   5.169   4.964
 4729TIP3   OH214192   2.107   1.181   1.026
 4729TIP3    H114193   2.108   1.087   1.008
 4729TIP3    H214194   2.057   1.219   0.954
 4730TIP3   OH214195   2.175   0.561   4.417
 4730TIP3    H114196   2.131   0.587   4.497
 4730TIP3    H214197   2.108   0.566   4.349
 4731TIP3   OH214198   3.577   1.136   2.750
 4731TIP3    H114199   3.572   1.209   2.811
 4731TIP3    H214200   3.525   1.163   2.675
 4732TIP3   OH214201   1.388   4.433   1.916
 4732TIP3    H114202   1.423   4.515   1.881
 4732TIP3    H214203   1.336   4.460   1.992
 4733TIP3   OH214204   5.820   1.632   1.044
 4733TIP3    H114205   5.840   1.546   1.083
 4733TIP3    H214206   5.725   1.637   1.045
 4734TIP3   OH214207   0.106   3.041   4.605
 4734TIP3    H114208   0.175   2.980   4.581
 4734TIP3    H214209   0.146   3.127   4.600
 4735TIP3   OH214210   3.185   3.429   3.647
 4735TIP3    H114211   3.248   3.369   3.688
 4735TIP3    H214212   3.193   3.510   3.698
 4736TIP3   OH214213   1.645   3.446   1.487
 4736TIP3    H114214   1.705   3.376   1.460
 4736TIP3    H214215   1.653   3.450   1.582
 4737TIP3   OH214216   3.993   2.918   0.553
 4737TIP3    H114217   4.012   3.010   0.572
 4737TIP3    H214218   4.077   2.873   0.563
 4738TIP3   OH214219   4.072   2.736   1.567
 4738TIP3    H114220   4.089   2.711   1.476
 4738TIP3    H214221   3.989   2.693   1.589
 4739TIP3   OH214222   3.362   5.143   1.952
 4739TIP3    H114223   3.451   5.175   1.968
 4739TIP3    H214224   3.325   5.134   2.040
 4740TIP3   OH214225   0.132   4.291   3.383
 4740TIP3    H114226   0.210   4.258   3.426
 4740TIP3    H214227   0.121   4.380   3.416
 4741TIP3   OH214228   1.681   3.268   2.131
 4741TIP3    H114229   1.685   3.190   2.075
 4741TIP3    H214230   1.618   3.245   2.200
 4742TIP3   OH214231   1.409   2.952   1.201
 4742TIP3    H114232   1.394   2.997   1.118
 4742TIP3    H214233   1.337   2.982   1.257
 4743TIP3   OH214234   3.310   2.467   4.940
 4743TIP3    H114235   3.388   2.451   4.993
 4743TIP3    H214236   3.242   2.412   4.980
 4744TIP3   OH214237   5.864   2.490   5.144
 4744TIP3    H114238   5.833   2.411   5.099
 4744TIP3    H214239   5.902   2.457   5.226
 4745TIP3   OH214240   5.921   5.787   0.696
 4745TIP3    H114241   5.917   5.883   0.700
 4745TIP3    H214242   5.948   5.768   0.606
 4746TIP3   OH214243   0.721   4.084   2.349
 4746TIP3    H114244   0.632   4.100   2.381
 4746TIP3    H214245   0.767   4.167   2.362
 4747TIP3   OH214246   2.445   5.613   4.866
 4747TIP3    H114247   2.453   5.684   4.802
 4747TIP3    H214248   2.535   5.584   4.881
 4748TIP3   OH214249   4.481   4.756   2.353
 4748TIP3    H114250   4.502   4.825   2.416
 4748TIP3    H214251   4.408   4.792   2.303
 4749TIP3   OH214252   0.357   0.619   3.959
 4749TIP3    H114253   0.293   0.622   3.888
 4749TIP3    H214254   0.405   0.537   3.944
 4750TIP3   OH214255   5.085   4.716   4.688
 4750TIP3    H114256   5.165   4.665   4.697
 4750TIP3    H214257   5.030   4.665   4.629
 4751TIP3   OH214258   2.690   1.795   5.095
 4751TIP3    H114259   2.643   1.871   5.130
 4751TIP3    H214260   2.704   1.816   5.003
 4752TIP3   OH214261   1.035   5.186   0.582
 4752TIP3    H114262   1.045   5.280   0.566
 4752TIP3    H214263   0.944   5.176   0.610
 4753TIP3   OH214264   5.441   1.358   1.292
 4753TIP3    H114265   5.417   1.267   1.304
 4753TIP3    H214266   5.386   1.406   1.353
 4754TIP3   OH214267   2.536   0.899   3.438
 4754TIP3    H114268   2.583   0.968   3.392
 4754TIP3    H214269   2.534   0.826   3.376
 4755TIP3   OH214270   1.976   3.650   3.417
 4755TIP3    H114271   1.946   3.728   3.465
 4755TIP3    H214272   2.057   3.625   3.462
 4756TIP3   OH214273   2.184   0.219   3.175
 4756TIP3    H114274   2.222   0.205   3.088
 4756TIP3    H214275   2.143   0.136   3.197
 4757TIP3   OH214276   2.396   2.962   2.861
 4757TIP3    H114277   2.420   3.019   2.788
 4757TIP3    H214278   2.309   2.990   2.887
 4758TIP3   OH214279   3.739   0.595   4.109
 4758TIP3    H114280   3.743   0.511   4.062
 4758TIP3    H214281   3.654   0.632   4.083
 4759TIP3   OH214282   5.148   5.044   0.794
 4759TIP3    H114283   5.147   5.067   0.887
 4759TIP3    H214284   5.200   5.112   0.753
 4760TIP3   OH214285   5.111   5.622   4.460
 4760TIP3    H114286   5.093   5.715   4.473
 4760TIP3    H214287   5.048   5.593   4.395
 4761TIP3   OH214288   5.052   5.528   3.332
 4761TIP3    H114289   5.093   5.442   3.340
 4761TIP3    H214290   5.060   5.567   3.419
 4762TIP3   OH214291   1.617  -0.007   1.798
 4762TIP3    H114292   1.695   0.042   1.770
 4762TIP3    H214293   1.554   0.061   1.821
 4763TIP3   OH214294   3.250   5.689   1.974
 4763TIP3    H114295   3.295   5.645   2.046
 4763TIP3    H214296   3.171   5.637   1.959
 4764TIP3   OH214297   2.782   1.991   2.061
 4764TIP3    H114298   2.723   2.064   2.044
 4764TIP3    H214299   2.725   1.914   2.059
 4765TIP3   OH214300   5.425   0.932   3.332
 4765TIP3    H114301   5.512   0.971   3.326
 4765TIP3    H214302   5.431   0.871   3.406
 4766TIP3   OH214303   3.650   3.836   4.982
 4766TIP3    H114304   3.594   3.824   4.906
 4766TIP3    H214305   3.680   3.747   5.004
 4767TIP3   OH214306   6.015   0.286   0.192
 4767TIP3    H114307   5.928   0.305   0.159
 4767TIP3    H214308   6.025   0.342   0.269
 4768TIP3   OH214309   2.246   1.322   1.235
 4768TIP3    H114310   2.246   1.418   1.241
 4768TIP3    H214311   2.206   1.304   1.150
 4769TIP3   OH214312   3.278   4.295   1.718
 4769TIP3    H114313   3.206   4.358   1.712
 4769TIP3    H214314   3.257   4.227   1.654
 4770TIP3   OH214315   0.081   0.236   3.384
 4770TIP3    H114316   0.132   0.309   3.418
 4770TIP3    H214317   0.074   0.252   3.290
 4771TIP3   OH214318   3.772   0.803   0.374
 4771TIP3    H114319   3.676   0.799   0.373
 4771TIP3    H214320   3.800   0.726   0.325
 4772TIP3   OH214321   1.593   1.672   1.486
 4772TIP3    H114322   1.650   1.718   1.424
 4772TIP3    H214323   1.514   1.652   1.436
 4773TIP3   OH214324   0.444   3.180   4.456
 4773TIP3    H114325   0.424   3.099   4.502
 4773TIP3    H214326   0.411   3.249   4.513
 4774TIP3   OH214327   3.986   2.666   4.489
 4774TIP3    H114328   3.898   2.647   4.522
 4774TIP3    H214329   3.975   2.746   4.438
 4775TIP3   OH214330   6.009   3.506   1.767
 4775TIP3    H114331   5.960   3.517   1.686
 4775TIP3    H214332   6.039   3.415   1.765
 4776TIP3   OH214333   3.134   0.371   4.960
 4776TIP3    H114334   3.113   0.449   4.907
 4776TIP3    H214335   3.212   0.335   4.918
 4777TIP3   OH214336   2.401   0.275   5.048
 4777TIP3    H114337   2.361   0.238   4.969
 4777TIP3    H214338   2.333   0.332   5.083
 4778TIP3   OH214339   3.023   1.103   0.044
 4778TIP3    H114340   3.107   1.150   0.043
 4778TIP3    H214341   3.034   1.033  -0.020
 4779TIP3   OH214342   2.271   2.269   0.633
 4779TIP3    H114343   2.186   2.272   0.588
 4779TIP3    H214344   2.312   2.352   0.610
 4780TIP3   OH214345   2.700   4.134   4.310
 4780TIP3    H114346   2.645   4.208   4.285
 4780TIP3    H214347   2.782   4.174   4.339
 4781TIP3   OH214348   0.056   1.845   5.068
 4781TIP3    H114349   0.143   1.812   5.087
 4781TIP3    H214350   0.065   1.889   4.983
 4782TIP3   OH214351   1.499   5.186   0.162
 4782TIP3    H114352   1.475   5.205   0.071
 4782TIP3    H214353   1.418   5.199   0.211
 4783TIP3   OH214354   4.769   1.724   3.127
 4783TIP3    H114355   4.677   1.719   3.104
 4783TIP3    H214356   4.804   1.638   3.106
 4784TIP3   OH214357   1.915   4.291   3.381
 4784TIP3    H114358   1.858   4.285   3.305
 4784TIP3    H214359   1.856   4.296   3.456
 4785TIP3   OH214360   4.451   4.686   0.145
 4785TIP3    H114361   4.398   4.638   0.081
 4785TIP3    H214362   4.538   4.691   0.105
 4786TIP3   OH214363   2.213   3.670   4.069
 4786TIP3    H114364   2.277   3.663   4.140
 4786TIP3    H214365   2.257   3.720   4.001
 4787TIP3   OH214366   6.257   3.424   1.456
 4787TIP3    H114367   6.317   3.351   1.441
 4787TIP3    H214368   6.302   3.480   1.519
 4788TIP3   OH214369   6.213   1.332   4.722
 4788TIP3    H114370   6.195   1.307   4.813
 4788TIP3    H214371   6.126   1.342   4.682
 4789TIP3   OH214372   4.201   0.286   1.269
 4789TIP3    H114373   4.263   0.232   1.318
 4789TIP3    H214374   4.236   0.289   1.180
 4790TIP3   OH214375   1.438   4.303   3.239
 4790TIP3    H114376   1.417   4.221   3.283
 4790TIP3    H214377   1.411   4.371   3.301
 4791TIP3   OH214378   4.640   5.424   3.133
 4791TIP3    H114379   4.699   5.378   3.074
 4791TIP3    H214380   4.698   5.467   3.196
 4792TIP3   OH214381   4.469   2.728   3.596
 4792TIP3    H114382   4.385   2.768   3.617
 4792TIP3    H214383   4.470   2.646   3.646
 4793TIP3   OH214384   4.101   2.096   0.581
 4793TIP3    H114385   4.060   2.133   0.503
 4793TIP3    H214386   4.140   2.014   0.551
 4794TIP3   OH214387   1.677   5.265   2.342
 4794TIP3    H114388   1.755   5.305   2.302
 4794TIP3    H214389   1.605   5.291   2.284
 4795TIP3   OH214390   6.179   2.841   2.230
 4795TIP3    H114391   6.089   2.872   2.236
 4795TIP3    H214392   6.181   2.762   2.283
 4796TIP3   OH214393   1.971   2.970   4.746
 4796TIP3    H114394   1.944   3.031   4.815
 4796TIP3    H214395   1.927   3.002   4.667
 4797TIP3   OH214396   1.562   5.362   2.867
 4797TIP3    H114397   1.622   5.344   2.794
 4797TIP3    H214398   1.617   5.401   2.934
 4798TIP3   OH214399   5.893   4.107   0.460
 4798TIP3    H114400   5.892   4.202   0.447
 4798TIP3    H214401   5.986   4.083   0.451
 4799TIP3   OH214402   1.667   3.795   0.413
 4799TIP3    H114403   1.609   3.850   0.466
 4799TIP3    H214404   1.636   3.807   0.324
 4800TIP3   OH214405   1.170   5.711   1.316
 4800TIP3    H114406   1.165   5.783   1.254
 4800TIP3    H214407   1.100   5.729   1.379
 4801TIP3   OH214408   4.501   0.850   2.713
 4801TIP3    H114409   4.519   0.761   2.743
 4801TIP3    H214410   4.581   0.876   2.667
 4802TIP3   OH214411   0.362   1.931   0.893
 4802TIP3    H114412   0.423   1.858   0.889
 4802TIP3    H214413   0.318   1.919   0.978
 4803TIP3   OH214414   4.946   1.736   1.525
 4803TIP3    H114415   4.974   1.827   1.517
 4803TIP3    H214416   5.006   1.688   1.467
 4804TIP3   OH214417   4.746   3.140   3.327
 4804TIP3    H114418   4.736   3.214   3.387
 4804TIP3    H214419   4.830   3.101   3.350
 4805TIP3   OH214420   4.447   1.340   1.110
 4805TIP3    H114421   4.418   1.392   1.035
 4805TIP3    H214422   4.450   1.402   1.182
 4806TIP3   OH214423   4.525   0.042   1.422
 4806TIP3    H114424   4.537   0.077   1.511
 4806TIP3    H214425   4.561   0.110   1.365
 4807TIP3   OH214426   4.129   5.590   2.777
 4807TIP3    H114427   4.047   5.637   2.763
 4807TIP3    H214428   4.102   5.506   2.813
 4808TIP3   OH214429   2.772   0.286   4.854
 4808TIP3    H114430   2.815   0.312   4.935
 4808TIP3    H214431   2.838   0.301   4.786
 4809TIP3   OH214432   5.836   0.236   3.287
 4809TIP3    H114433   5.826   0.141   3.289
 4809TIP3    H214434   5.830   0.259   3.195
 4810TIP3   OH214435   0.376   0.071   4.213
 4810TIP3    H114436   0.376   0.166   4.202
 4810TIP3    H214437   0.299   0.054   4.268
 4811TIP3   OH214438   2.527   0.366   3.057
 4811TIP3    H114439   2.606   0.352   3.004
 4811TIP3    H214440   2.457   0.324   3.008
 4812TIP3   OH214441   4.542   2.168   1.362
 4812TIP3    H114442   4.633   2.153   1.389
 4812TIP3    H214443   4.534   2.123   1.278
 4813TIP3   OH214444   0.160   4.987   1.579
 4813TIP3    H114445   0.139   5.080   1.589
 4813TIP3    H214446   0.254   4.986   1.562
 4814TIP3   OH214447   4.980   4.493   0.716
 4814TIP3    H114448   5.023   4.438   0.781
 4814TIP3    H214449   4.941   4.431   0.654
 4815TIP3   OH214450   4.966   4.105   1.454
 4815TIP3    H114451   4.923   4.188   1.436
 4815TIP3    H214452   5.047   4.129   1.499
 4816TIP3   OH214453   1.039   1.627   1.544
 4816TIP3    H114454   0.987   1.665   1.615
 4816TIP3    H214455   1.129   1.652   1.565
 4817TIP3   OH214456   5.007   3.012   1.043
 4817TIP3    H114457   4.973   2.923   1.042
 4817TIP3    H214458   5.096   3.004   1.077
 4818TIP3   OH214459   4.624   0.769   0.117
 4818TIP3    H114460   4.650   0.836   0.181
 4818TIP3    H214461   4.529   0.773   0.115
 4819TIP3   OH214462   4.964   5.154   2.725
 4819TIP3    H114463   4.954   5.059   2.721
 4819TIP3    H214464   5.058   5.168   2.728
 4820TIP3   OH214465   5.893   4.868   3.451
 4820TIP3    H114466   5.881   4.775   3.470
 4820TIP3    H214467   5.810   4.908   3.477
 4821TIP3   OH214468   0.259   1.136   0.602
 4821TIP3    H114469   0.328   1.174   0.656
 4821TIP3    H214470   0.177   1.169   0.640
 4822TIP3   OH214471   4.292   1.757   3.995
 4822TIP3    H114472   4.231   1.710   4.052
 4822TIP3    H214473   4.241   1.829   3.959
 4823TIP3   OH214474   2.814   2.658   1.214
 4823TIP3    H114475   2.804   2.573   1.257
 4823TIP3    H214476   2.792   2.722   1.282
 4824TIP3   OH214477   2.902   2.731   4.073
 4824TIP3    H114478   2.948   2.646   4.077
 4824TIP3    H214479   2.941   2.783   4.143
 4825TIP3   OH214480   0.597   0.572   0.785
 4825TIP3    H114481   0.631   0.518   0.857
 4825TIP3    H214482   0.628   0.527   0.706
 4826TIP3   OH214483   5.082   4.991   0.460
 4826TIP3    H114484   5.169   5.001   0.421
 4826TIP3    H214485   5.031   5.062   0.420
 4827TIP3   OH214486   4.251   5.226   1.073
 4827TIP3    H114487   4.230   5.258   1.160
 4827TIP3    H214488   4.169   5.233   1.025
 4828TIP3   OH214489   4.504   1.448   3.580
 4828TIP3    H114490   4.491   1.482   3.492
 4828TIP3    H214491   4.477   1.519   3.638
 4829TIP3   OH214492   0.735   0.632   2.867
 4829TIP3    H114493   0.753   0.553   2.918
 4829TIP3    H214494   0.786   0.700   2.910
 4830TIP3   OH214495   2.279   3.534   3.377
 4830TIP3    H114496   2.232   3.569   3.452
 4830TIP3    H214497   2.236   3.574   3.301
 4831TIP3   OH214498   3.841   1.814   3.269
 4831TIP3    H114499   3.864   1.906   3.280
 4831TIP3    H214500   3.921   1.774   3.234
 4832TIP3   OH214501   1.160   5.144   4.821
 4832TIP3    H114502   1.171   5.159   4.915
 4832TIP3    H214503   1.250   5.138   4.788
 4833TIP3   OH214504   4.045   5.164   1.495
 4833TIP3    H114505   4.035   5.254   1.526
 4833TIP3    H214506   4.115   5.128   1.549
 4834TIP3   OH214507   2.183   3.634   3.613
 4834TIP3    H114508   2.244   3.699   3.578
 4834TIP3    H214509   2.141   3.678   3.687
 4835TIP3   OH214510   1.767   5.509   1.264
 4835TIP3    H114511   1.829   5.549   1.325
 4835TIP3    H214512   1.692   5.484   1.318
 4836TIP3   OH214513   3.128   3.928   3.014
 4836TIP3    H114514   3.174   3.921   3.098
 4836TIP3    H214515   3.198   3.936   2.950
 4837TIP3   OH214516   3.690   3.930   0.652
 4837TIP3    H114517   3.636   4.008   0.654
 4837TIP3    H214518   3.721   3.924   0.562
 4838TIP3   OH214519   1.374   1.297   2.665
 4838TIP3    H114520   1.281   1.296   2.687
 4838TIP3    H214521   1.394   1.390   2.652
 4839TIP3   OH214522   1.738   0.896   4.817
 4839TIP3    H114523   1.826   0.874   4.846
 4839TIP3    H214524   1.734   0.865   4.727
 4840TIP3   OH214525   2.170   1.244   0.134
 4840TIP3    H114526   2.177   1.303   0.058
 4840TIP3    H214527   2.196   1.159   0.100
 4841TIP3   OH214528   5.070   4.292   2.786
 4841TIP3    H114529   5.145   4.295   2.727
 4841TIP3    H214530   5.103   4.326   2.869
 4842TIP3   OH214531   4.255   2.290   2.535
 4842TIP3    H114532   4.311   2.243   2.598
 4842TIP3    H214533   4.172   2.301   2.581
 4843TIP3   OH214534   5.881   3.006   3.734
 4843TIP3    H114535   5.808   2.944   3.726
 4843TIP3    H214536   5.878   3.034   3.825
 4844TIP3   OH214537   2.633   5.897   2.328
 4844TIP3    H114538   2.570   5.947   2.276
 4844TIP3    H214539   2.698   5.961   2.357
 4845TIP3   OH214540   5.241   4.374   2.312
 4845TIP3    H114541   5.198   4.419   2.240
 4845TIP3    H214542   5.203   4.286   2.312
 4846TIP3   OH214543   0.694   5.934   1.997
 4846TIP3    H114544   0.775   5.985   1.994
 4846TIP3    H214545   0.625   6.001   2.007
 4847TIP3   OH214546   0.507   0.375   3.912
 4847TIP3    H114547   0.486   0.299   3.859
 4847TIP3    H214548   0.602   0.383   3.906
 4848TIP3   OH214549   1.974   4.586   1.985
 4848TIP3    H114550   1.981   4.679   1.964
 4848TIP3    H214551   2.048   4.546   1.938
 4849TIP3   OH214552   5.679   3.116   2.374
 4849TIP3    H114553   5.736   3.061   2.320
 4849TIP3    H214554   5.659   3.191   2.318
 4850TIP3   OH214555   0.592   4.440   4.652
 4850TIP3    H114556   0.582   4.456   4.558
 4850TIP3    H214557   0.597   4.344   4.659
 4851TIP3   OH214558   3.043   2.237   3.399
 4851TIP3    H114559   2.992   2.199   3.471
 4851TIP3    H214560   3.042   2.331   3.418
 4852TIP3   OH214561   3.617   5.310   0.081
 4852TIP3    H114562   3.687   5.310   0.147
 4852TIP3    H214563   3.650   5.253   0.012
 4853TIP3   OH214564   5.737   4.317   2.449
 4853TIP3    H114565   5.717   4.410   2.437
 4853TIP3    H214566   5.807   4.317   2.514
 4854TIP3   OH214567   3.886   4.562   2.735
 4854TIP3    H114568   3.920   4.510   2.809
 4854TIP3    H214569   3.960   4.619   2.711
 4855TIP3   OH214570   4.844   4.857   4.042
 4855TIP3    H114571   4.787   4.827   3.972
 4855TIP3    H214572   4.817   4.947   4.059
 4856TIP3   OH214573   3.257   3.817   3.523
 4856TIP3    H114574   3.231   3.908   3.539
 4856TIP3    H214575   3.239   3.773   3.606
 4857TIP3   OH214576   4.612   4.249   3.302
 4857TIP3    H114577   4.689   4.207   3.265
 4857TIP3    H214578   4.637   4.272   3.391
 4858TIP3   OH214579   1.507   0.894   2.986
 4858TIP3    H114580   1.502   0.856   2.898
 4858TIP3    H214581   1.458   0.833   3.041
 4859TIP3   OH214582   0.084   5.126   0.609
 4859TIP3    H114583   0.013   5.068   0.638
 4859TIP3    H214584   0.104   5.179   0.686
 4860TIP3   OH214585   5.789   5.938   4.184
 4860TIP3    H114586   5.717   5.901   4.236
 4860TIP3    H214587   5.846   5.864   4.166
 4861TIP3   OH214588   5.095   1.112   2.911
 4861TIP3    H114589   5.106   1.098   3.005
 4861TIP3    H214590   5.178   1.084   2.872
 4862TIP3   OH214591   1.126   3.172   2.138
 4862TIP3    H114592   1.067   3.107   2.102
 4862TIP3    H214593   1.169   3.128   2.211
 4863TIP3   OH214594   0.103   5.626   2.212
 4863TIP3    H114595   0.185   5.602   2.169
 4863TIP3    H214596   0.071   5.545   2.250
 4864TIP3   OH214597   4.699   1.819   1.450
 4864TIP3    H114598   4.785   1.795   1.483
 4864TIP3    H214599   4.698   1.788   1.359
 4865TIP3   OH214600   0.145   5.074   2.167
 4865TIP3    H114601   0.195   4.993   2.175
 4865TIP3    H214602   0.075   5.052   2.105
 4866TIP3   OH214603   5.987   0.854   4.164
 4866TIP3    H114604   6.056   0.884   4.105
 4866TIP3    H214605   5.945   0.783   4.116
 4867TIP3   OH214606   0.299   1.577   4.873
 4867TIP3    H114607   0.217   1.595   4.826
 4867TIP3    H214608   0.366   1.622   4.820
 4868TIP3   OH214609   4.119   1.512   1.598
 4868TIP3    H114610   4.034   1.469   1.598
 4868TIP3    H214611   4.104   1.595   1.554
 4869TIP3   OH214612   4.250   4.657   0.781
 4869TIP3    H114613   4.203   4.579   0.810
 4869TIP3    H214614   4.265   4.642   0.687
 4870TIP3   OH214615   4.501   3.837   3.166
 4870TIP3    H114616   4.594   3.860   3.172
 4870TIP3    H214617   4.484   3.836   3.072
 4871TIP3   OH214618   0.116   3.055   3.117
 4871TIP3    H114619   0.209   3.080   3.119
 4871TIP3    H214620   0.075   3.121   3.061
 4872TIP3   OH214621   5.018   0.579   3.811
 4872TIP3    H114622   4.971   0.662   3.820
 4872TIP3    H214623   4.951   0.515   3.786
 4873TIP3   OH214624   2.813   2.955   0.672
 4873TIP3    H114625   2.747   2.886   0.661
 4873TIP3    H214626   2.816   2.999   0.587
 4874TIP3   OH214627   0.755   3.336   5.039
 4874TIP3    H114628   0.686   3.324   5.105
 4874TIP3    H214629   0.709   3.373   4.963
 4875TIP3   OH214630   3.070   4.670   3.830
 4875TIP3    H114631   3.104   4.722   3.757
 4875TIP3    H214632   3.041   4.736   3.894
 4876TIP3   OH214633   5.075   5.609   5.103
 4876TIP3    H114634   5.128   5.685   5.076
 4876TIP3    H214635   5.138   5.537   5.108
 4877TIP3   OH214636   5.949   3.985   4.465
 4877TIP3    H114637   5.904   3.912   4.423
 4877TIP3    H214638   5.968   4.046   4.394
 4878TIP3   OH214639   2.435   4.552   1.816
 4878TIP3    H114640   2.432   4.582   1.725
 4878TIP3    H214641   2.429   4.632   1.868
 4879TIP3   OH214642   5.542   4.670   1.873
 4879TIP3    H114643   5.455   4.632   1.859
 4879TIP3    H214644   5.593   4.599   1.911
 4880TIP3   OH214645   5.450   3.303   4.232
 4880TIP3    H114646   5.367   3.350   4.222
 4880TIP3    H214647   5.425   3.217   4.266
 4881TIP3   OH214648   5.757   0.706   3.696
 4881TIP3    H114649   5.846   0.742   3.686
 4881TIP3    H214650   5.745   0.649   3.621
 4882TIP3   OH214651   3.651   0.491   2.907
 4882TIP3    H114652   3.720   0.454   2.850
 4882TIP3    H214653   3.612   0.414   2.949
 4883TIP3   OH214654   4.718   4.180   4.418
 4883TIP3    H114655   4.637   4.130   4.429
 4883TIP3    H214656   4.716   4.209   4.327
 4884TIP3   OH214657   4.473   4.242   1.082
 4884TIP3    H114658   4.383   4.214   1.066
 4884TIP3    H214659   4.525   4.190   1.020
 4885TIP3   OH214660   1.070   4.152   4.565
 4885TIP3    H114661   1.083   4.186   4.653
 4885TIP3    H214662   1.134   4.081   4.557
 4886TIP3   OH214663   3.465   2.009   4.052
 4886TIP3    H114664   3.374   1.996   4.022
 4886TIP3    H214665   3.494   1.922   4.077
 4887TIP3   OH214666   5.481   1.792   1.975
 4887TIP3    H114667   5.552   1.839   1.931
 4887TIP3    H214668   5.458   1.848   2.049
 4888TIP3   OH214669   0.416   4.706   5.181
 4888TIP3    H114670   0.333   4.699   5.229
 4888TIP3    H214671   0.397   4.765   5.108
 4889TIP3   OH214672   5.550   4.936   1.986
 4889TIP3    H114673   5.557   4.860   1.929
 4889TIP3    H214674   5.470   4.980   1.957
 4890TIP3   OH214675   5.353   0.873   1.115
 4890TIP3    H114676   5.422   0.825   1.161
 4890TIP3    H214677   5.400   0.934   1.057
 4891TIP3   OH214678   4.314   1.229   4.156
 4891TIP3    H114679   4.291   1.284   4.231
 4891TIP3    H214680   4.333   1.143   4.195
 4892TIP3   OH214681   4.301   3.090   4.373
 4892TIP3    H114682   4.221   3.141   4.385
 4892TIP3    H214683   4.350   3.104   4.454
 4893TIP3   OH214684   0.907   1.914   0.760
 4893TIP3    H114685   0.921   1.820   0.769
 4893TIP3    H214686   0.922   1.932   0.667
 4894TIP3   OH214687   5.492   0.151   2.629
 4894TIP3    H114688   5.559   0.208   2.667
 4894TIP3    H214689   5.421   0.150   2.693
 4895TIP3   OH214690   3.107   2.547   4.096
 4895TIP3    H114691   3.111   2.455   4.121
 4895TIP3    H214692   3.149   2.551   4.010
 4896TIP3   OH214693   2.414   1.688   4.619
 4896TIP3    H114694   2.455   1.754   4.563
 4896TIP3    H214695   2.469   1.611   4.609
 4897TIP3   OH214696   3.154   4.423   4.500
 4897TIP3    H114697   3.124   4.462   4.582
 4897TIP3    H214698   3.089   4.356   4.479
 4898TIP3   OH214699   4.533   5.166   0.945
 4898TIP3    H114700   4.470   5.128   1.007
 4898TIP3    H214701   4.512   5.124   0.862
 4899TIP3   OH214702   4.088   5.474   3.639
 4899TIP3    H114703   4.041   5.531   3.700
 4899TIP3    H214704   4.176   5.467   3.675
 4900TIP3   OH214705   4.774   2.730   4.726
 4900TIP3    H114706   4.819   2.650   4.700
 4900TIP3    H214707   4.842   2.797   4.728
 4901TIP3   OH214708   3.347   2.883   4.787
 4901TIP3    H114709   3.368   2.847   4.873
 4901TIP3    H214710   3.420   2.857   4.731
 4902TIP3   OH214711   1.139   0.050   3.448
 4902TIP3    H114712   1.157   0.118   3.514
 4902TIP3    H214713   1.137  -0.032   3.498
 4903TIP3   OH214714   2.425   4.171   1.981
 4903TIP3    H114715   2.470   4.235   2.035
 4903TIP3    H214716   2.336   4.168   2.016
 4904TIP3   OH214717   3.423   3.089   1.981
 4904TIP3    H114718   3.480   3.142   1.925
 4904TIP3    H214719   3.373   3.035   1.919
 4905TIP3   OH214720   0.846  -0.035   4.872
 4905TIP3    H114721   0.821   0.055   4.851
 4905TIP3    H214722   0.786  -0.089   4.820
 4906TIP3   OH214723   2.014   1.695   4.946
 4906TIP3    H114724   2.064   1.614   4.957
 4906TIP3    H214725   2.064   1.745   4.881
 4907TIP3   OH214726   6.175   2.571   3.183
 4907TIP3    H114727   6.080   2.563   3.190
 4907TIP3    H214728   6.189   2.648   3.128
 4908TIP3   OH214729   4.529   5.255   4.029
 4908TIP3    H114730   4.572   5.174   4.056
 4908TIP3    H214731   4.477   5.231   3.953
 4909TIP3   OH214732   3.397   4.305   5.178
 4909TIP3    H114733   3.329   4.266   5.232
 4909TIP3    H214734   3.367   4.294   5.088
 4910TIP3   OH214735   6.251   2.662   1.782
 4910TIP3    H114736   6.174   2.682   1.835
 4910TIP3    H214737   6.283   2.578   1.817
 4911TIP3   OH214738   0.123   2.996   5.150
 4911TIP3    H114739   0.111   2.950   5.067
 4911TIP3    H214740   0.039   3.037   5.168
 4912TIP3   OH214741   6.297   4.551   2.903
 4912TIP3    H114742   6.333   4.467   2.874
 4912TIP3    H214743   6.349   4.617   2.858
 4913TIP3   OH214744   5.646   3.882   4.032
 4913TIP3    H114745   5.740   3.869   4.039
 4913TIP3    H214746   5.627   3.872   3.939
 4914TIP3   OH214747   2.266   3.498   1.830
 4914TIP3    H114748   2.357   3.489   1.799
 4914TIP3    H214749   2.214   3.454   1.764
 4915TIP3   OH214750   5.020   5.492   0.002
 4915TIP3    H114751   4.967   5.487   0.081
 4915TIP3    H214752   5.083   5.421   0.011
 4916TIP3   OH214753   3.367   2.408   3.465
 4916TIP3    H114754   3.401   2.497   3.454
 4916TIP3    H214755   3.356   2.375   3.376
 4917TIP3   OH214756   5.740   5.563   3.343
 4917TIP3    H114757   5.728   5.502   3.416
 4917TIP3    H214758   5.801   5.519   3.284
 4918TIP3   OH214759   3.496   0.068   0.426
 4918TIP3    H114760   3.514   0.097   0.516
 4918TIP3    H214761   3.545   0.130   0.371
 4919TIP3   OH214762   2.401   5.716   0.778
 4919TIP3    H114763   2.336   5.648   0.796
 4919TIP3    H214764   2.456   5.718   0.856
 4920TIP3   OH214765   3.243   4.932   4.365
 4920TIP3    H114766   3.169   4.888   4.407
 4920TIP3    H214767   3.245   4.896   4.276
 4921TIP3   OH214768   3.304   2.963   1.776
 4921TIP3    H114769   3.312   2.869   1.759
 4921TIP3    H214770   3.214   2.984   1.752
 4922TIP3   OH214771   1.327   1.762   4.664
 4922TIP3    H114772   1.274   1.710   4.605
 4922TIP3    H214773   1.392   1.700   4.699
 4923TIP3   OH214774   2.734   1.507   5.025
 4923TIP3    H114775   2.722   1.561   5.103
 4923TIP3    H214776   2.653   1.518   4.976
 4924TIP3   OH214777   3.858   1.947   1.854
 4924TIP3    H114778   3.857   1.894   1.774
 4924TIP3    H214779   3.765   1.964   1.872
 4925TIP3   OH214780   2.594   2.120   1.576
 4925TIP3    H114781   2.615   2.027   1.578
 4925TIP3    H214782   2.505   2.125   1.610
 4926TIP3   OH214783   5.063   4.982   1.764
 4926TIP3    H114784   5.037   5.045   1.832
 4926TIP3    H214785   5.013   4.903   1.784
 4927TIP3   OH214786   4.383   5.335   3.104
 4927TIP3    H114787   4.318   5.404   3.117
 4927TIP3    H214788   4.465   5.373   3.135
 4928TIP3   OH214789   4.122   5.571   2.127
 4928TIP3    H114790   4.063   5.505   2.090
 4928TIP3    H214791   4.210   5.534   2.115
 4929TIP3   OH214792   3.112   4.814   3.597
 4929TIP3    H114793   3.205   4.805   3.576
 4929TIP3    H214794   3.080   4.883   3.540
 4930TIP3   OH214795   6.307   4.225   3.645
 4930TIP3    H114796   6.298   4.148   3.588
 4930TIP3    H214797   6.313   4.299   3.585
 4931TIP3   OH214798   1.231   3.969   3.948
 4931TIP3    H114799   1.279   4.010   3.876
 4931TIP3    H214800   1.187   4.041   3.992
 4932TIP3   OH214801   0.461   1.703   4.678
 4932TIP3    H114802   0.436   1.737   4.592
 4932TIP3    H214803   0.511   1.774   4.718
 4933TIP3   OH214804   3.525   3.716   0.621
 4933TIP3    H114805   3.578   3.708   0.542
 4933TIP3    H214806   3.558   3.794   0.665
 4934TIP3   OH214807   1.794   1.378   2.620
 4934TIP3    H114808   1.823   1.458   2.663
 4934TIP3    H214809   1.738   1.335   2.684
 4935TIP3   OH214810   1.841   1.737   0.848
 4935TIP3    H114811   1.890   1.686   0.912
 4935TIP3    H214812   1.878   1.825   0.854
 4936TIP3   OH214813   6.103   1.947   2.875
 4936TIP3    H114814   6.011   1.940   2.899
 4936TIP3    H214815   6.103   1.969   2.782
 4937TIP3   OH214816   5.531   2.433   5.173
 4937TIP3    H114817   5.462   2.469   5.117
 4937TIP3    H214818   5.565   2.358   5.124
 4938TIP3   OH214819   0.827   0.293   0.778
 4938TIP3    H114820   0.793   0.354   0.843
 4938TIP3    H214821   0.763   0.222   0.776
 4939TIP3   OH214822   4.500   0.342   2.880
 4939TIP3    H114823   4.505   0.378   2.968
 4939TIP3    H214824   4.487   0.248   2.893
 4940TIP3   OH214825   0.355   3.279   1.125
 4940TIP3    H114826   0.437   3.320   1.096
 4940TIP3    H214827   0.351   3.196   1.078
 4941TIP3   OH214828   4.854   2.788   0.174
 4941TIP3    H114829   4.784   2.851   0.159
 4941TIP3    H214830   4.934   2.834   0.146
 4942TIP3   OH214831   2.086   0.160   4.429
 4942TIP3    H114832   2.181   0.169   4.438
 4942TIP3    H214833   2.070   0.167   4.335
 4943TIP3   OH214834   2.712   4.375   3.441
 4943TIP3    H114835   2.679   4.286   3.459
 4943TIP3    H214836   2.639   4.432   3.466
 4944TIP3   OH214837   3.964   0.529   1.424
 4944TIP3    H114838   3.949   0.457   1.363
 4944TIP3    H214839   3.971   0.487   1.510
 4945TIP3   OH214840   0.614   4.738   3.441
 4945TIP3    H114841   0.566   4.738   3.358
 4945TIP3    H214842   0.656   4.824   3.446
 4946TIP3   OH214843   5.583   2.561   3.214
 4946TIP3    H114844   5.571   2.644   3.168
 4946TIP3    H214845   5.631   2.506   3.152
 4947TIP3   OH214846   1.357   1.342   4.942
 4947TIP3    H114847   1.329   1.286   4.870
 4947TIP3    H214848   1.293   1.327   5.011
 4948TIP3   OH214849   5.856   5.237   4.350
 4948TIP3    H114850   5.940   5.283   4.347
 4948TIP3    H214851   5.859   5.178   4.274
 4949TIP3   OH214852   3.135   4.151   2.148
 4949TIP3    H114853   3.141   4.056   2.139
 4949TIP3    H214854   3.202   4.185   2.088
 4950TIP3   OH214855   1.698   2.534   1.360
 4950TIP3    H114856   1.725   2.552   1.270
 4950TIP3    H214857   1.606   2.562   1.364
 4951TIP3   OH214858   4.014   3.267   5.137
 4951TIP3    H114859   4.006   3.344   5.081
 4951TIP3    H214860   3.936   3.215   5.117
 4952TIP3   OH214861   4.884   0.668   2.022
 4952TIP3    H114862   4.798   0.691   1.987
 4952TIP3    H214863   4.867   0.642   2.113
 4953TIP3   OH214864   5.969   2.109   0.955
 4953TIP3    H114865   5.938   2.194   0.923
 4953TIP3    H214866   6.019   2.073   0.882
 4954TIP3   OH214867   3.062   0.211   3.218
 4954TIP3    H114868   3.098   0.270   3.152
 4954TIP3    H214869   3.104   0.127   3.200
 4955TIP3   OH214870   1.996   3.498   0.836
 4955TIP3    H114871   2.080   3.492   0.883
 4955TIP3    H214872   1.975   3.591   0.838
 4956TIP3   OH214873   5.461   5.796   2.799
 4956TIP3    H114874   5.519   5.817   2.725
 4956TIP3    H214875   5.440   5.704   2.788
 4957TIP3   OH214876   0.031   5.285   5.036
 4957TIP3    H114877   0.090   5.219   5.001
 4957TIP3    H214878   0.087   5.338   5.094
 4958TIP3   OH214879   2.582   4.299   2.436
 4958TIP3    H114880   2.584   4.205   2.452
 4958TIP3    H214881   2.605   4.339   2.520
 4959TIP3   OH214882   2.762   4.704   0.776
 4959TIP3    H114883   2.758   4.620   0.821
 4959TIP3    H214884   2.715   4.764   0.834
 4960TIP3   OH214885   4.039   1.085   4.607
 4960TIP3    H114886   4.123   1.099   4.651
 4960TIP3    H214887   4.000   1.172   4.599
 4961TIP3   OH214888   4.830   4.376   3.016
 4961TIP3    H114889   4.903   4.437   3.005
 4961TIP3    H214890   4.793   4.366   2.929
 4962TIP3   OH214891   2.323   4.192   1.604
 4962TIP3    H114892   2.285   4.259   1.547
 4962TIP3    H214893   2.417   4.209   1.602
 4963TIP3   OH214894   0.121   4.293   2.213
 4963TIP3    H114895   0.107   4.357   2.144
 4963TIP3    H214896   0.108   4.208   2.171
 4964TIP3   OH214897   2.004   4.888   4.882
 4964TIP3    H114898   2.079   4.867   4.828
 4964TIP3    H214899   1.951   4.808   4.882
 4965TIP3   OH214900   2.274   1.462   0.433
 4965TIP3    H114901   2.259   1.555   0.446
 4965TIP3    H214902   2.367   1.455   0.415
 4966TIP3   OH214903   3.730   3.268   0.665
 4966TIP3    H114904   3.783   3.240   0.740
 4966TIP3    H214905   3.736   3.194   0.603
 4967TIP3   OH214906   6.174   0.230   4.649
 4967TIP3    H114907   6.215   0.152   4.612
 4967TIP3    H214908   6.129   0.270   4.575
 4968TIP3   OH214909   3.562   0.714   0.104
 4968TIP3    H114910   3.546   0.739   0.195
 4968TIP3    H214911   3.553   0.619   0.103
 4969TIP3   OH214912   2.149   1.539   3.873
 4969TIP3    H114913   2.096   1.463   3.849
 4969TIP3    H214914   2.147   1.540   3.969
 4970TIP3   OH214915   1.342   1.996   4.501
 4970TIP3    H114916   1.336   1.913   4.549
 4970TIP3    H214917   1.344   2.063   4.570
 4971TIP3   OH214918   0.377   4.379   0.644
 4971TIP3    H114919   0.355   4.467   0.613
 4971TIP3    H214920   0.313   4.360   0.713
 4972TIP3   OH214921   2.445   5.009   5.100
 4972TIP3    H114922   2.415   4.927   5.059
 4972TIP3    H214923   2.367   5.042   5.145
 4973TIP3   OH214924   2.620   2.792   3.611
 4973TIP3    H114925   2.624   2.815   3.703
 4973TIP3    H214926   2.559   2.855   3.573
 4974TIP3   OH214927   0.978   2.579   4.566
 4974TIP3    H114928   1.015   2.667   4.570
 4974TIP3    H214929   0.978   2.549   4.657
 4975TIP3   OH214930   0.734   0.962   1.042
 4975TIP3    H114931   0.798   0.928   1.105
 4975TIP3    H214932   0.667   1.003   1.096
 4976TIP3   OH214933   4.253   2.820   0.550
 4976TIP3    H114934   4.243   2.728   0.524
 4976TIP3    H214935   4.315   2.856   0.487
 4977TIP3   OH214936   5.508   4.632   4.601
 4977TIP3    H114937   5.468   4.715   4.629
 4977TIP3    H214938   5.466   4.566   4.656
 4978TIP3   OH214939   4.762   5.973   1.234
 4978TIP3    H114940   4.842   5.922   1.248
 4978TIP3    H214941   4.694   5.923   1.279
 4979TIP3   OH214942   0.757   3.632   2.270
 4979TIP3    H114943   0.830   3.577   2.242
 4979TIP3    H214944   0.680   3.576   2.259
 4980TIP3   OH214945   1.173   0.623   2.979
 4980TIP3    H114946   1.195   0.631   2.886
 4980TIP3    H214947   1.189   0.711   3.015
 4981TIP3   OH214948   5.733   0.107   1.420
 4981TIP3    H114949   5.666   0.066   1.476
 4981TIP3    H214950   5.805   0.045   1.419
 4982TIP3   OH214951   4.826   4.809   4.316
 4982TIP3    H114952   4.733   4.835   4.320
 4982TIP3    H214953   4.841   4.791   4.223
 4983TIP3   OH214954   0.466   3.320   2.526
 4983TIP3    H114955   0.411   3.273   2.462
 4983TIP3    H214956   0.410   3.390   2.559
 4984TIP3   OH214957   0.061   2.793   3.119
 4984TIP3    H114958   0.034   2.782   3.210
 4984TIP3    H214959   0.099   2.880   3.115
 4985TIP3   OH214960   1.812   4.569   3.389
 4985TIP3    H114961   1.854   4.635   3.334
 4985TIP3    H214962   1.871   4.494   3.386
 4986TIP3   OH214963   6.030   0.787   4.966
 4986TIP3    H114964   6.025   0.721   5.035
 4986TIP3    H214965   5.940   0.815   4.952
 4987TIP3   OH214966   1.097   0.500   1.326
 4987TIP3    H114967   1.104   0.526   1.418
 4987TIP3    H214968   1.053   0.415   1.329
 4988TIP3   OH214969   1.985   1.702   2.113
 4988TIP3    H114970   1.904   1.751   2.099
 4988TIP3    H214971   1.983   1.632   2.048
 4989TIP3   OH214972   1.478   3.617   4.790
 4989TIP3    H114973   1.571   3.636   4.803
 4989TIP3    H214974   1.456   3.556   4.860
 4990TIP3   OH214975   4.457   2.185   1.670
 4990TIP3    H114976   4.503   2.100   1.672
 4990TIP3    H214977   4.511   2.239   1.613
 4991TIP3   OH214978   4.546   4.608   4.259
 4991TIP3    H114979   4.556   4.656   4.178
 4991TIP3    H214980   4.492   4.532   4.236
 4992TIP3   OH214981   5.541   1.529   3.573
 4992TIP3    H114982   5.447   1.516   3.568
 4992TIP3    H214983   5.571   1.463   3.635
 4993TIP3   OH214984   0.392   0.183   4.511
 4993TIP3    H114985   0.301   0.214   4.506
 4993TIP3    H214986   0.442   0.261   4.532
 4994TIP3   OH214987   2.759   5.889   2.801
 4994TIP3    H114988   2.739   5.885   2.895
 4994TIP3    H214989   2.688   5.940   2.763
 4995TIP3   OH214990   0.061   0.382   3.154
 4995TIP3    H114991   0.061   0.464   3.203
 4995TIP3    H214992   0.074   0.407   3.063
 4996TIP3   OH214993   3.791   4.529   2.393
 4996TIP3    H114994   3.763   4.528   2.302
 4996TIP3    H214995   3.873   4.578   2.393
 4997TIP3   OH214996   3.352   0.938   1.702
 4997TIP3    H114997   3.438   0.970   1.730
 4997TIP3    H214998   3.329   0.994   1.629
 4998TIP3   OH214999   1.864   1.007   1.160
 4998TIP3    H115000   1.810   1.022   1.082
 4998TIP3    H215001   1.904   0.921   1.146
 4999TIP3   OH215002   2.926   5.047   4.268
 4999TIP3    H115003   2.934   5.112   4.338
 4999TIP3    H215004   3.011   5.049   4.225
 5000TIP3   OH215005   4.000   0.800   0.041
 5000TIP3    H115006   4.041   0.730   0.091
 5000TIP3    H215007   3.971   0.863   0.107
 5001TIP3   OH215008   1.694   1.625   4.721
 5001TIP3    H115009   1.634   1.553   4.699
 5001TIP3    H215010   1.672   1.648   4.811
 5002TIP3   OH215011   4.335   5.957   3.405
 5002TIP3    H115012   4.273   5.914   3.463
 5002TIP3    H215013   4.319   6.051   3.418
 5003TIP3   OH215014   1.825   0.111   3.524
 5003TIP3    H115015   1.890   0.057   3.568
 5003TIP3    H215016   1.755   0.122   3.589
 5004TIP3   OH215017   5.136   2.538   5.184
 5004TIP3    H115018   5.148   2.617   5.132
 5004TIP3    H215019   5.050   2.505   5.158
 5005TIP3   OH215020   5.516   1.693   0.085
 5005TIP3    H115021   5.427   1.662   0.067
 5005TIP3    H215022   5.505   1.758   0.155
 5006TIP3   OH215023   2.446   4.571   4.103
 5006TIP3    H115024   2.505   4.539   4.034
 5006TIP3    H215025   2.384   4.628   4.057
 5007TIP3   OH215026   2.933   5.209   2.936
 5007TIP3    H115027   2.987   5.225   3.014
 5007TIP3    H215028   2.925   5.294   2.894
 5008TIP3   OH215029   5.420   4.604   2.672
 5008TIP3    H115030   5.359   4.571   2.607
 5008TIP3    H215031   5.408   4.546   2.748
 5009TIP3   OH215032   5.981   1.856   1.785
 5009TIP3    H115033   5.906   1.810   1.821
 5009TIP3    H215034   6.042   1.787   1.758
 5010TIP3   OH215035   2.085   0.423   0.172
 5010TIP3    H115036   2.160   0.447   0.226
 5010TIP3    H215037   2.075   0.328   0.185
 5011TIP3   OH215038   3.135   2.983   4.202
 5011TIP3    H115039   3.182   2.985   4.285
 5011TIP3    H215040   3.180   2.917   4.150
 5012TIP3   OH215041   2.205   4.478   3.610
 5012TIP3    H115042   2.137   4.543   3.628
 5012TIP3    H215043   2.205   4.422   3.688
 5013TIP3   OH215044   3.795   4.052   2.948
 5013TIP3    H115045   3.767   4.143   2.955
 5013TIP3    H215046   3.890   4.056   2.947
 5014TIP3   OH215047   3.977   2.351   4.420
 5014TIP3    H115048   3.958   2.417   4.353
 5014TIP3    H215049   3.927   2.274   4.394
 5015TIP3   OH215050   3.866   5.155   0.744
 5015TIP3    H115051   3.891   5.192   0.659
 5015TIP3    H215052   3.915   5.207   0.808
 5016TIP3   OH215053   1.331   3.280   4.042
 5016TIP3    H115054   1.411   3.242   4.006
 5016TIP3    H215055   1.355   3.310   4.129
 5017TIP3   OH215056   0.046   2.561   3.770
 5017TIP3    H115057   0.009   2.504   3.838
 5017TIP3    H215058  -0.027   2.617   3.744
 5018TIP3   OH215059   5.880   4.498   3.760
 5018TIP3    H115060   5.824   4.424   3.735
 5018TIP3    H215061   5.967   4.460   3.772
 5019TIP3   OH215062   5.425   1.410   4.967
 5019TIP3    H115063   5.446   1.491   5.013
 5019TIP3    H215064   5.331   1.413   4.953
 5020TIP3   OH215065   4.843   5.580   4.950
 5020TIP3    H115066   4.928   5.595   4.992
 5020TIP3    H215067   4.779   5.616   5.012
 5021TIP3   OH215068   4.161   2.563   2.286
 5021TIP3    H115069   4.180   2.651   2.318
 5021TIP3    H215070   4.242   2.535   2.243
 5022TIP3   OH215071   6.086   4.564   3.075
 5022TIP3    H115072   6.045   4.642   3.039
 5022TIP3    H215073   6.167   4.554   3.026
 5023TIP3   OH215074   3.069   5.769   3.057
 5023TIP3    H115075   3.118   5.705   3.005
 5023TIP3    H215076   3.136   5.812   3.110
 5024TIP3   OH215077   1.887   3.377   1.334
 5024TIP3    H115078   1.927   3.290   1.335
 5024TIP3    H215079   1.948   3.432   1.285
 5025TIP3   OH215080   6.370   0.209   0.659
 5025TIP3    H115081   6.282   0.214   0.624
 5025TIP3    H215082   6.364   0.252   0.745
 5026TIP3   OH215083   5.445   3.880   2.542
 5026TIP3    H115084   5.393   3.863   2.620
 5026TIP3    H215085   5.429   3.972   2.521
 5027TIP3   OH215086   0.697   2.620   4.580
 5027TIP3    H115087   0.635   2.597   4.511
 5027TIP3    H215088   0.782   2.618   4.537
 5028TIP3   OH215089   5.668   5.316   3.885
 5028TIP3    H115090   5.663   5.375   3.960
 5028TIP3    H215091   5.759   5.320   3.858
 5029TIP3   OH215092   3.644   5.618   0.811
 5029TIP3    H115093   3.667   5.529   0.787
 5029TIP3    H215094   3.549   5.618   0.818
 5030TIP3   OH215095   1.890   2.309   0.139
 5030TIP3    H115096   1.881   2.260   0.057
 5030TIP3    H215097   1.800   2.330   0.164
 5031TIP3   OH215098   3.763   3.623   1.385
 5031TIP3    H115099   3.817   3.549   1.359
 5031TIP3    H215100   3.726   3.597   1.470
 5032TIP3   OH215101   2.778   3.307   1.981
 5032TIP3    H115102   2.810   3.368   1.915
 5032TIP3    H215103   2.692   3.280   1.950
 5033TIP3   OH215104   5.155   0.589   2.259
 5033TIP3    H115105   5.127   0.672   2.296
 5033TIP3    H215106   5.236   0.568   2.305
 5034TIP3   OH215107   1.834   5.276   3.076
 5034TIP3    H115108   1.907   5.337   3.065
 5034TIP3    H215109   1.758   5.332   3.091
 5035TIP3   OH215110   0.223   4.885   0.524
 5035TIP3    H115111   0.289   4.902   0.591
 5035TIP3    H215112   0.143   4.924   0.560
 5036TIP3   OH215113   5.175   0.716   4.982
 5036TIP3    H115114   5.265   0.692   5.006
 5036TIP3    H215115   5.122   0.686   5.055
 5037TIP3   OH215116   2.444   5.303   0.320
 5037TIP3    H115117   2.402   5.334   0.400
 5037TIP3    H215118   2.500   5.231   0.349
 5038TIP3   OH215119   0.085   0.605   2.599
 5038TIP3    H115120   0.177   0.620   2.620
 5038TIP3    H215121   0.083   0.599   2.503
 5039TIP3   OH215122   3.692   0.931   5.042
 5039TIP3    H115123   3.617   0.944   4.984
 5039TIP3    H215124   3.768   0.949   4.987
 5040TIP3   OH215125   0.624   4.734   4.672
 5040TIP3    H115126   0.649   4.642   4.677
 5040TIP3    H215127   0.645   4.760   4.582
 5041TIP3   OH215128   3.809   3.202   1.490
 5041TIP3    H115129   3.802   3.258   1.567
 5041TIP3    H215130   3.839   3.118   1.524
 5042TIP3   OH215131   4.245   4.436   1.835
 5042TIP3    H115132   4.290   4.520   1.826
 5042TIP3    H215133   4.315   4.371   1.826
 5043TIP3   OH215134   0.570   0.104   0.768
 5043TIP3    H115135   0.486   0.091   0.811
 5043TIP3    H215136   0.586   0.023   0.721
 5044TIP3   OH215137   0.305   5.504   1.555
 5044TIP3    H115138   0.230   5.500   1.496
 5044TIP3    H215139   0.316   5.597   1.574
 5045TIP3   OH215140   4.218   2.562   4.402
 5045TIP3    H115141   4.124   2.548   4.408
 5045TIP3    H215142   4.229   2.656   4.415
 5046TIP3   OH215143   1.998   0.756   3.330
 5046TIP3    H115144   1.954   0.808   3.397
 5046TIP3    H215145   2.052   0.819   3.282
 5047TIP3   OH215146   4.799   0.589   4.648
 5047TIP3    H115147   4.723   0.531   4.644
 5047TIP3    H215148   4.763   0.677   4.633
 5048TIP3   OH215149   3.282   3.007   0.374
 5048TIP3    H115150   3.331   3.078   0.332
 5048TIP3    H215151   3.193   3.041   0.381
 5049TIP3   OH215152   4.134   0.626   0.219
 5049TIP3    H115153   4.052   0.629   0.267
 5049TIP3    H215154   4.188   0.564   0.268
 5050TIP3   OH215155   0.847   4.396   4.874
 5050TIP3    H115156   0.789   4.451   4.925
 5050TIP3    H215157   0.830   4.307   4.904
 5051TIP3   OH215158   2.805   1.552   0.435
 5051TIP3    H115159   2.854   1.533   0.515
 5051TIP3    H215160   2.868   1.538   0.364
 5052TIP3   OH215161   2.157   5.748   2.985
 5052TIP3    H115162   2.074   5.795   2.990
 5052TIP3    H215163   2.172   5.716   3.074
 5053TIP3   OH215164   4.432   5.573   1.236
 5053TIP3    H115165   4.386   5.494   1.263
 5053TIP3    H215166   4.363   5.637   1.219
 5054TIP3   OH215167   1.686   0.409   1.416
 5054TIP3    H115168   1.777   0.427   1.440
 5054TIP3    H215169   1.663   0.331   1.468
 5055TIP3   OH215170   1.256   2.588   2.025
 5055TIP3    H115171   1.339   2.544   2.005
 5055TIP3    H215172   1.233   2.556   2.112
 5056TIP3   OH215173   5.093   4.175   4.922
 5056TIP3    H115174   5.188   4.188   4.922
 5056TIP3    H215175   5.081   4.088   4.885
 5057TIP3   OH215176   4.715   5.732   5.145
 5057TIP3    H115177   4.641   5.790   5.125
 5057TIP3    H215178   4.674   5.652   5.177
 5058TIP3   OH215179   2.148   2.288   3.126
 5058TIP3    H115180   2.229   2.330   3.154
 5058TIP3    H215181   2.160   2.272   3.032
 5059TIP3   OH215182   5.328   2.763   4.295
 5059TIP3    H115183   5.251   2.818   4.309
 5059TIP3    H215184   5.360   2.788   4.209
 5060TIP3   OH215185   4.799   3.827   0.089
 5060TIP3    H115186   4.803   3.918   0.059
 5060TIP3    H215187   4.729   3.787   0.038
 5061TIP3   OH215188   2.131   2.740   4.735
 5061TIP3    H115189   2.115   2.707   4.824
 5061TIP3    H215190   2.085   2.824   4.732
 5062TIP3   OH215191   5.811   1.522   5.190
 5062TIP3    H115192   5.889   1.538   5.137
 5062TIP3    H215193   5.767   1.449   5.148
 5063TIP3   OH215194   1.853   5.938   4.075
 5063TIP3    H115195   1.821   5.865   4.128
 5063TIP3    H215196   1.863   6.010   4.138
 5064TIP3   OH215197   3.947   4.259   3.284
 5064TIP3    H115198   3.962   4.202   3.359
 5064TIP3    H215199   4.020   4.242   3.225
 5065TIP3   OH215200   4.574   2.995   4.922
 5065TIP3    H115201   4.574   2.902   4.899
 5065TIP3    H215202   4.483   3.014   4.944
 5066TIP3   OH215203   6.160   5.591   1.889
 5066TIP3    H115204   6.109   5.533   1.945
 5066TIP3    H215205   6.245   5.598   1.933
 5067TIP3   OH215206   6.208   1.345   0.375
 5067TIP3    H115207   6.263   1.270   0.400
 5067TIP3    H215208   6.184   1.328   0.284
 5068TIP3   OH215209   5.653   2.113   3.340
 5068TIP3    H115210   5.736   2.142   3.302
 5068TIP3    H215211   5.657   2.141   3.432
 5069TIP3   OH215212   5.094   1.709   4.860
 5069TIP3    H115213   5.186   1.702   4.834
 5069TIP3    H215214   5.061   1.785   4.811
 5070TIP3   OH215215   5.869   3.770   4.925
 5070TIP3    H115216   5.936   3.785   4.858
 5070TIP3    H215217   5.798   3.727   4.878
 5071TIP3   OH215218   3.049   0.096   1.895
 5071TIP3    H115219   3.139   0.126   1.891
 5071TIP3    H215220   2.997   0.171   1.865
 5072TIP3   OH215221   1.966   3.085   0.216
 5072TIP3    H115222   1.955   3.133   0.134
 5072TIP3    H215223   1.945   3.149   0.285
 5073TIP3   OH215224   5.457   1.116   2.423
 5073TIP3    H115225   5.523   1.136   2.490
 5073TIP3    H215226   5.442   1.022   2.431
 5074TIP3   OH215227   3.024   0.823   4.375
 5074TIP3    H115228   3.027   0.816   4.280
 5074TIP3    H215229   2.980   0.742   4.403
 5075TIP3   OH215230   3.893   5.332   1.739
 5075TIP3    H115231   3.942   5.313   1.819
 5075TIP3    H215232   3.807   5.291   1.753
 5076TIP3   OH215233   3.593   0.293   1.107
 5076TIP3    H115234   3.628   0.362   1.163
 5076TIP3    H215235   3.641   0.214   1.135
 5077TIP3   OH215236   5.059   2.364   2.500
 5077TIP3    H115237   4.978   2.413   2.516
 5077TIP3    H215238   5.092   2.346   2.588
 5078TIP3   OH215239   1.393   1.723   3.819
 5078TIP3    H115240   1.422   1.718   3.728
 5078TIP3    H215241   1.432   1.804   3.852
 5079TIP3   OH215242   5.408   4.896   2.762
 5079TIP3    H115243   5.419   4.837   2.837
 5079TIP3    H215244   5.452   4.976   2.788
 5080TIP3   OH215245   3.728   4.125   4.236
 5080TIP3    H115246   3.738   4.030   4.233
 5080TIP3    H215247   3.685   4.148   4.154
 5081TIP3   OH215248   4.652   0.824   1.978
 5081TIP3    H115249   4.565   0.794   2.002
 5081TIP3    H215250   4.665   0.904   2.029
 5082TIP3   OH215251   4.080   0.085   1.476
 5082TIP3    H115252   4.158   0.031   1.464
 5082TIP3    H215253   4.008   0.032   1.441
 5083TIP3   OH215254   5.017   0.011   4.357
 5083TIP3    H115255   4.994  -0.066   4.408
 5083TIP3    H215256   5.099   0.042   4.396
 5084TIP3   OH215257   1.107   4.213   3.152
 5084TIP3    H115258   1.110   4.215   3.056
 5084TIP3    H215259   1.043   4.280   3.175
 5085TIP3   OH215260   5.823   0.644   1.267
 5085TIP3    H115261   5.800   0.576   1.331
 5085TIP3    H215262   5.850   0.719   1.321
 5086TIP3   OH215263   2.332   2.778   5.043
 5086TIP3    H115264   2.318   2.871   5.059
 5086TIP3    H215265   2.426   2.765   5.056
 5087TIP3   OH215266   1.661   4.188   3.145
 5087TIP3    H115267   1.665   4.187   3.049
 5087TIP3    H215268   1.593   4.253   3.164
 5088TIP3   OH215269   3.247   3.340   1.774
 5088TIP3    H115270   3.201   3.264   1.738
 5088TIP3    H215271   3.186   3.413   1.762
 5089TIP3   OH215272   3.342   4.691   0.122
 5089TIP3    H115273   3.298   4.669   0.204
 5089TIP3    H215274   3.298   4.770   0.092
 5090TIP3   OH215275   1.267   5.501   3.132
 5090TIP3    H115276   1.214   5.469   3.206
 5090TIP3    H215277   1.269   5.596   3.145
 5091TIP3   OH215278   2.872   5.787   0.926
 5091TIP3    H115279   2.950   5.810   0.977
 5091TIP3    H215280   2.830   5.871   0.908
 5092TIP3   OH215281   2.872   0.658   3.459
 5092TIP3    H115282   2.872   0.696   3.371
 5092TIP3    H215283   2.856   0.565   3.445
 5093TIP3   OH215284   5.778   2.814   3.938
 5093TIP3    H115285   5.740   2.790   4.023
 5093TIP3    H215286   5.729   2.763   3.874
 5094TIP3   OH215287   3.808   3.604   3.712
 5094TIP3    H115288   3.877   3.553   3.754
 5094TIP3    H215289   3.836   3.614   3.622
 5095TIP3   OH215290   2.516   3.340   3.940
 5095TIP3    H115291   2.457   3.366   3.870
 5095TIP3    H215292   2.572   3.416   3.955
 5096TIP3   OH215293   2.477   1.883   3.071
 5096TIP3    H115294   2.550   1.904   3.129
 5096TIP3    H215295   2.440   1.969   3.049
 5097TIP3   OH215296   2.736   4.433   3.151
 5097TIP3    H115297   2.717   4.400   3.238
 5097TIP3    H215298   2.822   4.397   3.129
 5098TIP3   OH215299   3.797   2.379   0.907
 5098TIP3    H115300   3.891   2.367   0.897
 5098TIP3    H215301   3.782   2.373   1.002
 5099TIP3   OH215302   3.409   0.340   0.902
 5099TIP3    H115303   3.444   0.297   0.980
 5099TIP3    H215304   3.403   0.271   0.837
 5100TIP3   OH215305   0.878   5.889   3.614
 5100TIP3    H115306   0.800   5.843   3.582
 5100TIP3    H215307   0.844   5.969   3.654
 5101TIP3   OH215308   0.404   3.682   1.178
 5101TIP3    H115309   0.456   3.713   1.253
 5101TIP3    H215310   0.429   3.740   1.106
 5102TIP3   OH215311   2.906   4.979   0.276
 5102TIP3    H115312   2.943   4.946   0.194
 5102TIP3    H215313   2.971   4.955   0.342
 5103TIP3   OH215314   0.671   2.536   0.105
 5103TIP3    H115315   0.692   2.629   0.103
 5103TIP3    H215316   0.752   2.494   0.131
 5104TIP3   OH215317   4.063   2.354   1.212
 5104TIP3    H115318   4.077   2.445   1.241
 5104TIP3    H215319   4.141   2.307   1.242
 5105TIP3   OH215320   2.213   2.204   2.439
 5105TIP3    H115321   2.265   2.246   2.507
 5105TIP3    H215322   2.260   2.223   2.358
 5106TIP3   OH215323   1.120   5.724   3.786
 5106TIP3    H115324   1.039   5.772   3.800
 5106TIP3    H215325   1.127   5.717   3.690
 5107TIP3   OH215326   3.021   0.929   4.662
 5107TIP3    H115327   2.972   0.903   4.584
 5107TIP3    H215328   2.958   0.980   4.713
 5108TIP3   OH215329   5.554   0.502   3.620
 5108TIP3    H115330   5.539   0.466   3.708
 5108TIP3    H215331   5.471   0.545   3.597
 5109TIP3   OH215332   4.223   4.567   2.209
 5109TIP3    H115333   4.166   4.612   2.273
 5109TIP3    H215334   4.163   4.538   2.140
 5110TIP3   OH215335   1.291   0.934   2.263
 5110TIP3    H115336   1.305   1.017   2.308
 5110TIP3    H215337   1.342   0.942   2.182
 5111TIP3   OH215338   3.096   3.468   0.446
 5111TIP3    H115339   3.178   3.472   0.496
 5111TIP3    H215340   3.035   3.522   0.496
 5112TIP3   OH215341   1.056   4.161   3.614
 5112TIP3    H115342   1.151   4.171   3.613
 5112TIP3    H215343   1.037   4.107   3.538
 5113TIP3   OH215344   0.670   2.699   0.711
 5113TIP3    H115345   0.640   2.636   0.777
 5113TIP3    H215346   0.600   2.765   0.709
 5114TIP3   OH215347   4.248   1.682   0.861
 5114TIP3    H115348   4.190   1.698   0.786
 5114TIP3    H215349   4.188   1.664   0.934
 5115TIP3   OH215350   3.158   2.681   5.053
 5115TIP3    H115351   3.252   2.681   5.071
 5115TIP3    H215352   3.131   2.592   5.076
 5116TIP3   OH215353   2.967   3.137   5.072
 5116TIP3    H115354   2.955   3.229   5.051
 5116TIP3    H215355   2.962   3.092   4.987
 5117TIP3   OH215356   3.310   5.933   2.445
 5117TIP3    H115357   3.341   5.993   2.513
 5117TIP3    H215358   3.337   5.846   2.476
 5118TIP3   OH215359   1.559   2.281   1.665
 5118TIP3    H115360   1.472   2.274   1.704
 5118TIP3    H215361   1.545   2.333   1.586
 5119TIP3   OH215362   3.841   0.125   1.098
 5119TIP3    H115363   3.865   0.182   1.171
 5119TIP3    H215364   3.899   0.050   1.106
 5120TIP3   OH215365   0.622   0.954   4.919
 5120TIP3    H115366   0.648   0.985   4.832
 5120TIP3    H215367   0.546   1.008   4.941
 5121TIP3   OH215368   6.066   3.698   0.722
 5121TIP3    H115369   6.124   3.700   0.798
 5121TIP3    H215370   6.061   3.605   0.698
 5122TIP3   OH215371   4.734   2.083   3.929
 5122TIP3    H115372   4.737   2.003   3.878
 5122TIP3    H215373   4.642   2.095   3.953
 5123TIP3   OH215374   3.694   4.431   0.868
 5123TIP3    H115375   3.733   4.504   0.914
 5123TIP3    H215376   3.607   4.420   0.908
 5124TIP3   OH215377   5.214   2.786   5.041
 5124TIP3    H115378   5.149   2.753   4.979
 5124TIP3    H215379   5.292   2.802   4.987
 5125TIP3   OH215380   6.061   4.440   5.029
 5125TIP3    H115381   6.068   4.431   5.124
 5125TIP3    H215382   6.028   4.356   4.999
 5126TIP3   OH215383   2.971   2.420   2.227
 5126TIP3    H115384   2.900   2.440   2.288
 5126TIP3    H215385   2.959   2.327   2.206
 5127TIP3   OH215386   5.510   3.481   4.025
 5127TIP3    H115387   5.585   3.499   4.082
 5127TIP3    H215388   5.459   3.416   4.073
 5128TIP3   OH215389   3.267   0.865   3.976
 5128TIP3    H115390   3.360   0.845   3.988
 5128TIP3    H215391   3.264   0.918   3.896
 5129TIP3   OH215392   0.893   1.693   3.199
 5129TIP3    H115393   0.984   1.722   3.194
 5129TIP3    H215394   0.891   1.629   3.269
 5130TIP3   OH215395   0.073   2.322   1.584
 5130TIP3    H115396   0.061   2.382   1.510
 5130TIP3    H215397   0.151   2.272   1.563
 5131TIP3   OH215398   1.217   5.154   1.175
 5131TIP3    H115399   1.274   5.215   1.222
 5131TIP3    H215400   1.268   5.074   1.169
 5132TIP3   OH215401   4.569   6.006   0.098
 5132TIP3    H115402   4.609   5.932   0.052
 5132TIP3    H215403   4.615   6.083   0.064
 5133TIP3   OH215404   1.969   3.124   1.006
 5133TIP3    H115405   1.963   3.054   0.940
 5133TIP3    H215406   1.992   3.202   0.956
 5134TIP3   OH215407   5.391   3.686   1.952
 5134TIP3    H115408   5.447   3.633   1.895
 5134TIP3    H215409   5.402   3.775   1.920
 5135TIP3   OH215410   3.687   2.221   2.480
 5135TIP3    H115411   3.656   2.217   2.389
 5135TIP3    H215412   3.641   2.296   2.517
 5136TIP3   OH215413   4.315   3.972   0.439
 5136TIP3    H115414   4.331   3.918   0.516
 5136TIP3    H215415   4.244   3.928   0.393
 5137TIP3   OH215416   3.920   2.734   0.298
 5137TIP3    H115417   3.925   2.666   0.365
 5137TIP3    H215418   3.947   2.814   0.342
 5138TIP3   OH215419   1.748   5.940   3.817
 5138TIP3    H115420   1.823   5.886   3.791
 5138TIP3    H215421   1.773   5.977   3.901
 5139TIP3   OH215422   1.162   0.701   4.127
 5139TIP3    H115423   1.111   0.753   4.189
 5139TIP3    H215424   1.240   0.676   4.175
 5140TIP3   OH215425   3.752   0.447   0.645
 5140TIP3    H115426   3.786   0.428   0.733
 5140TIP3    H215427   3.657   0.437   0.654
 5141TIP3   OH215428   6.149   5.939   4.544
 5141TIP3    H115429   6.186   6.027   4.530
 5141TIP3    H215430   6.127   5.908   4.456
 5142TIP3   OH215431   3.387   1.762   1.816
 5142TIP3    H115432   3.358   1.695   1.878
 5142TIP3    H215433   3.418   1.713   1.740
 5143TIP3   OH215434   0.899   1.194   3.419
 5143TIP3    H115435   0.851   1.250   3.481
 5143TIP3    H215436   0.898   1.243   3.337
 5144TIP3   OH215437   1.048   4.809   1.426
 5144TIP3    H115438   0.981   4.761   1.475
 5144TIP3    H215439   1.131   4.783   1.465
 5145TIP3   OH215440   5.096   5.227   3.377
 5145TIP3    H115441   5.045   5.254   3.454
 5145TIP3    H215442   5.182   5.268   3.390
 5146TIP3   OH215443   6.320   1.653   1.115
 5146TIP3    H115444   6.300   1.571   1.160
 5146TIP3    H215445   6.235   1.691   1.095
 5147TIP3   OH215446   4.561   1.491   4.563
 5147TIP3    H115447   4.578   1.581   4.536
 5147TIP3    H215448   4.562   1.495   4.659
 5148TIP3   OH215449   4.521   0.403   2.505
 5148TIP3    H115450   4.542   0.387   2.413
 5148TIP3    H215451   4.445   0.347   2.522
 5149TIP3   OH215452   5.947   4.386   2.670
 5149TIP3    H115453   6.021   4.339   2.631
 5149TIP3    H215454   5.980   4.474   2.686
 5150TIP3   OH215455   5.056   2.780   1.980
 5150TIP3    H115456   5.071   2.698   2.026
 5150TIP3    H215457   5.031   2.842   2.049
 5151TIP3   OH215458   4.267   4.333   5.055
 5151TIP3    H115459   4.304   4.246   5.039
 5151TIP3    H215460   4.299   4.386   4.982
 5152TIP3   OH215461   2.083   0.567   2.660
 5152TIP3    H115462   2.032   0.647   2.676
 5152TIP3    H215463   2.153   0.595   2.600
 5153TIP3   OH215464   4.678   3.275   0.577
 5153TIP3    H115465   4.705   3.232   0.496
 5153TIP3    H215466   4.714   3.220   0.647
 5154TIP3   OH215467   3.326   1.399   0.686
 5154TIP3    H115468   3.374   1.419   0.606
 5154TIP3    H215469   3.362   1.459   0.752
 5155TIP3   OH215470   3.708   5.238   3.488
 5155TIP3    H115471   3.694   5.320   3.440
 5155TIP3    H215472   3.791   5.252   3.534
 5156TIP3   OH215473   2.845   3.061   1.833
 5156TIP3    H115474   2.901   3.136   1.851
 5156TIP3    H215475   2.793   3.087   1.757
 5157TIP3   OH215476   1.243   2.505   1.687
 5157TIP3    H115477   1.219   2.475   1.599
 5157TIP3    H215478   1.159   2.526   1.729
 5158TIP3   OH215479   4.144   0.229   0.423
 5158TIP3    H115480   4.147   0.143   0.464
 5158TIP3    H215481   4.229   0.239   0.382
 5159TIP3   OH215482   1.855   0.725   2.622
 5159TIP3    H115483   1.920   0.794   2.637
 5159TIP3    H215484   1.773   0.773   2.611
 5160TIP3   OH215485   5.655   4.136   4.118
 5160TIP3    H115486   5.663   4.053   4.072
 5160TIP3    H215487   5.661   4.113   4.211
 5161TIP3   OH215488   5.765   0.253   4.290
 5161TIP3    H115489   5.807   0.178   4.248
 5161TIP3    H215490   5.717   0.297   4.220
 5162TIP3   OH215491   5.846   0.656   2.466
 5162TIP3    H115492   5.880   0.628   2.381
 5162TIP3    H215493   5.856   0.751   2.466
 5163TIP3   OH215494   4.775   3.890   3.158
 5163TIP3    H115495   4.730   3.910   3.076
 5163TIP3    H215496   4.826   3.968   3.178
 5164TIP3   OH215497   0.213   2.711   3.517
 5164TIP3    H115498   0.220   2.797   3.557
 5164TIP3    H215499   0.122   2.686   3.530
 5165TIP3   OH215500   3.990   5.708   4.945
 5165TIP3    H115501   4.019   5.652   4.873
 5165TIP3    H215502   3.959   5.788   4.903
 5166TIP3   OH215503   1.075   1.067   0.327
 5166TIP3    H115504   1.077   0.978   0.291
 5166TIP3    H215505   1.135   1.064   0.402
 5167TIP3   OH215506   3.361   5.820   4.571
 5167TIP3    H115507   3.322   5.878   4.637
 5167TIP3    H215508   3.412   5.757   4.623
 5168TIP3   OH215509   6.012   2.422   2.413
 5168TIP3    H115510   5.985   2.476   2.487
 5168TIP3    H215511   5.932   2.378   2.385
 5169TIP3   OH215512   3.786   4.080   4.787
 5169TIP3    H115513   3.765   4.173   4.798
 5169TIP3    H215514   3.748   4.039   4.865
 5170TIP3   OH215515   6.166   2.732   4.057
 5170TIP3    H115516   6.244   2.704   4.106
 5170TIP3    H215517   6.162   2.673   3.982
 5171TIP3   OH215518   1.455   1.669   3.146
 5171TIP3    H115519   1.450   1.574   3.132
 5171TIP3    H215520   1.517   1.700   3.080
 5172TIP3   OH215521   1.154   0.871   0.108
 5172TIP3    H115522   1.249   0.865   0.118
 5172TIP3    H215523   1.121   0.789   0.145
 5173TIP3   OH215524   4.765   2.155   1.105
 5173TIP3    H115525   4.821   2.077   1.110
 5173TIP3    H215526   4.677   2.122   1.119
 5174TIP3   OH215527   1.274   0.580   3.634
 5174TIP3    H115528   1.366   0.554   3.646
 5174TIP3    H215529   1.235   0.571   3.721
 5175TIP3   OH215530   2.713   4.533   1.247
 5175TIP3    H115531   2.765   4.587   1.306
 5175TIP3    H215532   2.642   4.500   1.302
 5176TIP3   OH215533   1.028   5.059   2.621
 5176TIP3    H115534   0.956   5.040   2.680
 5176TIP3    H215535   1.101   5.082   2.678
 5177TIP3   OH215536   0.072   0.689   3.493
 5177TIP3    H115537   0.162   0.660   3.507
 5177TIP3    H215538   0.019   0.610   3.505
 5178TIP3   OH215539   3.599   1.336   3.017
 5178TIP3    H115540   3.673   1.393   3.037
 5178TIP3    H215541   3.531   1.396   2.985
 5179TIP3   OH215542   4.995   5.851   0.921
 5179TIP3    H115543   4.914   5.901   0.913
 5179TIP3    H215544   5.051   5.883   0.850
 5180TIP3   OH215545   4.112   3.503   2.620
 5180TIP3    H115546   4.055   3.527   2.693
 5180TIP3    H215547   4.195   3.481   2.661
 5181TIP3   OH215548   5.615   1.282   4.723
 5181TIP3    H115549   5.619   1.217   4.794
 5181TIP3    H215550   5.525   1.313   4.724
 5182TIP3   OH215551   2.713   3.977   4.811
 5182TIP3    H115552   2.704   3.888   4.845
 5182TIP3    H215553   2.715   4.033   4.888
 5183TIP3   OH215554   3.370   4.186   3.951
 5183TIP3    H115555   3.376   4.150   3.863
 5183TIP3    H215556   3.292   4.240   3.951
 5184TIP3   OH215557   4.282   2.156   4.976
 5184TIP3    H115558   4.247   2.219   4.912
 5184TIP3    H215559   4.264   2.197   5.061
 5185TIP3   OH215560   3.249   2.671   1.717
 5185TIP3    H115561   3.277   2.586   1.683
 5185TIP3    H215562   3.154   2.667   1.717
 5186TIP3   OH215563   2.860   0.946   3.148
 5186TIP3    H115564   2.911   0.944   3.229
 5186TIP3    H215565   2.921   0.979   3.081
 5187TIP3   OH215566   5.978   2.499   2.063
 5187TIP3    H115567   6.053   2.456   2.105
 5187TIP3    H215568   5.953   2.439   1.992
 5188TIP3   OH215569   5.406   5.786   3.546
 5188TIP3    H115570   5.344   5.739   3.602
 5188TIP3    H215571   5.414   5.732   3.468
 5189TIP3   OH215572   5.737   3.056   4.373
 5189TIP3    H115573   5.831   3.075   4.373
 5189TIP3    H215574   5.698   3.136   4.338
 5190TIP3   OH215575   4.057   3.557   4.058
 5190TIP3    H115576   3.977   3.519   4.095
 5190TIP3    H215577   4.028   3.599   3.977
 5191TIP3   OH215578   4.323   5.748   3.806
 5191TIP3    H115579   4.267   5.761   3.730
 5191TIP3    H215580   4.265   5.757   3.881
 5192TIP3   OH215581   0.053   5.157   4.229
 5192TIP3    H115582   0.112   5.229   4.207
 5192TIP3    H215583  -0.011   5.157   4.158
 5193TIP3   OH215584   4.401   4.792   3.216
 5193TIP3    H115585   4.314   4.812   3.251
 5193TIP3    H215586   4.460   4.810   3.289
 5194TIP3   OH215587   4.628   4.197   3.863
 5194TIP3    H115588   4.687   4.272   3.861
 5194TIP3    H215589   4.682   4.122   3.838
 5195TIP3   OH215590   2.623   5.268   5.028
 5195TIP3    H115591   2.632   5.226   4.942
 5195TIP3    H215592   2.648   5.200   5.091
 5196TIP3   OH215593   3.918   3.594   2.874
 5196TIP3    H115594   3.989   3.594   2.938
 5196TIP3    H215595   3.848   3.644   2.915
 5197TIP3   OH215596   1.310   3.774   5.025
 5197TIP3    H115597   1.301   3.782   5.120
 5197TIP3    H215598   1.354   3.690   5.012
 5198TIP3   OH215599   5.821   2.834   2.874
 5198TIP3    H115600   5.817   2.911   2.930
 5198TIP3    H215601   5.848   2.868   2.789
 5199TIP3   OH215602   1.499   1.104   0.315
 5199TIP3    H115603   1.476   1.020   0.274
 5199TIP3    H215604   1.512   1.083   0.407
 5200TIP3   OH215605   1.829   2.237   1.702
 5200TIP3    H115606   1.864   2.297   1.637
 5200TIP3    H215607   1.737   2.262   1.712
 5201TIP3   OH215608   3.550   3.237   3.734
 5201TIP3    H115609   3.459   3.216   3.711
 5201TIP3    H215610   3.591   3.259   3.651
 5202TIP3   OH215611   2.356   4.795   2.500
 5202TIP3    H115612   2.446   4.798   2.533
 5202TIP3    H215613   2.360   4.834   2.413
 5203TIP3   OH215614   0.498   3.661   0.359
 5203TIP3    H115615   0.414   3.636   0.322
 5203TIP3    H215616   0.488   3.648   0.453
 5204TIP3   OH215617   4.263   5.791   4.743
 5204TIP3    H115618   4.344   5.758   4.706
 5204TIP3    H215619   4.202   5.717   4.739
 5205TIP3   OH215620   5.442   1.121   0.096
 5205TIP3    H115621   5.388   1.043   0.084
 5205TIP3    H215622   5.482   1.136   0.011
 5206TIP3   OH215623   3.266   1.796   1.376
 5206TIP3    H115624   3.193   1.734   1.375
 5206TIP3    H215625   3.272   1.824   1.468
 5207TIP3   OH215626   2.367   3.039   3.737
 5207TIP3    H115627   2.288   3.072   3.693
 5207TIP3    H215628   2.437   3.054   3.674
 5208TIP3   OH215629   5.667   1.115   2.605
 5208TIP3    H115630   5.739   1.171   2.633
 5208TIP3    H215631   5.666   1.043   2.668
 5209TIP3   OH215632   0.216   4.850   1.205
 5209TIP3    H115633   0.256   4.799   1.135
 5209TIP3    H215634   0.289   4.874   1.262
 5210TIP3   OH215635   6.290   4.338   4.014
 5210TIP3    H115636   6.246   4.262   4.052
 5210TIP3    H215637   6.289   4.404   4.084
 5211TIP3   OH215638   0.622   0.921   0.610
 5211TIP3    H115639   0.716   0.916   0.630
 5211TIP3    H215640   0.619   0.957   0.521
 5212TIP3   OH215641   2.092   3.416   2.030
 5212TIP3    H115642   2.167   3.439   1.974
 5212TIP3    H215643   2.097   3.321   2.039
 5213TIP3   OH215644   2.677   5.889   4.538
 5213TIP3    H115645   2.633   5.939   4.607
 5213TIP3    H215646   2.693   5.952   4.468
 5214TIP3   OH215647   2.432   3.726   2.093
 5214TIP3    H115648   2.452   3.632   2.094
 5214TIP3    H215649   2.339   3.731   2.071
 5215TIP3   OH215650   2.961   1.063   2.931
 5215TIP3    H115651   2.965   1.069   2.835
 5215TIP3    H215652   2.921   1.146   2.958
 5216TIP3   OH215653   0.063   4.298   0.110
 5216TIP3    H115654   0.087   4.384   0.076
 5216TIP3    H215655  -0.019   4.313   0.157
 5217TIP3   OH215656   1.344   2.889   0.560
 5217TIP3    H115657   1.376   2.806   0.524
 5217TIP3    H215658   1.260   2.903   0.516
 5218TIP3   OH215659   3.865   5.375   1.226
 5218TIP3    H115660   3.958   5.386   1.249
 5218TIP3    H215661   3.829   5.320   1.295
 5219TIP3   OH215662   3.098   4.748   3.179
 5219TIP3    H115663   3.171   4.750   3.117
 5219TIP3    H215664   3.094   4.656   3.207
 5220TIP3   OH215665   0.817   5.637   3.026
 5220TIP3    H115666   0.894   5.581   3.015
 5220TIP3    H215667   0.750   5.596   2.972
 5221TIP3   OH215668   1.588   0.406   1.874
 5221TIP3    H115669   1.617   0.426   1.963
 5221TIP3    H215670   1.531   0.330   1.883
 5222TIP3   OH215671   6.067   5.532   5.042
 5222TIP3    H115672   6.105   5.454   5.000
 5222TIP3    H215673   6.083   5.519   5.135
 5223TIP3   OH215674   3.121   5.737   0.236
 5223TIP3    H115675   3.201   5.684   0.235
 5223TIP3    H215676   3.067   5.699   0.167
 5224TIP3   OH215677   3.505   5.046   0.293
 5224TIP3    H115678   3.413   5.071   0.293
 5224TIP3    H215679   3.523   5.019   0.203
 5225TIP3   OH215680   5.557   2.872   5.189
 5225TIP3    H115681   5.465   2.856   5.207
 5225TIP3    H215682   5.601   2.790   5.213
 5226TIP3   OH215683   5.339   2.281   4.409
 5226TIP3    H115684   5.358   2.375   4.409
 5226TIP3    H215685   5.341   2.256   4.316
 5227TIP3   OH215686   2.807   4.629   4.611
 5227TIP3    H115687   2.869   4.558   4.629
 5227TIP3    H215688   2.853   4.686   4.549
 5228TIP3   OH215689   3.439   3.467   1.586
 5228TIP3    H115690   3.407   3.411   1.656
 5228TIP3    H215691   3.470   3.407   1.518
 5229TIP3   OH215692   4.549   4.813   0.721
 5229TIP3    H115693   4.498   4.775   0.793
 5229TIP3    H215694   4.624   4.755   0.711
 5230TIP3   OH215695   3.876   3.098   4.896
 5230TIP3    H115696   3.844   3.176   4.850
 5230TIP3    H215697   3.937   3.057   4.834
 5231TIP3   OH215698   0.968   0.307   1.078
 5231TIP3    H115699   0.921   0.225   1.063
 5231TIP3    H215700   1.060   0.284   1.064
 5232TIP3   OH215701   6.113   5.057   5.081
 5232TIP3    H115702   6.152   5.073   4.995
 5232TIP3    H215703   6.140   5.132   5.134
 5233TIP3   OH215704   5.900   1.791   4.227
 5233TIP3    H115705   5.850   1.873   4.219
 5233TIP3    H215706   5.904   1.774   4.321
 5234TIP3   OH215707   1.472   2.352   4.630
 5234TIP3    H115708   1.538   2.407   4.589
 5234TIP3    H215709   1.482   2.367   4.724
 5235TIP3   OH215710   2.605   2.784   5.114
 5235TIP3    H115711   2.681   2.802   5.058
 5235TIP3    H215712   2.642   2.779   5.202
 5236TIP3   OH215713   1.647   0.775   4.177
 5236TIP3    H115714   1.676   0.767   4.086
 5236TIP3    H215715   1.707   0.838   4.216
 5237TIP3   OH215716   3.855   4.909   3.278
 5237TIP3    H115717   3.839   4.994   3.237
 5237TIP3    H215718   3.774   4.860   3.265
 5238TIP3   OH215719   4.249   1.386   1.810
 5238TIP3    H115720   4.230   1.439   1.733
 5238TIP3    H215721   4.169   1.390   1.862
 5239TIP3   OH215722   1.607   5.057   1.088
 5239TIP3    H115723   1.644   5.107   1.015
 5239TIP3    H215724   1.537   5.004   1.049
 5240TIP3   OH215725   0.299   5.984   0.464
 5240TIP3    H115726   0.253   6.038   0.399
 5240TIP3    H215727   0.273   6.022   0.548
 5241TIP3   OH215728   0.771   3.205   2.787
 5241TIP3    H115729   0.690   3.240   2.825
 5241TIP3    H215730   0.829   3.193   2.862
 5242TIP3   OH215731   0.455   4.056   4.667
 5242TIP3    H115732   0.407   4.070   4.748
 5242TIP3    H215733   0.547   4.056   4.693
 5243TIP3   OH215734   3.606   3.493   3.141
 5243TIP3    H115735   3.637   3.501   3.231
 5243TIP3    H215736   3.547   3.417   3.142
 5244TIP3   OH215737   4.906   2.859   2.196
 5244TIP3    H115738   4.915   2.811   2.278
 5244TIP3    H215739   4.894   2.950   2.222
 5245TIP3   OH215740   2.723   1.486   2.170
 5245TIP3    H115741   2.667   1.418   2.133
 5245TIP3    H215742   2.662   1.547   2.212
 5246TIP3   OH215743   0.412   3.551   5.139
 5246TIP3    H115744   0.452   3.537   5.054
 5246TIP3    H215745   0.390   3.645   5.140
 5247TIP3   OH215746   6.159   2.966   3.706
 5247TIP3    H115747   6.071   2.994   3.731
 5247TIP3    H215748   6.154   2.870   3.704
 5248TIP3   OH215749   1.318   4.483   3.703
 5248TIP3    H115750   1.280   4.418   3.645
 5248TIP3    H215751   1.339   4.435   3.783
 5249TIP3   OH215752   1.263   2.360   0.364
 5249TIP3    H115753   1.307   2.385   0.445
 5249TIP3    H215754   1.239   2.268   0.377
 5250TIP3   OH215755   4.732   4.476   4.452
 5250TIP3    H115756   4.694   4.528   4.381
 5250TIP3    H215757   4.688   4.391   4.444
 5251TIP3   OH215758   2.221   0.644   2.438
 5251TIP3    H115759   2.216   0.739   2.433
 5251TIP3    H215760   2.314   0.626   2.454
 5252TIP3   OH215761   4.793   2.447   2.534
 5252TIP3    H115762   4.809   2.486   2.448
 5252TIP3    H215763   4.701   2.420   2.532
 5253TIP3   OH215764   4.011   1.704   1.933
 5253TIP3    H115765   3.963   1.786   1.929
 5253TIP3    H215766   4.082   1.715   1.870
 5254TIP3   OH215767   0.621   5.902   5.029
 5254TIP3    H115768   0.536   5.860   5.014
 5254TIP3    H215769   0.600   5.994   5.043
 5255TIP3   OH215770   2.732   4.023   0.326
 5255TIP3    H115771   2.809   4.036   0.271
 5255TIP3    H215772   2.701   3.935   0.305
 5256TIP3   OH215773   0.059   0.824   0.148
 5256TIP3    H115774  -0.009   0.806   0.213
 5256TIP3    H215775   0.034   0.771   0.072
 5257TIP3   OH215776   5.576   1.419   4.275
 5257TIP3    H115777   5.485   1.448   4.281
 5257TIP3    H215778   5.573   1.325   4.296
 5258TIP3   OH215779   1.712   3.071   1.920
 5258TIP3    H115780   1.787   3.114   1.879
 5258TIP3    H215781   1.667   3.027   1.847
 5259TIP3   OH215782   5.782   0.204   1.946
 5259TIP3    H115783   5.863   0.232   1.988
 5259TIP3    H215784   5.809   0.166   1.862
 5260TIP3   OH215785   0.389   5.580   3.544
 5260TIP3    H115786   0.300   5.547   3.557
 5260TIP3    H215787   0.406   5.567   3.450
 5261TIP3   OH215788   2.452   5.503   3.211
 5261TIP3    H115789   2.508   5.481   3.136
 5261TIP3    H215790   2.441   5.598   3.205
 5262TIP3   OH215791   4.271   3.194   5.132
 5262TIP3    H115792   4.331   3.269   5.141
 5262TIP3    H215793   4.184   3.232   5.143
 5263TIP3   OH215794   2.938   0.819   2.036
 5263TIP3    H115795   2.903   0.730   2.026
 5263TIP3    H215796   2.961   0.845   1.947
 5264TIP3   OH215797   1.387   3.876   4.760
 5264TIP3    H115798   1.387   3.783   4.784
 5264TIP3    H215799   1.453   3.915   4.816
 5265TIP3   OH215800   4.714   5.868   0.989
 5265TIP3    H115801   4.741   5.905   1.073
 5265TIP3    H215802   4.630   5.910   0.970
 5266TIP3   OH215803   0.294   4.793   2.125
 5266TIP3    H115804   0.359   4.832   2.067
 5266TIP3    H215805   0.306   4.699   2.115
 5267TIP3   OH215806   2.590   2.919   3.871
 5267TIP3    H115807   2.520   2.955   3.816
 5267TIP3    H215808   2.625   2.996   3.917
 5268TIP3   OH215809   1.824   0.190   2.680
 5268TIP3    H115810   1.799   0.191   2.772
 5268TIP3    H215811   1.742   0.204   2.633
 5269TIP3   OH215812   0.516   5.564   0.903
 5269TIP3    H115813   0.533   5.621   0.977
 5269TIP3    H215814   0.599   5.521   0.885
 5270TIP3   OH215815   1.376   4.953   0.708
 5270TIP3    H115816   1.343   5.020   0.768
 5270TIP3    H215817   1.413   4.886   0.764
 5271TIP3   OH215818   0.606   3.538   3.982
 5271TIP3    H115819   0.583   3.553   4.074
 5271TIP3    H215820   0.581   3.619   3.938
 5272TIP3   OH215821   3.886   1.959   0.366
 5272TIP3    H115822   3.817   2.024   0.379
 5272TIP3    H215823   3.843   1.888   0.318
 5273TIP3   OH215824   0.138   0.866   2.092
 5273TIP3    H115825   0.146   0.786   2.041
 5273TIP3    H215826   0.080   0.922   2.041
 5274TIP3   OH215827   3.129   5.909   1.643
 5274TIP3    H115828   3.059   5.889   1.704
 5274TIP3    H215829   3.107   5.997   1.611
 5275TIP3   OH215830   2.801   3.020   0.411
 5275TIP3    H115831   2.780   3.113   0.420
 5275TIP3    H215832   2.726   2.983   0.365
 5276TIP3   OH215833   3.972   3.193   4.330
 5276TIP3    H115834   3.906   3.183   4.262
 5276TIP3    H215835   3.960   3.281   4.365
 5277TIP3   OH215836   2.403   3.339   4.246
 5277TIP3    H115837   2.428   3.334   4.153
 5277TIP3    H215838   2.321   3.290   4.251
 5278TIP3   OH215839   0.574   4.322   3.368
 5278TIP3    H115840   0.502   4.306   3.429
 5278TIP3    H215841   0.531   4.350   3.287
 5279TIP3   OH215842   0.770   4.386   1.607
 5279TIP3    H115843   0.748   4.394   1.514
 5279TIP3    H215844   0.821   4.305   1.612
 5280TIP3   OH215845   0.083   3.580   1.588
 5280TIP3    H115846   0.114   3.653   1.535
 5280TIP3    H215847   0.140   3.579   1.665
 5281TIP3   OH215848   0.643   4.720   1.739
 5281TIP3    H115849   0.687   4.788   1.688
 5281TIP3    H215850   0.578   4.683   1.679
 5282TIP3   OH215851   0.188   1.008   3.802
 5282TIP3    H115852   0.146   0.926   3.776
 5282TIP3    H215853   0.124   1.049   3.861
 5283TIP3   OH215854   3.575   4.322   0.644
 5283TIP3    H115855   3.614   4.344   0.728
 5283TIP3    H215856   3.543   4.406   0.609
 5284TIP3   OH215857   3.403   2.295   4.141
 5284TIP3    H115858   3.308   2.301   4.138
 5284TIP3    H215859   3.423   2.209   4.104
 5285TIP3   OH215860   1.350   3.702   3.841
 5285TIP3    H115861   1.261   3.679   3.869
 5285TIP3    H215862   1.384   3.623   3.800
 5286TIP3   OH215863   2.748   4.000   2.242
 5286TIP3    H115864   2.758   3.976   2.149
 5286TIP3    H215865   2.654   3.997   2.257
 5287TIP3   OH215866   4.637   4.324   1.974
 5287TIP3    H115867   4.576   4.295   1.907
 5287TIP3    H215868   4.677   4.403   1.937
 5288TIP3   OH215869   2.657   4.724   4.802
 5288TIP3    H115870   2.730   4.711   4.742
 5288TIP3    H215871   2.618   4.807   4.774
 5289TIP3   OH215872   5.833   5.751   0.980
 5289TIP3    H115873   5.837   5.681   0.914
 5289TIP3    H215874   5.740   5.758   1.001
 5290TIP3   OH215875   1.676   5.367   2.619
 5290TIP3    H115876   1.689   5.358   2.525
 5290TIP3    H215877   1.594   5.414   2.628
 5291TIP3   OH215878   0.607   0.644   2.395
 5291TIP3    H115879   0.658   0.702   2.339
 5291TIP3    H215880   0.519   0.682   2.396
 5292TIP3   OH215881   5.036   1.217   3.882
 5292TIP3    H115882   4.998   1.279   3.820
 5292TIP3    H215883   5.025   1.258   3.967
 5293TIP3   OH215884   3.016   0.198   3.758
 5293TIP3    H115885   2.958   0.273   3.770
 5293TIP3    H215886   3.034   0.168   3.848
 5294TIP3   OH215887   5.918   4.670   4.955
 5294TIP3    H115888   5.972   4.591   4.962
 5294TIP3    H215889   5.906   4.682   4.861
 5295TIP3   OH215890   3.276   4.697   0.730
 5295TIP3    H115891   3.226   4.778   0.717
 5295TIP3    H215892   3.357   4.725   0.771
 5296TIP3   OH215893   1.316   5.828   4.442
 5296TIP3    H115894   1.378   5.900   4.427
 5296TIP3    H215895   1.329   5.768   4.368
 5297TIP3   OH215896   4.753   2.074   4.633
 5297TIP3    H115897   4.812   2.132   4.585
 5297TIP3    H215898   4.666   2.114   4.621
 5298TIP3   OH215899   0.674   5.460   1.888
 5298TIP3    H115900   0.594   5.473   1.838
 5298TIP3    H215901   0.703   5.372   1.864
 5299TIP3   OH215902   1.417   0.741   4.324
 5299TIP3    H115903   1.382   0.657   4.353
 5299TIP3    H215904   1.495   0.719   4.273
 5300TIP3   OH215905   5.979   4.275   4.277
 5300TIP3    H115906   6.026   4.281   4.360
 5300TIP3    H215907   5.889   4.297   4.299
 5301TIP3   OH215908   5.364   5.488   2.785
 5301TIP3    H115909   5.314   5.463   2.707
 5301TIP3    H215910   5.434   5.423   2.790
 5302TIP3   OH215911   2.745   2.662   2.264
 5302TIP3    H115912   2.688   2.731   2.296
 5302TIP3    H215913   2.700   2.627   2.187
 5303TIP3   OH215914   4.450   5.837   5.144
 5303TIP3    H115915   4.425   5.890   5.068
 5303TIP3    H215916   4.376   5.778   5.158
 5304TIP3   OH215917   0.577   5.865   2.777
 5304TIP3    H115918   0.581   5.905   2.864
 5304TIP3    H215919   0.565   5.939   2.717
 5305TIP3   OH215920   3.161   1.564   5.058
 5305TIP3    H115921   3.105   1.609   4.995
 5305TIP3    H215922   3.133   1.473   5.054
 5306TIP3   OH215923   2.819   3.122   2.880
 5306TIP3    H115924   2.889   3.059   2.893
 5306TIP3    H215925   2.854   3.205   2.913
 5307TIP3   OH215926   5.642   3.802   1.419
 5307TIP3    H115927   5.657   3.723   1.367
 5307TIP3    H215928   5.600   3.770   1.499
 5308TIP3   OH215929   4.116   5.420   1.307
 5308TIP3    H115930   4.189   5.374   1.350
 5308TIP3    H215931   4.128   5.512   1.332
 5309TIP3   OH215932   2.046   4.942   0.093
 5309TIP3    H115933   2.115   4.957   0.157
 5309TIP3    H215934   2.086   4.885   0.027
 5310TIP3   OH215935   4.921   3.292   4.857
 5310TIP3    H115936   4.954   3.224   4.914
 5310TIP3    H215937   4.982   3.294   4.783
 5311TIP3   OH215938   6.267   4.850   5.224
 5311TIP3    H115939   6.203   4.914   5.256
 5311TIP3    H215940   6.304   4.892   5.146
 5312TIP3   OH215941   0.100   3.680   3.741
 5312TIP3    H115942   0.154   3.645   3.812
 5312TIP3    H215943   0.010   3.661   3.768
 5313TIP3   OH215944   0.281   0.389   1.816
 5313TIP3    H115945   0.360   0.359   1.860
 5313TIP3    H215946   0.313   0.441   1.743
 5314TIP3   OH215947   3.366   4.602   3.502
 5314TIP3    H115948   3.344   4.510   3.489
 5314TIP3    H215949   3.417   4.603   3.583
 5315TIP3   OH215950   4.980   5.475   1.256
 5315TIP3    H115951   4.904   5.479   1.198
 5315TIP3    H215952   5.055   5.473   1.196
 5316TIP3   OH215953   4.960   0.307   3.286
 5316TIP3    H115954   5.027   0.307   3.354
 5316TIP3    H215955   4.950   0.399   3.262
 5317TIP3   OH215956   1.511   3.516   0.100
 5317TIP3    H115957   1.508   3.428   0.137
 5317TIP3    H215958   1.423   3.551   0.115
 5318TIP3   OH215959   2.119   1.638   1.794
 5318TIP3    H115960   2.072   1.585   1.729
 5318TIP3    H215961   2.187   1.683   1.743
 5319TIP3   OH215962   2.600   5.427   2.538
 5319TIP3    H115963   2.592   5.343   2.494
 5319TIP3    H215964   2.674   5.470   2.495
 5320TIP3   OH215965   3.230   4.909   1.681
 5320TIP3    H115966   3.314   4.870   1.705
 5320TIP3    H215967   3.241   5.002   1.699
 5321TIP3   OH215968   3.591   0.748   2.778
 5321TIP3    H115969   3.610   0.663   2.818
 5321TIP3    H215970   3.497   0.745   2.759
 5322TIP3   OH215971   3.298   4.079   1.563
 5322TIP3    H115972   3.367   4.014   1.546
 5322TIP3    H215973   3.325   4.156   1.514
 5323TIP3   OH215974   0.731   5.024   4.960
 5323TIP3    H115975   0.803   4.992   4.905
 5323TIP3    H215976   0.661   4.960   4.947
 5324TIP3   OH215977   2.793   5.520   4.283
 5324TIP3    H115978   2.841   5.586   4.333
 5324TIP3    H215979   2.797   5.551   4.193
 5325TIP3   OH215980   2.987   0.184   1.078
 5325TIP3    H115981   2.955   0.094   1.084
 5325TIP3    H215982   3.056   0.189   1.144
 5326TIP3   OH215983   3.424   5.575   4.695
 5326TIP3    H115984   3.453   5.575   4.787
 5326TIP3    H215985   3.339   5.530   4.697
 5327TIP3   OH215986   4.720   4.331   4.180
 5327TIP3    H115987   4.779   4.403   4.160
 5327TIP3    H215988   4.633   4.363   4.153
 5328TIP3   OH215989   3.431   3.894   1.426
 5328TIP3    H115990   3.392   3.883   1.339
 5328TIP3    H215991   3.525   3.886   1.411
 5329TIP3   OH215992   5.575   2.007   0.259
 5329TIP3    H115993   5.655   2.059   0.254
 5329TIP3    H215994   5.511   2.055   0.206
 5330TIP3   OH215995   2.325   1.026   3.740
 5330TIP3    H115996   2.315   1.096   3.804
 5330TIP3    H215997   2.336   0.947   3.792
 5331TIP3   OH215998   1.429   2.764   2.419
 5331TIP3    H115999   1.407   2.827   2.350
 5331TIP3    H216000   1.347   2.751   2.466
 5332TIP3   OH216001   2.494   5.727   3.789
 5332TIP3    H116002   2.535   5.678   3.861
 5332TIP3    H216003   2.558   5.723   3.718
 5333TIP3   OH216004   2.218   1.805   3.782
 5333TIP3    H116005   2.240   1.808   3.689
 5333TIP3    H216006   2.195   1.714   3.799
 5334TIP3   OH216007   4.905   4.746   0.284
 5334TIP3    H116008   4.954   4.777   0.361
 5334TIP3    H216009   4.824   4.797   0.285
 5335TIP3   OH216010   3.030   4.769   0.900
 5335TIP3    H116011   2.963   4.741   0.837
 5335TIP3    H216012   3.043   4.862   0.881
 5336TIP3   OH216013   0.257   3.284   4.639
 5336TIP3    H116014   0.214   3.360   4.600
 5336TIP3    H216015   0.226   3.282   4.729
 5337TIP3   OH216016   1.768   2.089   3.118
 5337TIP3    H116017   1.732   2.100   3.206
 5337TIP3    H216018   1.799   2.176   3.094
 5338TIP3   OH216019   1.509   2.480   1.980
 5338TIP3    H116020   1.566   2.403   1.974
 5338TIP3    H216021   1.555   2.539   2.040
 5339TIP3   OH216022   0.114   0.438   2.042
 5339TIP3    H116023   0.186   0.484   2.086
 5339TIP3    H216024   0.149   0.418   1.955
 5340TIP3   OH216025   2.825   4.975   5.079
 5340TIP3    H116026   2.779   4.951   5.159
 5340TIP3    H216027   2.913   4.940   5.090
 5341TIP3   OH216028   1.065   1.786   0.411
 5341TIP3    H116029   1.021   1.867   0.435
 5341TIP3    H216030   1.015   1.753   0.336
 5342TIP3   OH216031   4.407   4.206   1.818
 5342TIP3    H116032   4.327   4.154   1.826
 5342TIP3    H216033   4.478   4.146   1.840
 5343TIP3   OH216034   4.451   5.778   0.323
 5343TIP3    H116035   4.371   5.828   0.306
 5343TIP3    H216036   4.423   5.686   0.315
 5344TIP3   OH216037   5.013   4.814   2.294
 5344TIP3    H116038   4.920   4.796   2.309
 5344TIP3    H216039   5.051   4.813   2.382
 5345TIP3   OH216040   2.296   0.985   2.597
 5345TIP3    H116041   2.235   1.056   2.577
 5345TIP3    H216042   2.320   0.949   2.512
 5346TIP3   OH216043   1.974   4.162   2.273
 5346TIP3    H116044   1.973   4.067   2.265
 5346TIP3    H216045   1.882   4.187   2.262
 5347TIP3   OH216046   5.836   5.729   4.452
 5347TIP3    H116047   5.879   5.681   4.523
 5347TIP3    H216048   5.904   5.740   4.386
 5348TIP3   OH216049   6.049   4.317   2.933
 5348TIP3    H116050   6.086   4.403   2.954
 5348TIP3    H216051   6.026   4.323   2.841
 5349TIP3   OH216052   0.641   3.598   3.594
 5349TIP3    H116053   0.559   3.633   3.628
 5349TIP3    H216054   0.616   3.519   3.547
 5350TIP3   OH216055   5.320   4.181   4.557
 5350TIP3    H116056   5.271   4.098   4.561
 5350TIP3    H216057   5.252   4.247   4.544
 5351TIP3   OH216058   4.416   4.998   0.323
 5351TIP3    H116059   4.506   4.990   0.291
 5351TIP3    H216060   4.395   5.091   0.316
 5352TIP3   OH216061   3.422   1.248   3.849
 5352TIP3    H116062   3.342   1.253   3.797
 5352TIP3    H216063   3.423   1.329   3.900
 5353TIP3   OH216064   2.943   1.604   4.878
 5353TIP3    H116065   2.859   1.594   4.923
 5353TIP3    H216066   2.924   1.580   4.787
 5354TIP3   OH216067   3.533   5.139   3.756
 5354TIP3    H116068   3.622   5.157   3.787
 5354TIP3    H216069   3.489   5.224   3.756
 5355TIP3   OH216070   1.800   5.585   2.751
 5355TIP3    H116071   1.883   5.597   2.704
 5355TIP3    H216072   1.761   5.507   2.711
 5356TIP3   OH216073   6.270   5.625   3.280
 5356TIP3    H116074   6.205   5.653   3.345
 5356TIP3    H216075   6.238   5.661   3.198
 5357TIP3   OH216076   3.255   4.027   0.995
 5357TIP3    H116077   3.265   3.992   0.906
 5357TIP3    H216078   3.265   4.122   0.985
 5358TIP3   OH216079   4.483   3.389   4.105
 5358TIP3    H116080   4.417   3.382   4.174
 5358TIP3    H216081   4.435   3.422   4.029
 5359TIP3   OH216082   2.158   5.403   2.449
 5359TIP3    H116083   2.114   5.479   2.487
 5359TIP3    H216084   2.095   5.368   2.386
 5360TIP3   OH216085   5.700   2.249   1.079
 5360TIP3    H116086   5.660   2.253   0.992
 5360TIP3    H216087   5.783   2.204   1.066
 5361TIP3   OH216088   3.998   4.146   0.613
 5361TIP3    H116089   3.941   4.192   0.674
 5361TIP3    H216090   3.941   4.080   0.573
 5362TIP3   OH216091   0.614   3.360   1.092
 5362TIP3    H116092   0.629   3.281   1.040
 5362TIP3    H216093   0.698   3.378   1.134
 5363TIP3   OH216094   0.861   5.276   2.930
 5363TIP3    H116095   0.930   5.336   2.904
 5363TIP3    H216096   0.906   5.193   2.945
 5364TIP3   OH216097   6.327   2.779   2.869
 5364TIP3    H116098   6.362   2.782   2.958
 5364TIP3    H216099   6.256   2.842   2.869
 5365TIP3   OH216100   2.396   5.790   4.622
 5365TIP3    H116101   2.414   5.753   4.536
 5365TIP3    H216102   2.443   5.874   4.622
 5366TIP3   OH216103   3.431   1.615   2.781
 5366TIP3    H116104   3.477   1.661   2.851
 5366TIP3    H216105   3.348   1.588   2.820
 5367TIP3   OH216106   1.101   0.984   2.862
 5367TIP3    H116107   1.161   1.027   2.801
 5367TIP3    H216108   1.027   1.044   2.869
 5368TIP3   OH216109   1.112   5.767   1.989
 5368TIP3    H116110   1.144   5.683   1.956
 5368TIP3    H216111   1.114   5.825   1.913
 5369TIP3   OH216112   3.678   0.718   4.751
 5369TIP3    H116113   3.618   0.792   4.744
 5369TIP3    H216114   3.733   0.723   4.673
 5370TIP3   OH216115   3.290   1.521   3.657
 5370TIP3    H116116   3.272   1.555   3.569
 5370TIP3    H216117   3.306   1.599   3.710
 5371TIP3   OH216118   5.366   1.934   4.300
 5371TIP3    H116119   5.291   1.991   4.280
 5371TIP3    H216120   5.434   1.993   4.332
 5372TIP3   OH216121   5.962   1.392   1.238
 5372TIP3    H116122   5.900   1.452   1.280
 5372TIP3    H216123   6.048   1.428   1.259
 5373TIP3   OH216124   6.179   0.047   2.530
 5373TIP3    H116125   6.241   0.025   2.461
 5373TIP3    H216126   6.155   0.138   2.513
 5374TIP3   OH216127   0.337   2.522   4.970
 5374TIP3    H116128   0.254   2.505   4.925
 5374TIP3    H216129   0.353   2.615   4.956
 5375TIP3   OH216130   0.774   1.059   3.134
 5375TIP3    H116131   0.849   1.117   3.119
 5375TIP3    H216132   0.703   1.117   3.159
 5376TIP3   OH216133   6.100   4.128   4.071
 5376TIP3    H116134   6.034   4.184   4.111
 5376TIP3    H216135   6.126   4.067   4.141
 5377TIP3   OH216136   2.292   0.136   0.264
 5377TIP3    H116137   2.237   0.133   0.186
 5377TIP3    H216138   2.353   0.208   0.249
 5378TIP3   OH216139   2.533   4.588   4.523
 5378TIP3    H116140   2.493   4.516   4.573
 5378TIP3    H216141   2.624   4.588   4.551
 5379TIP3   OH216142   5.398   3.021   2.725
 5379TIP3    H116143   5.461   3.086   2.694
 5379TIP3    H216144   5.388   3.040   2.818
 5380TIP3   OH216145   4.652   1.177   2.412
 5380TIP3    H116146   4.656   1.133   2.327
 5380TIP3    H216147   4.610   1.262   2.393
 5381TIP3   OH216148   1.490   5.742   5.013
 5381TIP3    H116149   1.420   5.688   4.974
 5381TIP3    H216150   1.570   5.693   4.995
 5382TIP3   OH216151   1.304   2.257   1.817
 5382TIP3    H116152   1.263   2.224   1.897
 5382TIP3    H216153   1.279   2.350   1.814
 5383TIP3   OH216154   5.993   5.238   2.881
 5383TIP3    H116155   6.033   5.295   2.946
 5383TIP3    H216156   6.036   5.154   2.893
 5384TIP3   OH216157   1.918   4.744   2.916
 5384TIP3    H116158   1.945   4.792   2.837
 5384TIP3    H216159   1.822   4.748   2.914
 5385TIP3   OH216160   3.047   1.040   3.323
 5385TIP3    H116161   3.121   0.996   3.281
 5385TIP3    H216162   3.029   0.988   3.401
 5386TIP3   OH216163   4.644   3.309   4.548
 5386TIP3    H116164   4.600   3.375   4.603
 5386TIP3    H216165   4.587   3.232   4.553
 5387TIP3   OH216166   3.498   0.502   1.917
 5387TIP3    H116167   3.533   0.498   2.007
 5387TIP3    H216168   3.517   0.415   1.881
 5388TIP3   OH216169   6.248   4.509   1.376
 5388TIP3    H116170   6.294   4.593   1.381
 5388TIP3    H216171   6.159   4.532   1.349
 5389TIP3   OH216172   3.214   1.823   0.791
 5389TIP3    H116173   3.297   1.847   0.834
 5389TIP3    H216174   3.213   1.877   0.712
 5390TIP3   OH216175   4.520   5.502   0.789
 5390TIP3    H116176   4.476   5.437   0.735
 5390TIP3    H216177   4.451   5.544   0.839
 5391TIP3   OH216178   4.669   5.527   0.134
 5391TIP3    H116179   4.578   5.532   0.165
 5391TIP3    H216180   4.664   5.480   0.051
 5392TIP3   OH216181   3.259   3.821   3.232
 5392TIP3    H116182   3.257   3.791   3.323
 5392TIP3    H216183   3.352   3.820   3.210
 5393TIP3   OH216184   4.783   4.671   0.646
 5393TIP3    H116185   4.824   4.757   0.654
 5393TIP3    H216186   4.844   4.612   0.689
 5394TIP3   OH216187   4.335   0.546   0.395
 5394TIP3    H116188   4.303   0.553   0.484
 5394TIP3    H216189   4.421   0.587   0.396
 5395TIP3   OH216190   4.218   5.272   1.798
 5395TIP3    H116191   4.143   5.272   1.858
 5395TIP3    H216192   4.275   5.341   1.830
 5396TIP3   OH216193   0.252   1.555   0.265
 5396TIP3    H116194   0.176   1.543   0.321
 5396TIP3    H216195   0.240   1.491   0.195
 5397TIP3   OH216196   3.096   4.050   1.858
 5397TIP3    H116197   3.081   4.040   1.764
 5397TIP3    H216198   3.067   4.139   1.877
 5398TIP3   OH216199   3.555   1.726   3.003
 5398TIP3    H116200   3.621   1.795   3.004
 5398TIP3    H216201   3.482   1.762   3.055
 5399TIP3   OH216202   5.485   3.814   0.678
 5399TIP3    H116203   5.402   3.827   0.723
 5399TIP3    H216204   5.485   3.721   0.654
 5400TIP3   OH216205   0.854   0.042   1.486
 5400TIP3    H116206   0.885   0.082   1.405
 5400TIP3    H216207   0.931   0.039   1.542
 5401TIP3   OH216208   3.696   2.606   3.983
 5401TIP3    H116209   3.710   2.598   3.889
 5401TIP3    H216210   3.601   2.597   3.994
 5402TIP3   OH216211   0.203   1.526   4.165
 5402TIP3    H116212   0.165   1.590   4.104
 5402TIP3    H216213   0.286   1.502   4.125
 5403TIP3   OH216214   2.293   5.650   1.565
 5403TIP3    H116215   2.387   5.639   1.578
 5403TIP3    H216216   2.253   5.582   1.620
 5404TIP3   OH216217   5.273   0.573   3.453
 5404TIP3    H116218   5.341   0.620   3.404
 5404TIP3    H216219   5.286   0.599   3.544
 5405TIP3   OH216220   5.317   4.457   0.723
 5405TIP3    H116221   5.347   4.455   0.632
 5405TIP3    H216222   5.279   4.545   0.733
 5406TIP3   OH216223   1.842   4.074   0.936
 5406TIP3    H116224   1.799   4.159   0.932
 5406TIP3    H216225   1.924   4.087   0.889
 5407TIP3   OH216226   5.110   3.563   3.296
 5407TIP3    H116227   5.017   3.585   3.304
 5407TIP3    H216228   5.155   3.648   3.301
 5408TIP3   OH216229   3.776   3.413   0.950
 5408TIP3    H116230   3.733   3.363   1.020
 5408TIP3    H216231   3.708   3.423   0.883
 5409TIP3   OH216232   3.244   5.109   1.021
 5409TIP3    H116233   3.149   5.105   1.026
 5409TIP3    H216234   3.269   5.175   1.084
 5410TIP3   OH216235   3.463   4.683   1.425
 5410TIP3    H116236   3.389   4.624   1.438
 5410TIP3    H216237   3.439   4.737   1.350
 5411TIP3   OH216238   1.527   0.823   0.837
 5411TIP3    H116239   1.432   0.831   0.841
 5411TIP3    H216240   1.548   0.824   0.743
 5412TIP3   OH216241   4.600   1.828   4.548
 5412TIP3    H116242   4.649   1.910   4.541
 5412TIP3    H216243   4.560   1.830   4.635
 5413TIP3   OH216244   2.086   4.623   0.929
 5413TIP3    H116245   2.176   4.591   0.919
 5413TIP3    H216246   2.088   4.672   1.012
 5414TIP3   OH216247   3.396   5.411   3.486
 5414TIP3    H116248   3.353   5.489   3.519
 5414TIP3    H216249   3.430   5.437   3.401
 5415TIP3   OH216250   5.283   1.538   4.631
 5415TIP3    H116251   5.327   1.578   4.706
 5415TIP3    H216252   5.305   1.445   4.637
 5416TIP3   OH216253   0.773   5.247   0.052
 5416TIP3    H116254   0.711   5.313   0.082
 5416TIP3    H216255   0.856   5.293   0.044
 5417TIP3   OH216256   5.358   4.897   4.609
 5417TIP3    H116257   5.368   4.922   4.517
 5417TIP3    H216258   5.294   4.959   4.644
 5418TIP3   OH216259   3.754  -0.044   0.553
 5418TIP3    H116260   3.791   0.043   0.569
 5418TIP3    H216261   3.704  -0.034   0.472
 5419TIP3   OH216262   0.556   2.914   5.140
 5419TIP3    H116263   0.621   2.984   5.141
 5419TIP3    H216264   0.583   2.855   5.211
 5420TIP3   OH216265   4.966   2.669   0.637
 5420TIP3    H116266   4.953   2.657   0.543
 5420TIP3    H216267   5.025   2.744   0.644
 5421TIP3   OH216268   0.351   1.949   2.107
 5421TIP3    H116269   0.321   1.862   2.081
 5421TIP3    H216270   0.346   1.948   2.203
 5422TIP3   OH216271   5.474   5.293   1.821
 5422TIP3    H116272   5.402   5.266   1.878
 5422TIP3    H216273   5.492   5.215   1.768
 5423TIP3   OH216274   2.115   3.149   2.729
 5423TIP3    H116275   2.118   3.108   2.643
 5423TIP3    H216276   2.177   3.222   2.724
 5424TIP3   OH216277   6.347   3.891   5.122
 5424TIP3    H116278   6.254   3.882   5.139
 5424TIP3    H216279   6.390   3.853   5.200
 5425TIP3   OH216280   4.853   1.266   0.775
 5425TIP3    H116281   4.783   1.272   0.840
 5425TIP3    H216282   4.904   1.346   0.788
 5426TIP3   OH216283   0.880   3.907   2.224
 5426TIP3    H116284   0.864   3.813   2.236
 5426TIP3    H216285   0.810   3.950   2.273
 5427TIP3   OH216286   1.854   0.634   4.844
 5427TIP3    H116287   1.851   0.666   4.934
 5427TIP3    H216288   1.766   0.598   4.828
 5428TIP3   OH216289   3.786   3.752   4.559
 5428TIP3    H116290   3.840   3.827   4.583
 5428TIP3    H216291   3.698   3.788   4.550
 5429TIP3   OH216292   2.196   0.276   2.600
 5429TIP3    H116293   2.283   0.259   2.562
 5429TIP3    H216294   2.172   0.363   2.568
 5430TIP3   OH216295   4.954   3.905   4.033
 5430TIP3    H116296   4.928   3.997   4.024
 5430TIP3    H216297   5.043   3.909   4.068
 5431TIP3   OH216298   0.901   2.341   3.718
 5431TIP3    H116299   0.893   2.324   3.625
 5431TIP3    H216300   0.863   2.428   3.731
 5432TIP3   OH216301   1.461   3.464   4.221
 5432TIP3    H116302   1.457   3.445   4.315
 5432TIP3    H216303   1.456   3.560   4.216
 5433TIP3   OH216304   1.533   0.233   1.576
 5433TIP3    H116305   1.456   0.285   1.552
 5433TIP3    H216306   1.518   0.210   1.668
 5434TIP3   OH216307   5.440   0.324   1.402
 5434TIP3    H116308   5.391   0.404   1.383
 5434TIP3    H216309   5.469   0.334   1.493
 5435TIP3   OH216310   2.255   1.264   0.622
 5435TIP3    H116311   2.177   1.212   0.604
 5435TIP3    H216312   2.253   1.334   0.557
 5436TIP3   OH216313   4.767   4.862   0.931
 5436TIP3    H116314   4.695   4.912   0.892
 5436TIP3    H216315   4.837   4.868   0.867
 5437TIP3   OH216316   2.763   3.386   1.498
 5437TIP3    H116317   2.690   3.423   1.549
 5437TIP3    H216318   2.736   3.396   1.407
 5438TIP3   OH216319   5.035   5.878   3.506
 5438TIP3    H116320   5.089   5.886   3.585
 5438TIP3    H216321   4.946   5.865   3.539
 5439TIP3   OH216322   2.586   1.284   0.487
 5439TIP3    H116323   2.634   1.334   0.421
 5439TIP3    H216324   2.516   1.241   0.439
 5440TIP3   OH216325   6.137   4.420   3.794
 5440TIP3    H116326   6.167   4.336   3.758
 5440TIP3    H216327   6.166   4.419   3.885
 5441TIP3   OH216328   2.363   4.782   1.940
 5441TIP3    H116329   2.290   4.787   2.002
 5441TIP3    H216330   2.440   4.807   1.991
 5442TIP3   OH216331   4.712   3.420   3.496
 5442TIP3    H116332   4.707   3.460   3.409
 5442TIP3    H216333   4.622   3.392   3.515
 5443TIP3   OH216334   4.849   2.765   2.690
 5443TIP3    H116335   4.906   2.755   2.615
 5443TIP3    H216336   4.846   2.859   2.707
 5444TIP3   OH216337   0.610   2.363   2.605
 5444TIP3    H116338   0.638   2.272   2.598
 5444TIP3    H216339   0.686   2.409   2.640
 5445TIP3   OH216340   2.508   3.706   0.643
 5445TIP3    H116341   2.539   3.762   0.714
 5445TIP3    H216342   2.583   3.700   0.584
 5446TIP3   OH216343   3.261   2.875   0.938
 5446TIP3    H116344   3.229   2.965   0.939
 5446TIP3    H216345   3.210   2.831   1.006
 5447TIP3   OH216346   5.844   1.190   0.224
 5447TIP3    H116347   5.803   1.199   0.138
 5447TIP3    H216348   5.919   1.249   0.220
 5448TIP3   OH216349   3.667   0.917   3.050
 5448TIP3    H116350   3.694   0.901   2.960
 5448TIP3    H216351   3.615   0.841   3.074
 5449TIP3   OH216352   2.644   4.971   4.660
 5449TIP3    H116353   2.645   5.066   4.672
 5449TIP3    H216354   2.688   4.957   4.576
 5450TIP3   OH216355   4.456   3.480   4.667
 5450TIP3    H116356   4.386   3.435   4.714
 5450TIP3    H216357   4.415   3.560   4.635
 5451TIP3   OH216358   3.268   1.012   3.752
 5451TIP3    H116359   3.329   1.017   3.678
 5451TIP3    H216360   3.218   1.093   3.747
 5452TIP3   OH216361   2.791   1.790   4.574
 5452TIP3    H116362   2.863   1.735   4.605
 5452TIP3    H216363   2.755   1.743   4.498
 5453TIP3   OH216364   2.370   4.103   0.872
 5453TIP3    H116365   2.295   4.043   0.879
 5453TIP3    H216366   2.445   4.050   0.897
 5454TIP3   OH216367   1.098   3.267   4.601
 5454TIP3    H116368   1.056   3.248   4.685
 5454TIP3    H216369   1.191   3.257   4.618
 5455TIP3   OH216370   4.207   2.220   1.761
 5455TIP3    H116371   4.166   2.147   1.715
 5455TIP3    H216372   4.301   2.200   1.760
 5456TIP3   OH216373   0.803   4.012   4.474
 5456TIP3    H116374   0.765   4.056   4.550
 5456TIP3    H216375   0.888   3.979   4.504
 5457TIP3   OH216376   5.998   3.248   2.755
 5457TIP3    H116377   5.940   3.254   2.680
 5457TIP3    H216378   5.999   3.336   2.792
 5458TIP3   OH216379   1.806   5.792   1.690
 5458TIP3    H116380   1.736   5.805   1.626
 5458TIP3    H216381   1.887   5.804   1.640
 5459TIP3   OH216382   4.829   0.661   4.368
 5459TIP3    H116383   4.835   0.757   4.375
 5459TIP3    H216384   4.806   0.631   4.456
 5460TIP3   OH216385   6.285   1.736   3.791
 5460TIP3    H116386   6.195   1.769   3.783
 5460TIP3    H216387   6.340   1.814   3.783
 5461TIP3   OH216388   0.966   0.207   3.332
 5461TIP3    H116389   0.905   0.190   3.404
 5461TIP3    H216390   1.044   0.156   3.354
 5462TIP3   OH216391   4.213   3.346   2.930
 5462TIP3    H116392   4.237   3.285   3.000
 5462TIP3    H216393   4.182   3.289   2.859
 5463TIP3   OH216394   2.930   4.454   5.032
 5463TIP3    H116395   2.869   4.486   5.099
 5463TIP3    H216396   2.984   4.529   5.010
 5464TIP3   OH216397   3.592   5.757   4.006
 5464TIP3    H116398   3.580   5.825   3.939
 5464TIP3    H216399   3.520   5.770   4.067
 5465TIP3   OH216400   5.438   5.305   3.095
 5465TIP3    H116401   5.464   5.397   3.095
 5465TIP3    H216402   5.419   5.286   3.187
 5466TIP3   OH216403   6.116   1.375   2.027
 5466TIP3    H116404   6.061   1.309   1.985
 5466TIP3    H216405   6.188   1.324   2.065
 5467TIP3   OH216406   3.614   3.163   1.748
 5467TIP3    H116407   3.621   3.255   1.722
 5467TIP3    H216408   3.701   3.141   1.781
 5468TIP3   OH216409   3.413   2.462  -0.009
 5468TIP3    H116410   3.421   2.543  -0.059
 5468TIP3    H216411   3.489   2.461   0.048
 5469TIP3   OH216412   3.147   0.326   0.532
 5469TIP3    H116413   3.063   0.344   0.575
 5469TIP3    H216414   3.159   0.232   0.544
 5470TIP3   OH216415   3.633   2.776   2.921
 5470TIP3    H116416   3.718   2.775   2.877
 5470TIP3    H216417   3.637   2.702   2.982
 5471TIP3   OH216418   4.987   0.853   2.913
 5471TIP3    H116419   5.071   0.823   2.948
 5471TIP3    H216420   4.998   0.947   2.899
 5472TIP3   OH216421   2.198   4.693   2.162
 5472TIP3    H116422   2.179   4.613   2.112
 5472TIP3    H216423   2.261   4.665   2.228
 5473TIP3   OH216424   2.157   2.302   0.184
 5473TIP3    H116425   2.189   2.390   0.201
 5473TIP3    H216426   2.063   2.313   0.169
 5474TIP3   OH216427   3.801   5.197   3.874
 5474TIP3    H116428   3.796   5.292   3.864
 5474TIP3    H216429   3.892   5.176   3.855
 5475TIP3   OH216430   0.859   0.647   3.841
 5475TIP3    H116431   0.829   0.619   3.755
 5475TIP3    H216432   0.820   0.584   3.902
 5476TIP3   OH216433   3.558   2.013   2.189
 5476TIP3    H116434   3.480   2.047   2.234
 5476TIP3    H216435   3.629   2.068   2.222
 5477TIP3   OH216436   3.005   0.225   4.262
 5477TIP3    H116437   2.918   0.258   4.284
 5477TIP3    H216438   3.057   0.304   4.245
 5478TIP3   OH216439   3.865   1.481   4.067
 5478TIP3    H116440   3.792   1.519   4.017
 5478TIP3    H216441   3.866   1.389   4.041
 5479TIP3   OH216442   4.601   0.387   2.255
 5479TIP3    H116443   4.671   0.446   2.282
 5479TIP3    H216444   4.591   0.403   2.161
 5480TIP3   OH216445   4.546   3.141   0.363
 5480TIP3    H116446   4.470   3.182   0.404
 5480TIP3    H216447   4.595   3.213   0.325
 5481TIP3   OH216448   1.336   0.290   2.755
 5481TIP3    H116449   1.404   0.305   2.690
 5481TIP3    H216450   1.361   0.207   2.798
 5482TIP3   OH216451   0.824   2.653   4.188
 5482TIP3    H116452   0.854   2.615   4.105
 5482TIP3    H216453   0.895   2.635   4.250
 5483TIP3   OH216454   4.893   1.215   0.519
 5483TIP3    H116455   4.889   1.235   0.613
 5483TIP3    H216456   4.986   1.201   0.502
 5484TIP3   OH216457   1.617   3.856   3.572
 5484TIP3    H116458   1.578   3.882   3.489
 5484TIP3    H216459   1.710   3.876   3.562
 5485TIP3   OH216460   4.094   1.888   1.132
 5485TIP3    H116461   4.055   1.944   1.064
 5485TIP3    H216462   4.102   1.802   1.090
 5486TIP3   OH216463   5.371   3.317   3.723
 5486TIP3    H116464   5.452   3.367   3.714
 5486TIP3    H216465   5.304   3.383   3.743
 5487TIP3   OH216466   3.489   1.538   2.319
 5487TIP3    H116467   3.459   1.573   2.403
 5487TIP3    H216468   3.475   1.610   2.257
 5488TIP3   OH216469   4.267   2.838   4.448
 5488TIP3    H116470   4.303   2.923   4.422
 5488TIP3    H216471   4.256   2.845   4.543
 5489TIP3   OH216472   1.792   1.084   3.224
 5489TIP3    H116473   1.841   1.016   3.179
 5489TIP3    H216474   1.735   1.122   3.157
 5490TIP3   OH216475   4.582   1.461   0.203
 5490TIP3    H116476   4.653   1.400   0.223
 5490TIP3    H216477   4.562   1.502   0.287
 5491TIP3   OH216478   2.309   0.264   4.754
 5491TIP3    H116479   2.214   0.278   4.763
 5491TIP3    H216480   2.323   0.252   4.661
 5492TIP3   OH216481   6.394   3.194   4.866
 5492TIP3    H116482   6.384   3.287   4.885
 5492TIP3    H216483   6.321   3.172   4.808
 5493TIP3   OH216484   1.057   0.212   3.054
 5493TIP3    H116485   1.127   0.152   3.079
 5493TIP3    H216486   1.003   0.219   3.133
 5494TIP3   OH216487   4.451   3.821   0.690
 5494TIP3    H116488   4.368   3.796   0.730
 5494TIP3    H216489   4.489   3.885   0.751
 5495TIP3   OH216490   5.679   1.502   1.373
 5495TIP3    H116491   5.603   1.470   1.324
 5495TIP3    H216492   5.656   1.593   1.396
 5496TIP3   OH216493   2.321   3.524   2.973
 5496TIP3    H116494   2.300   3.450   2.917
 5496TIP3    H216495   2.245   3.534   3.030
 5497TIP3   OH216496   4.144   4.588   4.522
 5497TIP3    H116497   4.091   4.543   4.588
 5497TIP3    H216498   4.081   4.623   4.459
 5498TIP3   OH216499   0.237   3.659   1.830
 5498TIP3    H116500   0.161   3.680   1.884
 5498TIP3    H216501   0.281   3.588   1.878
 5499TIP3   OH216502   2.781   0.183   4.554
 5499TIP3    H116503   2.833   0.255   4.590
 5499TIP3    H216504   2.751   0.135   4.630
 5500TIP3   OH216505   3.857   2.513   0.532
 5500TIP3    H116506   3.882   2.422   0.516
 5500TIP3    H216507   3.892   2.533   0.619
 5501TIP3   OH216508   5.373   5.571   4.364
 5501TIP3    H116509   5.286   5.584   4.402
 5501TIP3    H216510   5.419   5.515   4.427
 5502TIP3   OH216511   5.928   0.040   4.607
 5502TIP3    H116512   5.980   0.080   4.537
 5502TIP3    H216513   5.949  -0.053   4.603
 5503TIP3   OH216514   5.688   1.904   3.942
 5503TIP3    H116515   5.743   1.938   4.013
 5503TIP3    H216516   5.717   1.814   3.930
 5504TIP3   OH216517   2.313   5.128   4.209
 5504TIP3    H116518   2.374   5.054   4.205
 5504TIP3    H216519   2.226   5.088   4.208
 5505TIP3   OH216520   2.341   0.817   4.548
 5505TIP3    H116521   2.361   0.881   4.480
 5505TIP3    H216522   2.247   0.799   4.537
 5506TIP3   OH216523   0.065   3.694   3.464
 5506TIP3    H116524   0.068   3.664   3.555
 5506TIP3    H216525  -0.029   3.703   3.445
 5507TIP3   OH216526   3.453   4.138   4.697
 5507TIP3    H116527   3.504   4.127   4.778
 5507TIP3    H216528   3.457   4.232   4.679
 5508TIP3   OH216529   6.025   5.654   2.188
 5508TIP3    H116530   6.100   5.673   2.244
 5508TIP3    H216531   6.010   5.736   2.140
 5509TIP3   OH216532   0.185   4.343   0.851
 5509TIP3    H116533   0.101   4.387   0.835
 5509TIP3    H216534   0.189   4.334   0.946
 5510TIP3   OH216535   5.558   0.246   2.060
 5510TIP3    H116536   5.643   0.229   2.021
 5510TIP3    H216537   5.529   0.161   2.093
 5511TIP3   OH216538   0.806   2.143   1.162
 5511TIP3    H116539   0.741   2.209   1.141
 5511TIP3    H216540   0.890   2.184   1.139
 5512TIP3   OH216541   1.050   0.638   0.833
 5512TIP3    H116542   1.060   0.627   0.927
 5512TIP3    H216543   0.955   0.644   0.820
 5513TIP3   OH216544   3.100   3.975   5.124
 5513TIP3    H116545   3.180   3.972   5.177
 5513TIP3    H216546   3.083   3.884   5.100
 5514TIP3   OH216547   1.585   2.972   0.727
 5514TIP3    H116548   1.660   2.980   0.668
 5514TIP3    H216549   1.511   2.955   0.670
 5515TIP3   OH216550   1.553   2.226   3.265
 5515TIP3    H116551   1.516   2.241   3.352
 5515TIP3    H216552   1.519   2.140   3.239
 5516TIP3   OH216553   2.501   0.637   2.479
 5516TIP3    H116554   2.576   0.629   2.537
 5516TIP3    H216555   2.538   0.666   2.396
 5517TIP3   OH216556   4.524   3.857   3.475
 5517TIP3    H116557   4.474   3.782   3.504
 5517TIP3    H216558   4.504   3.865   3.381
 5518TIP3   OH216559   5.490   4.050   2.073
 5518TIP3    H116560   5.510   3.988   2.144
 5518TIP3    H216561   5.544   4.127   2.093
 5519TIP3   OH216562   1.665   1.395   0.523
 5519TIP3    H116563   1.673   1.453   0.598
 5519TIP3    H216564   1.692   1.309   0.556
 5520TIP3   OH216565   1.406   5.383   3.470
 5520TIP3    H116566   1.490   5.386   3.516
 5520TIP3    H216567   1.422   5.327   3.395
 5521TIP3   OH216568   0.874   2.712   2.187
 5521TIP3    H116569   0.958   2.728   2.231
 5521TIP3    H216570   0.845   2.627   2.222
 5522TIP3   OH216571   4.641   2.945   2.340
 5522TIP3    H116572   4.640   2.946   2.436
 5522TIP3    H216573   4.574   3.009   2.314
 5523TIP3   OH216574   5.585   3.641   0.974
 5523TIP3    H116575   5.664   3.695   0.967
 5523TIP3    H216576   5.566   3.616   0.884
 5524TIP3   OH216577   3.562   2.502   1.523
 5524TIP3    H116578   3.493   2.477   1.585
 5524TIP3    H216579   3.640   2.454   1.554
 5525TIP3   OH216580   3.123   2.500   3.453
 5525TIP3    H116581   3.093   2.563   3.518
 5525TIP3    H216582   3.213   2.480   3.478
 5526TIP3   OH216583   5.886   2.170   3.166
 5526TIP3    H116584   5.941   2.207   3.098
 5526TIP3    H216585   5.911   2.217   3.246
 5527TIP3   OH216586   0.058   2.534   1.406
 5527TIP3    H116587   0.111   2.608   1.377
 5527TIP3    H216588  -0.023   2.573   1.438
 5528TIP3   OH216589   6.017   4.323   3.380
 5528TIP3    H116590   6.070   4.257   3.337
 5528TIP3    H216591   6.074   4.400   3.387
 5529TIP3   OH216592   1.770   1.830   1.990
 5529TIP3    H116593   1.714   1.753   2.000
 5529TIP3    H216594   1.748   1.865   1.903
 5530TIP3   OH216595   2.760   2.676   2.961
 5530TIP3    H116596   2.806   2.614   3.017
 5530TIP3    H216597   2.829   2.728   2.920
 5531TIP3   OH216598   1.700   1.396   5.171
 5531TIP3    H116599   1.766   1.384   5.103
 5531TIP3    H216600   1.704   1.489   5.193
 5532TIP3   OH216601   1.479   4.716   0.500
 5532TIP3    H116602   1.471   4.672   0.416
 5532TIP3    H216603   1.458   4.648   0.565
 5533TIP3   OH216604   4.019   4.923   3.802
 5533TIP3    H116605   3.933   4.897   3.769
 5533TIP3    H216606   4.018   4.897   3.894
 5534TIP3   OH216607   1.446   3.106   2.580
 5534TIP3    H116608   1.530   3.094   2.535
 5534TIP3    H216609   1.444   3.198   2.605
 5535TIP3   OH216610   1.231   4.149   0.427
 5535TIP3    H116611   1.199   4.176   0.340
 5535TIP3    H216612   1.325   4.137   0.414
 5536TIP3   OH216613   5.708   1.330   3.117
 5536TIP3    H116614   5.758   1.272   3.061
 5536TIP3    H216615   5.763   1.408   3.127
 5537TIP3   OH216616   5.514   1.369   3.849
 5537TIP3    H116617   5.500   1.459   3.878
 5537TIP3    H216618   5.428   1.341   3.816
 5538TIP3   OH216619   4.550   0.580   4.805
 5538TIP3    H116620   4.604   0.659   4.808
 5538TIP3    H216621   4.469   0.609   4.762
 5539TIP3   OH216622   4.783   5.255   2.922
 5539TIP3    H116623   4.716   5.187   2.928
 5539TIP3    H216624   4.843   5.223   2.854
 5540TIP3   OH216625   2.774   3.265   0.303
 5540TIP3    H116626   2.795   3.359   0.305
 5540TIP3    H216627   2.804   3.235   0.218
 5541TIP3   OH216628   0.076   0.973   0.957
 5541TIP3    H116629   0.154   0.981   0.902
 5541TIP3    H216630   0.051   1.064   0.977
 5542TIP3   OH216631   2.347   1.242   3.934
 5542TIP3    H116632   2.387   1.327   3.953
 5542TIP3    H216633   2.351   1.194   4.017
 5543TIP3   OH216634   0.205   1.642   0.994
 5543TIP3    H116635   0.153   1.628   1.074
 5543TIP3    H216636   0.140   1.660   0.926
 5544TIP3   OH216637   2.193   1.387   2.742
 5544TIP3    H116638   2.162   1.298   2.723
 5544TIP3    H216639   2.146   1.442   2.680
 5545TIP3   OH216640   6.338   4.792   2.081
 5545TIP3    H116641   6.419   4.800   2.031
 5545TIP3    H216642   6.274   4.841   2.030
 5546TIP3   OH216643   0.903   3.525   1.943
 5546TIP3    H116644   0.949   3.468   1.880
 5546TIP3    H216645   0.897   3.472   2.022
 5547TIP3   OH216646   3.172   1.340   1.232
 5547TIP3    H116647   3.257   1.368   1.265
 5547TIP3    H216648   3.185   1.331   1.137
 5548TIP3   OH216649   3.263   4.320   2.891
 5548TIP3    H116650   3.272   4.391   2.955
 5548TIP3    H216651   3.334   4.335   2.829
 5549TIP3   OH216652   0.700   3.848   3.437
 5549TIP3    H116653   0.719   3.915   3.503
 5549TIP3    H216654   0.686   3.768   3.487
 5550TIP3   OH216655   3.059   3.771   4.307
 5550TIP3    H116656   3.066   3.864   4.287
 5550TIP3    H216657   3.087   3.727   4.227
 5551TIP3   OH216658   3.605   1.452   4.576
 5551TIP3    H116659   3.607   1.523   4.512
 5551TIP3    H216660   3.581   1.495   4.658
 5552TIP3   OH216661   4.723   5.216   3.304
 5552TIP3    H116662   4.687   5.280   3.243
 5552TIP3    H216663   4.675   5.229   3.385
 5553TIP3   OH216664   3.839   1.824   1.609
 5553TIP3    H116665   3.897   1.758   1.573
 5553TIP3    H216666   3.833   1.891   1.541
 5554TIP3   OH216667   3.861   1.254   3.920
 5554TIP3    H116668   3.887   1.302   3.841
 5554TIP3    H216669   3.808   1.181   3.887
 5555TIP3   OH216670   1.919   4.714   3.183
 5555TIP3    H116671   1.918   4.705   3.088
 5555TIP3    H216672   1.886   4.802   3.199
 5556TIP3   OH216673   4.776   2.421   1.914
 5556TIP3    H116674   4.799   2.495   1.858
 5556TIP3    H216675   4.752   2.461   1.998
 5557TIP3   OH216676   0.832   4.927   0.812
 5557TIP3    H116677   0.903   4.950   0.873
 5557TIP3    H216678   0.878   4.892   0.736
 5558TIP3   OH216679   4.923   5.319   2.248
 5558TIP3    H116680   5.013   5.340   2.271
 5558TIP3    H216681   4.898   5.249   2.307
 5559TIP3   OH216682   0.263   5.122   0.984
 5559TIP3    H116683   0.182   5.109   1.033
 5559TIP3    H216684   0.243   5.192   0.923
 5560TIP3   OH216685   4.736   3.554   0.993
 5560TIP3    H116686   4.768   3.536   0.905
 5560TIP3    H216687   4.660   3.611   0.980
 5561TIP3   OH216688   5.637   4.086   4.951
 5561TIP3    H116689   5.719   4.082   5.001
 5561TIP3    H216690   5.644   4.015   4.888
 5562TIP3   OH216691   2.727   3.669   1.736
 5562TIP3    H116692   2.661   3.609   1.702
 5562TIP3    H216693   2.678   3.728   1.793
 5563TIP3   OH216694   2.154   3.970   2.860
 5563TIP3    H116695   2.191   4.044   2.813
 5563TIP3    H216696   2.090   3.933   2.798
 5564TIP3   OH216697   4.877   2.012   4.178
 5564TIP3    H116698   4.839   2.024   4.091
 5564TIP3    H216699   4.815   2.055   4.237
 5565TIP3   OH216700   2.814   2.143   2.601
 5565TIP3    H116701   2.861   2.068   2.562
 5565TIP3    H216702   2.728   2.108   2.623
 5566TIP3   OH216703   3.646   0.362   4.944
 5566TIP3    H116704   3.684   0.331   5.026
 5566TIP3    H216705   3.612   0.449   4.965
 5567TIP3   OH216706   6.029   3.420   0.842
 5567TIP3    H116707   6.052   3.492   0.900
 5567TIP3    H216708   6.100   3.357   0.852
 5568TIP3   OH216709   2.897   2.492   3.151
 5568TIP3    H116710   2.868   2.440   3.226
 5568TIP3    H216711   2.974   2.446   3.118
 5569TIP3   OH216712   4.314   3.059   0.144
 5569TIP3    H116713   4.327   3.051   0.239
 5569TIP3    H216714   4.339   2.974   0.109
 5570TIP3   OH216715   0.386   3.449   3.082
 5570TIP3    H116716   0.342   3.531   3.062
 5570TIP3    H216717   0.432   3.465   3.165
 5571TIP3   OH216718   3.032   3.641   4.567
 5571TIP3    H116719   3.104   3.581   4.548
 5571TIP3    H216720   3.030   3.701   4.492
 5572TIP3   OH216721   3.567   4.294   1.206
 5572TIP3    H116722   3.580   4.200   1.193
 5572TIP3    H216723   3.530   4.325   1.123
 5573TIP3   OH216724   5.647   0.008   4.786
 5573TIP3    H116725   5.694   0.045   4.711
 5573TIP3    H216726   5.555   0.032   4.771
 5574TIP3   OH216727   3.713   2.256   0.212
 5574TIP3    H116728   3.626   2.262   0.251
 5574TIP3    H216729   3.709   2.180   0.154
 5575TIP3   OH216730   5.410   5.337   1.553
 5575TIP3    H116731   5.325   5.305   1.582
 5575TIP3    H216732   5.470   5.313   1.622
 5576TIP3   OH216733   4.177   0.922   4.992
 5576TIP3    H116734   4.099   0.872   5.015
 5576TIP3    H216735   4.210   0.955   5.075
 5577TIP3   OH216736   1.194   1.794   2.133
 5577TIP3    H116737   1.162   1.718   2.084
 5577TIP3    H216738   1.208   1.761   2.222
 5578TIP3   OH216739   5.355   0.968   1.949
 5578TIP3    H116740   5.352   0.872   1.944
 5578TIP3    H216741   5.400   0.987   2.031
 5579TIP3   OH216742   1.868   0.886   2.970
 5579TIP3    H116743   1.816   0.893   2.890
 5579TIP3    H216744   1.959   0.886   2.940
 5580TIP3   OH216745   0.099   5.851   3.039
 5580TIP3    H116746   0.097   5.755   3.037
 5580TIP3    H216747   0.063   5.878   2.955
 5581TIP3   OH216748   5.679   3.474   2.863
 5581TIP3    H116749   5.589   3.498   2.886
 5581TIP3    H216750   5.702   3.533   2.791
 5582TIP3   OH216751   1.295   3.085   3.237
 5582TIP3    H116752   1.389   3.085   3.259
 5582TIP3    H216753   1.274   3.177   3.222
 5583TIP3   OH216754   1.634   5.740   1.219
 5583TIP3    H116755   1.579   5.733   1.141
 5583TIP3    H216756   1.706   5.679   1.203
 5584TIP3   OH216757   2.445   0.758   3.219
 5584TIP3    H116758   2.523   0.726   3.174
 5584TIP3    H216759   2.440   0.851   3.194
 5585TIP3   OH216760   2.222   4.221   2.348
 5585TIP3    H116761   2.272   4.139   2.341
 5585TIP3    H216762   2.135   4.199   2.316
 5586TIP3   OH216763   4.588   4.369   5.055
 5586TIP3    H116764   4.594   4.312   4.979
 5586TIP3    H216765   4.645   4.443   5.034
 5587TIP3   OH216766   1.771   4.170   4.278
 5587TIP3    H116767   1.834   4.099   4.281
 5587TIP3    H216768   1.815   4.243   4.323
 5588TIP3   OH216769   5.919   4.220   2.012
 5588TIP3    H116770   5.978   4.146   1.995
 5588TIP3    H216771   5.946   4.287   1.950
 5589TIP3   OH216772   6.326   5.934   2.758
 5589TIP3    H116773   6.265   5.863   2.780
 5589TIP3    H216774   6.302   6.005   2.818
 5590TIP3   OH216775   2.983   0.700   1.280
 5590TIP3    H116776   2.895   0.664   1.275
 5590TIP3    H216777   2.976   0.789   1.245
 5591TIP3   OH216778   5.872   2.063   2.282
 5591TIP3    H116779   5.831   2.145   2.257
 5591TIP3    H216780   5.914   2.031   2.202
 5592TIP3   OH216781   4.911   0.338   1.073
 5592TIP3    H116782   4.924   0.390   1.152
 5592TIP3    H216783   5.000   0.324   1.039
 5593TIP3   OH216784   2.574   4.559   3.830
 5593TIP3    H116785   2.660   4.596   3.848
 5593TIP3    H216786   2.521   4.634   3.803
 5594TIP3   OH216787   4.954   2.240   3.937
 5594TIP3    H116788   4.871   2.193   3.936
 5594TIP3    H216789   4.992   2.219   4.023
 5595TIP3   OH216790   5.877   2.862   0.199
 5595TIP3    H116791   5.961   2.839   0.239
 5595TIP3    H216792   5.823   2.785   0.212
 5596TIP3   OH216793   4.021   1.453   0.492
 5596TIP3    H116794   4.035   1.483   0.581
 5596TIP3    H216795   4.021   1.533   0.439
 5597TIP3   OH216796   4.673   0.137   5.140
 5597TIP3    H116797   4.597   0.095   5.100
 5597TIP3    H216798   4.666   0.229   5.113
 5598TIP3   OH216799   4.248   4.537   3.887
 5598TIP3    H116800   4.311   4.512   3.819
 5598TIP3    H216801   4.293   4.606   3.936
 5599TIP3   OH216802   5.297   2.524   1.217
 5599TIP3    H116803   5.392   2.525   1.211
 5599TIP3    H216804   5.268   2.584   1.148
 5600TIP3   OH216805   0.076   4.850   4.074
 5600TIP3    H116806   0.127   4.774   4.047
 5600TIP3    H216807   0.128   4.925   4.046
 5601TIP3   OH216808   0.275   2.273   1.165
 5601TIP3    H116809   0.277   2.273   1.261
 5601TIP3    H216810   0.354   2.226   1.140
 5602TIP3   OH216811   2.505   3.580   3.159
 5602TIP3    H116812   2.450   3.552   3.086
 5602TIP3    H216813   2.547   3.500   3.190
 5603TIP3   OH216814   5.169   4.153   0.558
 5603TIP3    H116815   5.172   4.236   0.604
 5603TIP3    H216816   5.178   4.176   0.465
 5604TIP3   OH216817   1.297   4.867   1.609
 5604TIP3    H116818   1.309   4.959   1.631
 5604TIP3    H216819   1.383   4.838   1.578
 5605TIP3   OH216820   0.074   3.022   3.627
 5605TIP3    H116821  -0.005   3.000   3.677
 5605TIP3    H216822   0.047   3.094   3.571
 5606TIP3   OH216823   2.723   2.084   3.871
 5606TIP3    H116824   2.706   1.992   3.893
 5606TIP3    H216825   2.803   2.081   3.818
 5607TIP3   OH216826   2.097   5.097   0.477
 5607TIP3    H116827   2.011   5.058   0.492
 5607TIP3    H216828   2.079   5.185   0.446
 5608TIP3   OH216829   2.950   5.721   4.463
 5608TIP3    H116830   3.030   5.670   4.475
 5608TIP3    H216831   2.905   5.715   4.547
 5609TIP3   OH216832   0.336   1.419   3.623
 5609TIP3    H116833   0.296   1.346   3.576
 5609TIP3    H216834   0.303   1.497   3.578
 5610TIP3   OH216835   3.882   2.947   1.594
 5610TIP3    H116836   3.824   2.878   1.563
 5610TIP3    H216837   3.964   2.934   1.546
 5611TIP3   OH216838   0.959   1.950   2.044
 5611TIP3    H116839   1.034   1.912   2.091
 5611TIP3    H216840   0.946   2.035   2.085
 5612TIP3   OH216841   0.386   3.108   3.100
 5612TIP3    H116842   0.427   3.048   3.162
 5612TIP3    H216843   0.460   3.142   3.048
 5613TIP3   OH216844   2.563   2.138   4.812
 5613TIP3    H116845   2.621   2.204   4.773
 5613TIP3    H216846   2.617   2.060   4.822
 5614TIP3   OH216847   0.713   2.626   4.864
 5614TIP3    H116848   0.735   2.719   4.871
 5614TIP3    H216849   0.725   2.605   4.772
 5615TIP3   OH216850   3.315   0.675   2.790
 5615TIP3    H116851   3.266   0.633   2.719
 5615TIP3    H216852   3.249   0.719   2.843
 5616TIP3   OH216853   0.454   5.061   1.573
 5616TIP3    H116854   0.505   5.135   1.539
 5616TIP3    H216855   0.514   5.016   1.632
 5617TIP3   OH216856   3.199   1.665   4.747
 5617TIP3    H116857   3.144   1.690   4.822
 5617TIP3    H216858   3.139   1.621   4.687
 5618TIP3   OH216859   2.998   2.679   3.647
 5618TIP3    H116860   2.946   2.734   3.590
 5618TIP3    H216861   3.018   2.734   3.723
 5619TIP3   OH216862   3.997   3.786   1.880
 5619TIP3    H116863   3.970   3.803   1.970
 5619TIP3    H216864   4.090   3.765   1.887
 5620TIP3   OH216865   3.434   0.447   4.333
 5620TIP3    H116866   3.455   0.354   4.337
 5620TIP3    H216867   3.437   0.477   4.424
 5621TIP3   OH216868   0.256   3.376   4.904
 5621TIP3    H116869   0.288   3.457   4.865
 5621TIP3    H216870   0.163   3.391   4.918
 5622TIP3   OH216871   4.415   2.410   1.377
 5622TIP3    H116872   4.458   2.460   1.307
 5622TIP3    H216873   4.442   2.319   1.362
 5623TIP3   OH216874   4.912   3.166   3.564
 5623TIP3    H116875   4.994   3.145   3.609
 5623TIP3    H216876   4.924   3.257   3.535
 5624TIP3   OH216877   3.686   4.955   3.596
 5624TIP3    H116878   3.722   5.028   3.546
 5624TIP3    H216879   3.629   4.997   3.661
 5625TIP3   OH216880   0.576   4.824   1.142
 5625TIP3    H116881   0.523   4.840   1.219
 5625TIP3    H216882   0.665   4.808   1.176
 5626TIP3   OH216883   3.639   5.470   4.365
 5626TIP3    H116884   3.719   5.482   4.312
 5626TIP3    H216885   3.671   5.430   4.446
 5627TIP3   OH216886   5.275   5.156   1.938
 5627TIP3    H116887   5.224   5.184   1.862
 5627TIP3    H216888   5.210   5.121   1.999
 5628TIP3   OH216889   2.636   4.004   1.456
 5628TIP3    H116890   2.707   4.006   1.520
 5628TIP3    H216891   2.611   3.912   1.451
 5629TIP3   OH216892   4.112   5.808   3.154
 5629TIP3    H116893   4.143   5.897   3.172
 5629TIP3    H216894   4.020   5.819   3.132
 5630TIP3   OH216895   2.717   1.493   0.764
 5630TIP3    H116896   2.689   1.405   0.790
 5630TIP3    H216897   2.743   1.535   0.846
 5631TIP3   OH216898   1.909   2.068   2.053
 5631TIP3    H116899   1.867   1.982   2.043
 5631TIP3    H216900   1.843   2.130   2.022
 5632TIP3   OH216901   0.703   0.380   3.023
 5632TIP3    H116902   0.788   0.421   3.036
 5632TIP3    H216903   0.691   0.323   3.099
 5633TIP3   OH216904   0.904   1.947   4.809
 5633TIP3    H116905   0.999   1.937   4.798
 5633TIP3    H216906   0.875   1.860   4.836
 5634TIP3   OH216907   2.667   5.730   3.608
 5634TIP3    H116908   2.761   5.740   3.618
 5634TIP3    H216909   2.653   5.716   3.515
 5635TIP3   OH216910   3.761   1.842   2.272
 5635TIP3    H116911   3.682   1.883   2.238
 5635TIP3    H216912   3.833   1.893   2.234
 5636TIP3   OH216913   5.331   2.086   1.409
 5636TIP3    H116914   5.422   2.113   1.398
 5636TIP3    H216915   5.285   2.166   1.435
 5637TIP3   OH216916   4.436   3.069   4.604
 5637TIP3    H116917   4.392   3.107   4.680
 5637TIP3    H216918   4.435   2.975   4.620
 5638TIP3   OH216919   1.643   0.398   1.129
 5638TIP3    H116920   1.638   0.492   1.112
 5638TIP3    H216921   1.667   0.391   1.222
 5639TIP3   OH216922   2.072   5.000   1.582
 5639TIP3    H116923   2.146   5.011   1.524
 5639TIP3    H216924   2.001   5.049   1.540
 5640TIP3   OH216925   3.415   5.531   2.808
 5640TIP3    H116926   3.425   5.625   2.819
 5640TIP3    H216927   3.490   5.493   2.854
 5641TIP3   OH216928   3.366   1.758   3.757
 5641TIP3    H116929   3.380   1.789   3.667
 5641TIP3    H216930   3.317   1.828   3.799
 5642TIP3   OH216931   2.318   3.463   0.742
 5642TIP3    H116932   2.388   3.511   0.698
 5642TIP3    H216933   2.246   3.463   0.680
 5643TIP3   OH216934   1.621   1.821   2.998
 5643TIP3    H116935   1.700   1.818   2.943
 5643TIP3    H216936   1.641   1.888   3.064
 5644TIP3   OH216937   5.395   0.637   2.803
 5644TIP3    H116938   5.340   0.573   2.758
 5644TIP3    H216939   5.484   0.616   2.775
 5645TIP3   OH216940   4.621   5.689   4.270
 5645TIP3    H116941   4.574   5.708   4.190
 5645TIP3    H216942   4.585   5.605   4.300
 5646TIP3   OH216943   3.617   2.065   0.028
 5646TIP3    H116944   3.539   2.020   0.060
 5646TIP3    H216945   3.671   1.996  -0.009
 5647TIP3   OH216946   1.349   5.894   1.167
 5647TIP3    H116947   1.265   5.931   1.192
 5647TIP3    H216948   1.335   5.860   1.078
 5648TIP3   OH216949   4.652   2.373   4.039
 5648TIP3    H116950   4.746   2.352   4.034
 5648TIP3    H216951   4.614   2.300   4.086
 5649TIP3   OH216952   4.305   4.803   1.326
 5649TIP3    H116953   4.379   4.862   1.334
 5649TIP3    H216954   4.232   4.859   1.298
 5650TIP3   OH216955   1.602   2.833   1.473
 5650TIP3    H116956   1.523   2.804   1.426
 5650TIP3    H216957   1.571   2.852   1.562
 5651TIP3   OH216958   5.735   4.693   4.112
 5651TIP3    H116959   5.689   4.709   4.194
 5651TIP3    H216960   5.673   4.642   4.059
 5652TIP3   OH216961   2.664   2.122   2.855
 5652TIP3    H116962   2.575   2.119   2.890
 5652TIP3    H216963   2.669   2.046   2.798
 5653TIP3   OH216964   6.070   2.251   2.676
 5653TIP3    H116965   6.012   2.189   2.632
 5653TIP3    H216966   6.051   2.335   2.635
 5654TIP3   OH216967   3.248   0.513   2.169
 5654TIP3    H116968   3.225   0.519   2.076
 5654TIP3    H216969   3.165   0.492   2.212
 5655TIP3   OH216970   5.253   4.526   4.856
 5655TIP3    H116971   5.282   4.608   4.896
 5655TIP3    H216972   5.253   4.463   4.929
 5656TIP3   OH216973   2.446   4.328   1.000
 5656TIP3    H116974   2.461   4.283   1.083
 5656TIP3    H216975   2.407   4.262   0.943
 5657TIP3   OH216976   4.924   2.461   4.702
 5657TIP3    H116977   4.932   2.388   4.763
 5657TIP3    H216978   5.009   2.464   4.657
 5658TIP3   OH216979   0.881   3.400   2.187
 5658TIP3    H116980   0.956   3.344   2.165
 5658TIP3    H216981   0.810   3.338   2.203
 5659TIP3   OH216982   0.283   3.284   1.524
 5659TIP3    H116983   0.203   3.266   1.475
 5659TIP3    H216984   0.336   3.337   1.465
 5660TIP3   OH216985   5.268   0.835   2.960
 5660TIP3    H116986   5.318   0.864   3.036
 5660TIP3    H216987   5.317   0.760   2.925
 5661TIP3   OH216988   5.194   4.311   1.564
 5661TIP3    H116989   5.274   4.294   1.515
 5661TIP3    H216990   5.190   4.407   1.570
 5662TIP3   OH216991   3.317   5.905   0.916
 5662TIP3    H116992   3.319   6.000   0.907
 5662TIP3    H216993   3.259   5.875   0.846
 5663TIP3   OH216994   2.043   1.166   1.730
 5663TIP3    H116995   2.119   1.108   1.721
 5663TIP3    H216996   1.968   1.107   1.735
 5664TIP3   OH216997   5.253   4.326   2.004
 5664TIP3    H116998   5.172   4.376   1.998
 5664TIP3    H216999   5.247   4.261   1.934
 5665TIP3   OH217000   0.571   1.721   0.822
 5665TIP3    H117001   0.650   1.687   0.780
 5665TIP3    H217002   0.571   1.680   0.908
 5666TIP3   OH217003   3.247   5.117   1.330
 5666TIP3    H117004   3.278   5.189   1.386
 5666TIP3    H217005   3.152   5.119   1.339
 5667TIP3   OH217006   3.776   0.509   2.001
 5667TIP3    H117007   3.831   0.438   1.967
 5667TIP3    H217008   3.787   0.503   2.096
 5668TIP3   OH217009   5.944   2.933   2.638
 5668TIP3    H117010   5.970   3.017   2.600
 5668TIP3    H217011   6.020   2.877   2.628
 5669TIP3   OH217012   1.460   2.186   2.274
 5669TIP3    H117013   1.412   2.202   2.355
 5669TIP3    H217014   1.499   2.100   2.285
 5670TIP3   OH217015   6.060  -0.027   4.872
 5670TIP3    H117016   6.086   0.061   4.899
 5670TIP3    H217017   5.993  -0.013   4.805
 5671TIP3   OH217018   0.836   3.169   1.281
 5671TIP3    H117019   0.890   3.161   1.360
 5671TIP3    H217020   0.750   3.198   1.313
 5672TIP3   OH217021   4.326   3.928   1.017
 5672TIP3    H117022   4.302   3.983   0.943
 5672TIP3    H217023   4.308   3.982   1.094
 5673TIP3   OH217024   3.157   3.482   2.177
 5673TIP3    H117025   3.099   3.549   2.139
 5673TIP3    H217026   3.098   3.423   2.223
 5674TIP3   OH217027   5.620   5.548   2.018
 5674TIP3    H117028   5.660   5.632   1.995
 5674TIP3    H217029   5.680   5.483   1.983
 5675TIP3   OH217030   4.390   1.749   0.130
 5675TIP3    H117031   4.404   1.839   0.158
 5675TIP3    H217032   4.321   1.755   0.063
 5676TIP3   OH217033   2.995   4.664   2.306
 5676TIP3    H117034   2.931   4.735   2.315
 5676TIP3    H217035   2.954   4.589   2.349
 5677TIP3   OH217036   3.648   4.602   2.617
 5677TIP3    H117037   3.669   4.559   2.534
 5677TIP3    H217038   3.730   4.600   2.667
 5678TIP3   OH217039   6.192   2.656   1.520
 5678TIP3    H117040   6.210   2.676   1.612
 5678TIP3    H217041   6.115   2.709   1.498
 5679TIP3   OH217042   0.086   2.586   2.149
 5679TIP3    H117043   0.036   2.510   2.176
 5679TIP3    H217044   0.177   2.557   2.149
 5680TIP3   OH217045   2.769   5.434   4.687
 5680TIP3    H117046   2.862   5.415   4.700
 5680TIP3    H217047   2.763   5.530   4.686
 5681TIP3   OH217048   2.949   0.550   1.631
 5681TIP3    H117049   2.861   0.552   1.593
 5681TIP3    H217050   2.961   0.636   1.669
 5682TIP3   OH217051   1.620   0.733   1.350
 5682TIP3    H117052   1.594   0.747   1.259
 5682TIP3    H217053   1.622   0.638   1.360
 5683TIP3   OH217054   2.659   0.066   4.057
 5683TIP3    H117055   2.751   0.074   4.032
 5683TIP3    H217056   2.624   0.155   4.051
 5684TIP3   OH217057   6.030   0.722   0.507
 5684TIP3    H117058   6.083   0.647   0.533
 5684TIP3    H217059   5.985   0.748   0.588
 5685TIP3   OH217060   0.977   3.143   1.525
 5685TIP3    H117061   0.906   3.105   1.577
 5685TIP3    H217062   1.019   3.068   1.483
 5686TIP3   OH217063   3.319   2.859   1.336
 5686TIP3    H117064   3.364   2.901   1.410
 5686TIP3    H217065   3.229   2.891   1.341
 5687TIP3   OH217066   1.130   1.077   3.391
 5687TIP3    H117067   1.079   1.000   3.366
 5687TIP3    H217068   1.064   1.142   3.415
 5688TIP3   OH217069   6.165   5.576   0.110
 5688TIP3    H117070   6.162   5.526   0.191
 5688TIP3    H217071   6.257   5.581   0.087
 5689TIP3   OH217072   1.426   1.578   1.727
 5689TIP3    H117073   1.515   1.611   1.714
 5689TIP3    H217074   1.373   1.629   1.666
 5690TIP3   OH217075   5.302   0.902   0.188
 5690TIP3    H117076   5.314   0.914   0.283
 5690TIP3    H217077   5.211   0.930   0.173
 5691TIP3   OH217078   4.449   1.498   5.137
 5691TIP3    H117079   4.394   1.475   5.062
 5691TIP3    H217080   4.422   1.587   5.160
 5692TIP3   OH217081   1.489   0.886   4.567
 5692TIP3    H117082   1.434   0.879   4.645
 5692TIP3    H217083   1.441   0.837   4.500
 5693TIP3   OH217084   2.230   2.929   3.099
 5693TIP3    H117085   2.313   2.909   3.143
 5693TIP3    H217086   2.204   3.014   3.136
 5694TIP3   OH217087   1.255   2.223   1.287
 5694TIP3    H117088   1.178   2.251   1.238
 5694TIP3    H217089   1.224   2.215   1.377
 5695TIP3   OH217090   5.459   0.695   3.163
 5695TIP3    H117091   5.464   0.783   3.202
 5695TIP3    H217092   5.545   0.683   3.123
 5696TIP3   OH217093   2.637   0.853   0.666
 5696TIP3    H117094   2.637   0.762   0.636
 5696TIP3    H217095   2.575   0.897   0.607
 5697TIP3   OH217096   0.648   0.669   1.128
 5697TIP3    H117097   0.674   0.592   1.179
 5697TIP3    H217098   0.697   0.741   1.167
 5698TIP3   OH217099   2.620   5.852   1.371
 5698TIP3    H117100   2.546   5.908   1.395
 5698TIP3    H217101   2.692   5.913   1.353
 5699TIP3   OH217102   3.571   3.408   1.161
 5699TIP3    H117103   3.563   3.371   1.249
 5699TIP3    H217104   3.578   3.502   1.175
 5700TIP3   OH217105   2.480   3.890   4.271
 5700TIP3    H117106   2.474   3.883   4.366
 5700TIP3    H217107   2.440   3.809   4.238
 5701TIP3   OH217108   2.714   5.278   4.374
 5701TIP3    H117109   2.741   5.365   4.347
 5701TIP3    H217110   2.791   5.240   4.417
 5702TIP3   OH217111   0.808   4.173   2.061
 5702TIP3    H117112   0.757   4.246   2.027
 5702TIP3    H217113   0.743   4.112   2.096
 5703TIP3   OH217114   1.481   1.233   0.870
 5703TIP3    H117115   1.505   1.320   0.903
 5703TIP3    H217116   1.395   1.216   0.907
 5704TIP3   OH217117   5.102   3.729   0.427
 5704TIP3    H117118   5.194   3.749   0.408
 5704TIP3    H217119   5.094   3.743   0.522
 5705TIP3   OH217120   2.394   1.720   5.028
 5705TIP3    H117121   2.338   1.756   4.959
 5705TIP3    H217122   2.438   1.646   4.986
 5706TIP3   OH217123   2.846   2.030   4.459
 5706TIP3    H117124   2.798   1.955   4.493
 5706TIP3    H217125   2.933   2.023   4.499
 5707TIP3   OH217126   4.801   4.257   2.720
 5707TIP3    H117127   4.784   4.298   2.635
 5707TIP3    H217128   4.897   4.252   2.725
 5708TIP3   OH217129   1.319   2.670   2.788
 5708TIP3    H117130   1.412   2.646   2.784
 5708TIP3    H217131   1.320   2.766   2.791
 5709TIP3   OH217132   0.519   0.224   1.388
 5709TIP3    H117133   0.548   0.140   1.352
 5709TIP3    H217134   0.444   0.201   1.445
 5710TIP3   OH217135   1.471   1.045   1.868
 5710TIP3    H117136   1.436   1.081   1.950
 5710TIP3    H217137   1.542   0.987   1.895
 5711TIP3   OH217138   1.769   2.052   3.810
 5711TIP3    H117139   1.766   2.046   3.905
 5711TIP3    H217140   1.846   2.001   3.785
 5712TIP3   OH217141   2.157   4.259   0.150
 5712TIP3    H117142   2.244   4.299   0.159
 5712TIP3    H217143   2.142   4.217   0.234
 5713TIP3   OH217144   0.387   0.458   3.293
 5713TIP3    H117145   0.356   0.542   3.259
 5713TIP3    H217146   0.464   0.480   3.346
 5714TIP3   OH217147   0.049   4.373   1.827
 5714TIP3    H117148   0.017   4.381   1.917
 5714TIP3    H217149   0.068   4.279   1.817
 5715TIP3   OH217150   0.473   4.678   2.937
 5715TIP3    H117151   0.510   4.591   2.927
 5715TIP3    H217152   0.415   4.688   2.862
 5716TIP3   OH217153   2.149   1.102   1.335
 5716TIP3    H117154   2.175   1.193   1.349
 5716TIP3    H217155   2.121   1.099   1.243
 5717TIP3   OH217156   3.818   5.813   3.124
 5717TIP3    H117157   3.867   5.732   3.135
 5717TIP3    H217158   3.751   5.792   3.058
 5718TIP3   OH217159   2.666   5.466   0.306
 5718TIP3    H117160   2.655   5.507   0.392
 5718TIP3    H217161   2.596   5.401   0.302
 5719TIP3   OH217162   3.607   1.654   1.620
 5719TIP3    H117163   3.683   1.705   1.649
 5719TIP3    H217164   3.636   1.563   1.624
 5720TIP3   OH217165   5.736   4.381   5.013
 5720TIP3    H117166   5.711   4.467   4.977
 5720TIP3    H217167   5.736   4.323   4.937
 5721TIP3   OH217168   2.488   3.039   1.283
 5721TIP3    H117169   2.477   3.090   1.363
 5721TIP3    H217170   2.399   3.028   1.248
 5722TIP3   OH217171   4.907   2.678   3.998
 5722TIP3    H117172   4.872   2.729   3.925
 5722TIP3    H217173   4.832   2.667   4.057
 5723TIP3   OH217174   5.419   2.411   2.061
 5723TIP3    H117175   5.507   2.399   2.025
 5723TIP3    H217176   5.409   2.341   2.125
 5724TIP3   OH217177   2.478   4.829   0.304
 5724TIP3    H117178   2.480   4.779   0.385
 5724TIP3    H217179   2.507   4.768   0.236
 5725TIP3   OH217180   0.733   4.355   2.421
 5725TIP3    H117181   0.687   4.416   2.478
 5725TIP3    H217182   0.746   4.404   2.340
 5726TIP3   OH217183   0.084   4.987   3.208
 5726TIP3    H117184   0.161   5.012   3.156
 5726TIP3    H217185   0.033   5.068   3.215
 5727TIP3   OH217186   2.367   0.747   0.812
 5727TIP3    H117187   2.415   0.738   0.729
 5727TIP3    H217188   2.414   0.816   0.859
 5728TIP3   OH217189   0.040   3.873   2.990
 5728TIP3    H117190   0.022   3.956   2.946
 5728TIP3    H217191   0.052   3.897   3.082
 5729TIP3   OH217192   1.790   1.157   0.549
 5729TIP3    H117193   1.781   1.108   0.467
 5729TIP3    H217194   1.841   1.099   0.606
 5730TIP3   OH217195   0.800   0.934   3.425
 5730TIP3    H117196   0.798   0.909   3.518
 5730TIP3    H217197   0.825   1.026   3.426
 5731TIP3   OH217198   3.511   0.557   0.805
 5731TIP3    H117199   3.494   0.473   0.847
 5731TIP3    H217200   3.446   0.563   0.736
 5732TIP3   OH217201   1.135   2.581   3.811
 5732TIP3    H117202   1.184   2.499   3.807
 5732TIP3    H217203   1.149   2.622   3.726
 5733TIP3   OH217204   5.519   4.126   1.650
 5733TIP3    H117205   5.488   4.118   1.560
 5733TIP3    H217206   5.611   4.098   1.646
 5734TIP3   OH217207   4.237   1.010   3.398
 5734TIP3    H117208   4.295   1.085   3.389
 5734TIP3    H217209   4.158   1.036   3.350
 5735TIP3   OH217210   2.312   5.395   0.553
 5735TIP3    H117211   2.304   5.463   0.620
 5735TIP3    H217212   2.224   5.385   0.518
 5736TIP3   OH217213   5.892   0.542   0.873
 5736TIP3    H117214   5.904   0.634   0.848
 5736TIP3    H217215   5.942   0.533   0.955
 5737TIP3   OH217216   2.810   3.348   5.234
 5737TIP3    H117217   2.809   3.393   5.150
 5737TIP3    H217218   2.897   3.364   5.269
 5738TIP3   OH217219   0.257   4.551   1.792
 5738TIP3    H117220   0.174   4.505   1.783
 5738TIP3    H217221   0.280   4.542   1.885
 5739TIP3   OH217222   5.675   3.540   4.869
 5739TIP3    H117223   5.710   3.475   4.808
 5739TIP3    H217224   5.581   3.542   4.851
 5740TIP3   OH217225   2.935   0.785   4.982
 5740TIP3    H117226   3.003   0.753   4.923
 5740TIP3    H217227   2.981   0.839   5.046
 5741TIP3   OH217228   4.276   0.961   2.833
 5741TIP3    H117229   4.208   0.962   2.766
 5741TIP3    H217230   4.358   0.960   2.784
 5742TIP3   OH217231   1.411   0.198   0.736
 5742TIP3    H117232   1.488   0.153   0.702
 5742TIP3    H217233   1.395   0.158   0.821
 5743TIP3   OH217234   0.016   2.408   0.627
 5743TIP3    H117235  -0.044   2.335   0.639
 5743TIP3    H217236  -0.035   2.486   0.648
 5744TIP3   OH217237   3.979   0.223   4.268
 5744TIP3    H117238   3.971   0.209   4.362
 5744TIP3    H217239   4.033   0.302   4.261
 5745TIP3   OH217240   1.184   0.285   4.306
 5745TIP3    H117241   1.102   0.333   4.317
 5745TIP3    H217242   1.204   0.250   4.393
 5746TIP3   OH217243   1.106   2.492   3.356
 5746TIP3    H117244   1.081   2.409   3.398
 5746TIP3    H217245   1.089   2.558   3.423
 5747TIP3   OH217246   2.214   5.621   3.838
 5747TIP3    H117247   2.287   5.682   3.832
 5747TIP3    H217248   2.214   5.575   3.754
 5748TIP3   OH217249   5.641   5.111   0.935
 5748TIP3    H117250   5.588   5.033   0.920
 5748TIP3    H217251   5.713   5.104   0.873
 5749TIP3   OH217252   4.740   3.310   0.263
 5749TIP3    H117253   4.810   3.313   0.198
 5749TIP3    H217254   4.739   3.398   0.301
 5750TIP3   OH217255   3.964   1.406   5.113
 5750TIP3    H117256   3.883   1.419   5.063
 5750TIP3    H217257   4.013   1.341   5.062
 5751TIP3   OH217258   0.910   4.880   1.209
 5751TIP3    H117259   0.987   4.869   1.265
 5751TIP3    H217260   0.925   4.962   1.163
 5752TIP3   OH217261   3.347   3.821   1.196
 5752TIP3    H117262   3.322   3.912   1.179
 5752TIP3    H217263   3.393   3.794   1.117
 5753TIP3   OH217264   1.730   5.565   2.004
 5753TIP3    H117265   1.662   5.565   2.072
 5753TIP3    H217266   1.769   5.652   2.008
 5754TIP3   OH217267   5.369   4.672   5.063
 5754TIP3    H117268   5.458   4.646   5.039
 5754TIP3    H217269   5.374   4.767   5.075
 5755TIP3   OH217270   1.499   2.252   3.876
 5755TIP3    H117271   1.531   2.281   3.962
 5755TIP3    H217272   1.544   2.310   3.814
 5756TIP3   OH217273   0.347   4.256   1.263
 5756TIP3    H117274   0.396   4.275   1.183
 5756TIP3    H217275   0.374   4.167   1.287
 5757TIP3   OH217276   1.826   3.436   1.954
 5757TIP3    H117277   1.919   3.458   1.962
 5757TIP3    H217278   1.809   3.374   2.024
 5758TIP3   OH217279   5.516   2.811   0.952
 5758TIP3    H117280   5.601   2.814   0.995
 5758TIP3    H217281   5.512   2.723   0.914
 5759TIP3   OH217282   1.540   3.941   3.316
 5759TIP3    H117283   1.456   3.897   3.303
 5759TIP3    H217284   1.533   4.022   3.265
 5760TIP3   OH217285   5.010   4.221   0.765
 5760TIP3    H117286   5.042   4.159   0.699
 5760TIP3    H217287   4.917   4.203   0.773
 5761TIP3   OH217288   6.020   1.631   3.531
 5761TIP3    H117289   5.953   1.588   3.583
 5761TIP3    H217290   6.101   1.586   3.554
 5762TIP3   OH217291   5.627   4.600   0.194
 5762TIP3    H117292   5.649   4.522   0.144
 5762TIP3    H217293   5.707   4.620   0.243
 5763TIP3   OH217294   1.284   4.002   4.518
 5763TIP3    H117295   1.252   3.921   4.478
 5763TIP3    H217296   1.333   3.972   4.595
 5764TIP3   OH217297   0.268   2.723   1.280
 5764TIP3    H117298   0.276   2.765   1.194
 5764TIP3    H217299   0.285   2.793   1.343
 5765TIP3   OH217300   1.738   3.991   2.021
 5765TIP3    H117301   1.696   4.070   1.986
 5765TIP3    H217302   1.730   3.927   1.950
 5766TIP3   OH217303   5.884   1.123   5.138
 5766TIP3    H117304   5.791   1.109   5.119
 5766TIP3    H217305   5.884   1.158   5.227
 5767TIP3   OH217306   0.261   2.862   2.325
 5767TIP3    H117307   0.315   2.788   2.354
 5767TIP3    H217308   0.171   2.835   2.346
 5768TIP3   OH217309   2.022   4.264   2.758
 5768TIP3    H117310   1.959   4.200   2.724
 5768TIP3    H217311   2.105   4.216   2.760
 5769TIP3   OH217312   0.785   5.210   0.681
 5769TIP3    H117313   0.776   5.142   0.747
 5769TIP3    H217314   0.701   5.208   0.633
 5770TIP3   OH217315   5.127   0.174   1.638
 5770TIP3    H117316   5.175   0.165   1.720
 5770TIP3    H217317   5.056   0.235   1.659
 5771TIP3   OH217318   2.354   0.891   2.345
 5771TIP3    H117319   2.415   0.819   2.325
 5771TIP3    H217320   2.357   0.947   2.267
 5772TIP3   OH217321   2.043   5.059   4.183
 5772TIP3    H117322   2.016   4.983   4.131
 5772TIP3    H217323   2.006   5.134   4.137
 5773TIP3   OH217324   0.199   1.205   2.392
 5773TIP3    H117325   0.109   1.239   2.396
 5773TIP3    H217326   0.254   1.283   2.394
 5774TIP3   OH217327   0.402   2.593   2.438
 5774TIP3    H117328   0.435   2.526   2.380
 5774TIP3    H217329   0.321   2.556   2.474
 5775TIP3   OH217330   4.672   2.386   4.601
 5775TIP3    H117331   4.760   2.413   4.630
 5775TIP3    H217332   4.624   2.371   4.682
 5776TIP3   OH217333   1.425   4.224   4.417
 5776TIP3    H117334   1.444   4.291   4.482
 5776TIP3    H217335   1.386   4.152   4.466
 5777TIP3   OH217336   3.592   3.972   2.052
 5777TIP3    H117337   3.512   3.968   1.998
 5777TIP3    H217338   3.568   3.929   2.134
 5778TIP3   OH217339   0.047   5.736   0.332
 5778TIP3    H117340   0.091   5.821   0.332
 5778TIP3    H217341   0.009   5.729   0.420
 5779TIP3   OH217342   1.554   2.677   3.223
 5779TIP3    H117343   1.506   2.724   3.155
 5779TIP3    H217344   1.486   2.635   3.276
 5780TIP3   OH217345   0.414   2.321   4.608
 5780TIP3    H117346   0.326   2.284   4.606
 5780TIP3    H217347   0.453   2.287   4.689
 5781TIP3   OH217348   5.727   5.978   3.914
 5781TIP3    H117349   5.648   6.031   3.910
 5781TIP3    H217350   5.733   5.949   4.005
 5782TIP3   OH217351   3.386   4.304   1.402
 5782TIP3    H117352   3.319   4.349   1.351
 5782TIP3    H217353   3.464   4.305   1.346
 5783TIP3   OH217354   1.865   2.229   5.051
 5783TIP3    H117355   1.886   2.160   4.988
 5783TIP3    H217356   1.874   2.310   5.002
 5784TIP3   OH217357   2.602   4.275   0.360
 5784TIP3    H117358   2.526   4.272   0.301
 5784TIP3    H217359   2.649   4.194   0.341
 5785TIP3   OH217360   4.395   2.479   2.160
 5785TIP3    H117361   4.401   2.456   2.067
 5785TIP3    H217362   4.483   2.506   2.184
 5786TIP3   OH217363   5.748   0.323   0.099
 5786TIP3    H117364   5.715   0.242   0.062
 5786TIP3    H217365   5.721   0.320   0.191
 5787TIP3   OH217366   3.724   2.702   4.438
 5787TIP3    H117367   3.706   2.791   4.470
 5787TIP3    H217368   3.651   2.650   4.470
 5788TIP3   OH217369   1.035   3.267   0.262
 5788TIP3    H117370   0.942   3.256   0.281
 5788TIP3    H217371   1.049   3.361   0.258
 5789TIP3   OH217372   4.076   2.034   3.642
 5789TIP3    H117373   4.092   2.004   3.731
 5789TIP3    H217374   4.019   1.967   3.603
 5790TIP3   OH217375   0.203   1.243   1.682
 5790TIP3    H117376   0.283   1.281   1.645
 5790TIP3    H217377   0.234   1.189   1.755
 5791TIP3   OH217378   2.233   5.422   2.125
 5791TIP3    H117379   2.193   5.336   2.139
 5791TIP3    H217380   2.165   5.474   2.081
 5792TIP3   OH217381   1.999   0.179   1.334
 5792TIP3    H117382   1.932   0.111   1.332
 5792TIP3    H217383   1.965   0.245   1.395
 5793TIP3   OH217384   1.569   5.315   0.749
 5793TIP3    H117385   1.491   5.292   0.800
 5793TIP3    H217386   1.637   5.331   0.815
 5794TIP3   OH217387   5.298   2.205   3.127
 5794TIP3    H117388   5.325   2.284   3.081
 5794TIP3    H217389   5.369   2.142   3.112
 5795TIP3   OH217390   0.739   0.668   5.176
 5795TIP3    H117391   0.825   0.688   5.140
 5795TIP3    H217392   0.678   0.691   5.105
 5796TIP3   OH217393   5.013   4.601   3.637
 5796TIP3    H117394   4.975   4.566   3.717
 5796TIP3    H217395   5.079   4.538   3.612
 5797TIP3   OH217396   1.904   5.275   2.751
 5797TIP3    H117397   1.862   5.236   2.828
 5797TIP3    H217398   1.832   5.297   2.692
 5798TIP3   OH217399   1.881   1.432   2.323
 5798TIP3    H117400   1.788   1.412   2.336
 5798TIP3    H217401   1.894   1.515   2.368
 5799TIP3   OH217402   1.765   5.844   1.983
 5799TIP3    H117403   1.843   5.898   1.998
 5799TIP3    H217404   1.771   5.818   1.891
 5800TIP3   OH217405   1.829   3.745   3.737
 5800TIP3    H117406   1.767   3.786   3.677
 5800TIP3    H217407   1.894   3.813   3.755
 5801TIP3   OH217408   0.699   3.415   0.548
 5801TIP3    H117409   0.753   3.463   0.611
 5801TIP3    H217410   0.611   3.453   0.557
 5802TIP3   OH217411   4.368   3.106   1.795
 5802TIP3    H117412   4.353   3.085   1.887
 5802TIP3    H217413   4.433   3.043   1.766
 5803TIP3   OH217414   2.047   5.024   2.526
 5803TIP3    H117415   2.040   4.952   2.588
 5803TIP3    H217416   2.094   5.092   2.574
 5804TIP3   OH217417   5.115   3.196   0.876
 5804TIP3    H117418   5.087   3.134   0.943
 5804TIP3    H217419   5.170   3.259   0.923
 5805TIP3   OH217420   5.413   0.282   0.977
 5805TIP3    H117421   5.480   0.301   0.910
 5805TIP3    H217422   5.464   0.261   1.055
 5806TIP3   OH217423   4.528   2.714   4.890
 5806TIP3    H117424   4.485   2.643   4.841
 5806TIP3    H217425   4.620   2.709   4.863
 5807TIP3   OH217426   3.998   5.705   2.369
 5807TIP3    H117427   4.072   5.678   2.315
 5807TIP3    H217428   3.954   5.772   2.318
 5808TIP3   OH217429   2.194   5.926   1.282
 5808TIP3    H117430   2.273   5.956   1.326
 5808TIP3    H217431   2.199   5.830   1.288
 5809TIP3   OH217432   1.992   1.086   5.063
 5809TIP3    H117433   1.927   1.079   5.133
 5809TIP3    H217434   1.958   1.154   5.006
 5810TIP3   OH217435   6.142   5.390   0.318
 5810TIP3    H117436   6.235   5.371   0.327
 5810TIP3    H217437   6.104   5.367   0.403
 5811TIP3   OH217438   4.008   3.014   4.615
 5811TIP3    H117439   4.027   2.984   4.526
 5811TIP3    H217440   4.072   2.969   4.669
 5812TIP3   OH217441   5.482   5.852   1.277
 5812TIP3    H117442   5.568   5.862   1.317
 5812TIP3    H217443   5.499   5.809   1.193
 5813TIP3   OH217444   0.294   1.721   5.124
 5813TIP3    H117445   0.316   1.684   5.039
 5813TIP3    H217446   0.348   1.672   5.186
 5814TIP3   OH217447   5.615   2.723   1.778
 5814TIP3    H117448   5.626   2.716   1.873
 5814TIP3    H217449   5.538   2.780   1.767
 5815TIP3   OH217450   3.637   1.285   0.274
 5815TIP3    H117451   3.610   1.212   0.218
 5815TIP3    H217452   3.716   1.253   0.318
 5816TIP3   OH217453   4.074   4.125   2.958
 5816TIP3    H117454   4.120   4.193   3.007
 5816TIP3    H217455   4.141   4.084   2.904
 5817TIP3   OH217456   4.335   0.810   4.783
 5817TIP3    H117457   4.325   0.904   4.768
 5817TIP3    H217458   4.358   0.804   4.876
 5818TIP3   OH217459   5.352   4.984   5.105
 5818TIP3    H117460   5.410   5.039   5.157
 5818TIP3    H217461   5.334   5.036   5.026
 5819TIP3   OH217462   3.563   5.284   2.074
 5819TIP3    H117463   3.643   5.326   2.043
 5819TIP3    H217464   3.583   5.259   2.165
 5820TIP3   OH217465   5.629   1.606   4.747
 5820TIP3    H117466   5.656   1.514   4.737
 5820TIP3    H217467   5.709   1.652   4.771
 5821TIP3   OH217468   1.947   3.075   3.305
 5821TIP3    H117469   2.031   3.028   3.307
 5821TIP3    H217470   1.966   3.160   3.345
 5822TIP3   OH217471   3.241   1.315   0.330
 5822TIP3    H117472   3.158   1.359   0.317
 5822TIP3    H217473   3.218   1.234   0.376
 5823TIP3   OH217474   5.106   2.466   0.812
 5823TIP3    H117475   5.090   2.384   0.764
 5823TIP3    H217476   5.074   2.534   0.754
 5824TIP3   OH217477   3.851   0.454   2.262
 5824TIP3    H117478   3.791   0.381   2.278
 5824TIP3    H217479   3.810   0.529   2.306
 5825TIP3   OH217480   1.318   0.399   4.536
 5825TIP3    H117481   1.332   0.437   4.449
 5825TIP3    H217482   1.367   0.454   4.596
 5826TIP3   OH217483   0.213   1.006   1.832
 5826TIP3    H117484   0.258   0.922   1.843
 5826TIP3    H217485   0.170   0.999   1.746
 5827TIP3   OH217486   1.275   1.030   2.601
 5827TIP3    H117487   1.250   1.069   2.518
 5827TIP3    H217488   1.333   1.095   2.641
 5828TIP3   OH217489   3.050   5.444   4.633
 5828TIP3    H117490   3.096   5.509   4.581
 5828TIP3    H217491   3.079   5.460   4.723
 5829TIP3   OH217492   2.609   1.468   3.424
 5829TIP3    H117493   2.599   1.438   3.334
 5829TIP3    H217494   2.524   1.449   3.464
 5830TIP3   OH217495   1.922   2.365   0.817
 5830TIP3    H117496   1.901   2.454   0.787
 5830TIP3    H217497   1.962   2.323   0.741
 5831TIP3   OH217498   5.963   2.815   1.077
 5831TIP3    H117499   6.037   2.779   1.124
 5831TIP3    H217500   5.969   2.910   1.091
 5832TIP3   OH217501   5.291   5.612   3.731
 5832TIP3    H117502   5.309   5.671   3.804
 5832TIP3    H217503   5.317   5.526   3.763
 5833TIP3   OH217504   4.904   3.417   2.178
 5833TIP3    H117505   4.826   3.425   2.123
 5833TIP3    H217506   4.978   3.429   2.118
 5834TIP3   OH217507   0.490   4.707   0.406
 5834TIP3    H117508   0.570   4.702   0.352
 5834TIP3    H217509   0.419   4.704   0.342
 5835TIP3   OH217510   1.795   0.770   4.529
 5835TIP3    H117511   1.772   0.682   4.558
 5835TIP3    H217512   1.725   0.794   4.468
 5836TIP3   OH217513   1.244   0.513   3.280
 5836TIP3    H117514   1.277   0.603   3.289
 5836TIP3    H217515   1.194   0.514   3.199
 5837TIP3   OH217516   1.575   3.198   0.978
 5837TIP3    H117517   1.651   3.205   0.920
 5837TIP3    H217518   1.607   3.225   1.064
 5838TIP3   OH217519   0.381   0.987   3.584
 5838TIP3    H117520   0.328   0.988   3.664
 5838TIP3    H217521   0.413   0.897   3.578
 5839TIP3   OH217522   3.548   3.271   1.407
 5839TIP3    H117523   3.619   3.227   1.454
 5839TIP3    H217524   3.472   3.213   1.418
 5840TIP3   OH217525   1.869   2.695   4.664
 5840TIP3    H117526   1.864   2.777   4.712
 5840TIP3    H217527   1.959   2.692   4.630
 5841TIP3   OH217528   5.898   1.835   4.766
 5841TIP3    H117529   5.864   1.807   4.851
 5841TIP3    H217530   5.916   1.928   4.776
 5842TIP3   OH217531   0.641   4.210   2.971
 5842TIP3    H117532   0.604   4.125   2.995
 5842TIP3    H217533   0.696   4.192   2.895
 5843TIP3   OH217534   4.957   1.803   3.506
 5843TIP3    H117535   4.954   1.708   3.492
 5843TIP3    H217536   5.050   1.824   3.509
 5844TIP3   OH217537   5.831   0.081   4.089
 5844TIP3    H117538   5.913   0.101   4.043
 5844TIP3    H217539   5.764   0.083   4.020
 5845TIP3   OH217540   4.382   0.387   0.649
 5845TIP3    H117541   4.447   0.396   0.580
 5845TIP3    H217542   4.359   0.477   0.672
 5846TIP3   OH217543   1.717   2.633   1.668
 5846TIP3    H117544   1.713   2.654   1.575
 5846TIP3    H217545   1.628   2.608   1.692
 5847TIP3   OH217546   2.765   1.860   1.267
 5847TIP3    H117547   2.798   1.847   1.178
 5847TIP3    H217548   2.828   1.920   1.308
 5848TIP3   OH217549   3.526   4.701   4.872
 5848TIP3    H117550   3.537   4.790   4.905
 5848TIP3    H217551   3.579   4.647   4.931
 5849TIP3   OH217552   5.820   4.058   4.708
 5849TIP3    H117553   5.862   4.044   4.623
 5849TIP3    H217554   5.752   3.991   4.713
 5850TIP3   OH217555   4.816   3.121   0.767
 5850TIP3    H117556   4.902   3.113   0.809
 5850TIP3    H217557   4.754   3.113   0.839
 5851TIP3   OH217558   5.654   0.861   4.235
 5851TIP3    H117559   5.696   0.804   4.170
 5851TIP3    H217560   5.706   0.942   4.233
 5852TIP3   OH217561   1.161   1.268   0.956
 5852TIP3    H117562   1.088   1.260   0.896
 5852TIP3    H217563   1.150   1.355   0.996
 5853TIP3   OH217564   4.648   0.854   4.849
 5853TIP3    H117565   4.626   0.928   4.794
 5853TIP3    H217566   4.720   0.885   4.904
 5854TIP3   OH217567   6.003   5.417   2.060
 5854TIP3    H117568   6.019   5.363   2.137
 5854TIP3    H217569   6.003   5.507   2.093
 5855TIP3   OH217570   3.215   4.332   3.565
 5855TIP3    H117571   3.296   4.341   3.515
 5855TIP3    H217572   3.146   4.328   3.499
 5856TIP3   OH217573   3.527   5.772   3.656
 5856TIP3    H117574   3.594   5.721   3.609
 5856TIP3    H217575   3.449   5.766   3.601
 5857TIP3   OH217576   5.655   3.197   2.762
 5857TIP3    H117577   5.667   3.290   2.780
 5857TIP3    H217578   5.724   3.154   2.814
 5858TIP3   OH217579   3.109   0.856   0.642
 5858TIP3    H117580   3.095   0.786   0.706
 5858TIP3    H217581   3.031   0.910   0.647
 5859TIP3   OH217582   1.435   2.368   1.450
 5859TIP3    H117583   1.361   2.330   1.402
 5859TIP3    H217584   1.420   2.462   1.446
 5860TIP3   OH217585   2.242   3.567   0.974
 5860TIP3    H117586   2.281   3.524   0.898
 5860TIP3    H217587   2.302   3.638   0.995
 5861TIP3   OH217588   4.810   5.871   3.638
 5861TIP3    H117589   4.795   5.816   3.715
 5861TIP3    H217590   4.724   5.905   3.616
 5862TIP3   OH217591   4.230   4.102   0.174
 5862TIP3    H117592   4.224   4.007   0.175
 5862TIP3    H217593   4.224   4.127   0.267
 5863TIP3   OH217594   3.659   0.533   1.213
 5863TIP3    H117595   3.583   0.592   1.216
 5863TIP3    H217596   3.734   0.591   1.207
 5864TIP3   OH217597   2.721   3.152   3.912
 5864TIP3    H117598   2.796   3.205   3.886
 5864TIP3    H217599   2.651   3.215   3.927
 5865TIP3   OH217600   4.848   0.256   4.533
 5865TIP3    H117601   4.767   0.304   4.551
 5865TIP3    H217602   4.883   0.296   4.454
 5866TIP3   OH217603   1.808   0.993   0.310
 5866TIP3    H117604   1.882   1.054   0.306
 5866TIP3    H217605   1.789   0.972   0.218
 5867TIP3   OH217606   2.614   3.136   2.449
 5867TIP3    H117607   2.608   3.203   2.381
 5867TIP3    H217608   2.705   3.141   2.480
 5868TIP3   OH217609   0.429   0.858   0.222
 5868TIP3    H117610   0.471   0.906   0.293
 5868TIP3    H217611   0.467   0.770   0.225
 5869TIP3   OH217612   5.290   5.683   2.529
 5869TIP3    H117613   5.239   5.603   2.544
 5869TIP3    H217614   5.375   5.653   2.497
 5870TIP3   OH217615   0.398   0.592   1.273
 5870TIP3    H117616   0.450   0.622   1.347
 5870TIP3    H217617   0.461   0.546   1.217
 5871TIP3   OH217618   0.465   0.781   0.917
 5871TIP3    H117619   0.513   0.783   1.000
 5871TIP3    H217620   0.490   0.697   0.877
 5872TIP3   OH217621   0.673   5.772   3.426
 5872TIP3    H117622   0.737   5.823   3.376
 5872TIP3    H217623   0.709   5.683   3.425
 5873TIP3   OH217624   3.447   4.086   0.612
 5873TIP3    H117625   3.479   4.176   0.613
 5873TIP3    H217626   3.379   4.084   0.680
 5874TIP3   OH217627   0.066   3.260   0.171
 5874TIP3    H117628   0.102   3.279   0.084
 5874TIP3    H217629   0.002   3.190   0.155
 5875TIP3   OH217630   2.365   2.330   3.311
 5875TIP3    H117631   2.409   2.312   3.394
 5875TIP3    H217632   2.402   2.414   3.282
 5876TIP3   OH217633   0.782   3.024   3.295
 5876TIP3    H117634   0.842   3.095   3.275
 5876TIP3    H217635   0.837   2.957   3.335
 5877TIP3   OH217636   0.454   4.615   3.959
 5877TIP3    H117637   0.434   4.621   3.865
 5877TIP3    H217638   0.378   4.570   3.997
 5878TIP3   OH217639   2.699   3.526   4.243
 5878TIP3    H117640   2.789   3.499   4.223
 5878TIP3    H217641   2.685   3.498   4.333
 5879TIP3   OH217642   3.026   5.215   0.747
 5879TIP3    H117643   2.988   5.266   0.675
 5879TIP3    H217644   2.957   5.156   0.774
 5880TIP3   OH217645   1.933   1.658   4.556
 5880TIP3    H117646   1.845   1.653   4.594
 5880TIP3    H217647   1.919   1.642   4.462
 5881TIP3   OH217648   3.877   3.065   2.953
 5881TIP3    H117649   3.899   3.132   3.017
 5881TIP3    H217650   3.962   3.036   2.919
 5882TIP3   OH217651   2.447   2.143   3.086
 5882TIP3    H117652   2.412   2.218   3.038
 5882TIP3    H217653   2.465   2.178   3.174
 5883TIP3   OH217654   1.260   5.370   0.241
 5883TIP3    H117655   1.272   5.442   0.303
 5883TIP3    H217656   1.271   5.410   0.155
 5884TIP3   OH217657   5.264   4.696   3.288
 5884TIP3    H117658   5.326   4.693   3.361
 5884TIP3    H217659   5.277   4.783   3.249
 5885TIP3   OH217660   4.364   2.529   3.108
 5885TIP3    H117661   4.402   2.441   3.107
 5885TIP3    H217662   4.431   2.584   3.148
 5886TIP3   OH217663   0.643   2.521   3.701
 5886TIP3    H117664   0.551   2.544   3.684
 5886TIP3    H217665   0.678   2.497   3.616
 5887TIP3   OH217666   0.925   2.539   1.727
 5887TIP3    H117667   0.908   2.619   1.776
 5887TIP3    H217668   0.923   2.469   1.793
 5888TIP3   OH217669   2.286   0.516   0.974
 5888TIP3    H117670   2.317   0.575   0.905
 5888TIP3    H217671   2.291   0.569   1.054
 5889TIP3   OH217672   5.932   0.396   1.673
 5889TIP3    H117673   5.895   0.451   1.742
 5889TIP3    H217674   5.893   0.428   1.592
 5890TIP3   OH217675   4.665   1.350   1.343
 5890TIP3    H117676   4.584   1.397   1.365
 5890TIP3    H217677   4.718   1.355   1.423
 5891TIP3   OH217678   0.809   3.356   2.539
 5891TIP3    H117679   0.759   3.336   2.460
 5891TIP3    H217680   0.767   3.305   2.608
 5892TIP3   OH217681   3.208   3.865   2.254
 5892TIP3    H117682   3.149   3.884   2.327
 5892TIP3    H217683   3.164   3.796   2.204
 5893TIP3   OH217684   4.450   0.328   0.293
 5893TIP3    H117685   4.401   0.407   0.317
 5893TIP3    H217686   4.438   0.320   0.198
 5894TIP3   OH217687   2.878   4.517   2.627
 5894TIP3    H117688   2.797   4.547   2.586
 5894TIP3    H217689   2.911   4.449   2.568
 5895TIP3   OH217690   1.803   2.097   3.414
 5895TIP3    H117691   1.873   2.160   3.399
 5895TIP3    H217692   1.737   2.144   3.463
 5896TIP3   OH217693   0.200   3.621   2.953
 5896TIP3    H117694   0.182   3.706   2.912
 5896TIP3    H217695   0.169   3.631   3.043
 5897TIP3   OH217696   1.957   3.053   3.917
 5897TIP3    H117697   1.942   2.983   3.854
 5897TIP3    H217698   1.990   3.007   3.995
 5898TIP3   OH217699   0.675   0.657   4.640
 5898TIP3    H117700   0.761   0.615   4.635
 5898TIP3    H217701   0.685   0.738   4.589
 5899TIP3   OH217702   6.298   2.088   3.607
 5899TIP3    H117703   6.323   2.168   3.561
 5899TIP3    H217704   6.263   2.030   3.539
 5900TIP3   OH217705   2.919   4.274   1.877
 5900TIP3    H117706   2.844   4.310   1.829
 5900TIP3    H217707   2.985   4.343   1.874
 5901TIP3   OH217708   2.824   4.414   0.239
 5901TIP3    H117709   2.826   4.508   0.253
 5901TIP3    H217710   2.759   4.381   0.301
 5902TIP3   OH217711   5.990   4.944   2.240
 5902TIP3    H117712   5.907   4.975   2.204
 5902TIP3    H217713   5.996   4.985   2.326
 5903TIP3   OH217714   5.762   3.545   3.853
 5903TIP3    H117715   5.735   3.605   3.783
 5903TIP3    H217716   5.682   3.529   3.902
 5904TIP3   OH217717   3.737   2.132   3.626
 5904TIP3    H117718   3.685   2.113   3.548
 5904TIP3    H217719   3.671   2.145   3.695
 5905TIP3   OH217720   5.679   3.059   5.004
 5905TIP3    H117721   5.654   3.002   4.931
 5905TIP3    H217722   5.646   3.014   5.081
 5906TIP3   OH217723   5.218   0.223   3.221
 5906TIP3    H117724   5.214   0.251   3.313
 5906TIP3    H217725   5.251   0.300   3.174
 5907TIP3   OH217726   3.845   2.236   0.453
 5907TIP3    H117727   3.936   2.249   0.425
 5907TIP3    H217728   3.795   2.230   0.372
 5908TIP3   OH217729   5.786   3.893   5.145
 5908TIP3    H117730   5.780   3.845   5.062
 5908TIP3    H217731   5.758   3.830   5.211
 5909TIP3   OH217732   0.004   3.209   2.779
 5909TIP3    H117733  -0.064   3.147   2.807
 5909TIP3    H217734   0.056   3.162   2.715
 5910TIP3   OH217735   5.847   1.260   2.755
 5910TIP3    H117736   5.878   1.254   2.846
 5910TIP3    H217737   5.925   1.280   2.704
 5911TIP3   OH217738   1.244   3.597   0.155
 5911TIP3    H117739   1.234   3.671   0.216
 5911TIP3    H217740   1.167   3.543   0.171
 5912TIP3   OH217741   2.543   1.676   1.366
 5912TIP3    H117742   2.456   1.681   1.327
 5912TIP3    H217743   2.602   1.701   1.295
 5913TIP3   OH217744   1.999   1.989   2.908
 5913TIP3    H117745   1.994   1.974   3.002
 5913TIP3    H217746   2.003   2.084   2.899
 5914TIP3   OH217747   3.653   2.508   0.137
 5914TIP3    H117748   3.707   2.432   0.159
 5914TIP3    H217749   3.617   2.537   0.221
 5915TIP3   OH217750   3.137   5.535   2.939
 5915TIP3    H117751   3.166   5.474   3.007
 5915TIP3    H217752   3.217   5.556   2.891
 5916TIP3   OH217753   0.142   3.516   0.993
 5916TIP3    H117754   0.092   3.519   1.074
 5916TIP3    H217755   0.114   3.593   0.944
 5917TIP3   OH217756   1.180   4.213   0.101
 5917TIP3    H117757   1.172   4.203   0.007
 5917TIP3    H217758   1.093   4.191   0.136
 5918TIP3   OH217759   1.104   3.483   4.437
 5918TIP3    H117760   1.114   3.397   4.478
 5918TIP3    H217761   1.103   3.465   4.343
 5919TIP3   OH217762   2.579   3.499   0.959
 5919TIP3    H117763   2.536   3.455   1.032
 5919TIP3    H217764   2.547   3.590   0.965
 5920TIP3   OH217765   3.183   3.393   4.561
 5920TIP3    H117766   3.210   3.312   4.518
 5920TIP3    H217767   3.229   3.394   4.645
 5921TIP3   OH217768   0.476   3.035   2.396
 5921TIP3    H117769   0.481   3.035   2.492
 5921TIP3    H217770   0.387   3.006   2.377
 5922TIP3   OH217771   2.503   2.710   0.345
 5922TIP3    H117772   2.478   2.783   0.289
 5922TIP3    H217773   2.584   2.677   0.308
 5923TIP3   OH217774   3.423   2.948   3.586
 5923TIP3    H117775   3.506   2.975   3.547
 5923TIP3    H217776   3.358   3.006   3.547
 5924TIP3   OH217777   2.419   3.234   2.247
 5924TIP3    H117778   2.374   3.221   2.330
 5924TIP3    H217779   2.418   3.148   2.205
 5925TIP3   OH217780   2.572   5.331   0.892
 5925TIP3    H117781   2.628   5.405   0.914
 5925TIP3    H217782   2.628   5.272   0.841
 5926TIP3   OH217783   4.729   2.584   1.069
 5926TIP3    H117784   4.639   2.580   1.099
 5926TIP3    H217785   4.763   2.495   1.079
 5927TIP3   OH217786   3.729   1.099   3.482
 5927TIP3    H117787   3.699   1.099   3.391
 5927TIP3    H217788   3.805   1.157   3.483
 5928TIP3   OH217789   3.489   1.777   4.217
 5928TIP3    H117790   3.496   1.721   4.140
 5928TIP3    H217791   3.421   1.736   4.271
 5929TIP3   OH217792   4.921   5.258   0.607
 5929TIP3    H117793   4.953   5.335   0.653
 5929TIP3    H217794   4.920   5.189   0.673
 5930TIP3   OH217795   2.467   4.149   3.401
 5930TIP3    H117796   2.488   4.154   3.495
 5930TIP3    H217797   2.530   4.086   3.366
 5931TIP3   OH217798   5.888   0.131   1.723
 5931TIP3    H117799   5.906   0.215   1.680
 5931TIP3    H217800   5.973   0.086   1.724
 5932TIP3   OH217801   5.983   5.335   2.631
 5932TIP3    H117802   6.069   5.375   2.623
 5932TIP3    H217803   5.985   5.287   2.714
 5933TIP3   OH217804   2.719   0.736   1.706
 5933TIP3    H117805   2.713   0.693   1.621
 5933TIP3    H217806   2.630   0.732   1.742
 5934TIP3   OH217807   1.883   1.739   0.560
 5934TIP3    H117808   1.849   1.749   0.649
 5934TIP3    H217809   1.808   1.757   0.503
 5935TIP3   OH217810   3.778   3.285   2.286
 5935TIP3    H117811   3.694   3.241   2.294
 5935TIP3    H217812   3.792   3.326   2.371
 5936TIP3   OH217813   0.018   5.493   3.980
 5936TIP3    H117814  -0.044   5.503   4.052
 5936TIP3    H217815  -0.004   5.562   3.918
 5937TIP3   OH217816   5.448   1.363   3.200
 5937TIP3    H117817   5.542   1.362   3.185
 5937TIP3    H217818   5.410   1.349   3.113
 5938TIP3   OH217819   2.365   2.394   1.705
 5938TIP3    H117820   2.314   2.314   1.715
 5938TIP3    H217821   2.319   2.444   1.638
 5939TIP3   OH217822   6.008   4.101   5.175
 5939TIP3    H117823   5.960   4.019   5.183
 5939TIP3    H217824   5.999   4.142   5.261
 5940TIP3   OH217825   4.990   2.276   2.017
 5940TIP3    H117826   5.078   2.275   1.977
 5940TIP3    H217827   4.933   2.311   1.948
 5941TIP3   OH217828   4.445   1.645   1.567
 5941TIP3    H117829   4.498   1.721   1.541
 5941TIP3    H217830   4.388   1.678   1.636
 5942TIP3   OH217831   3.100   2.295   3.046
 5942TIP3    H117832   3.184   2.259   3.074
 5942TIP3    H217833   3.035   2.230   3.072
 5943TIP3   OH217834   1.206   5.536   1.649
 5943TIP3    H117835   1.123   5.544   1.696
 5943TIP3    H217836   1.182   5.536   1.556
 5944TIP3   OH217837   3.155   1.713   2.963
 5944TIP3    H117838   3.062   1.708   2.986
 5944TIP3    H217839   3.194   1.766   3.033
 5945TIP3   OH217840   1.450   5.692   1.779
 5945TIP3    H117841   1.362   5.727   1.760
 5945TIP3    H217842   1.509   5.751   1.733
 5946TIP3   OH217843   1.996   1.507   2.906
 5946TIP3    H117844   2.070   1.492   2.848
 5946TIP3    H217845   1.965   1.420   2.930
 5947TIP3   OH217846   1.410   1.295   4.144
 5947TIP3    H117847   1.405   1.359   4.216
 5947TIP3    H217848   1.502   1.297   4.118
 5948TIP3   OH217849   2.336   3.681   4.541
 5948TIP3    H117850   2.421   3.722   4.556
 5948TIP3    H217851   2.281   3.752   4.508
 5949TIP3   OH217852   6.075   2.829   4.603
 5949TIP3    H117853   6.058   2.736   4.619
 5949TIP3    H217854   6.140   2.854   4.668
 5950TIP3   OH217855   3.636   3.544   4.604
 5950TIP3    H117856   3.588   3.517   4.526
 5950TIP3    H217857   3.693   3.615   4.573
 5951TIP3   OH217858   1.890   5.710   4.819
 5951TIP3    H117859   1.892   5.800   4.850
 5951TIP3    H217860   1.971   5.700   4.768
 5952TIP3   OH217861   0.855   2.978   0.100
 5952TIP3    H117862   0.818   3.058   0.062
 5952TIP3    H217863   0.781   2.934   0.141
 5953TIP3   OH217864   2.088   2.842   3.708
 5953TIP3    H117865   2.178   2.862   3.732
 5953TIP3    H217866   2.092   2.756   3.666
 5954TIP3   OH217867   4.185   2.665   1.813
 5954TIP3    H117868   4.127   2.693   1.742
 5954TIP3    H217869   4.190   2.570   1.804
 5955TIP3   OH217870   6.204   0.805   0.333
 5955TIP3    H117871   6.155   0.857   0.269
 5955TIP3    H217872   6.136   0.767   0.389
 5956TIP3   OH217873   4.911   5.181   0.316
 5956TIP3    H117874   4.939   5.267   0.285
 5956TIP3    H217875   4.885   5.196   0.407
 5957TIP3   OH217876   3.663   2.143   3.113
 5957TIP3    H117877   3.631   2.081   3.047
 5957TIP3    H217878   3.758   2.133   3.111
 5958TIP3   OH217879   5.327   3.172   4.558
 5958TIP3    H117880   5.367   3.119   4.489
 5958TIP3    H217881   5.330   3.117   4.636
 5959TIP3   OH217882   3.041   5.398   3.514
 5959TIP3    H117883   3.051   5.463   3.445
 5959TIP3    H217884   3.074   5.441   3.593
 5960TIP3   OH217885   3.895   2.757   3.486
 5960TIP3    H117886   3.987   2.743   3.507
 5960TIP3    H217887   3.883   2.718   3.400
 5961TIP3   OH217888   2.577   1.667   2.308
 5961TIP3    H117889   2.625   1.721   2.370
 5961TIP3    H217890   2.490   1.656   2.347
 5962TIP3   OH217891   1.974   2.263   0.541
 5962TIP3    H117892   1.997   2.187   0.487
 5962TIP3    H217893   1.914   2.313   0.486
 5963TIP3   OH217894   6.185   0.651   1.714
 5963TIP3    H117895   6.228   0.638   1.630
 5963TIP3    H217896   6.188   0.565   1.756
 5964TIP3   OH217897   2.926   4.228   4.433
 5964TIP3    H117898   2.955   4.143   4.466
 5964TIP3    H217899   2.867   4.262   4.500
 5965TIP3   OH217900   4.113   5.644   0.092
 5965TIP3    H117901   4.034   5.613   0.136
 5965TIP3    H217902   4.170   5.675   0.163
 5966TIP3   OH217903   5.628   4.943   3.420
 5966TIP3    H117904   5.541   4.983   3.424
 5966TIP3    H217905   5.639   4.919   3.328
 5967TIP3   OH217906   5.166  -0.035   0.624
 5967TIP3    H117907   5.161  -0.038   0.528
 5967TIP3    H217908   5.089   0.016   0.650
 5968TIP3   OH217909   5.064   4.909   3.533
 5968TIP3    H117910   5.135   4.887   3.472
 5968TIP3    H217911   5.030   4.825   3.562
 5969TIP3   OH217912   1.660   2.259   0.773
 5969TIP3    H117913   1.625   2.265   0.862
 5969TIP3    H217914   1.752   2.287   0.781
 5970TIP3   OH217915   1.062   1.389   1.681
 5970TIP3    H117916   1.138   1.385   1.738
 5970TIP3    H217917   1.076   1.467   1.627
 5971TIP3   OH217918   1.938   3.645   4.125
 5971TIP3    H117919   1.909   3.554   4.131
 5971TIP3    H217920   2.025   3.640   4.084
 5972TIP3   OH217921   4.742   0.757   1.318
 5972TIP3    H117922   4.759   0.851   1.310
 5972TIP3    H217923   4.777   0.719   1.237
 5973TIP3   OH217924   6.106   2.112   4.267
 5973TIP3    H117925   6.173   2.123   4.335
 5973TIP3    H217926   6.053   2.192   4.272
 5974TIP3   OH217927   2.296   3.419   3.788
 5974TIP3    H117928   2.233   3.362   3.831
 5974TIP3    H217929   2.243   3.487   3.748
 5975TIP3   OH217930   4.531   4.127   0.483
 5975TIP3    H117931   4.479   4.052   0.455
 5975TIP3    H217932   4.608   4.124   0.426
 5976TIP3   OH217933   4.548   2.265   2.306
 5976TIP3    H117934   4.510   2.332   2.363
 5976TIP3    H217935   4.474   2.208   2.285
 5977TIP3   OH217936   5.903   2.697   3.477
 5977TIP3    H117937   5.923   2.684   3.385
 5977TIP3    H217938   5.808   2.684   3.484
 5978TIP3   OH217939   5.827   5.895   2.859
 5978TIP3    H117940   5.869   5.882   2.944
 5978TIP3    H217941   5.737   5.919   2.881
 5979TIP3   OH217942   1.158   4.092   1.526
 5979TIP3    H117943   1.224   4.028   1.553
 5979TIP3    H217944   1.200   4.143   1.458
 5980TIP3   OH217945   0.233   2.601   4.162
 5980TIP3    H117946   0.143   2.618   4.190
 5980TIP3    H217947   0.271   2.550   4.234
 5981TIP3   OH217948   5.786   4.613   0.394
 5981TIP3    H117949   5.841   4.690   0.406
 5981TIP3    H217950   5.743   4.600   0.478
 5982TIP3   OH217951   5.879   4.969   0.354
 5982TIP3    H117952   5.838   4.947   0.437
 5982TIP3    H217953   5.816   4.942   0.288
 5983TIP3   OH217954   0.782   4.160   3.448
 5983TIP3    H117955   0.703   4.205   3.417
 5983TIP3    H217956   0.800   4.096   3.379
 5984TIP3   OH217957   3.170   3.525   4.948
 5984TIP3    H117958   3.211   3.560   4.869
 5984TIP3    H217959   3.223   3.449   4.972
 5985TIP3   OH217960   0.146   3.463   2.003
 5985TIP3    H117961   0.068   3.507   1.971
 5985TIP3    H217962   0.165   3.396   1.937
 5986TIP3   OH217963   2.721   0.889   4.532
 5986TIP3    H117964   2.746   0.805   4.492
 5986TIP3    H217965   2.682   0.864   4.616
 5987TIP3   OH217966   4.237   1.290   2.795
 5987TIP3    H117967   4.186   1.344   2.734
 5987TIP3    H217968   4.327   1.320   2.783
 5988TIP3   OH217969   3.375   3.235   1.032
 5988TIP3    H117970   3.322   3.237   1.112
 5988TIP3    H217971   3.438   3.306   1.043
 5989TIP3   OH217972   5.934   0.199   4.971
 5989TIP3    H117973   5.890   0.219   4.889
 5989TIP3    H217974   5.864   0.194   5.036
 5990TIP3   OH217975   2.927   2.089   0.736
 5990TIP3    H117976   2.893   1.999   0.738
 5990TIP3    H217977   3.022   2.079   0.747
 5991TIP3   OH217978   2.460   0.663   1.828
 5991TIP3    H117979   2.393   0.685   1.893
 5991TIP3    H217980   2.424   0.586   1.783
 5992TIP3   OH217981   0.316   4.859   2.390
 5992TIP3    H117982   0.290   4.832   2.302
 5992TIP3    H217983   0.410   4.878   2.382
 5993TIP3   OH217984   1.220   4.190   1.223
 5993TIP3    H117985   1.277   4.246   1.169
 5993TIP3    H217986   1.276   4.115   1.245
 5994TIP3   OH217987   2.402   1.630   3.199
 5994TIP3    H117988   2.307   1.634   3.188
 5994TIP3    H217989   2.435   1.707   3.152
 5995TIP3   OH217990   2.139   0.154   4.170
 5995TIP3    H117991   2.193   0.116   4.100
 5995TIP3    H217992   2.049   0.145   4.139
 5996TIP3   OH217993   5.034   1.047   1.943
 5996TIP3    H117994   5.108   1.108   1.946
 5996TIP3    H217995   4.975   1.084   1.878
 5997TIP3   OH217996   5.512   2.598   0.013
 5997TIP3    H117997   5.555   2.539  -0.049
 5997TIP3    H217998   5.425   2.612  -0.024
 5998TIP3   OH217999   0.607   2.586   4.316
 5998TIP3    H118000   0.569   2.498   4.321
 5998TIP3    H218001   0.667   2.582   4.242
 5999TIP3   OH218002   2.405   1.043   5.007
 5999TIP3    H118003   2.346   1.033   5.082
 5999TIP3    H218004   2.377   0.976   4.945
 6000TIP3   OH218005   1.665   0.120   3.759
 6000TIP3    H118006   1.592   0.070   3.797
 6000TIP3    H218007   1.734   0.115   3.824
 6001TIP3   OH218008   3.879   1.214   0.401
 6001TIP3    H118009   3.916   1.297   0.430
 6001TIP3    H218010   3.893   1.154   0.474
 6002TIP3   OH218011   3.873   0.938   3.767
 6002TIP3    H118012   3.808   1.008   3.765
 6002TIP3    H218013   3.940   0.965   3.704
 6003TIP3   OH218014   5.379   0.102   0.704
 6003TIP3    H118015   5.319   0.050   0.651
 6003TIP3    H218016   5.373   0.190   0.668
 6004TIP3   OH218017   2.489   2.390   0.493
 6004TIP3    H118018   2.563   2.330   0.502
 6004TIP3    H218019   2.444   2.361   0.413
 6005TIP3   OH218020   5.255   1.146   1.734
 6005TIP3    H118021   5.288   1.109   1.816
 6005TIP3    H218022   5.280   1.082   1.667
 6006TIP3   OH218023   0.901   3.638   5.138
 6006TIP3    H118024   0.990   3.604   5.146
 6006TIP3    H218025   0.850   3.565   5.103
 6007TIP3   OH218026   2.546   2.132   2.517
 6007TIP3    H118027   2.501   2.209   2.482
 6007TIP3    H218028   2.500   2.058   2.478
 6008TIP3   OH218029   1.910   4.088   0.568
 6008TIP3    H118030   1.826   4.089   0.615
 6008TIP3    H218031   1.910   4.003   0.523
 6009TIP3   OH218032   6.306   0.831   0.618
 6009TIP3    H118033   6.283   0.764   0.682
 6009TIP3    H218034   6.227   0.886   0.613
 6010TIP3   OH218035   0.169   1.324   2.712
 6010TIP3    H118036   0.091   1.295   2.759
 6010TIP3    H218037   0.165   1.278   2.628
 6011TIP3   OH218038   3.275   0.787   2.267
 6011TIP3    H118039   3.334   0.735   2.322
 6011TIP3    H218040   3.231   0.723   2.212
 6012TIP3   OH218041   4.480   3.181   2.293
 6012TIP3    H118042   4.470   3.218   2.380
 6012TIP3    H218043   4.452   3.250   2.233
 6013TIP3   OH218044   2.338   3.286   2.831
 6013TIP3    H118045   2.360   3.228   2.759
 6013TIP3    H218046   2.419   3.294   2.882
 6014TIP3   OH218047   3.879   4.957   1.434
 6014TIP3    H118048   3.795   5.002   1.421
 6014TIP3    H218049   3.936   5.024   1.472
 6015TIP3   OH218050   5.066   0.368   2.105
 6015TIP3    H118051   5.107   0.292   2.148
 6015TIP3    H218052   5.108   0.444   2.146
 6016TIP3   OH218053   4.419   0.103   2.997
 6016TIP3    H118054   4.436   0.131   3.087
 6016TIP3    H218055   4.325   0.084   2.996
 6017TIP3   OH218056   0.626   0.411   5.101
 6017TIP3    H118057   0.589   0.491   5.064
 6017TIP3    H218058   0.688   0.441   5.167
 6018TIP3   OH218059   2.030   5.122   0.951
 6018TIP3    H118060   2.076   5.117   0.866
 6018TIP3    H218061   2.087   5.073   1.011
 6019TIP3   OH218062   3.852   1.654   4.581
 6019TIP3    H118063   3.931   1.703   4.602
 6019TIP3    H218064   3.836   1.599   4.657
 6020TIP3   OH218065   0.238   1.914   3.469
 6020TIP3    H118066   0.221   1.933   3.377
 6020TIP3    H218067   0.249   2.000   3.510
 6021TIP3   OH218068   3.496   5.364   2.424
 6021TIP3    H118069   3.533   5.388   2.509
 6021TIP3    H218070   3.536   5.280   2.403
 6022TIP3   OH218071   3.275   4.591   5.175
 6022TIP3    H118072   3.297   4.565   5.264
 6022TIP3    H218073   3.286   4.511   5.123
 6023TIP3   OH218074   2.198   4.348   0.746
 6023TIP3    H118075   2.255   4.376   0.817
 6023TIP3    H218076   2.258   4.320   0.677
 6024TIP3   OH218077   2.082   3.462   0.026
 6024TIP3    H118078   2.147   3.497   0.087
 6024TIP3    H218079   2.067   3.373   0.057
 6025TIP3   OH218080   2.335   0.755   0.311
 6025TIP3    H118081   2.386   0.785   0.387
 6025TIP3    H218082   2.244   0.772   0.335
 6026TIP3   OH218083   4.620   5.952   0.468
 6026TIP3    H118084   4.559   5.891   0.426
 6026TIP3    H218085   4.616   5.930   0.561
 6027TIP3   OH218086   3.938   3.616   3.479
 6027TIP3    H118087   3.944   3.705   3.444
 6027TIP3    H218088   3.993   3.564   3.421
 6028TIP3   OH218089   0.103   4.950   2.507
 6028TIP3    H118090   0.032   4.902   2.464
 6028TIP3    H218091   0.183   4.915   2.469
 6029TIP3   OH218092   5.371   3.253   0.739
 6029TIP3    H118093   5.287   3.211   0.760
 6029TIP3    H218094   5.370   3.263   0.644
 6030TIP3   OH218095   6.157   1.837   0.262
 6030TIP3    H118096   6.159   1.932   0.269
 6030TIP3    H218097   6.066   1.816   0.245
 6031TIP3   OH218098   6.140   3.797   4.119
 6031TIP3    H118099   6.185   3.770   4.200
 6031TIP3    H218100   6.201   3.858   4.078
 6032TIP3   OH218101   4.160   1.063   0.994
 6032TIP3    H118102   4.104   1.045   0.919
 6032TIP3    H218103   4.101   1.062   1.069
 6033TIP3   OH218104   4.912   0.712   2.693
 6033TIP3    H118105   4.860   0.649   2.744
 6033TIP3    H218106   4.958   0.763   2.759
 6034TIP3   OH218107   2.756   4.052   3.336
 6034TIP3    H118108   2.820   3.982   3.349
 6034TIP3    H218109   2.798   4.112   3.274
 6035TIP3   OH218110   4.734   4.618   0.108
 6035TIP3    H118111   4.791   4.620   0.186
 6035TIP3    H218112   4.760   4.695   0.058
 6036TIP3   OH218113   3.731   4.699   4.284
 6036TIP3    H118114   3.742   4.788   4.315
 6036TIP3    H218115   3.679   4.707   4.204
 6037TIP3   OH218116   1.984   4.877   3.599
 6037TIP3    H118117   2.058   4.875   3.538
 6037TIP3    H218118   1.909   4.900   3.545
 6038TIP3   OH218119   2.209   5.701   4.992
 6038TIP3    H118120   2.164   5.729   4.912
 6038TIP3    H218121   2.290   5.661   4.961
 6039TIP3   OH218122   4.858   1.032   3.765
 6039TIP3    H118123   4.806   1.091   3.710
 6039TIP3    H218124   4.943   1.076   3.773
 6040TIP3   OH218125   5.182   2.245   2.267
 6040TIP3    H118126   5.115   2.249   2.199
 6040TIP3    H218127   5.139   2.278   2.346
 6041TIP3   OH218128   1.113   1.890   5.160
 6041TIP3    H118129   1.172   1.956   5.195
 6041TIP3    H218130   1.119   1.900   5.065
 6042TIP3   OH218131   5.281   2.259   3.397
 6042TIP3    H118132   5.278   2.253   3.301
 6042TIP3    H218133   5.199   2.219   3.426
 6043TIP3   OH218134   5.299   4.320   4.080
 6043TIP3    H118135   5.336   4.356   4.161
 6043TIP3    H218136   5.245   4.246   4.110
 6044TIP3   OH218137   6.274   1.274   2.379
 6044TIP3    H118138   6.277   1.239   2.290
 6044TIP3    H218139   6.291   1.368   2.369
 6045TIP3   OH218140   2.827   2.447   0.612
 6045TIP3    H118141   2.780   2.378   0.565
 6045TIP3    H218142   2.862   2.404   0.690
 6046TIP3   OH218143   1.329   5.347   2.487
 6046TIP3    H118144   1.410   5.395   2.471
 6046TIP3    H218145   1.271   5.373   2.416
 6047TIP3   OH218146   2.539   4.148   4.631
 6047TIP3    H118147   2.569   4.079   4.691
 6047TIP3    H218148   2.506   4.101   4.555
 6048TIP3   OH218149   1.909   4.396   0.724
 6048TIP3    H118150   2.005   4.399   0.729
 6048TIP3    H218151   1.883   4.340   0.797
 6049TIP3   OH218152   1.014   6.049   0.541
 6049TIP3    H118153   1.072   5.974   0.527
 6049TIP3    H218154   0.938   6.031   0.486
 6050TIP3   OH218155   2.159   2.600   2.405
 6050TIP3    H118156   2.196   2.581   2.319
 6050TIP3    H218157   2.124   2.689   2.397
 6051TIP3   OH218158   4.755   2.150   3.230
 6051TIP3    H118159   4.753   2.103   3.313
 6051TIP3    H218160   4.843   2.187   3.225
 6052TIP3   OH218161   1.176   2.542   4.319
 6052TIP3    H118162   1.222   2.623   4.341
 6052TIP3    H218163   1.109   2.533   4.386
 6053TIP3   OH218164   4.850   4.490   5.141
 6053TIP3    H118165   4.907   4.439   5.199
 6053TIP3    H218166   4.907   4.554   5.100
 6054TIP3   OH218167   3.847   0.821   1.920
 6054TIP3    H118168   3.844   0.842   2.014
 6054TIP3    H218169   3.842   0.726   1.917
 6055TIP3   OH218170   1.453   3.293   0.274
 6055TIP3    H118171   1.508   3.328   0.344
 6055TIP3    H218172   1.391   3.235   0.319
 6056TIP3   OH218173   6.033   3.930   2.635
 6056TIP3    H118174   6.035   3.988   2.711
 6056TIP3    H218175   6.006   3.845   2.671
 6057TIP3   OH218176   4.641   4.071   1.827
 6057TIP3    H118177   4.724   4.106   1.858
 6057TIP3    H218178   4.627   3.991   1.878
 6058TIP3   OH218179   2.145   5.832   0.224
 6058TIP3    H118180   2.164   5.802   0.136
 6058TIP3    H218181   2.196   5.913   0.234
 6059TIP3   OH218182   2.126   3.268   4.204
 6059TIP3    H118183   2.096   3.177   4.196
 6059TIP3    H218184   2.133   3.299   4.113
 6060TIP3   OH218185   0.638   3.434   4.805
 6060TIP3    H118186   0.677   3.374   4.742
 6060TIP3    H218187   0.591   3.497   4.751
 6061TIP3   OH218188   5.055   0.540   1.581
 6061TIP3    H118189   5.115   0.615   1.583
 6061TIP3    H218190   5.072   0.494   1.663
 6062TIP3   OH218191   4.314   0.484   4.082
 6062TIP3    H118192   4.222   0.461   4.074
 6062TIP3    H218193   4.319   0.575   4.053
 6063TIP3   OH218194   3.612   0.981   1.795
 6063TIP3    H118195   3.679   0.913   1.803
 6063TIP3    H218196   3.601   1.015   1.884
 6064TIP3   OH218197   4.217   2.839   3.648
 6064TIP3    H118198   4.230   2.899   3.721
 6064TIP3    H218199   4.140   2.787   3.673
 6065TIP3   OH218200   1.288   1.515   0.631
 6065TIP3    H118201   1.298   1.542   0.540
 6065TIP3    H218202   1.262   1.423   0.626
 6066TIP3   OH218203   2.971   2.195   1.689
 6066TIP3    H118204   3.052   2.147   1.675
 6066TIP3    H218205   2.985   2.243   1.771
 6067TIP3   OH218206   4.907   4.800   1.339
 6067TIP3    H118207   4.993   4.761   1.353
 6067TIP3    H218208   4.901   4.869   1.406
 6068TIP3   OH218209   2.957   3.965   4.507
 6068TIP3    H118210   2.933   3.937   4.595
 6068TIP3    H218211   3.050   3.947   4.501
 6069TIP3   OH218212   3.523   3.147   4.970
 6069TIP3    H118213   3.487   3.082   4.909
 6069TIP3    H218214   3.452   3.211   4.981
 6070TIP3   OH218215   4.408   4.590   1.170
 6070TIP3    H118216   4.458   4.562   1.246
 6070TIP3    H218217   4.346   4.655   1.203
 6071TIP3   OH218218   4.014   2.216   1.951
 6071TIP3    H118219   4.105   2.216   1.922
 6071TIP3    H218220   3.969   2.158   1.890
 6072TIP3   OH218221   1.000   5.241   4.398
 6072TIP3    H118222   1.072   5.207   4.452
 6072TIP3    H218223   0.951   5.163   4.372
 6073TIP3   OH218224   2.743   3.565   2.969
 6073TIP3    H118225   2.811   3.630   2.951
 6073TIP3    H218226   2.675   3.614   3.015
 6074TIP3   OH218227   2.968   3.874   0.555
 6074TIP3    H118228   2.886   3.902   0.596
 6074TIP3    H218229   3.011   3.955   0.529
 6075TIP3   OH218230   1.468   0.991   1.171
 6075TIP3    H118231   1.404   1.052   1.207
 6075TIP3    H218232   1.422   0.907   1.168
 6076TIP3   OH218233   1.383   2.051   0.702
 6076TIP3    H118234   1.472   2.031   0.733
 6076TIP3    H218235   1.330   1.979   0.736
 6077TIP3   OH218236   0.792   0.750   0.835
 6077TIP3    H118237   0.759   0.818   0.894
 6077TIP3    H218238   0.713   0.703   0.807
 6078TIP3   OH218239   3.518   0.107   0.723
 6078TIP3    H118240   3.596   0.129   0.775
 6078TIP3    H218241   3.506   0.013   0.736
 6079TIP3   OH218242   0.213   5.502   1.891
 6079TIP3    H118243   0.139   5.532   1.945
 6079TIP3    H218244   0.211   5.561   1.815
 6080TIP3   OH218245   1.815   2.589   1.944
 6080TIP3    H118246   1.757   2.623   1.875
 6080TIP3    H218247   1.873   2.662   1.966
 6081TIP3   OH218248   3.263   1.936   1.659
 6081TIP3    H118249   3.326   2.005   1.640
 6081TIP3    H218250   3.312   1.869   1.707
 6082TIP3   OH218251   1.584   1.114   2.720
 6082TIP3    H118252   1.610   1.126   2.811
 6082TIP3    H218253   1.518   1.181   2.704
 6083TIP3   OH218254   0.547   2.491   2.872
 6083TIP3    H118255   0.643   2.488   2.872
 6083TIP3    H218256   0.525   2.536   2.790
 6084TIP3   OH218257   4.381   5.112  -0.003
 6084TIP3    H118258   4.319   5.039   0.000
 6084TIP3    H218259   4.326   5.190   0.003
 6085TIP3   OH218260   2.997   4.548   0.499
 6085TIP3    H118261   2.985   4.500   0.581
 6085TIP3    H218262   2.934   4.620   0.503
 6086TIP3   OH218263   0.993   2.877   4.527
 6086TIP3    H118264   0.901   2.864   4.506
 6086TIP3    H218265   1.019   2.953   4.476
 6087TIP3   OH218266   5.202   1.406   0.330
 6087TIP3    H118267   5.132   1.411   0.266
 6087TIP3    H218268   5.228   1.314   0.331
 6088TIP3   OH218269   1.833   1.181   2.222
 6088TIP3    H118270   1.852   1.273   2.237
 6088TIP3    H218271   1.750   1.182   2.173
 6089TIP3   OH218272   3.427   3.321  -0.003
 6089TIP3    H118273   3.423   3.295   0.089
 6089TIP3    H218274   3.338   3.352  -0.023
 6090TIP3   OH218275   3.006   4.642   1.154
 6090TIP3    H118276   2.970   4.701   1.221
 6090TIP3    H218277   2.985   4.685   1.071
 6091TIP3   OH218278   0.634   3.457   1.677
 6091TIP3    H118279   0.609   3.365   1.669
 6091TIP3    H218280   0.577   3.492   1.746
 6092TIP3   OH218281   0.199   3.409   0.601
 6092TIP3    H118282   0.187   3.383   0.693
 6092TIP3    H218283   0.190   3.504   0.602
 6093TIP3   OH218284   2.433   0.964   0.532
 6093TIP3    H118285   2.420   1.037   0.471
 6093TIP3    H218286   2.371   0.980   0.603
 6094TIP3   OH218287   5.587   1.576   2.594
 6094TIP3    H118288   5.577   1.521   2.672
 6094TIP3    H218289   5.500   1.576   2.554
 6095TIP3   OH218290   1.181   3.329   3.821
 6095TIP3    H118291   1.239   3.344   3.895
 6095TIP3    H218292   1.099   3.300   3.860
 6096TIP3   OH218293   4.651   3.139   2.592
 6096TIP3    H118294   4.731   3.181   2.560
 6096TIP3    H218295   4.582   3.205   2.580
 6097TIP3   OH218296   5.470   0.954   3.852
 6097TIP3    H118297   5.379   0.981   3.853
 6097TIP3    H218298   5.520   1.035   3.860
 6098TIP3   OH218299   0.356   3.317   2.114
 6098TIP3    H118300   0.297   3.375   2.066
 6098TIP3    H218301   0.325   3.229   2.095
 6099TIP3   OH218302   1.235   2.197   4.319
 6099TIP3    H118303   1.232   2.124   4.380
 6099TIP3    H218304   1.162   2.253   4.346
 6100TIP3   OH218305   5.007   1.345   2.272
 6100TIP3    H118306   4.930   1.381   2.315
 6100TIP3    H218307   4.996   1.250   2.277
 6101TIP3   OH218308   0.418   3.306   3.900
 6101TIP3    H118309   0.497   3.353   3.873
 6101TIP3    H218310   0.417   3.314   3.995
 6102TIP3   OH218311   3.466   4.833   1.805
 6102TIP3    H118312   3.517   4.882   1.869
 6102TIP3    H218313   3.531   4.799   1.743
 6103TIP3   OH218314   2.706   2.456   3.714
 6103TIP3    H118315   2.691   2.532   3.769
 6103TIP3    H218316   2.780   2.481   3.658
 6104TIP3   OH218317   4.497   2.273   3.544
 6104TIP3    H118318   4.476   2.337   3.612
 6104TIP3    H218319   4.591   2.257   3.555
 6105TIP3   OH218320   4.893   0.313   3.614
 6105TIP3    H118321   4.954   0.313   3.540
 6105TIP3    H218322   4.919   0.236   3.665
 6106TIP3   OH218323   0.289   2.410   2.231
 6106TIP3    H118324   0.360   2.360   2.189
 6106TIP3    H218325   0.262   2.355   2.305
 6107TIP3   OH218326   5.212  -0.038   3.526
 6107TIP3    H118327   5.275  -0.010   3.592
 6107TIP3    H218328   5.154  -0.099   3.573
 6108TIP3   OH218329   1.053   0.346   0.342
 6108TIP3    H118330   0.984   0.286   0.370
 6108TIP3    H218331   1.100   0.368   0.423
 6109TIP3   OH218332   1.413   5.759   0.335
 6109TIP3    H118333   1.384   5.842   0.372
 6109TIP3    H218334   1.336   5.702   0.340
 6110TIP3   OH218335   5.542   1.994   1.126
 6110TIP3    H118336   5.550   2.067   1.065
 6110TIP3    H218337   5.543   2.036   1.212
 6111TIP3   OH218338   2.445   3.191   1.504
 6111TIP3    H118339   2.457   3.278   1.541
 6111TIP3    H218340   2.351   3.176   1.509
 6112TIP3   OH218341   4.504   0.573   5.093
 6112TIP3    H118342   4.510   0.583   4.998
 6112TIP3    H218343   4.531   0.657   5.128
 6113TIP3   OH218344   5.168   5.746   2.250
 6113TIP3    H118345   5.163   5.745   2.346
 6113TIP3    H218346   5.261   5.737   2.231
 6114TIP3   OH218347   0.625   1.105   3.686
 6114TIP3    H118348   0.541   1.086   3.644
 6114TIP3    H218349   0.639   1.031   3.746
 6115TIP3   OH218350   0.507   0.398   2.576
 6115TIP3    H118351   0.591   0.368   2.611
 6115TIP3    H218352   0.502   0.359   2.489
 6116TIP3   OH218353   1.469   0.528   0.152
 6116TIP3    H118354   1.419   0.474   0.214
 6116TIP3    H218355   1.494   0.468   0.083
 6117TIP3   OH218356   1.644   3.268   1.227
 6117TIP3    H118357   1.641   3.201   1.295
 6117TIP3    H218358   1.732   3.306   1.234
 6118TIP3   OH218359   4.778   5.571   4.585
 6118TIP3    H118360   4.829   5.595   4.508
 6118TIP3    H218361   4.816   5.622   4.656
 6119TIP3   OH218362   4.792   1.297   4.862
 6119TIP3    H118363   4.808   1.379   4.817
 6119TIP3    H218364   4.755   1.322   4.947
 6120TIP3   OH218365   2.546   4.799   4.313
 6120TIP3    H118366   2.560   4.717   4.359
 6120TIP3    H218367   2.465   4.834   4.350
 6121TIP3   OH218368   3.622   1.353   1.690
 6121TIP3    H118369   3.668   1.273   1.712
 6121TIP3    H218370   3.539   1.347   1.738
 6122TIP3   OH218371   4.690   4.889   4.738
 6122TIP3    H118372   4.664   4.980   4.753
 6122TIP3    H218373   4.761   4.895   4.673
 6123TIP3   OH218374   1.691   0.890   2.003
 6123TIP3    H118375   1.725   0.903   2.091
 6123TIP3    H218376   1.742   0.817   1.967
 6124TIP3   OH218377   0.754   0.110   2.508
 6124TIP3    H118378   0.720   0.171   2.442
 6124TIP3    H218379   0.751   0.160   2.590
 6125TIP3   OH218380   1.843   4.978   0.509
 6125TIP3    H118381   1.785   4.991   0.434
 6125TIP3    H218382   1.789   4.995   0.586
 6126TIP3   OH218383   6.015   2.408   4.236
 6126TIP3    H118384   6.068   2.427   4.313
 6126TIP3    H218385   5.948   2.476   4.235
 6127TIP3   OH218386   5.105   0.184   2.702
 6127TIP3    H118387   5.012   0.207   2.701
 6127TIP3    H218388   5.107   0.091   2.723
 6128TIP3   OH218389   1.003   3.455   4.948
 6128TIP3    H118390   0.913   3.424   4.941
 6128TIP3    H218391   1.049   3.386   4.997
 6129TIP3   OH218392   5.867   3.717   4.386
 6129TIP3    H118393   5.897   3.633   4.421
 6129TIP3    H218394   5.867   3.704   4.291
 6130TIP3   OH218395   5.563   5.703   5.078
 6130TIP3    H118396   5.635   5.749   5.036
 6130TIP3    H218397   5.521   5.769   5.132
 6131TIP3   OH218398   6.321   1.921   2.593
 6131TIP3    H118399   6.290   2.012   2.582
 6131TIP3    H218400   6.295   1.878   2.512
 6132TIP3   OH218401   0.482   0.696   2.874
 6132TIP3    H118402   0.575   0.681   2.855
 6132TIP3    H218403   0.480   0.783   2.914
 6133TIP3   OH218404   0.745   1.077   0.074
 6133TIP3    H118405   0.671   1.029   0.035
 6133TIP3    H218406   0.818   1.059   0.015
 6134TIP3   OH218407   5.876   3.304   4.287
 6134TIP3    H118408   5.959   3.280   4.328
 6134TIP3    H218409   5.898   3.317   4.194
 6135TIP3   OH218410   6.243   1.610   5.051
 6135TIP3    H118411   6.312   1.675   5.037
 6135TIP3    H218412   6.213   1.627   5.140
 6136TIP3   OH218413   3.279   5.721   3.494
 6136TIP3    H118414   3.208   5.688   3.440
 6136TIP3    H218415   3.327   5.781   3.438
 6137TIP3   OH218416   3.477   0.434   0.090
 6137TIP3    H118417   3.543   0.376   0.052
 6137TIP3    H218418   3.394   0.389   0.076
 6138TIP3   OH218419   2.201   5.169   0.159
 6138TIP3    H118420   2.237   5.239   0.105
 6138TIP3    H218421   2.278   5.124   0.195
 6139TIP3   OH218422   4.300   5.692   4.309
 6139TIP3    H118423   4.322   5.640   4.232
 6139TIP3    H218424   4.375   5.681   4.367
 6140TIP3   OH218425   4.488   2.162   4.004
 6140TIP3    H118426   4.423   2.177   3.935
 6140TIP3    H218427   4.452   2.091   4.056
 6141TIP3   OH218428   3.296   5.944   2.989
 6141TIP3    H118429   3.230   5.946   3.058
 6141TIP3    H218430   3.326   6.034   2.982
 6142TIP3   OH218431   5.719   5.331   2.348
 6142TIP3    H118432   5.718   5.260   2.411
 6142TIP3    H218433   5.812   5.344   2.328
 6143TIP3   OH218434   5.809   2.435   4.876
 6143TIP3    H118435   5.798   2.455   4.783
 6143TIP3    H218436   5.777   2.513   4.921
 6144TIP3   OH218437   5.213   1.330   3.385
 6144TIP3    H118438   5.143   1.344   3.322
 6144TIP3    H218439   5.293   1.328   3.332
 6145TIP3   OH218440   1.961   1.874   3.694
 6145TIP3    H118441   1.937   1.816   3.622
 6145TIP3    H218442   2.040   1.835   3.731
 6146TIP3   OH218443   0.995   4.815   4.567
 6146TIP3    H118444   1.081   4.814   4.525
 6146TIP3    H218445   0.933   4.813   4.494
 6147TIP3   OH218446   5.483   2.532   4.730
 6147TIP3    H118447   5.449   2.540   4.641
 6147TIP3    H218448   5.427   2.466   4.771
 6148TIP3   OH218449   3.684   4.902   0.927
 6148TIP3    H118450   3.729   4.972   0.974
 6148TIP3    H218451   3.593   4.931   0.922
 6149TIP3   OH218452   5.895   5.741   4.999
 6149TIP3    H118453   5.860   5.775   5.082
 6149TIP3    H218454   5.937   5.659   5.023
 6150TIP3   OH218455   6.234   5.148   2.313
 6150TIP3    H118456   6.250   5.153   2.407
 6150TIP3    H218457   6.312   5.186   2.273
 6151TIP3   OH218458   1.068   3.024   1.099
 6151TIP3    H118459   1.144   3.043   1.045
 6151TIP3    H218460   1.103   2.977   1.175
 6152TIP3   OH218461   2.177   1.458   4.955
 6152TIP3    H118462   2.123   1.434   4.880
 6152TIP3    H218463   2.249   1.509   4.917
 6153TIP3   OH218464   4.157   3.405   1.138
 6153TIP3    H118465   4.088   3.381   1.201
 6153TIP3    H218466   4.130   3.365   1.056
 6154TIP3   OH218467   1.743   2.258   1.407
 6154TIP3    H118468   1.754   2.353   1.400
 6154TIP3    H218469   1.649   2.245   1.416
 6155TIP3   OH218470   4.589   2.669   2.664
 6155TIP3    H118471   4.537   2.748   2.652
 6155TIP3    H218472   4.679   2.698   2.648
 6156TIP3   OH218473   2.662   0.375   2.037
 6156TIP3    H118474   2.569   0.363   2.020
 6156TIP3    H218475   2.706   0.330   1.965
 6157TIP3   OH218476   4.085   3.799   3.084
 6157TIP3    H118477   4.103   3.869   3.021
 6157TIP3    H218478   4.151   3.732   3.064
 6158TIP3   OH218479   2.787   0.425   1.182
 6158TIP3    H118480   2.768   0.507   1.137
 6158TIP3    H218481   2.876   0.403   1.155
 6159TIP3   OH218482   5.483   0.727   4.704
 6159TIP3    H118483   5.450   0.661   4.642
 6159TIP3    H218484   5.528   0.676   4.771
 6160TIP3   OH218485   3.053   0.310   0.231
 6160TIP3    H118486   2.983   0.357   0.276
 6160TIP3    H218487   3.124   0.304   0.296
 6161TIP3   OH218488   4.673   1.009   2.959
 6161TIP3    H118489   4.620   1.045   3.030
 6161TIP3    H218490   4.619   1.021   2.880
 6162TIP3   OH218491   0.531   1.654   0.286
 6162TIP3    H118492   0.454   1.601   0.262
 6162TIP3    H218493   0.497   1.719   0.348
 6163TIP3   OH218494   0.627   1.737   2.262
 6163TIP3    H118495   0.672   1.790   2.327
 6163TIP3    H218496   0.660   1.648   2.274
 6164TIP3   OH218497   3.355   0.163   3.862
 6164TIP3    H118498   3.330   0.247   3.822
 6164TIP3    H218499   3.391   0.112   3.790
 6165TIP3   OH218500   3.612   0.749   4.490
 6165TIP3    H118501   3.523   0.771   4.463
 6165TIP3    H218502   3.649   0.832   4.521
 6166TIP3   OH218503   2.524   4.710   0.573
 6166TIP3    H118504   2.563   4.629   0.540
 6166TIP3    H218505   2.589   4.746   0.634
 6167TIP3   OH218506   0.964   3.066   0.773
 6167TIP3    H118507   0.930   2.980   0.748
 6167TIP3    H218508   1.029   3.087   0.706
 6168TIP3   OH218509   0.767   0.894   3.909
 6168TIP3    H118510   0.672   0.881   3.921
 6168TIP3    H218511   0.801   0.806   3.892
 6169TIP3   OH218512   2.250   0.259   0.533
 6169TIP3    H118513   2.189   0.328   0.506
 6169TIP3    H218514   2.203   0.177   0.517
 6170TIP3   OH218515   2.924   3.485   3.336
 6170TIP3    H118516   2.939   3.393   3.316
 6170TIP3    H218517   2.974   3.532   3.269
 6171TIP3   OH218518   1.611   1.440   3.743
 6171TIP3    H118519   1.579   1.351   3.730
 6171TIP3    H218520   1.590   1.461   3.834
 6172TIP3   OH218521   5.301   2.729   0.181
 6172TIP3    H118522   5.242   2.653   0.174
 6172TIP3    H218523   5.360   2.719   0.107
 6173TIP3   OH218524   4.367   0.326   4.400
 6173TIP3    H118525   4.297   0.367   4.349
 6173TIP3    H218526   4.339   0.235   4.410
 6174TIP3   OH218527   4.616   4.040   2.264
 6174TIP3    H118528   4.606   3.956   2.309
 6174TIP3    H218529   4.532   4.055   2.221
 6175TIP3   OH218530   4.449   4.473   2.520
 6175TIP3    H118531   4.436   4.504   2.610
 6175TIP3    H218532   4.434   4.550   2.466
 6176TIP3   OH218533   1.849   1.983   4.847
 6176TIP3    H118534   1.840   1.984   4.752
 6176TIP3    H218535   1.793   1.911   4.876
 6177TIP3   OH218536   4.940   1.551   1.937
 6177TIP3    H118537   4.877   1.595   1.995
 6177TIP3    H218538   4.904   1.464   1.924
 6178TIP3   OH218539   5.983   1.111   2.225
 6178TIP3    H118540   6.003   1.021   2.199
 6178TIP3    H218541   6.011   1.164   2.150
 6179TIP3   OH218542   2.889   2.908   1.473
 6179TIP3    H118543   2.842   2.988   1.499
 6179TIP3    H218544   2.820   2.844   1.458
 6180TIP3   OH218545   0.370   2.027   2.633
 6180TIP3    H118546   0.306   2.006   2.701
 6180TIP3    H218547   0.449   2.051   2.680
 6181TIP3   OH218548   0.209   2.048   4.035
 6181TIP3    H118549   0.201   2.143   4.029
 6181TIP3    H218550   0.193   2.017   3.946
 6182TIP3   OH218551   1.340   0.132   0.073
 6182TIP3    H118552   1.260   0.081   0.084
 6182TIP3    H218553   1.376   0.103  -0.010
 6183TIP3   OH218554   4.903   2.568   1.717
 6183TIP3    H118555   4.990   2.587   1.751
 6183TIP3    H218556   4.917   2.553   1.623
 6184TIP3   OH218557   4.041  -0.014   0.837
 6184TIP3    H118558   4.112   0.041   0.804
 6184TIP3    H218559   4.067  -0.037   0.926
 6185TIP3   OH218560   4.673   1.960   0.413
 6185TIP3    H118561   4.608   1.909   0.365
 6185TIP3    H218562   4.756   1.941   0.368
 6186TIP3   OH218563   4.132   2.565   4.717
 6186TIP3    H118564   4.070   2.606   4.777
 6186TIP3    H218565   4.102   2.590   4.630
 6187TIP3   OH218566   0.820   0.333   4.931
 6187TIP3    H118567   0.757   0.326   4.860
 6187TIP3    H218568   0.773   0.379   5.001
 6188TIP3   OH218569   5.463   3.029   4.383
 6188TIP3    H118570   5.558   3.018   4.372
 6188TIP3    H218571   5.427   3.018   4.295
 6189TIP3   OH218572   2.178   2.882   1.645
 6189TIP3    H118573   2.221   2.948   1.590
 6189TIP3    H218574   2.095   2.865   1.602
 6190TIP3   OH218575   5.086   4.151   2.281
 6190TIP3    H118576   4.993   4.160   2.257
 6190TIP3    H218577   5.122   4.092   2.215
 6191TIP3   OH218578   1.767   2.488   1.086
 6191TIP3    H118579   1.810   2.403   1.088
 6191TIP3    H218580   1.819   2.541   1.026
 6192TIP3   OH218581   3.940   1.935   0.889
 6192TIP3    H118582   3.948   1.874   0.815
 6192TIP3    H218583   3.929   2.021   0.847
 6193TIP3   OH218584   1.677   3.859   2.272
 6193TIP3    H118585   1.719   3.801   2.209
 6193TIP3    H218586   1.641   3.930   2.219
 6194TIP3   OH218587   4.372   3.664   2.061
 6194TIP3    H118588   4.323   3.697   2.136
 6194TIP3    H218589   4.311   3.670   1.987
 6195TIP3   OH218590   1.300   2.832   1.625
 6195TIP3    H118591   1.253   2.838   1.542
 6195TIP3    H218592   1.379   2.782   1.605
 6196TIP3   OH218593   5.915   3.960   2.369
 6196TIP3    H118594   5.929   3.891   2.434
 6196TIP3    H218595   5.985   3.948   2.305
 6197TIP3   OH218596   5.471   0.308   4.344
 6197TIP3    H118597   5.513   0.232   4.384
 6197TIP3    H218598   5.519   0.323   4.263
 6198TIP3   OH218599   1.218   2.099   0.403
 6198TIP3    H118600   1.136   2.127   0.443
 6198TIP3    H218601   1.251   2.031   0.461
 6199TIP3   OH218602   2.526   3.029   0.644
 6199TIP3    H118603   2.606   3.080   0.651
 6199TIP3    H218604   2.459   3.083   0.686
 6200TIP3   OH218605   3.794   3.801   2.123
 6200TIP3    H118606   3.846   3.827   2.198
 6200TIP3    H218607   3.737   3.876   2.105
 6201TIP3   OH218608   1.793   3.756   3.059
 6201TIP3    H118609   1.772   3.795   2.974
 6201TIP3    H218610   1.799   3.830   3.119
 6202TIP3   OH218611   4.963   1.561   0.721
 6202TIP3    H118612   5.035   1.595   0.667
 6202TIP3    H218613   4.891   1.621   0.705
 6203TIP3   OH218614   3.020   1.649   1.417
 6203TIP3    H118615   2.980   1.655   1.504
 6203TIP3    H218616   3.004   1.558   1.390
 6204TIP3   OH218617   0.912   4.763   3.335
 6204TIP3    H118618   0.990   4.783   3.283
 6204TIP3    H218619   0.916   4.669   3.349
 6205TIP3   OH218620   0.395   5.398   2.875
 6205TIP3    H118621   0.376   5.492   2.881
 6205TIP3    H218622   0.327   5.364   2.818
 6206TIP3   OH218623   4.838   4.143   2.105
 6206TIP3    H118624   4.786   4.217   2.073
 6206TIP3    H218625   4.781   4.100   2.169
 6207TIP3   OH218626   4.038   4.151   2.423
 6207TIP3    H118627   4.116   4.189   2.464
 6207TIP3    H218628   4.034   4.192   2.337
 6208TIP3   OH218629   1.708   5.617   2.311
 6208TIP3    H118630   1.755   5.698   2.331
 6208TIP3    H218631   1.774   5.560   2.272
 6209TIP3   OH218632   3.151   2.095   0.870
 6209TIP3    H118633   3.173   2.188   0.876
 6209TIP3    H218634   3.186   2.057   0.950
 6210TIP3   OH218635   0.686   1.954   2.116
 6210TIP3    H118636   0.674   1.873   2.166
 6210TIP3    H218637   0.768   1.941   2.069
 6211TIP3   OH218638   3.475   2.279   0.346
 6211TIP3    H118639   3.418   2.355   0.348
 6211TIP3    H218640   3.468   2.241   0.433
 6212TIP3   OH218641   4.981   3.424   0.128
 6212TIP3    H118642   5.042   3.442   0.200
 6212TIP3    H218643   5.024   3.461   0.050
 6213TIP3   OH218644   4.705   1.818   5.044
 6213TIP3    H118645   4.757   1.881   5.094
 6213TIP3    H218646   4.627   1.803   5.098
 6214TIP3   OH218647   4.798   1.192   4.225
 6214TIP3    H118648   4.798   1.154   4.137
 6214TIP3    H218649   4.805   1.116   4.283
 6215TIP3   OH218650   5.854   5.873   4.761
 6215TIP3    H118651   5.850   5.827   4.845
 6215TIP3    H218652   5.941   5.853   4.727
 6216TIP3   OH218653   0.430   5.583   4.158
 6216TIP3    H118654   0.371   5.648   4.196
 6216TIP3    H218655   0.417   5.592   4.064
 6217TIP3   OH218656   2.017   1.945   3.178
 6217TIP3    H118657   2.075   1.986   3.241
 6217TIP3    H218658   1.932   1.943   3.221
 6218TIP3   OH218659   4.498   5.658   4.865
 6218TIP3    H118660   4.438   5.629   4.934
 6218TIP3    H218661   4.527   5.577   4.823
 6219TIP3   OH218662   0.691   1.258   0.271
 6219TIP3    H118663   0.751   1.228   0.338
 6219TIP3    H218664   0.711   1.206   0.194
 6220TIP3   OH218665   0.619   3.368   3.477
 6220TIP3    H118666   0.713   3.356   3.490
 6220TIP3    H218667   0.578   3.297   3.526
 6221TIP3   OH218668   2.234   3.176   1.160
 6221TIP3    H118669   2.231   3.096   1.107
 6221TIP3    H218670   2.155   3.172   1.214
 6222TIP3   OH218671   2.665   0.455   4.374
 6222TIP3    H118672   2.625   0.509   4.442
 6222TIP3    H218673   2.629   0.367   4.388
 6223TIP3   OH218674   5.702   4.778   2.695
 6223TIP3    H118675   5.615   4.761   2.658
 6223TIP3    H218676   5.709   4.716   2.768
 6224TIP3   OH218677   1.459   3.444   4.506
 6224TIP3    H118678   1.422   3.398   4.581
 6224TIP3    H218679   1.490   3.527   4.542
 6225TIP3   OH218680   4.768   1.519   4.267
 6225TIP3    H118681   4.856   1.553   4.249
 6225TIP3    H218682   4.721   1.593   4.307
 6226TIP3   OH218683   4.651   3.556   2.288
 6226TIP3    H118684   4.739   3.521   2.300
 6226TIP3    H218685   4.616   3.507   2.213
 6227TIP3   OH218686   4.945   4.910   0.682
 6227TIP3    H118687   5.017   4.944   0.735
 6227TIP3    H218688   4.973   4.923   0.592
 6228TIP3   OH218689   0.743   0.720   2.123
 6228TIP3    H118690   0.798   0.760   2.056
 6228TIP3    H218691   0.674   0.785   2.138
 6229TIP3   OH218692   0.136   2.039   1.954
 6229TIP3    H118693   0.081   2.021   2.030
 6229TIP3    H218694   0.225   2.020   1.983
 6230TIP3   OH218695   0.744   3.018   1.051
 6230TIP3    H118696   0.659   2.985   1.079
 6230TIP3    H218697   0.727   3.063   0.969
 6231TIP3   OH218698   0.014   1.274   1.463
 6231TIP3    H118699   0.084   1.210   1.453
 6231TIP3    H218700   0.025   1.307   1.552
 6232TIP3   OH218701   6.064   1.959   0.732
 6232TIP3    H118702   6.112   1.907   0.668
 6232TIP3    H218703   5.984   1.910   0.749
 6233TIP3   OH218704   0.197   4.555   3.425
 6233TIP3    H118705   0.289   4.563   3.399
 6233TIP3    H218706   0.153   4.628   3.383
 6234TIP3   OH218707   2.680   3.021   4.179
 6234TIP3    H118708   2.750   3.083   4.199
 6234TIP3    H218709   2.680   3.015   4.084
 6235TIP3   OH218710   1.895   2.396   3.574
 6235TIP3    H118711   1.948   2.324   3.541
 6235TIP3    H218712   1.955   2.471   3.578
 6236TIP3   OH218713   5.057   1.646   1.059
 6236TIP3    H118714   4.998   1.706   1.012
 6236TIP3    H218715   5.071   1.574   0.998
 6237TIP3   OH218716   0.539   3.480   2.315
 6237TIP3    H118717   0.530   3.393   2.277
 6237TIP3    H218718   0.535   3.466   2.410
 6238TIP3   OH218719   6.126   4.239   2.532
 6238TIP3    H118720   6.072   4.181   2.479
 6238TIP3    H218721   6.216   4.217   2.507
 6239TIP3   OH218722   3.880   5.920   5.188
 6239TIP3    H118723   3.928   6.003   5.191
 6239TIP3    H218724   3.823   5.927   5.111
 6240TIP3   OH218725   3.912   4.256   0.859
 6240TIP3    H118726   3.908   4.202   0.938
 6240TIP3    H218727   3.829   4.304   0.859
 6241TIP3   OH218728   6.264   0.135   4.057
 6241TIP3    H118729   6.256   0.041   4.077
 6241TIP3    H218730   6.262   0.178   4.143
 6242TIP3   OH218731   6.302   2.694   3.412
 6242TIP3    H118732   6.237   2.758   3.441
 6242TIP3    H218733   6.255   2.639   3.349
 6243TIP3   OH218734   5.664   2.900   0.033
 6243TIP3    H118735   5.679   2.858  -0.051
 6243TIP3    H218736   5.745   2.888   0.082
 6244TIP3   OH218737   2.109   5.502   3.627
 6244TIP3    H118738   2.187   5.546   3.593
 6244TIP3    H218739   2.036   5.545   3.582
 6245TIP3   OH218740   4.140   4.975   4.915
 6245TIP3    H118741   4.219   5.024   4.891
 6245TIP3    H218742   4.103   4.946   4.832
 6246TIP3   OH218743   3.528   0.502   2.209
 6246TIP3    H118744   3.433   0.503   2.212
 6246TIP3    H218745   3.556   0.541   2.291
 6247TIP3   OH218746   1.288   3.600   1.391
 6247TIP3    H118747   1.307   3.606   1.484
 6247TIP3    H218748   1.217   3.536   1.385
 6248TIP3   OH218749   5.611   4.395   1.636
 6248TIP3    H118750   5.551   4.328   1.669
 6248TIP3    H218751   5.637   4.445   1.713
 6249TIP3   OH218752   5.884   4.973   3.191
 6249TIP3    H118753   5.878   4.950   3.284
 6249TIP3    H218754   5.905   5.067   3.191
 6250TIP3   OH218755   2.614   4.708   5.073
 6250TIP3    H118756   2.653   4.763   5.004
 6250TIP3    H218757   2.620   4.619   5.038
 6251TIP3   OH218758   0.189   0.083   3.857
 6251TIP3    H118759   0.139   0.019   3.805
 6251TIP3    H218760   0.134   0.100   3.933
 6252TIP3   OH218761   0.232   5.959   4.026
 6252TIP3    H118762   0.281   5.952   4.108
 6252TIP3    H218763   0.298   5.983   3.961
 6253TIP3   OH218764   5.938   2.570   0.055
 6253TIP3    H118765   6.015   2.524   0.091
 6253TIP3    H218766   5.953   2.569  -0.040
 6254TIP3   OH218767   5.947   5.849   0.264
 6254TIP3    H118768   5.897   5.790   0.207
 6254TIP3    H218769   6.003   5.898   0.204
 6255TIP3   OH218770   0.310   0.641   3.118
 6255TIP3    H118771   0.253   0.592   3.059
 6255TIP3    H218772   0.389   0.660   3.066
 6256TIP3   OH218773   1.108   1.328   2.696
 6256TIP3    H118774   1.062   1.408   2.724
 6256TIP3    H218775   1.038   1.266   2.677
 6257TIP3   OH218776   6.030   0.352   3.782
 6257TIP3    H118777   6.020   0.372   3.689
 6257TIP3    H218778   5.958   0.400   3.824
 6258TIP3   OH218779   0.709   3.712   4.700
 6258TIP3    H118780   0.738   3.753   4.619
 6258TIP3    H218781   0.766   3.636   4.710
 6259TIP3   OH218782   3.390   4.666   4.396
 6259TIP3    H118783   3.316   4.659   4.336
 6259TIP3    H218784   3.443   4.588   4.379
 6260TIP3   OH218785   4.572   4.826   3.431
 6260TIP3    H118786   4.665   4.851   3.433
 6260TIP3    H218787   4.574   4.731   3.419
 6261TIP3   OH218788   4.683   0.150   3.777
 6261TIP3    H118789   4.754   0.091   3.749
 6261TIP3    H218790   4.627   0.094   3.831
 6262TIP3   OH218791   2.514   0.293   0.591
 6262TIP3    H118792   2.521   0.294   0.687
 6262TIP3    H218793   2.420   0.284   0.575
 6263TIP3   OH218794   2.411   2.383   1.184
 6263TIP3    H118795   2.327   2.384   1.138
 6263TIP3    H218796   2.472   2.346   1.120
 6264TIP3   OH218797   5.159   2.112   2.700
 6264TIP3    H118798   5.187   2.025   2.673
 6264TIP3    H218799   5.064   2.105   2.711
 6265TIP3   OH218800   0.030   4.246   3.105
 6265TIP3    H118801   0.056   4.252   3.197
 6265TIP3    H218802  -0.041   4.182   3.104
 6266TIP3   OH218803   1.717   2.959   0.485
 6266TIP3    H118804   1.778   3.031   0.469
 6266TIP3    H218805   1.664   2.955   0.405
 6267TIP3   OH218806   3.548   4.607   4.095
 6267TIP3    H118807   3.534   4.692   4.054
 6267TIP3    H218808   3.463   4.584   4.132
 6268TIP3   OH218809   2.268   4.547   4.396
 6268TIP3    H118810   2.354   4.585   4.415
 6268TIP3    H218811   2.249   4.574   4.306
 6269TIP3   OH218812   3.405   1.278   2.193
 6269TIP3    H118813   3.312   1.274   2.214
 6269TIP3    H218814   3.431   1.367   2.216
 6270TIP3   OH218815   1.317   3.855   1.559
 6270TIP3    H118816   1.390   3.870   1.619
 6270TIP3    H218817   1.253   3.805   1.610
 6271TIP3   OH218818   3.024   4.453   0.960
 6271TIP3    H118819   3.117   4.449   0.983
 6271TIP3    H218820   2.985   4.505   1.030
 6272TIP3   OH218821   2.134   2.958   4.390
 6272TIP3    H118822   2.222   2.924   4.375
 6272TIP3    H218823   2.101   2.907   4.464
 6273TIP3   OH218824   4.739   2.130   3.561
 6273TIP3    H118825   4.744   2.175   3.644
 6273TIP3    H218826   4.671   2.063   3.574
 6274TIP3   OH218827   5.237   0.243   4.882
 6274TIP3    H118828   5.157   0.240   4.828
 6274TIP3    H218829   5.225   0.320   4.938
 6275TIP3   OH218830   1.138   3.779   0.336
 6275TIP3    H118831   1.062   3.832   0.362
 6275TIP3    H218832   1.192   3.775   0.416
 6276TIP3   OH218833   2.786   0.349   3.786
 6276TIP3    H118834   2.733   0.369   3.863
 6276TIP3    H218835   2.774   0.424   3.728
 6277TIP3   OH218836   4.784   2.282   0.151
 6277TIP3    H118837   4.840   2.267   0.075
 6277TIP3    H218838   4.702   2.237   0.130
 6278TIP3   OH218839   1.724   3.348   2.444
 6278TIP3    H118840   1.668   3.306   2.378
 6278TIP3    H218841   1.812   3.343   2.406
 6279TIP3   OH218842   1.880   0.120   1.786
 6279TIP3    H118843   1.939   0.125   1.861
 6279TIP3    H218844   1.903   0.038   1.743
 6280TIP3   OH218845   3.014   1.478   0.269
 6280TIP3    H118846   2.951   1.426   0.218
 6280TIP3    H218847   3.053   1.538   0.206
 6281TIP3   OH218848   1.352   2.930   0.233
 6281TIP3    H118849   1.265   2.904   0.203
 6281TIP3    H218850   1.337   3.004   0.291
 6282TIP3   OH218851   1.106   0.269   4.908
 6282TIP3    H118852   1.022   0.282   4.953
 6282TIP3    H218853   1.117   0.174   4.904
 6283TIP3   OH218854   5.502   2.347   2.503
 6283TIP3    H118855   5.584   2.350   2.553
 6283TIP3    H218856   5.519   2.401   2.426
 6284TIP3   OH218857   3.300   3.029   0.645
 6284TIP3    H118858   3.334   3.052   0.558
 6284TIP3    H218859   3.217   2.986   0.627
 6285TIP3   OH218860   0.820   0.306   2.683
 6285TIP3    H118861   0.886   0.347   2.628
 6285TIP3    H218862   0.870   0.267   2.755
 6286TIP3   OH218863   4.373   5.034   2.086
 6286TIP3    H118864   4.304   5.003   2.027
 6286TIP3    H218865   4.331   5.101   2.139
 6287TIP3   OH218866   3.503   2.640   2.514
 6287TIP3    H118867   3.536   2.561   2.557
 6287TIP3    H218868   3.515   2.709   2.579
 6288TIP3   OH218869   3.312   2.123   3.429
 6288TIP3    H118870   3.310   2.159   3.518
 6288TIP3    H218871   3.233   2.156   3.388
 6289TIP3   OH218872   0.559   0.041   2.889
 6289TIP3    H118873   0.574   0.135   2.884
 6289TIP3    H218874   0.627   0.008   2.947
 6290TIP3   OH218875   2.964   1.303   3.381
 6290TIP3    H118876   3.006   1.217   3.369
 6290TIP3    H218877   2.871   1.286   3.366
 6291TIP3   OH218878   3.924   5.271   2.371
 6291TIP3    H118879   3.894   5.350   2.327
 6291TIP3    H218880   4.002   5.299   2.420
 6292TIP3   OH218881   2.602   0.239   1.195
 6292TIP3    H118882   2.653   0.319   1.184
 6292TIP3    H218883   2.574   0.240   1.287
 6293TIP3   OH218884   4.097   1.585   3.505
 6293TIP3    H118885   4.102   1.516   3.439
 6293TIP3    H218886   4.149   1.552   3.578
 6294TIP3   OH218887   0.824   5.905   0.322
 6294TIP3    H118888   0.744   5.858   0.299
 6294TIP3    H218889   0.892   5.868   0.266
 6295TIP3   OH218890   3.482   2.693   3.462
 6295TIP3    H118891   3.431   2.774   3.463
 6295TIP3    H218892   3.497   2.673   3.555
 6296TIP3   OH218893   3.033   3.986   2.631
 6296TIP3    H118894   2.965   3.970   2.566
 6296TIP3    H218895   3.111   4.006   2.579
 6297TIP3   OH218896   5.579   0.200   3.047
 6297TIP3    H118897   5.522   0.256   2.994
 6297TIP3    H218898   5.667   0.222   3.017
 6298TIP3   OH218899   1.840   3.517   2.927
 6298TIP3    H118900   1.828   3.538   2.835
 6298TIP3    H218901   1.869   3.600   2.967
 6299TIP3   OH218902   0.575   3.193   1.350
 6299TIP3    H118903   0.559   3.210   1.443
 6299TIP3    H218904   0.514   3.250   1.304
 6300TIP3   OH218905   5.260   5.408   5.082
 6300TIP3    H118906   5.331   5.455   5.125
 6300TIP3    H218907   5.304   5.356   5.015
 6301TIP3   OH218908   1.543   4.922   3.488
 6301TIP3    H118909   1.533   5.006   3.533
 6301TIP3    H218910   1.494   4.860   3.541
 6302TIP3   OH218911   2.650   4.435   0.648
 6302TIP3    H118912   2.569   4.427   0.699
 6302TIP3    H218913   2.679   4.345   0.635
 6303TIP3   OH218914   5.479   4.362   4.713
 6303TIP3    H118915   5.428   4.306   4.655
 6303TIP3    H218916   5.446   4.343   4.801
 6304TIP3   OH218917   0.977   0.218   2.212
 6304TIP3    H118918   0.894   0.177   2.188
 6304TIP3    H218919   0.980   0.299   2.160
 6305TIP3   OH218920   2.732   5.525   5.003
 6305TIP3    H118921   2.795   5.491   5.067
 6305TIP3    H218922   2.676   5.450   4.983
 6306TIP3   OH218923   3.203   5.117   0.273
 6306TIP3    H118924   3.172   5.049   0.334
 6306TIP3    H218925   3.130   5.130   0.212
 6307TIP3   OH218926   5.149   4.911   4.236
 6307TIP3    H118927   5.066   4.933   4.279
 6307TIP3    H218928   5.142   4.950   4.149
 6308TIP3   OH218929   2.951   4.962   1.655
 6308TIP3    H118930   2.966   5.028   1.588
 6308TIP3    H218931   3.038   4.923   1.670
 6309TIP3   OH218932   0.257   1.330   0.117
 6309TIP3    H118933   0.237   1.239   0.138
 6309TIP3    H218934   0.348   1.329   0.088
 6310TIP3   OH218935   3.412   2.000   0.215
 6310TIP3    H118936   3.404   2.096   0.214
 6310TIP3    H218937   3.464   1.982   0.294
 6311TIP3   OH218938   4.650   3.329   1.146
 6311TIP3    H118939   4.562   3.355   1.177
 6311TIP3    H218940   4.682   3.406   1.099
 6312TIP3   OH218941   2.037   3.886   2.112
 6312TIP3    H118942   1.960   3.845   2.074
 6312TIP3    H218943   2.110   3.855   2.057
 6313TIP3   OH218944   3.795   1.746   1.072
 6313TIP3    H118945   3.825   1.768   1.160
 6313TIP3    H218946   3.818   1.823   1.019
 6314TIP3   OH218947   1.058   4.521   5.210
 6314TIP3    H118948   1.005   4.447   5.241
 6314TIP3    H218949   1.034   4.531   5.118
 6315TIP3   OH218950   6.146   5.159   0.885
 6315TIP3    H118951   6.212   5.222   0.854
 6315TIP3    H218952   6.068   5.178   0.832
 6316TIP3   OH218953   1.905   0.420   3.724
 6316TIP3    H118954   1.880   0.428   3.633
 6316TIP3    H218955   1.973   0.487   3.737
 6317TIP3   OH218956   5.214   3.942   3.082
 6317TIP3    H118957   5.195   3.850   3.063
 6317TIP3    H218958   5.188   3.953   3.173
 6318TIP3   OH218959   3.511   3.103   2.234
 6318TIP3    H118960   3.500   3.099   2.139
 6318TIP3    H218961   3.473   3.021   2.266
 6319TIP3   OH218962   1.722   3.842   0.999
 6319TIP3    H118963   1.782   3.811   1.067
 6319TIP3    H218964   1.755   3.928   0.975
 6320TIP3   OH218965   5.268   3.968   2.741
 6320TIP3    H118966   5.224   3.982   2.658
 6320TIP3    H218967   5.201   3.986   2.807
 6321TIP3   OH218968   3.693   5.886   3.404
 6321TIP3    H118969   3.605   5.903   3.371
 6321TIP3    H218970   3.740   5.851   3.328
 6322TIP3   OH218971   3.744   5.097   1.857
 6322TIP3    H118972   3.708   5.050   1.932
 6322TIP3    H218973   3.825   5.050   1.836
 6323TIP3   OH218974   0.969   0.636   1.102
 6323TIP3    H118975   1.005   0.578   1.170
 6323TIP3    H218976   0.941   0.714   1.151
 6324TIP3   OH218977   5.430   3.013   2.413
 6324TIP3    H118978   5.360   3.075   2.435
 6324TIP3    H218979   5.511   3.061   2.429
 6325TIP3   OH218980   2.173   2.729   0.814
 6325TIP3    H118981   2.243   2.757   0.755
 6325TIP3    H218982   2.115   2.676   0.760
 6326TIP3   OH218983   5.697   5.181   0.608
 6326TIP3    H118984   5.689   5.087   0.591
 6326TIP3    H218985   5.749   5.187   0.688
 6327TIP3   OH218986   4.313   2.811   2.787
 6327TIP3    H118987   4.296   2.717   2.782
 6327TIP3    H218988   4.357   2.823   2.872
 6328TIP3   OH218989   2.359   0.586   4.856
 6328TIP3    H118990   2.292   0.524   4.882
 6328TIP3    H218991   2.435   0.531   4.834
 6329TIP3   OH218992   5.174   1.855   2.258
 6329TIP3    H118993   5.265   1.885   2.266
 6329TIP3    H218994   5.145   1.890   2.174
 6330TIP3   OH218995   3.488   4.724   2.978
 6330TIP3    H118996   3.393   4.732   2.976
 6330TIP3    H218997   3.506   4.664   3.051
 6331TIP3   OH218998   1.945   2.491   4.250
 6331TIP3    H118999   2.014   2.476   4.186
 6331TIP3    H219000   1.864   2.468   4.204
 6332TIP3   OH219001   0.435   2.834   0.377
 6332TIP3    H119002   0.395   2.747   0.384
 6332TIP3    H219003   0.365   2.895   0.401
 6333TIP3   OH219004   4.451   1.434   3.058
 6333TIP3    H119005   4.477   1.389   2.978
 6333TIP3    H219006   4.466   1.527   3.040
 6334TIP3   OH219007   3.799   3.460   2.051
 6334TIP3    H119008   3.814   3.393   2.118
 6334TIP3    H219009   3.792   3.541   2.101
 6335TIP3   OH219010   6.233   1.476   2.959
 6335TIP3    H119011   6.146   1.458   2.996
 6335TIP3    H219012   6.238   1.571   2.955
 6336TIP3   OH219013   3.231   0.829   4.956
 6336TIP3    H119014   3.235   0.914   4.912
 6336TIP3    H219015   3.267   0.845   5.043
 6337TIP3   OH219016   1.609   2.500   3.757
 6337TIP3    H119017   1.541   2.565   3.772
 6337TIP3    H219018   1.606   2.482   3.663
 6338TIP3   OH219019   0.517   4.647   3.680
 6338TIP3    H119020   0.451   4.717   3.677
 6338TIP3    H219021   0.544   4.636   3.588
 6339TIP3   OH219022   2.658   2.488   0.266
 6339TIP3    H119023   2.697   2.400   0.269
 6339TIP3    H219024   2.593   2.488   0.336
 6340TIP3   OH219025   6.272   3.070   0.057
 6340TIP3    H119026   6.297   3.069  -0.035
 6340TIP3    H219027   6.177   3.078   0.056
 6341TIP3   OH219028   3.445   2.037   4.354
 6341TIP3    H119029   3.523   2.085   4.327
 6341TIP3    H219030   3.424   1.981   4.278
 6342TIP3   OH219031   0.793   4.738   4.907
 6342TIP3    H119032   0.873   4.695   4.877
 6342TIP3    H219033   0.738   4.743   4.828
 6343TIP3   OH219034   0.469   0.700   0.527
 6343TIP3    H119035   0.498   0.783   0.564
 6343TIP3    H219036   0.546   0.643   0.535
 6344TIP3   OH219037   4.242   4.552   0.019
 6344TIP3    H119038   4.175   4.499   0.061
 6344TIP3    H219039   4.257   4.509  -0.065
 6345TIP3   OH219040   0.501   4.913   0.588
 6345TIP3    H119041   0.559   4.888   0.660
 6345TIP3    H219042   0.500   4.837   0.530
 6346TIP3   OH219043   2.563   4.876   3.044
 6346TIP3    H119044   2.468   4.885   3.051
 6346TIP3    H219045   2.595   4.966   3.036
 6347TIP3   OH219046   0.561   1.809   1.769
 6347TIP3    H119047   0.566   1.747   1.842
 6347TIP3    H219048   0.650   1.812   1.735
 6348TIP3   OH219049   0.887   2.588   1.109
 6348TIP3    H119050   0.801   2.609   1.074
 6348TIP3    H219051   0.894   2.641   1.189
 6349TIP3   OH219052   3.615   0.432   3.415
 6349TIP3    H119053   3.605   0.526   3.400
 6349TIP3    H219054   3.698   0.424   3.461
 6350TIP3   OH219055   1.266   4.240   2.597
 6350TIP3    H119056   1.302   4.163   2.553
 6350TIP3    H219057   1.338   4.304   2.595
 6351TIP3   OH219058   4.865   2.960   3.121
 6351TIP3    H119059   4.792   2.933   3.066
 6351TIP3    H219060   4.855   2.909   3.201
 6352TIP3   OH219061   3.159   1.793   2.359
 6352TIP3    H119062   3.184   1.854   2.429
 6352TIP3    H219063   3.130   1.714   2.406
 6353TIP3   OH219064   0.705   1.860   3.357
 6353TIP3    H119065   0.759   1.939   3.348
 6353TIP3    H219066   0.692   1.830   3.267
 6354TIP3   OH219067   1.692   4.885   2.162
 6354TIP3    H119068   1.618   4.833   2.192
 6354TIP3    H219069   1.765   4.857   2.217
 6355TIP3   OH219070   1.295   2.113   0.134
 6355TIP3    H119071   1.223   2.061   0.097
 6355TIP3    H219072   1.279   2.114   0.228
 6356TIP3   OH219073   2.752   2.567   2.654
 6356TIP3    H119074   2.690   2.632   2.687
 6356TIP3    H219075   2.803   2.614   2.588
 6357TIP3   OH219076   0.235   1.051   0.181
 6357TIP3    H119077   0.168   0.983   0.173
 6357TIP3    H219078   0.318   1.004   0.175
 6358TIP3   OH219079   1.885   0.104   5.011
 6358TIP3    H119080   1.807   0.095   4.957
 6358TIP3    H219081   1.899   0.018   5.049
 6359TIP3   OH219082   3.934   2.315   5.005
 6359TIP3    H119083   3.963   2.227   4.981
 6359TIP3    H219084   3.948   2.320   5.100
 6360TIP3   OH219085   1.765   5.213   0.916
 6360TIP3    H119086   1.789   5.305   0.924
 6360TIP3    H219087   1.848   5.166   0.918
 6361TIP3   OH219088   4.676   4.425   1.132
 6361TIP3    H119089   4.680   4.516   1.106
 6361TIP3    H219090   4.590   4.395   1.103
 6362TIP3   OH219091   1.270   5.415   4.358
 6362TIP3    H119092   1.251   5.325   4.386
 6362TIP3    H219093   1.236   5.420   4.268
 6363TIP3   OH219094   3.949   2.800   3.786
 6363TIP3    H119095   3.891   2.870   3.756
 6363TIP3    H219096   3.903   2.719   3.764
 6364TIP3   OH219097   0.299   4.159   2.512
 6364TIP3    H119098   0.343   4.149   2.428
 6364TIP3    H219099   0.298   4.254   2.528
 6365TIP3   OH219100   5.876   0.309   4.725
 6365TIP3    H119101   5.878   0.224   4.680
 6365TIP3    H219102   5.826   0.366   4.666
 6366TIP3   OH219103   0.503   2.309   1.825
 6366TIP3    H119104   0.499   2.307   1.730
 6366TIP3    H219105   0.514   2.217   1.851
 6367TIP3   OH219106   4.585   4.550   3.427
 6367TIP3    H119107   4.504   4.506   3.401
 6367TIP3    H219108   4.641   4.480   3.460
 6368TIP3   OH219109   0.746   1.415   4.488
 6368TIP3    H119110   0.709   1.453   4.409
 6368TIP3    H219111   0.772   1.490   4.542
 6369TIP3   OH219112   2.099   3.841   3.772
 6369TIP3    H119113   2.057   3.926   3.783
 6369TIP3    H219114   2.173   3.842   3.832
 6370TIP3   OH219115   1.350   3.011   4.624
 6370TIP3    H119116   1.330   3.068   4.549
 6370TIP3    H219117   1.443   2.989   4.613
 6371TIP3   OH219118   2.707   1.810   3.912
 6371TIP3    H119119   2.741   1.724   3.887
 6371TIP3    H219120   2.612   1.799   3.914
 6372TIP3   OH219121   0.102   4.475   2.600
 6372TIP3    H119122   0.028   4.496   2.543
 6372TIP3    H219123   0.062   4.428   2.674
 6373TIP3   OH219124   4.533   1.047   4.430
 6373TIP3    H119125   4.552   1.036   4.523
 6373TIP3    H219126   4.589   0.982   4.387
 6374TIP3   OH219127   2.092   0.851   2.739
 6374TIP3    H119128   2.140   0.803   2.807
 6374TIP3    H219129   2.160   0.891   2.685
 6375TIP3   OH219130   5.981   4.217   1.636
 6375TIP3    H119131   5.960   4.307   1.613
 6375TIP3    H219132   5.909   4.165   1.600
 6376TIP3   OH219133   2.207   1.656   4.307
 6376TIP3    H119134   2.131   1.698   4.267
 6376TIP3    H219135   2.249   1.726   4.357
 6377TIP3   OH219136   2.550   4.094   1.740
 6377TIP3    H119137   2.576   4.006   1.767
 6377TIP3    H219138   2.507   4.131   1.816
 6378TIP3   OH219139   2.449   0.699   3.814
 6378TIP3    H119140   2.414   0.611   3.827
 6378TIP3    H219141   2.453   0.736   3.902
 6379TIP3   OH219142   4.510   2.385   4.832
 6379TIP3    H119143   4.450   2.325   4.876
 6379TIP3    H219144   4.457   2.428   4.764
 6380TIP3   OH219145   1.693   3.343   1.727
 6380TIP3    H119146   1.762   3.276   1.730
 6380TIP3    H219147   1.694   3.381   1.815
 6381TIP3   OH219148   3.992   1.829   4.872
 6381TIP3    H119149   3.996   1.911   4.823
 6381TIP3    H219150   3.903   1.826   4.907
 6382TIP3   OH219151   0.302   2.929   3.694
 6382TIP3    H119152   0.279   2.861   3.757
 6382TIP3    H219153   0.219   2.958   3.659
 6383TIP3   OH219154   4.566   2.806   4.566
 6383TIP3    H119155   4.592   2.866   4.497
 6383TIP3    H219156   4.648   2.777   4.606
 6384TIP3   OH219157   3.158   0.664   3.180
 6384TIP3    H119158   3.205   0.621   3.251
 6384TIP3    H219159   3.162   0.757   3.202
 6385TIP3   OH219160   0.284   0.717   4.393
 6385TIP3    H119161   0.361   0.668   4.424
 6385TIP3    H219162   0.217   0.700   4.460
 6386TIP3   OH219163   5.916   1.889   3.495
 6386TIP3    H119164   5.999   1.933   3.474
 6386TIP3    H219165   5.940   1.798   3.510
 6387TIP3   OH219166   2.926   1.289   0.589
 6387TIP3    H119167   2.891   1.362   0.641
 6387TIP3    H219168   2.853   1.229   0.578
 6388TIP3   OH219169   2.053   1.007   2.159
 6388TIP3    H119170   1.986   1.070   2.186
 6388TIP3    H219171   2.051   0.939   2.226
 6389TIP3   OH219172   5.431   3.628   4.731
 6389TIP3    H119173   5.374   3.554   4.748
 6389TIP3    H219174   5.455   3.620   4.639
 6390TIP3   OH219175   2.151   2.019   0.211
 6390TIP3    H119176   2.145   2.109   0.241
 6390TIP3    H219177   2.193   2.025   0.125
 6391TIP3   OH219178   3.732   0.297   1.442
 6391TIP3    H119179   3.796   0.311   1.372
 6391TIP3    H219180   3.687   0.216   1.418
 6392TIP3   OH219181   0.978   5.731   1.089
 6392TIP3    H119182   0.943   5.750   1.002
 6392TIP3    H219183   0.981   5.636   1.094
 6393TIP3   OH219184   6.243   3.732   2.232
 6393TIP3    H119185   6.165   3.686   2.262
 6393TIP3    H219186   6.280   3.770   2.312
 6394TIP3   OH219187   6.319   2.105   0.268
 6394TIP3    H119188   6.364   2.116   0.184
 6394TIP3    H219189   6.378   2.048   0.319
 6395TIP3   OH219190   0.512   1.107   0.430
 6395TIP3    H119191   0.548   1.158   0.357
 6395TIP3    H219192   0.430   1.152   0.452
 6396TIP3   OH219193   5.318   4.907   1.693
 6396TIP3    H119194   5.227   4.932   1.708
 6396TIP3    H219195   5.336   4.839   1.757
 6397TIP3   OH219196   4.360   4.311   0.621
 6397TIP3    H119197   4.313   4.311   0.537
 6397TIP3    H219198   4.292   4.326   0.687
 6398TIP3   OH219199   2.735   5.809   4.983
 6398TIP3    H119200   2.699   5.723   5.002
 6398TIP3    H219201   2.775   5.837   5.065
 6399TIP3   OH219202   4.977   3.590   4.071
 6399TIP3    H119203   4.972   3.651   4.145
 6399TIP3    H219204   4.887   3.561   4.058
 6400TIP3   OH219205   4.091   4.342   1.624
 6400TIP3    H119206   4.016   4.298   1.665
 6400TIP3    H219207   4.141   4.378   1.696
 6401TIP3   OH219208   2.623   0.888   3.690
 6401TIP3    H119209   2.609   0.881   3.596
 6401TIP3    H219210   2.541   0.923   3.725
 6402TIP3   OH219211   5.728   4.443   1.881
 6402TIP3    H119212   5.704   4.391   1.957
 6402TIP3    H219213   5.809   4.402   1.849
 6403TIP3   OH219214   2.804   1.483   1.208
 6403TIP3    H119215   2.735   1.428   1.170
 6403TIP3    H219216   2.818   1.448   1.296
 6404TIP3   OH219217   4.015   5.114   0.995
 6404TIP3    H119218   4.031   5.035   0.943
 6404TIP3    H219219   3.920   5.118   1.004
 6405TIP3   OH219220   2.383   3.778   1.669
 6405TIP3    H119221   2.423   3.794   1.754
 6405TIP3    H219222   2.398   3.685   1.652
 6406TIP3   OH219223   6.300   4.417   2.066
 6406TIP3    H119224   6.275   4.356   2.135
 6406TIP3    H219225   6.240   4.491   2.077
 6407TIP3   OH219226   0.576   3.772   1.396
 6407TIP3    H119227   0.554   3.721   1.474
 6407TIP3    H219228   0.662   3.809   1.416
 6408TIP3   OH219229   1.353   4.911   0.030
 6408TIP3    H119230   1.446   4.933   0.035
 6408TIP3    H219231   1.309   4.982   0.076
 6409TIP3   OH219232   1.065   5.851   3.274
 6409TIP3    H119233   1.078   5.859   3.368
 6409TIP3    H219234   0.970   5.861   3.262
 6410TIP3   OH219235   0.036   0.976   2.624
 6410TIP3    H119236  -0.031   1.040   2.598
 6410TIP3    H219237   0.071   0.942   2.541
 6411TIP3   OH219238   2.628   5.329   3.375
 6411TIP3    H119239   2.572   5.392   3.330
 6411TIP3    H219240   2.714   5.371   3.379
 6412TIP3   OH219241   2.305   4.891   0.873
 6412TIP3    H119242   2.284   4.800   0.895
 6412TIP3    H219243   2.282   4.899   0.780
 6413TIP3   OH219244   6.286   2.353   2.341
 6413TIP3    H119245   6.261   2.331   2.252
 6413TIP3    H219246   6.204   2.361   2.389
 6414TIP3   OH219247   0.441   0.293   0.593
 6414TIP3    H119248   0.504   0.268   0.661
 6414TIP3    H219249   0.358   0.303   0.640
 6415TIP3   OH219250   3.998   0.650   4.152
 6415TIP3    H119251   4.004   0.742   4.177
 6415TIP3    H219252   3.907   0.638   4.126
 6416TIP3   OH219253   3.251   4.630   2.370
 6416TIP3    H119254   3.168   4.677   2.372
 6416TIP3    H219255   3.235   4.555   2.313
 6417TIP3   OH219256   2.844   3.181   2.584
 6417TIP3    H119257   2.845   3.272   2.614
 6417TIP3    H219258   2.848   3.129   2.664
 6418TIP3   OH219259   3.122   2.283   4.089
 6418TIP3    H119260   3.091   2.219   4.153
 6418TIP3    H219261   3.081   2.258   4.007
 6419TIP3   OH219262   4.650   1.126   0.585
 6419TIP3    H119263   4.736   1.149   0.549
 6419TIP3    H219264   4.629   1.197   0.645
 6420TIP3   OH219265   3.346   3.345   2.030
 6420TIP3    H119266   3.380   3.260   2.055
 6420TIP3    H219267   3.306   3.331   1.944
 6421TIP3   OH219268   2.046   3.792   0.798
 6421TIP3    H119269   2.105   3.831   0.862
 6421TIP3    H219270   2.103   3.771   0.723
 6422TIP3   OH219271   3.799   1.755   0.188
 6422TIP3    H119272   3.706   1.732   0.193
 6422TIP3    H219273   3.807   1.801   0.104
 6423TIP3   OH219274   6.152   5.919   0.076
 6423TIP3    H119275   6.094   5.930   0.001
 6423TIP3    H219276   6.221   5.860   0.045
 6424TIP3   OH219277   2.709   5.090   1.212
 6424TIP3    H119278   2.698   4.996   1.220
 6424TIP3    H219279   2.642   5.128   1.269
 6425TIP3   OH219280   1.606   0.500   3.341
 6425TIP3    H119281   1.597   0.592   3.366
 6425TIP3    H219282   1.669   0.501   3.268
 6426TIP3   OH219283   4.559   5.452   2.615
 6426TIP3    H119284   4.608   5.505   2.677
 6426TIP3    H219285   4.583   5.486   2.529
 6427TIP3   OH219286   2.670   4.404   1.786
 6427TIP3    H119287   2.658   4.372   1.875
 6427TIP3    H219288   2.582   4.432   1.758
 6428TIP3   OH219289   1.191   3.624   2.777
 6428TIP3    H119290   1.246   3.672   2.715
 6428TIP3    H219291   1.128   3.690   2.808
 6429TIP3   OH219292   4.768   5.789   3.117
 6429TIP3    H119293   4.852   5.809   3.077
 6429TIP3    H219294   4.743   5.871   3.161
 6430TIP3   OH219295   2.074   2.835   0.164
 6430TIP3    H119296   2.152   2.856   0.215
 6430TIP3    H219297   2.033   2.920   0.148
 6431TIP3   OH219298   4.783   0.744   3.708
 6431TIP3    H119299   4.824   0.831   3.710
 6431TIP3    H219300   4.700   0.755   3.754
 6432TIP3   OH219301   0.719   4.752   4.403
 6432TIP3    H119302   0.671   4.775   4.323
 6432TIP3    H219303   0.779   4.683   4.375
 6433TIP3   OH219304   5.950   2.620   0.557
 6433TIP3    H119305   5.970   2.643   0.647
 6433TIP3    H219306   5.876   2.677   0.534
 6434TIP3   OH219307   5.095   2.511   4.123
 6434TIP3    H119308   5.026   2.572   4.095
 6434TIP3    H219309   5.157   2.511   4.050
 6435TIP3   OH219310   1.663   1.790   3.735
 6435TIP3    H119311   1.737   1.831   3.690
 6435TIP3    H219312   1.691   1.700   3.751
 6436TIP3   OH219313   0.860   4.739   2.894
 6436TIP3    H119314   0.920   4.668   2.915
 6436TIP3    H219315   0.777   4.712   2.933
 6437TIP3   OH219316   0.978   4.667   0.999
 6437TIP3    H119317   0.894   4.713   1.004
 6437TIP3    H219318   0.954   4.574   0.997
 6438TIP3   OH219319   6.051   1.646   3.232
 6438TIP3    H119320   6.029   1.729   3.189
 6438TIP3    H219321   6.039   1.663   3.326
 6439TIP3   OH219322   4.921   4.336   0.477
 6439TIP3    H119323   4.966   4.364   0.397
 6439TIP3    H219324   4.883   4.252   0.454
 6440TIP3   OH219325   4.449   3.834   5.035
 6440TIP3    H119326   4.398   3.913   5.017
 6440TIP3    H219327   4.531   3.848   4.987
 6441TIP3   OH219328   3.933   4.230   3.986
 6441TIP3    H119329   3.903   4.318   4.006
 6441TIP3    H219330   3.853   4.177   3.979
 6442TIP3   OH219331   4.769   2.685   2.974
 6442TIP3    H119332   4.865   2.683   2.977
 6442TIP3    H219333   4.749   2.720   2.888
 6443TIP3   OH219334   0.424   1.116   0.932
 6443TIP3    H119335   0.457   1.033   0.898
 6443TIP3    H219336   0.432   1.176   0.858
 6444TIP3   OH219337   0.810   2.918   2.456
 6444TIP3    H119338   0.777   2.970   2.529
 6444TIP3    H219339   0.761   2.836   2.460
 6445TIP3   OH219340   1.453   5.089   1.329
 6445TIP3    H119341   1.512   5.054   1.263
 6445TIP3    H219342   1.430   5.176   1.297
 6446TIP3   OH219343   3.919   0.314   0.242
 6446TIP3    H119344   3.966   0.280   0.318
 6446TIP3    H219345   3.987   0.353   0.187
 6447TIP3   OH219346   4.829   4.501   2.193
 6447TIP3    H119347   4.861   4.484   2.104
 6447TIP3    H219348   4.760   4.566   2.181
 6448TIP3   OH219349   0.028   2.087   1.068
 6448TIP3    H119350  -0.038   2.056   1.129
 6448TIP3    H219351   0.046   2.177   1.094
 6449TIP3   OH219352   3.249   2.987   2.553
 6449TIP3    H119353   3.274   2.939   2.633
 6449TIP3    H219354   3.320   2.969   2.492
 6450TIP3   OH219355   0.417   2.647   2.070
 6450TIP3    H119356   0.398   2.600   2.151
 6450TIP3    H219357   0.486   2.708   2.093
 6451TIP3   OH219358   2.161   2.232   2.829
 6451TIP3    H119359   2.234   2.171   2.830
 6451TIP3    H219360   2.195   2.309   2.782
 6452TIP3   OH219361   0.871   0.843   2.971
 6452TIP3    H119362   0.950   0.868   2.924
 6452TIP3    H219363   0.868   0.902   3.046
 6453TIP3   OH219364   2.541   0.135   1.615
 6453TIP3    H119365   2.497   0.066   1.565
 6453TIP3    H219366   2.473   0.202   1.627
 6454TIP3   OH219367   5.753   1.683   3.715
 6454TIP3    H119368   5.665   1.665   3.684
 6454TIP3    H219369   5.747   1.676   3.811
 6455TIP3   OH219370   2.403   2.789   4.701
 6455TIP3    H119371   2.315   2.752   4.710
 6455TIP3    H219372   2.393   2.881   4.725
 6456TIP3   OH219373   1.719   3.273   2.871
 6456TIP3    H119374   1.765   3.357   2.864
 6456TIP3    H219375   1.654   3.288   2.940
 6457TIP3   OH219376   3.162   2.483   3.814
 6457TIP3    H119377   3.131   2.556   3.760
 6457TIP3    H219378   3.083   2.432   3.832
 6458TIP3   OH219379   4.912   5.314   4.587
 6458TIP3    H119380   4.847   5.380   4.562
 6458TIP3    H219381   4.902   5.306   4.682
 6459TIP3   OH219382   5.773   5.581   2.624
 6459TIP3    H119383   5.700   5.520   2.613
 6459TIP3    H219384   5.851   5.528   2.609
 6460TIP3   OH219385   5.767   5.295   4.982
 6460TIP3    H119386   5.762   5.274   5.075
 6460TIP3    H219387   5.860   5.292   4.961
 6461TIP3   OH219388   0.833   4.177   5.037
 6461TIP3    H119389   0.776   4.191   5.113
 6461TIP3    H219390   0.813   4.088   5.008
 6462TIP3   OH219391   4.208   4.654   1.533
 6462TIP3    H119392   4.182   4.574   1.487
 6462TIP3    H219393   4.231   4.716   1.464
 6463TIP3   OH219394   2.424   5.792   3.260
 6463TIP3    H119395   2.414   5.885   3.281
 6463TIP3    H219396   2.434   5.789   3.165
 6464TIP3   OH219397   1.305   4.105   3.348
 6464TIP3    H119398   1.264   4.023   3.375
 6464TIP3    H219399   1.239   4.148   3.294
 6465TIP3   OH219400   1.602   3.936   0.169
 6465TIP3    H119401   1.514   3.926   0.132
 6465TIP3    H219402   1.659   3.886   0.110
 6466TIP3   OH219403   4.987   4.667   4.954
 6466TIP3    H119404   5.017   4.649   4.865
 6466TIP3    H219405   4.948   4.755   4.949
 6467TIP3   OH219406   2.408   3.881   1.250
 6467TIP3    H119407   2.344   3.907   1.316
 6467TIP3    H219408   2.463   3.816   1.295
 6468TIP3   OH219409   3.281   1.077   4.341
 6468TIP3    H119410   3.314   1.145   4.400
 6468TIP3    H219411   3.297   0.995   4.389
 6469TIP3   OH219412   0.365   3.001   1.663
 6469TIP3    H119413   0.366   2.937   1.735
 6469TIP3    H219414   0.274   3.005   1.636
 6470TIP3   OH219415   0.548   0.387   1.834
 6470TIP3    H119416   0.619   0.426   1.784
 6470TIP3    H219417   0.544   0.296   1.805
 6471TIP3   OH219418   2.278   1.379   3.569
 6471TIP3    H119419   2.246   1.397   3.481
 6471TIP3    H219420   2.200   1.376   3.624
 6472TIP3   OH219421   1.712   4.596   0.861
 6472TIP3    H119422   1.698   4.618   0.768
 6472TIP3    H219423   1.798   4.632   0.881
 6473TIP3   OH219424   0.666   2.963   1.885
 6473TIP3    H119425   0.571   2.950   1.888
 6473TIP3    H219426   0.702   2.885   1.927
 6474TIP3   OH219427   1.209   2.682   4.849
 6474TIP3    H119428   1.138   2.745   4.838
 6474TIP3    H219429   1.174   2.616   4.909
 6475TIP3   OH219430   5.701   3.305   3.180
 6475TIP3    H119431   5.758   3.263   3.116
 6475TIP3    H219432   5.613   3.296   3.143
 6476TIP3   OH219433   2.611   4.695   2.367
 6476TIP3    H119434   2.666   4.617   2.366
 6476TIP3    H219435   2.631   4.738   2.450
 6477TIP3   OH219436   1.321   4.414   3.027
 6477TIP3    H119437   1.344   4.354   3.098
 6477TIP3    H219438   1.403   4.456   3.002
 6478TIP3   OH219439   2.216   4.007   3.564
 6478TIP3    H119440   2.290   3.946   3.560
 6478TIP3    H219441   2.141   3.952   3.586
 6479TIP3   OH219442   2.787   2.938   0.952
 6479TIP3    H119443   2.790   2.961   0.859
 6479TIP3    H219444   2.775   2.843   0.953
 6480TIP3   OH219445   4.490   4.146   4.243
 6480TIP3    H119446   4.474   4.078   4.177
 6480TIP3    H219447   4.484   4.228   4.195
 6481TIP3   OH219448   0.413   3.895   3.277
 6481TIP3    H119449   0.408   3.950   3.199
 6481TIP3    H219450   0.506   3.874   3.285
 6482TIP3   OH219451   3.541   1.332   3.592
 6482TIP3    H119452   3.503   1.415   3.621
 6482TIP3    H219453   3.606   1.356   3.527
 6483TIP3   OH219454   5.395   0.864   2.462
 6483TIP3    H119455   5.374   0.843   2.553
 6483TIP3    H219456   5.445   0.789   2.431
 6484TIP3   OH219457   1.465   5.326   3.787
 6484TIP3    H119458   1.494   5.314   3.877
 6484TIP3    H219459   1.370   5.326   3.791
 6485TIP3   OH219460   2.581   3.327   2.970
 6485TIP3    H119461   2.623   3.404   2.931
 6485TIP3    H219462   2.597   3.337   3.064
 6486TIP3   OH219463   1.328   1.682   0.402
 6486TIP3    H119464   1.353   1.706   0.313
 6486TIP3    H219465   1.240   1.719   0.412
 6487TIP3   OH219466   0.035   1.356   3.150
 6487TIP3    H119467   0.011   1.263   3.146
 6487TIP3    H219468  -0.021   1.398   3.084
 6488TIP3   OH219469   6.258   5.945   1.044
 6488TIP3    H119470   6.191   6.011   1.027
 6488TIP3    H219471   6.211   5.862   1.044
 6489TIP3   OH219472   1.469   5.087   3.661
 6489TIP3    H119473   1.460   5.176   3.695
 6489TIP3    H219474   1.445   5.030   3.734
 6490TIP3   OH219475   3.263   0.205   2.368
 6490TIP3    H119476   3.255   0.257   2.289
 6490TIP3    H219477   3.283   0.116   2.337
 6491TIP3   OH219478   1.851   4.007   3.213
 6491TIP3    H119479   1.769   4.054   3.198
 6491TIP3    H219480   1.914   4.050   3.155
 6492TIP3   OH219481   6.138   3.643   1.023
 6492TIP3    H119482   6.134   3.713   1.088
 6492TIP3    H219483   6.201   3.581   1.058
 6493TIP3   OH219484   2.527   2.765   4.463
 6493TIP3    H119485   2.514   2.858   4.441
 6493TIP3    H219486   2.473   2.751   4.541
 6494TIP3   OH219487   4.068   2.665   2.612
 6494TIP3    H119488   4.125   2.717   2.555
 6494TIP3    H219489   4.128   2.622   2.673
 6495TIP3   OH219490   3.488   3.579   0.096
 6495TIP3    H119491   3.451   3.500   0.058
 6495TIP3    H219492   3.425   3.604   0.164
 6496TIP3   OH219493   2.484   4.483   3.582
 6496TIP3    H119494   2.484   4.472   3.677
 6496TIP3    H219495   2.393   4.470   3.556
 6497TIP3   OH219496   4.296   2.298   0.655
 6497TIP3    H119497   4.222   2.237   0.650
 6497TIP3    H219498   4.371   2.245   0.629
 6498TIP3   OH219499   6.297   1.220   1.017
 6498TIP3    H119500   6.319   1.312   1.028
 6498TIP3    H219501   6.211   1.211   1.059
 6499TIP3   OH219502   4.439   5.154   4.279
 6499TIP3    H119503   4.418   5.215   4.207
 6499TIP3    H219504   4.426   5.206   4.358
 6500TIP3   OH219505   5.608   4.180   0.942
 6500TIP3    H119506   5.534   4.238   0.923
 6500TIP3    H219507   5.656   4.173   0.860
 6501TIP3   OH219508   2.288   4.816   2.886
 6501TIP3    H119509   2.336   4.775   2.814
 6501TIP3    H219510   2.274   4.906   2.858
 6502TIP3   OH219511   5.441   5.798   3.162
 6502TIP3    H119512   5.348   5.817   3.175
 6502TIP3    H219513   5.483   5.884   3.159
 6503TIP3   OH219514   0.918   1.706   4.523
 6503TIP3    H119515   0.920   1.654   4.603
 6503TIP3    H219516   0.893   1.794   4.552
 6504TIP3   OH219517   1.047   4.280   1.852
 6504TIP3    H119518   1.134   4.240   1.853
 6504TIP3    H219519   1.064   4.372   1.871
 6505TIP3   OH219520   2.880   5.470   2.837
 6505TIP3    H119521   2.867   5.509   2.751
 6505TIP3    H219522   2.960   5.510   2.870
 6506TIP3   OH219523   1.719   1.453   1.900
 6506TIP3    H119524   1.753   1.514   1.835
 6506TIP3    H219525   1.707   1.371   1.851
 6507TIP3   OH219526   1.503   0.022   2.117
 6507TIP3    H119527   1.506   0.102   2.064
 6507TIP3    H219528   1.590   0.017   2.157
 6508TIP3   OH219529   5.646   3.500   1.756
 6508TIP3    H119530   5.684   3.448   1.685
 6508TIP3    H219531   5.709   3.491   1.828
 6509TIP3   OH219532   0.308   3.280   3.391
 6509TIP3    H119533   0.353   3.270   3.307
 6509TIP3    H219534   0.311   3.374   3.410
 6510TIP3   OH219535   1.135   3.413   2.931
 6510TIP3    H119536   1.040   3.414   2.941
 6510TIP3    H219537   1.156   3.493   2.883
 6511TIP3   OH219538   5.466   5.280   0.836
 6511TIP3    H119539   5.405   5.291   0.909
 6511TIP3    H219540   5.527   5.212   0.864
 6512TIP3   OH219541   3.285   1.826   3.175
 6512TIP3    H119542   3.223   1.873   3.231
 6512TIP3    H219543   3.315   1.753   3.229
 6513TIP3   OH219544   3.142   3.303   2.560
 6513TIP3    H119545   3.088   3.337   2.489
 6513TIP3    H219546   3.082   3.253   2.615
 6514TIP3   OH219547   5.041   3.095   5.029
 6514TIP3    H119548   4.993   3.016   5.004
 6514TIP3    H219549   5.061   3.082   5.122
 6515TIP3   OH219550   0.585   4.602   2.508
 6515TIP3    H119551   0.589   4.660   2.432
 6515TIP3    H219552   0.626   4.652   2.579
 6516TIP3   OH219553   3.488   0.922   4.728
 6516TIP3    H119554   3.426   0.888   4.663
 6516TIP3    H219555   3.439   0.989   4.776
 6517TIP3   OH219556   5.999   1.485   0.856
 6517TIP3    H119557   5.956   1.466   0.772
 6517TIP3    H219558   5.935   1.536   0.904
 6518TIP3   OH219559   6.132   1.033   2.939
 6518TIP3    H119560   6.206   1.054   2.882
 6518TIP3    H219561   6.155   1.072   3.023
 6519TIP3   OH219562   2.361   5.353   4.039
 6519TIP3    H119563   2.331   5.283   4.098
 6519TIP3    H219564   2.314   5.431   4.068
 6520TIP3   OH219565   1.012   2.484   3.106
 6520TIP3    H119566   1.025   2.574   3.076
 6520TIP3    H219567   1.042   2.484   3.196
 6521TIP3   OH219568   4.938   3.965   4.311
 6521TIP3    H119569   4.892   4.041   4.348
 6521TIP3    H219570   4.896   3.951   4.226
 6522TIP3   OH219571   2.291   2.354   4.276
 6522TIP3    H119572   2.237   2.293   4.326
 6522TIP3    H219573   2.331   2.411   4.342
 6523TIP3   OH219574   6.097   0.886   1.832
 6523TIP3    H119575   6.103   0.796   1.798
 6523TIP3    H219576   6.069   0.938   1.757
 6524TIP3   OH219577   4.654   5.906   4.480
 6524TIP3    H119578   4.623   5.893   4.390
 6524TIP3    H219579   4.647   6.000   4.495
 6525TIP3   OH219580   0.290   5.009   3.924
 6525TIP3    H119581   0.347   5.005   4.001
 6525TIP3    H219582   0.261   5.100   3.921
 6526TIP3   OH219583   3.982   1.324   2.910
 6526TIP3    H119584   3.940   1.248   2.948
 6526TIP3    H219585   4.062   1.290   2.869
 6527TIP3   OH219586   0.174   5.815   0.751
 6527TIP3    H119587   0.231   5.891   0.767
 6527TIP3    H219588   0.205   5.748   0.812
 6528TIP3   OH219589   0.250   2.522   1.048
 6528TIP3    H119590   0.225   2.440   1.090
 6528TIP3    H219591   0.295   2.571   1.116
 6529TIP3   OH219592   1.402   4.443   4.924
 6529TIP3    H119593   1.428   4.385   4.995
 6529TIP3    H219594   1.307   4.430   4.917
 6530TIP3   OH219595   4.817   0.187   2.237
 6530TIP3    H119596   4.861   0.211   2.319
 6530TIP3    H219597   4.741   0.245   2.234
 6531TIP3   OH219598   5.953   0.588   4.384
 6531TIP3    H119599   5.925   0.672   4.347
 6531TIP3    H219600   5.874   0.551   4.423
 6532TIP3   OH219601   3.520   0.478   0.373
 6532TIP3    H119602   3.590   0.537   0.344
 6532TIP3    H219603   3.504   0.421   0.298
 6533TIP3   OH219604   0.029   1.775   1.617
 6533TIP3    H119605   0.053   1.864   1.642
 6533TIP3    H219606   0.113   1.730   1.608
 6534TIP3   OH219607   0.885   3.668   4.214
 6534TIP3    H119608   0.977   3.693   4.212
 6534TIP3    H219609   0.845   3.720   4.144
 6535TIP3   OH219610   1.123   4.962   3.192
 6535TIP3    H119611   1.152   5.049   3.217
 6535TIP3    H219612   1.045   4.976   3.138
 6536TIP3   OH219613   4.541   0.127   0.804
 6536TIP3    H119614   4.489   0.150   0.881
 6536TIP3    H219615   4.611   0.192   0.802
 6537TIP3   OH219616   5.862   1.813   1.393
 6537TIP3    H119617   5.890   1.838   1.305
 6537TIP3    H219618   5.767   1.826   1.392
 6538TIP3   OH219619   5.363   5.577   0.528
 6538TIP3    H119620   5.278   5.554   0.491
 6538TIP3    H219621   5.411   5.618   0.456
 6539TIP3   OH219622   5.297   1.619   2.443
 6539TIP3    H119623   5.205   1.644   2.437
 6539TIP3    H219624   5.300   1.531   2.407
 6540TIP3   OH219625   5.330   0.591   1.374
 6540TIP3    H119626   5.284   0.582   1.291
 6540TIP3    H219627   5.400   0.655   1.356
 6541TIP3   OH219628   0.277   3.946   3.930
 6541TIP3    H119629   0.290   3.854   3.908
 6541TIP3    H219630   0.287   3.992   3.847
 6542TIP3   OH219631   4.195   1.246   2.405
 6542TIP3    H119632   4.118   1.230   2.461
 6542TIP3    H219633   4.245   1.165   2.410
 6543TIP3   OH219634   0.444   4.619   3.257
 6543TIP3    H119635   0.457   4.537   3.209
 6543TIP3    H219636   0.403   4.678   3.194
 6544TIP3   OH219637   6.160   1.110   4.112
 6544TIP3    H119638   6.127   1.069   4.192
 6544TIP3    H219639   6.103   1.187   4.100
 6545TIP3   OH219640   4.522   5.268   1.959
 6545TIP3    H119641   4.506   5.178   1.930
 6545TIP3    H219642   4.549   5.315   1.881
 6546TIP3   OH219643   3.558   2.598   3.193
 6546TIP3    H119644   3.518   2.514   3.168
 6546TIP3    H219645   3.521   2.619   3.278
 6547TIP3   OH219646   6.002   4.623   0.917
 6547TIP3    H119647   6.057   4.655   0.988
 6547TIP3    H219648   5.922   4.592   0.959
 6548TIP3   OH219649   4.059   5.076   4.241
 6548TIP3    H119650   4.105   5.124   4.172
 6548TIP3    H219651   3.978   5.045   4.200
 6549TIP3   OH219652   6.045   2.313   2.967
 6549TIP3    H119653   6.138   2.330   2.987
 6549TIP3    H219654   6.041   2.317   2.871
 6550TIP3   OH219655   0.952   5.574   2.514
 6550TIP3    H119656   0.872   5.594   2.563
 6550TIP3    H219657   1.021   5.572   2.580
 6551TIP3   OH219658   3.666   0.217   0.240
 6551TIP3    H119659   3.663   0.248   0.149
 6551TIP3    H219660   3.757   0.231   0.267
 6552TIP3   OH219661   1.735   4.685   5.077
 6552TIP3    H119662   1.797   4.689   5.150
 6552TIP3    H219663   1.663   4.632   5.111
 6553TIP3   OH219664   1.630   2.499   0.192
 6553TIP3    H119665   1.673   2.551   0.125
 6553TIP3    H219666   1.578   2.435   0.143
 6554TIP3   OH219667   3.893   2.117   4.341
 6554TIP3    H119668   3.830   2.046   4.331
 6554TIP3    H219669   3.976   2.079   4.312
 6555TIP3   OH219670   4.660   5.386   1.345
 6555TIP3    H119671   4.674   5.357   1.255
 6555TIP3    H219672   4.733   5.445   1.363
 6556TIP3   OH219673   0.224   3.035   2.120
 6556TIP3    H119674   0.173   2.955   2.108
 6556TIP3    H219675   0.257   3.030   2.210
 6557TIP3   OH219676   5.730   1.582   3.367
 6557TIP3    H119677   5.645   1.554   3.402
 6557TIP3    H219678   5.794   1.528   3.413
 6558TIP3   OH219679   2.257   3.794   0.603
 6558TIP3    H119680   2.290   3.876   0.566
 6558TIP3    H219681   2.336   3.742   0.618
 6559TIP3   OH219682   5.090   1.645   1.329
 6559TIP3    H119683   5.148   1.572   1.350
 6559TIP3    H219684   5.079   1.640   1.234
 6560TIP3   OH219685   1.667   0.075   0.656
 6560TIP3    H119686   1.687   0.142   0.721
 6560TIP3    H219687   1.743   0.074   0.598
 6561TIP3   OH219688   2.033   1.697   3.307
 6561TIP3    H119689   1.974   1.732   3.374
 6561TIP3    H219690   2.030   1.762   3.237
 6562TIP3   OH219691   2.357   3.629   4.917
 6562TIP3    H119692   2.411   3.598   4.845
 6562TIP3    H219693   2.298   3.694   4.878
 6563TIP3   OH219694   5.276   2.419   4.903
 6563TIP3    H119695   5.276   2.499   4.956
 6563TIP3    H219696   5.189   2.382   4.915
 6564TIP3   OH219697   3.941   3.903   2.345
 6564TIP3    H119698   3.915   3.891   2.436
 6564TIP3    H219699   3.970   3.994   2.340
 6565TIP3   OH219700   3.161   4.405   3.842
 6565TIP3    H119701   3.185   4.405   3.749
 6565TIP3    H219702   3.138   4.497   3.861
 6566TIP3   OH219703   0.416   2.154   0.616
 6566TIP3    H119704   0.464   2.126   0.538
 6566TIP3    H219705   0.353   2.084   0.632
 6567TIP3   OH219706   1.358   5.484   4.703
 6567TIP3    H119707   1.276   5.475   4.654
 6567TIP3    H219708   1.424   5.501   4.635
 6568TIP3   OH219709   0.440   4.165   2.261
 6568TIP3    H119710   0.373   4.105   2.228
 6568TIP3    H219711   0.478   4.204   2.182
 6569TIP3   OH219712   5.737   4.349   1.403
 6569TIP3    H119713   5.688   4.404   1.341
 6569TIP3    H219714   5.703   4.374   1.489
 6570TIP3   OH219715   3.440   3.628   4.008
 6570TIP3    H119716   3.464   3.550   3.957
 6570TIP3    H219717   3.449   3.701   3.947
 6571TIP3   OH219718   3.532   2.857   0.417
 6571TIP3    H119719   3.559   2.768   0.439
 6571TIP3    H219720   3.439   2.848   0.393
 6572TIP3   OH219721   2.591   4.261   1.519
 6572TIP3    H119722   2.599   4.179   1.470
 6572TIP3    H219723   2.604   4.235   1.610
 6573TIP3   OH219724   1.428   4.368   1.378
 6573TIP3    H119725   1.399   4.328   1.460
 6573TIP3    H219726   1.510   4.324   1.357
 6574TIP3   OH219727   1.289   5.790   0.929
 6574TIP3    H119728   1.368   5.801   0.877
 6574TIP3    H219729   1.224   5.755   0.868
 6575TIP3   OH219730   2.594   0.589   0.652
 6575TIP3    H119731   2.529   0.523   0.625
 6575TIP3    H219732   2.661   0.539   0.699
 6576TIP3   OH219733   5.205   0.184   4.472
 6576TIP3    H119734   5.296   0.181   4.500
 6576TIP3    H219735   5.195   0.270   4.431
 6577TIP3   OH219736   0.637   5.010   4.103
 6577TIP3    H119737   0.595   5.096   4.103
 6577TIP3    H219738   0.665   4.997   4.012
 6578TIP3   OH219739   3.577   3.129   4.656
 6578TIP3    H119740   3.499   3.160   4.702
 6578TIP3    H219741   3.562   3.153   4.564
 6579TIP3   OH219742   1.238   2.455   0.892
 6579TIP3    H119743   1.168   2.404   0.932
 6579TIP3    H219744   1.212   2.546   0.904
 6580TIP3   OH219745   1.581   5.105   2.045
 6580TIP3    H119746   1.612   5.030   2.097
 6580TIP3    H219747   1.569   5.175   2.109
 6581TIP3   OH219748   0.590   2.788   1.223
 6581TIP3    H119749   0.666   2.751   1.267
 6581TIP3    H219750   0.525   2.799   1.293
 6582TIP3   OH219751   5.469   1.918   2.222
 6582TIP3    H119752   5.496   2.009   2.215
 6582TIP3    H219753   5.504   1.889   2.306
 6583TIP3   OH219754   2.113   4.737   1.185
 6583TIP3    H119755   2.067   4.656   1.208
 6583TIP3    H219756   2.063   4.807   1.226
 6584TIP3   OH219757   5.489   4.578   3.917
 6584TIP3    H119758   5.485   4.484   3.938
 6584TIP3    H219759   5.406   4.613   3.949
 6585TIP3   OH219760   5.187   5.132   1.347
 6585TIP3    H119761   5.240   5.205   1.379
 6585TIP3    H219762   5.116   5.124   1.411
 6586TIP3   OH219763   3.799   0.663   3.403
 6586TIP3    H119764   3.760   0.687   3.487
 6586TIP3    H219765   3.870   0.603   3.425
 6587TIP3   OH219766   2.524   3.505   4.749
 6587TIP3    H119767   2.534   3.413   4.774
 6587TIP3    H219768   2.450   3.506   4.689
 6588TIP3   OH219769   2.966   1.453   3.073
 6588TIP3    H119770   2.929   1.518   3.013
 6588TIP3    H219771   2.951   1.490   3.160
 6589TIP3   OH219772   1.201   5.255   3.842
 6589TIP3    H119773   1.192   5.160   3.848
 6589TIP3    H219774   1.118   5.289   3.877
 6590TIP3   OH219775   0.034   3.801   4.233
 6590TIP3    H119776   0.129   3.806   4.234
 6590TIP3    H219777   0.014   3.711   4.258
 6591TIP3   OH219778   0.178   5.402   1.159
 6591TIP3    H119779   0.140   5.340   1.097
 6591TIP3    H219780   0.272   5.403   1.139
 6592TIP3   OH219781   2.807   3.721   3.392
 6592TIP3    H119782   2.884   3.776   3.379
 6592TIP3    H219783   2.830   3.637   3.350
 6593TIP3   OH219784   6.005   2.015   1.205
 6593TIP3    H119785   5.990   2.052   1.117
 6593TIP3    H219786   5.953   2.070   1.263
 6594TIP3   OH219787   1.712   5.341   0.160
 6594TIP3    H119788   1.643   5.275   0.167
 6594TIP3    H219789   1.792   5.294   0.182
 6595TIP3   OH219790   0.334   3.072   2.825
 6595TIP3    H119791   0.303   3.046   2.911
 6595TIP3    H219792   0.403   3.136   2.842
 6596TIP3   OH219793   3.412   1.883   3.518
 6596TIP3    H119794   3.398   1.958   3.460
 6596TIP3    H219795   3.483   1.833   3.476
 6597TIP3   OH219796   6.181   1.651   1.776
 6597TIP3    H119797   6.235   1.580   1.808
 6597TIP3    H219798   6.239   1.703   1.720
 6598TIP3   OH219799   5.185   4.695   0.700
 6598TIP3    H119800   5.154   4.766   0.645
 6598TIP3    H219801   5.112   4.632   0.702
 6599TIP3   OH219802   0.937   0.570   4.612
 6599TIP3    H119803   0.925   0.661   4.585
 6599TIP3    H219804   0.979   0.575   4.698
 6600TIP3   OH219805   3.994   5.171   4.515
 6600TIP3    H119806   3.994   5.154   4.421
 6600TIP3    H219807   4.010   5.085   4.555
 6601TIP3   OH219808   3.206   3.015   5.126
 6601TIP3    H119809   3.120   3.054   5.146
 6601TIP3    H219810   3.185   2.931   5.086
 6602TIP3   OH219811   4.330   3.997   2.144
 6602TIP3    H119812   4.257   3.936   2.135
 6602TIP3    H219813   4.300   4.077   2.101
 6603TIP3   OH219814   2.694   2.466   4.995
 6603TIP3    H119815   2.727   2.491   5.081
 6603TIP3    H219816   2.613   2.515   4.984
 6604TIP3   OH219817   1.817   1.068   2.485
 6604TIP3    H119818   1.817   1.132   2.414
 6604TIP3    H219819   1.743   1.093   2.540
 6605TIP3   OH219820   5.618   5.135   4.458
 6605TIP3    H119821   5.699   5.153   4.410
 6605TIP3    H219822   5.629   5.045   4.490
 6606TIP3   OH219823   5.502   1.386   2.042
 6606TIP3    H119824   5.486   1.360   1.952
 6606TIP3    H219825   5.421   1.429   2.069
 6607TIP3   OH219826   3.571   2.810   1.527
 6607TIP3    H119827   3.543   2.790   1.616
 6607TIP3    H219828   3.569   2.725   1.482
 6608TIP3   OH219829   3.068   5.600   3.329
 6608TIP3    H119830   3.004   5.549   3.279
 6608TIP3    H219831   3.072   5.685   3.284
 6609TIP3   OH219832   1.019   2.184   3.059
 6609TIP3    H119833   1.040   2.276   3.078
 6609TIP3    H219834   1.095   2.151   3.012
 6610TIP3   OH219835   1.357   2.037   5.200
 6610TIP3    H119836   1.367   2.101   5.129
 6610TIP3    H219837   1.436   1.984   5.196
 6611TIP3   OH219838   0.649   3.423   3.196
 6611TIP3    H119839   0.680   3.343   3.152
 6611TIP3    H219840   0.643   3.399   3.288
 6612TIP3   OH219841   0.802   5.867   3.191
 6612TIP3    H119842   0.716   5.901   3.166
 6612TIP3    H219843   0.814   5.791   3.134
 6613TIP3   OH219844   1.008   2.257   4.564
 6613TIP3    H119845   1.086   2.206   4.589
 6613TIP3    H219846   1.015   2.337   4.616
 6614TIP3   OH219847   5.636   2.005   2.863
 6614TIP3    H119848   5.716   1.970   2.825
 6614TIP3    H219849   5.583   2.032   2.788
 6615TIP3   OH219850   1.345   5.168   0.869
 6615TIP3    H119851   1.315   5.101   0.931
 6615TIP3    H219852   1.280   5.238   0.877
 6616TIP3   OH219853   2.866   1.676   2.950
 6616TIP3    H119854   2.838   1.681   3.041
 6616TIP3    H219855   2.785   1.681   2.899
 6617TIP3   OH219856   0.248   0.331   2.542
 6617TIP3    H119857   0.180   0.332   2.610
 6617TIP3    H219858   0.326   0.363   2.587
 6618TIP3   OH219859   0.144   2.748   1.679
 6618TIP3    H119860   0.060   2.718   1.712
 6618TIP3    H219861   0.209   2.697   1.727
 6619TIP3   OH219862   3.702   5.590   4.610
 6619TIP3    H119863   3.724   5.497   4.617
 6619TIP3    H219864   3.612   5.595   4.643
 6620TIP3   OH219865   5.591   4.561   0.588
 6620TIP3    H119866   5.505   4.574   0.547
 6620TIP3    H219867   5.606   4.467   0.581
 6621TIP3   OH219868   6.355  -0.013   0.907
 6621TIP3    H119869   6.348   0.079   0.881
 6621TIP3    H219870   6.274  -0.053   0.877
 6622TIP3   OH219871   0.005   0.143   2.028
 6622TIP3    H119872   0.089   0.188   2.021
 6622TIP3    H219873   0.021   0.057   1.989
 6623TIP3   OH219874   5.918   4.757   0.705
 6623TIP3    H119875   5.983   4.740   0.638
 6623TIP3    H219876   5.935   4.691   0.772
 6624TIP3   OH219877   1.849   2.457   4.926
 6624TIP3    H119878   1.829   2.550   4.937
 6624TIP3    H219879   1.936   2.456   4.885
 6625TIP3   OH219880   0.969   3.599   3.227
 6625TIP3    H119881   1.062   3.595   3.251
 6625TIP3    H219882   0.958   3.686   3.188
 6626TIP3   OH219883   0.956   0.662   0.187
 6626TIP3    H119884   0.974   0.574   0.153
 6626TIP3    H219885   0.911   0.707   0.115
 6627TIP3   OH219886   5.410   0.825   4.346
 6627TIP3    H119887   5.493   0.848   4.304
 6627TIP3    H219888   5.343   0.856   4.284
 6628TIP3   OH219889   5.133   4.109   0.976
 6628TIP3    H119890   5.138   4.173   0.906
 6628TIP3    H219891   5.066   4.047   0.948
 6629TIP3   OH219892   1.605   4.496   2.245
 6629TIP3    H119893   1.551   4.573   2.264
 6629TIP3    H219894   1.607   4.491   2.150
 6630TIP3   OH219895   4.731   0.893   2.587
 6630TIP3    H119896   4.728   0.847   2.503
 6630TIP3    H219897   4.806   0.855   2.633
 6631TIP3   OH219898   1.245   4.511   1.076
 6631TIP3    H119899   1.276   4.550   1.158
 6631TIP3    H219900   1.166   4.560   1.055
 6632TIP3   OH219901   2.683   4.315   2.065
 6632TIP3    H119902   2.756   4.300   2.126
 6632TIP3    H219903   2.605   4.312   2.121
 6633TIP3   OH219904   6.268   3.886   2.486
 6633TIP3    H119905   6.301   3.964   2.442
 6633TIP3    H219906   6.191   3.917   2.534
 6634TIP3   OH219907   0.907   5.249   5.256
 6634TIP3    H119908   0.962   5.290   5.190
 6634TIP3    H219909   0.818   5.254   5.220
 6635TIP3   OH219910   5.835   4.735   1.884
 6635TIP3    H119911   5.885   4.738   1.965
 6635TIP3    H219912   5.831   4.642   1.861
 6636TIP3   OH219913   1.347   3.497   5.034
 6636TIP3    H119914   1.426   3.476   5.084
 6636TIP3    H219915   1.275   3.481   5.094
 6637TIP3   OH219916   1.285   3.979   2.239
 6637TIP3    H119917   1.211   3.974   2.178
 6637TIP3    H219918   1.324   3.891   2.237
 6638TIP3   OH219919   2.695   0.107   2.590
 6638TIP3    H119920   2.652   0.192   2.585
 6638TIP3    H219921   2.711   0.083   2.499
 6639TIP3   OH219922   2.984   1.480   2.705
 6639TIP3    H119923   2.952   1.523   2.784
 6639TIP3    H219924   2.928   1.403   2.693
 6640TIP3   OH219925   0.550   0.296   1.081
 6640TIP3    H119926   0.601   0.216   1.081
 6640TIP3    H219927   0.612   0.364   1.051
 6641TIP3   OH219928   1.529   5.310   0.477
 6641TIP3    H119929   1.528   5.300   0.572
 6641TIP3    H219930   1.498   5.226   0.444
 6642TIP3   OH219931   3.044   4.322   4.066
 6642TIP3    H119932   2.953   4.349   4.061
 6642TIP3    H219933   3.080   4.342   3.980
 6643TIP3   OH219934   5.985   5.986   0.951
 6643TIP3    H119935   5.973   5.903   0.905
 6643TIP3    H219936   5.933   5.978   1.030
 6644TIP3   OH219937   4.569   1.402   1.661
 6644TIP3    H119938   4.660   1.424   1.643
 6644TIP3    H219939   4.519   1.478   1.631
 6645TIP3   OH219940   1.472   3.754   4.193
 6645TIP3    H119941   1.505   3.818   4.256
 6645TIP3    H219942   1.529   3.763   4.117
   6.35424   5.99083   5.18822   0.00000   0.00000  -2.11809   0.00000  -2.11809  -2.99542
