Title t= 293.00000 step= 146500
19942
    1ASP      N    1   1.877   2.644   2.644
    1ASP    HT1    2   1.918   2.731   2.607
    1ASP    HT2    3   1.898   2.576   2.568
    1ASP    HT3    4   1.931   2.626   2.731
    1ASP     CA    5   1.731   2.664   2.673
    1ASP     HA    6   1.725   2.750   2.738
    1ASP     CB    7   1.639   2.682   2.547
    1ASP    HB1    8   1.538   2.677   2.592
    1ASP    HB2    9   1.664   2.617   2.460
    1ASP     CG   10   1.659   2.820   2.498
    1ASP    OD1   11   1.615   2.850   2.382
    1ASP    OD2   12   1.719   2.897   2.576
    1ASP      C   13   1.686   2.544   2.760
    1ASP      O   14   1.750   2.441   2.763
    2ALA      N   15   1.573   2.556   2.834
    2ALA     HN   16   1.533   2.647   2.848
    2ALA     CA   17   1.539   2.453   2.920
    2ALA     HA   18   1.622   2.429   2.985
    2ALA     CB   19   1.427   2.489   3.012
    2ALA    HB1   20   1.425   2.442   3.113
    2ALA    HB2   21   1.331   2.466   2.961
    2ALA    HB3   22   1.420   2.597   3.037
    2ALA      C   23   1.500   2.322   2.844
    2ALA      O   24   1.456   2.328   2.731
    3ASP      N   25   1.521   2.201   2.893
    3ASP     HN   26   1.550   2.203   2.988
    3ASP     CA   27   1.491   2.073   2.831
    3ASP     HA   28   1.559   2.050   2.751
    3ASP     CB   29   1.504   1.962   2.932
    3ASP    HB1   30   1.478   1.860   2.897
    3ASP    HB2   31   1.433   1.974   3.016
    3ASP     CG   32   1.640   1.960   2.999
    3ASP    OD1   33   1.652   2.004   3.114
    3ASP    OD2   34   1.734   1.906   2.939
    3ASP      C   35   1.348   2.061   2.774
    3ASP      O   36   1.260   2.105   2.843
    4GLY      N   37   1.323   2.012   2.647
    4GLY     HN   38   1.408   1.998   2.597
    4GLY     CA   39   1.192   2.002   2.594
    4GLY    HA1   40   1.205   1.958   2.496
    4GLY    HA2   41   1.150   2.100   2.577
    4GLY      C   42   1.088   1.920   2.663
    4GLY      O   43   1.128   1.837   2.745
    5PRO      N   44   0.954   1.929   2.636
    5PRO     CD   45   0.892   2.002   2.522
    5PRO    HD1   46   0.921   1.964   2.422
    5PRO    HD2   47   0.907   2.112   2.532
    5PRO     CA   48   0.853   1.872   2.732
    5PRO     HA   49   0.889   1.866   2.834
    5PRO     CB   50   0.733   1.965   2.702
    5PRO    HB1   51   0.748   2.060   2.757
    5PRO    HB2   52   0.632   1.938   2.739
    5PRO     CG   53   0.736   1.985   2.548
    5PRO    HG1   54   0.697   1.900   2.488
    5PRO    HG2   55   0.696   2.086   2.526
    5PRO      C   56   0.828   1.725   2.689
    5PRO      O   57   0.714   1.679   2.701
    6GLY      N   58   0.924   1.652   2.625
    6GLY     HN   59   1.019   1.680   2.613
    6GLY     CA   60   0.928   1.512   2.584
    6GLY    HA1   61   1.032   1.498   2.562
    6GLY    HA2   62   0.851   1.511   2.508
    6GLY      C   63   0.891   1.404   2.686
    6GLY      O   64   0.863   1.421   2.805
    7ASP      N   65   0.880   1.281   2.631
    7ASP     HN   66   0.924   1.262   2.544
    7ASP     CA   67   0.818   1.171   2.688
    7ASP     HA   68   0.755   1.201   2.770
    7ASP     CB   69   0.745   1.096   2.571
    7ASP    HB1   70   0.817   1.063   2.492
    7ASP    HB2   71   0.674   1.163   2.519
    7ASP     CG   72   0.665   0.980   2.624
    7ASP    OD1   73   0.608   0.902   2.543
    7ASP    OD2   74   0.641   0.969   2.748
    7ASP      C   75   0.928   1.079   2.739
    7ASP      O   76   1.016   1.048   2.659
    8PRO      N   77   0.928   1.036   2.869
    8PRO     CD   78   0.839   1.081   2.978
    8PRO    HD1   79   0.756   1.007   2.991
    8PRO    HD2   80   0.799   1.183   2.966
    8PRO     CA   81   1.022   0.936   2.916
    8PRO     HA   82   1.125   0.960   2.893
    8PRO     CB   83   1.009   0.941   3.067
    8PRO    HB1   84   1.107   0.943   3.119
    8PRO    HB2   85   0.951   0.856   3.109
    8PRO     CG   86   0.927   1.062   3.101
    8PRO    HG1   87   0.881   1.051   3.202
    8PRO    HG2   88   0.987   1.155   3.106
    8PRO      C   89   1.003   0.803   2.865
    8PRO      O   90   1.097   0.730   2.858
    9ASP      N   91   0.881   0.768   2.813
    9ASP     HN   92   0.808   0.836   2.811
    9ASP     CA   93   0.841   0.640   2.783
    9ASP     HA   94   0.902   0.567   2.834
    9ASP     CB   95   0.687   0.618   2.820
    9ASP    HB1   96   0.656   0.517   2.787
    9ASP    HB2   97   0.624   0.702   2.785
    9ASP     CG   98   0.684   0.621   2.976
    9ASP    OD1   99   0.571   0.645   3.025
    9ASP    OD2  100   0.780   0.589   3.052
    9ASP      C  101   0.859   0.608   2.640
    9ASP      O  102   0.796   0.517   2.587
   10ALA      N  103   0.939   0.682   2.567
   10ALA     HN  104   0.976   0.756   2.621
   10ALA     CA  105   0.971   0.666   2.432
   10ALA     HA  106   0.893   0.616   2.375
   10ALA     CB  107   0.974   0.807   2.364
   10ALA    HB1  108   0.869   0.842   2.375
   10ALA    HB2  109   0.984   0.803   2.253
   10ALA    HB3  110   1.038   0.886   2.407
   10ALA      C  111   1.100   0.589   2.406
   10ALA      O  112   1.179   0.574   2.497
   11GLY      N  113   1.117   0.534   2.280
   11GLY     HN  114   1.049   0.551   2.209
   11GLY     CA  115   1.205   0.429   2.240
   11GLY    HA1  116   1.293   0.426   2.303
   11GLY    HA2  117   1.242   0.446   2.140
   11GLY      C  118   1.137   0.291   2.240
   11GLY    OT1  119   1.181   0.190   2.185
   11GLY    OT2  120   1.031   0.275   2.303
   12LIT    LIT  121   5.221   0.049   1.014
   13LIT    LIT  122   0.972   3.652   2.682
   14LIT    LIT  123   4.633   2.278   2.234
   15LIT    LIT  124   6.094   2.095   2.112
   16LIT    LIT  125   5.471   5.896   4.220
   17LIT    LIT  126   3.851   4.098   4.326
   18LIT    LIT  127   4.132   4.056   0.546
   19LIT    LIT  128   5.001   5.375   2.564
   20LIT    LIT  129   4.234   1.655   4.143
   21LIT    LIT  130   1.230   5.797   1.285
   22LIT    LIT  131   5.580   3.324   1.001
   23LIT    LIT  132   3.184   3.467   2.231
   24LIT    LIT  133   4.541   2.909   2.747
   25LIT    LIT  134   0.187   5.649   0.133
   26LIT    LIT  135   2.492   0.429   2.625
   27LIT    LIT  136   1.420   0.881   3.178
   28LIT    LIT  137   1.546   1.619   3.947
   29LIT    LIT  138   0.187   0.774   5.073
   30LIT    LIT  139   2.476   3.861   2.664
   31LIT    LIT  140   3.124   2.826   4.432
   32LIT    LIT  141   0.863   0.125   1.955
   33LIT    LIT  142   0.036   1.648   0.319
   34CLA    CLA  143   2.812   3.311   2.886
   35CLA    CLA  144   1.299   2.028   4.756
   36CLA    CLA  145   5.296   2.102   2.074
   37CLA    CLA  146   5.815   4.732   1.859
   38CLA    CLA  147   5.437   5.302   0.719
   39CLA    CLA  148   5.466   4.549   3.391
   40CLA    CLA  149   6.305   4.155   1.987
   41CLA    CLA  150   0.351   4.123   0.252
   42CLA    CLA  151   5.041   3.025   0.639
   43CLA    CLA  152   3.418   5.869   4.864
   44CLA    CLA  153   6.253   0.953   4.505
   45CLA    CLA  154   6.216   5.947   0.481
   46CLA    CLA  155   4.168   4.275   0.482
   47CLA    CLA  156   2.302   0.367   2.523
   48CLA    CLA  157   2.620   4.637   2.142
   49CLA    CLA  158   1.933   2.187   3.822
   50CLA    CLA  159   2.383   1.947   1.766
   51CLA    CLA  160   1.809   5.756   1.340
   52TIP3   OH2  161   2.906   0.991   4.528
   52TIP3    H1  162   2.965   0.925   4.491
   52TIP3    H2  163   2.930   0.995   4.621
   53TIP3   OH2  164   4.639   1.578   2.434
   53TIP3    H1  165   4.662   1.487   2.420
   53TIP3    H2  166   4.571   1.596   2.368
   54TIP3   OH2  167   2.448   0.549   3.159
   54TIP3    H1  168   2.364   0.504   3.160
   54TIP3    H2  169   2.510   0.483   3.127
   55TIP3   OH2  170   5.136   1.835   2.963
   55TIP3    H1  171   5.117   1.777   2.889
   55TIP3    H2  172   5.231   1.843   2.963
   56TIP3   OH2  173   4.389   5.366   0.944
   56TIP3    H1  174   4.460   5.326   0.993
   56TIP3    H2  175   4.357   5.297   0.886
   57TIP3   OH2  176   2.040   3.620   2.728
   57TIP3    H1  177   2.007   3.710   2.727
   57TIP3    H2  178   2.019   3.587   2.640
   58TIP3   OH2  179   1.757   4.335   1.468
   58TIP3    H1  180   1.736   4.247   1.437
   58TIP3    H2  181   1.776   4.324   1.561
   59TIP3   OH2  182   0.995   0.831   4.517
   59TIP3    H1  183   1.041   0.751   4.540
   59TIP3    H2  184   1.022   0.850   4.427
   60TIP3   OH2  185   3.051   4.584   1.621
   60TIP3    H1  186   3.048   4.666   1.670
   60TIP3    H2  187   3.144   4.558   1.624
   61TIP3   OH2  188   2.677   4.787   0.827
   61TIP3    H1  189   2.730   4.820   0.900
   61TIP3    H2  190   2.649   4.700   0.855
   62TIP3   OH2  191   0.324   3.669   3.113
   62TIP3    H1  192   0.334   3.575   3.125
   62TIP3    H2  193   0.408   3.698   3.077
   63TIP3   OH2  194   1.247   3.419   3.171
   63TIP3    H1  195   1.263   3.355   3.240
   63TIP3    H2  196   1.291   3.383   3.094
   64TIP3   OH2  197   1.291   1.181   0.800
   64TIP3    H1  198   1.329   1.267   0.816
   64TIP3    H2  199   1.318   1.159   0.711
   65TIP3   OH2  200   3.920   1.861   2.473
   65TIP3    H1  201   3.935   1.797   2.542
   65TIP3    H2  202   4.006   1.873   2.433
   66TIP3   OH2  203   5.313   2.814   1.674
   66TIP3    H1  204   5.375   2.777   1.611
   66TIP3    H2  205   5.355   2.894   1.705
   67TIP3   OH2  206   1.938   0.471   0.585
   67TIP3    H1  207   1.873   0.432   0.526
   67TIP3    H2  208   1.999   0.399   0.604
   68TIP3   OH2  209   0.464   5.716   4.401
   68TIP3    H1  210   0.419   5.773   4.338
   68TIP3    H2  211   0.454   5.628   4.366
   69TIP3   OH2  212   0.820   4.669   2.905
   69TIP3    H1  213   0.809   4.714   2.989
   69TIP3    H2  214   0.742   4.693   2.855
   70TIP3   OH2  215   0.163   1.719   1.478
   70TIP3    H1  216   0.153   1.795   1.536
   70TIP3    H2  217   0.176   1.645   1.537
   71TIP3   OH2  218   1.860   1.259   3.437
   71TIP3    H1  219   1.909   1.259   3.519
   71TIP3    H2  220   1.842   1.352   3.420
   72TIP3   OH2  221   4.407   3.167   0.810
   72TIP3    H1  222   4.451   3.124   0.883
   72TIP3    H2  223   4.354   3.098   0.769
   73TIP3   OH2  224   3.075   5.199   1.563
   73TIP3    H1  225   3.145   5.174   1.624
   73TIP3    H2  226   3.014   5.126   1.566
   74TIP3   OH2  227   0.947   5.512   3.265
   74TIP3    H1  228   0.872   5.494   3.322
   74TIP3    H2  229   0.918   5.485   3.178
   75TIP3   OH2  230   0.147   0.887   2.524
   75TIP3    H1  231   0.230   0.929   2.501
   75TIP3    H2  232   0.166   0.793   2.520
   76TIP3   OH2  233   0.068   5.991   3.441
   76TIP3    H1  234   0.156   5.966   3.413
   76TIP3    H2  235   0.013   5.918   3.412
   77TIP3   OH2  236   1.962   3.503   2.173
   77TIP3    H1  237   2.031   3.562   2.143
   77TIP3    H2  238   1.950   3.440   2.101
   78TIP3   OH2  239   4.401   2.176   5.053
   78TIP3    H1  240   4.450   2.227   4.990
   78TIP3    H2  241   4.362   2.241   5.112
   79TIP3   OH2  242   2.837   3.947   1.928
   79TIP3    H1  243   2.852   3.861   1.969
   79TIP3    H2  244   2.788   3.996   1.994
   80TIP3   OH2  245   1.863   2.632   4.642
   80TIP3    H1  246   1.830   2.708   4.594
   80TIP3    H2  247   1.789   2.572   4.647
   81TIP3   OH2  248   5.763   3.483   4.437
   81TIP3    H1  249   5.784   3.408   4.492
   81TIP3    H2  250   5.668   3.494   4.447
   82TIP3   OH2  251   6.309   0.719   0.455
   82TIP3    H1  252   6.247   0.650   0.435
   82TIP3    H2  253   6.349   0.693   0.538
   83TIP3   OH2  254   4.140   0.873   5.082
   83TIP3    H1  255   4.197   0.939   5.044
   83TIP3    H2  256   4.197   0.797   5.094
   84TIP3   OH2  257   2.173   2.361   4.403
   84TIP3    H1  258   2.105   2.302   4.373
   84TIP3    H2  259   2.253   2.328   4.362
   85TIP3   OH2  260   1.607   5.723   0.730
   85TIP3    H1  261   1.538   5.780   0.763
   85TIP3    H2  262   1.562   5.663   0.671
   86TIP3   OH2  263   5.717   2.606   1.753
   86TIP3    H1  264   5.770   2.650   1.686
   86TIP3    H2  265   5.678   2.531   1.707
   87TIP3   OH2  266   2.703   3.540   2.081
   87TIP3    H1  267   2.650   3.612   2.116
   87TIP3    H2  268   2.675   3.464   2.132
   88TIP3   OH2  269   3.617   0.600   4.320
   88TIP3    H1  270   3.709   0.615   4.298
   88TIP3    H2  271   3.581   0.687   4.333
   89TIP3   OH2  272   0.140   4.925   0.854
   89TIP3    H1  273   0.101   4.849   0.897
   89TIP3    H2  274   0.177   4.976   0.926
   90TIP3   OH2  275   6.134   5.815   5.103
   90TIP3    H1  276   6.149   5.778   5.016
   90TIP3    H2  277   6.170   5.750   5.164
   91TIP3   OH2  278   5.457   4.101   1.142
   91TIP3    H1  279   5.524   4.033   1.136
   91TIP3    H2  280   5.390   4.063   1.199
   92TIP3   OH2  281   3.868   3.899   2.064
   92TIP3    H1  282   3.881   3.961   2.137
   92TIP3    H2  283   3.927   3.826   2.084
   93TIP3   OH2  284   1.585   5.105   4.964
   93TIP3    H1  285   1.553   5.110   5.054
   93TIP3    H2  286   1.663   5.049   4.970
   94TIP3   OH2  287   4.588   4.616   4.169
   94TIP3    H1  288   4.523   4.628   4.100
   94TIP3    H2  289   4.639   4.540   4.143
   95TIP3   OH2  290   4.753   1.089   2.543
   95TIP3    H1  291   4.692   1.073   2.614
   95TIP3    H2  292   4.795   1.005   2.527
   96TIP3   OH2  293   1.297   0.010   1.337
   96TIP3    H1  294   1.373   0.054   1.376
   96TIP3    H2  295   1.323  -0.005   1.246
   97TIP3   OH2  296   2.264   1.286   0.149
   97TIP3    H1  297   2.182   1.305   0.195
   97TIP3    H2  298   2.262   1.343   0.072
   98TIP3   OH2  299   3.971   1.557   0.163
   98TIP3    H1  300   3.900   1.573   0.101
   98TIP3    H2  301   4.047   1.537   0.109
   99TIP3   OH2  302   4.918   4.574   1.069
   99TIP3    H1  303   4.979   4.646   1.054
   99TIP3    H2  304   4.892   4.545   0.982
  100TIP3   OH2  305   3.892   2.695   3.714
  100TIP3    H1  306   3.980   2.677   3.682
  100TIP3    H2  307   3.837   2.692   3.636
  101TIP3   OH2  308   5.872   0.021   1.409
  101TIP3    H1  309   5.940   0.006   1.343
  101TIP3    H2  310   5.838   0.108   1.389
  102TIP3   OH2  311   0.060   5.753   0.035
  102TIP3    H1  312   0.009   5.820   0.081
  102TIP3    H2  313   0.038   5.765  -0.057
  103TIP3   OH2  314   2.743   5.913   1.108
  103TIP3    H1  315   2.766   5.952   1.023
  103TIP3    H2  316   2.705   5.985   1.158
  104TIP3   OH2  317   1.913   5.811   2.681
  104TIP3    H1  318   1.858   5.740   2.648
  104TIP3    H2  319   1.962   5.771   2.754
  105TIP3   OH2  320   1.111   5.732   2.160
  105TIP3    H1  321   1.072   5.686   2.086
  105TIP3    H2  322   1.185   5.677   2.186
  106TIP3   OH2  323   5.702   4.034   3.194
  106TIP3    H1  324   5.675   3.982   3.270
  106TIP3    H2  325   5.687   4.125   3.220
  107TIP3   OH2  326   4.330   3.268   3.940
  107TIP3    H1  327   4.392   3.223   3.883
  107TIP3    H2  328   4.345   3.361   3.924
  108TIP3   OH2  329   4.026   5.020   4.896
  108TIP3    H1  330   3.984   5.103   4.872
  108TIP3    H2  331   3.977   4.953   4.849
  109TIP3   OH2  332   2.175   2.306   2.580
  109TIP3    H1  333   2.115   2.256   2.524
  109TIP3    H2  334   2.142   2.291   2.668
  110TIP3   OH2  335   0.920   2.464   4.226
  110TIP3    H1  336   0.963   2.379   4.219
  110TIP3    H2  337   0.828   2.443   4.240
  111TIP3   OH2  338   5.158   5.660   4.063
  111TIP3    H1  339   5.154   5.674   3.968
  111TIP3    H2  340   5.102   5.728   4.100
  112TIP3   OH2  341   5.588   4.687   2.526
  112TIP3    H1  342   5.609   4.705   2.618
  112TIP3    H2  343   5.545   4.767   2.496
  113TIP3   OH2  344   2.233   5.885   1.668
  113TIP3    H1  345   2.260   5.796   1.646
  113TIP3    H2  346   2.145   5.893   1.632
  114TIP3   OH2  347   1.046   1.353   1.478
  114TIP3    H1  348   0.971   1.299   1.504
  114TIP3    H2  349   1.027   1.440   1.513
  115TIP3   OH2  350   4.703   3.662   1.926
  115TIP3    H1  351   4.621   3.654   1.975
  115TIP3    H2  352   4.700   3.751   1.889
  116TIP3   OH2  353   5.810   2.368   3.015
  116TIP3    H1  354   5.809   2.309   2.939
  116TIP3    H2  355   5.787   2.312   3.089
  117TIP3   OH2  356   5.197   2.024   4.539
  117TIP3    H1  357   5.240   1.938   4.536
  117TIP3    H2  358   5.142   2.026   4.460
  118TIP3   OH2  359   4.230   5.708   1.423
  118TIP3    H1  360   4.210   5.670   1.508
  118TIP3    H2  361   4.228   5.634   1.362
  119TIP3   OH2  362   4.582   3.012   0.370
  119TIP3    H1  363   4.607   3.058   0.450
  119TIP3    H2  364   4.575   2.920   0.396
  120TIP3   OH2  365   2.616   2.585   0.388
  120TIP3    H1  366   2.669   2.512   0.356
  120TIP3    H2  367   2.679   2.654   0.407
  121TIP3   OH2  368   5.039   5.736   0.903
  121TIP3    H1  369   5.032   5.662   0.963
  121TIP3    H2  370   4.977   5.801   0.937
  122TIP3   OH2  371   0.098   2.980   1.180
  122TIP3    H1  372   0.127   2.973   1.271
  122TIP3    H2  373   0.051   2.899   1.163
  123TIP3   OH2  374   2.692   5.439   4.616
  123TIP3    H1  375   2.764   5.430   4.679
  123TIP3    H2  376   2.735   5.436   4.531
  124TIP3   OH2  377   3.496   3.448   3.566
  124TIP3    H1  378   3.414   3.442   3.518
  124TIP3    H2  379   3.539   3.526   3.532
  125TIP3   OH2  380   1.994   0.650   1.697
  125TIP3    H1  381   1.914   0.597   1.704
  125TIP3    H2  382   1.963   0.739   1.683
  126TIP3   OH2  383   4.268   3.546   4.224
  126TIP3    H1  384   4.190   3.542   4.280
  126TIP3    H2  385   4.333   3.493   4.271
  127TIP3   OH2  386   1.638   3.826   2.030
  127TIP3    H1  387   1.628   3.740   1.990
  127TIP3    H2  388   1.635   3.887   1.956
  128TIP3   OH2  389   0.402   2.979   1.144
  128TIP3    H1  390   0.310   2.991   1.168
  128TIP3    H2  391   0.399   2.932   1.061
  129TIP3   OH2  392   3.306   2.477   5.104
  129TIP3    H1  393   3.277   2.551   5.050
  129TIP3    H2  394   3.314   2.513   5.192
  130TIP3   OH2  395   3.705   5.907   2.341
  130TIP3    H1  396   3.736   5.997   2.337
  130TIP3    H2  397   3.609   5.915   2.342
  131TIP3   OH2  398   5.857   0.036   4.670
  131TIP3    H1  399   5.773  -0.008   4.652
  131TIP3    H2  400   5.865   0.033   4.765
  132TIP3   OH2  401   5.690   1.262   0.948
  132TIP3    H1  402   5.659   1.185   0.900
  132TIP3    H2  403   5.722   1.226   1.031
  133TIP3   OH2  404   4.217   1.251   1.284
  133TIP3    H1  405   4.300   1.298   1.291
  133TIP3    H2  406   4.198   1.222   1.373
  134TIP3   OH2  407   1.336   5.622   2.951
  134TIP3    H1  408   1.353   5.535   2.987
  134TIP3    H2  409   1.295   5.606   2.866
  135TIP3   OH2  410   3.622   1.989   3.879
  135TIP3    H1  411   3.654   2.073   3.915
  135TIP3    H2  412   3.683   1.924   3.914
  136TIP3   OH2  413   4.213   1.555   4.576
  136TIP3    H1  414   4.122   1.528   4.590
  136TIP3    H2  415   4.264   1.494   4.629
  137TIP3   OH2  416   2.993   1.200   3.248
  137TIP3    H1  417   2.902   1.206   3.219
  137TIP3    H2  418   3.014   1.288   3.279
  138TIP3   OH2  419   1.687   5.409   2.842
  138TIP3    H1  420   1.760   5.349   2.826
  138TIP3    H2  421   1.608   5.356   2.828
  139TIP3   OH2  422   2.911   2.118   3.330
  139TIP3    H1  423   2.857   2.039   3.331
  139TIP3    H2  424   2.919   2.143   3.422
  140TIP3   OH2  425   5.749   3.680   2.415
  140TIP3    H1  426   5.717   3.764   2.450
  140TIP3    H2  427   5.837   3.700   2.384
  141TIP3   OH2  428   2.428   5.050   0.206
  141TIP3    H1  429   2.472   5.043   0.291
  141TIP3    H2  430   2.339   5.022   0.223
  142TIP3   OH2  431   5.602   5.066   4.890
  142TIP3    H1  432   5.638   4.995   4.837
  142TIP3    H2  433   5.639   5.146   4.851
  143TIP3   OH2  434   5.547   5.058   1.385
  143TIP3    H1  435   5.606   5.114   1.335
  143TIP3    H2  436   5.501   5.007   1.318
  144TIP3   OH2  437   5.237   5.315   3.035
  144TIP3    H1  438   5.305   5.375   3.068
  144TIP3    H2  439   5.267   5.228   3.063
  145TIP3   OH2  440   2.402   1.058   0.049
  145TIP3    H1  441   2.375   1.042  -0.041
  145TIP3    H2  442   2.337   1.120   0.083
  146TIP3   OH2  443   2.812   3.646   0.878
  146TIP3    H1  444   2.733   3.698   0.891
  146TIP3    H2  445   2.796   3.565   0.926
  147TIP3   OH2  446   4.236   2.889   1.551
  147TIP3    H1  447   4.296   2.953   1.589
  147TIP3    H2  448   4.154   2.937   1.537
  148TIP3   OH2  449   1.591   0.433   2.064
  148TIP3    H1  450   1.568   0.526   2.064
  148TIP3    H2  451   1.666   0.427   2.124
  149TIP3   OH2  452   5.784   4.303   3.955
  149TIP3    H1  453   5.855   4.259   4.002
  149TIP3    H2  454   5.752   4.237   3.893
  150TIP3   OH2  455   1.093   5.921   5.004
  150TIP3    H1  456   1.008   5.886   5.031
  150TIP3    H2  457   1.101   6.004   5.050
  151TIP3   OH2  458   5.008   4.100   2.480
  151TIP3    H1  459   5.004   4.006   2.465
  151TIP3    H2  460   4.945   4.116   2.551
  152TIP3   OH2  461   3.511   2.894   2.705
  152TIP3    H1  462   3.489   2.801   2.715
  152TIP3    H2  463   3.511   2.908   2.610
  153TIP3   OH2  464   4.348   0.145   4.132
  153TIP3    H1  465   4.369   0.180   4.219
  153TIP3    H2  466   4.417   0.082   4.114
  154TIP3   OH2  467   6.233   4.095   2.417
  154TIP3    H1  468   6.185   4.154   2.360
  154TIP3    H2  469   6.226   4.135   2.504
  155TIP3   OH2  470   2.603   2.479   3.665
  155TIP3    H1  471   2.527   2.504   3.612
  155TIP3    H2  472   2.602   2.383   3.664
  156TIP3   OH2  473   4.137   0.501   2.422
  156TIP3    H1  474   4.227   0.535   2.428
  156TIP3    H2  475   4.102   0.511   2.511
  157TIP3   OH2  476   4.378   5.726   3.903
  157TIP3    H1  477   4.295   5.684   3.880
  157TIP3    H2  478   4.378   5.808   3.854
  158TIP3   OH2  479   3.698   4.417   4.925
  158TIP3    H1  480   3.655   4.370   4.996
  158TIP3    H2  481   3.745   4.488   4.969
  159TIP3   OH2  482   2.123   1.996   0.290
  159TIP3    H1  483   2.053   1.966   0.233
  159TIP3    H2  484   2.189   2.030   0.230
  160TIP3   OH2  485   3.946   1.215   3.583
  160TIP3    H1  486   3.997   1.234   3.504
  160TIP3    H2  487   3.877   1.155   3.553
  161TIP3   OH2  488   3.659   4.262   2.646
  161TIP3    H1  489   3.643   4.182   2.596
  161TIP3    H2  490   3.607   4.329   2.602
  162TIP3   OH2  491   1.398   5.781   2.604
  162TIP3    H1  492   1.374   5.867   2.638
  162TIP3    H2  493   1.337   5.720   2.647
  163TIP3   OH2  494   3.244   4.281   1.573
  163TIP3    H1  495   3.229   4.319   1.660
  163TIP3    H2  496   3.227   4.187   1.585
  164TIP3   OH2  497   2.982   5.152   4.378
  164TIP3    H1  498   2.893   5.176   4.352
  164TIP3    H2  499   2.974   5.125   4.469
  165TIP3   OH2  500   3.442   0.153   3.510
  165TIP3    H1  501   3.375   0.088   3.489
  165TIP3    H2  502   3.503   0.149   3.437
  166TIP3   OH2  503   5.314   3.143   0.022
  166TIP3    H1  504   5.347   3.182   0.103
  166TIP3    H2  505   5.358   3.192  -0.048
  167TIP3   OH2  506   6.012   2.110   0.363
  167TIP3    H1  507   6.066   2.182   0.330
  167TIP3    H2  508   5.934   2.111   0.307
  168TIP3   OH2  509   0.019   0.489   1.683
  168TIP3    H1  510   0.074   0.504   1.607
  168TIP3    H2  511   0.037   0.562   1.742
  169TIP3   OH2  512   4.473   5.449   1.593
  169TIP3    H1  513   4.411   5.400   1.647
  169TIP3    H2  514   4.557   5.441   1.638
  170TIP3   OH2  515   2.444   5.912   4.176
  170TIP3    H1  516   2.517   5.891   4.119
  170TIP3    H2  517   2.484   5.937   4.259
  171TIP3   OH2  518   4.922   2.679   3.187
  171TIP3    H1  519   4.957   2.663   3.100
  171TIP3    H2  520   4.998   2.702   3.240
  172TIP3   OH2  521   0.474   5.315   1.008
  172TIP3    H1  522   0.467   5.220   0.996
  172TIP3    H2  523   0.560   5.328   1.047
  173TIP3   OH2  524   2.022   3.412   4.333
  173TIP3    H1  525   2.079   3.468   4.281
  173TIP3    H2  526   2.011   3.333   4.280
  174TIP3   OH2  527   3.654   5.341   2.627
  174TIP3    H1  528   3.664   5.248   2.609
  174TIP3    H2  529   3.707   5.385   2.561
  175TIP3   OH2  530   2.299   4.919   2.381
  175TIP3    H1  531   2.382   4.926   2.334
  175TIP3    H2  532   2.251   4.850   2.334
  176TIP3   OH2  533   0.799   5.716   0.150
  176TIP3    H1  534   0.771   5.626   0.131
  176TIP3    H2  535   0.869   5.733   0.087
  177TIP3   OH2  536   4.326   5.001   2.141
  177TIP3    H1  537   4.278   4.994   2.223
  177TIP3    H2  538   4.293   5.081   2.101
  178TIP3   OH2  539   3.031   4.629   3.616
  178TIP3    H1  540   2.946   4.590   3.636
  178TIP3    H2  541   3.023   4.658   3.526
  179TIP3   OH2  542   5.187   4.944   5.125
  179TIP3    H1  543   5.144   4.890   5.191
  179TIP3    H2  544   5.265   4.979   5.169
  180TIP3   OH2  545   0.624   5.052   4.109
  180TIP3    H1  546   0.658   4.980   4.054
  180TIP3    H2  547   0.674   5.046   4.190
  181TIP3   OH2  548   5.318   4.604   2.517
  181TIP3    H1  549   5.333   4.510   2.511
  181TIP3    H2  550   5.359   4.630   2.599
  182TIP3   OH2  551   6.162   5.712   4.844
  182TIP3    H1  552   6.198   5.632   4.805
  182TIP3    H2  553   6.109   5.752   4.774
  183TIP3   OH2  554   3.893   2.165   3.388
  183TIP3    H1  555   3.857   2.253   3.395
  183TIP3    H2  556   3.824   2.114   3.345
  184TIP3   OH2  557   2.032   5.100   3.326
  184TIP3    H1  558   1.949   5.073   3.362
  184TIP3    H2  559   2.046   5.044   3.250
  185TIP3   OH2  560   2.257   1.091   3.616
  185TIP3    H1  561   2.341   1.059   3.649
  185TIP3    H2  562   2.193   1.060   3.679
  186TIP3   OH2  563   1.970   3.262   0.551
  186TIP3    H1  564   1.919   3.340   0.529
  186TIP3    H2  565   1.949   3.246   0.644
  187TIP3   OH2  566   5.530   2.345   0.842
  187TIP3    H1  567   5.529   2.437   0.866
  187TIP3    H2  568   5.622   2.326   0.823
  188TIP3   OH2  569   3.195   4.762   0.759
  188TIP3    H1  570   3.132   4.690   0.765
  188TIP3    H2  571   3.186   4.808   0.843
  189TIP3   OH2  572   2.562   0.535   0.094
  189TIP3    H1  573   2.498   0.602   0.069
  189TIP3    H2  574   2.636   0.551   0.036
  190TIP3   OH2  575   4.579   1.830   3.189
  190TIP3    H1  576   4.489   1.804   3.209
  190TIP3    H2  577   4.633   1.780   3.252
  191TIP3   OH2  578   0.378   1.490  -0.004
  191TIP3    H1  579   0.417   1.430   0.060
  191TIP3    H2  580   0.290   1.456  -0.019
  192TIP3   OH2  581   0.657   1.800   1.781
  192TIP3    H1  582   0.684   1.784   1.691
  192TIP3    H2  583   0.704   1.733   1.832
  193TIP3   OH2  584   5.931   4.235   1.332
  193TIP3    H1  585   5.991   4.253   1.405
  193TIP3    H2  586   5.846   4.265   1.364
  194TIP3   OH2  587   2.603   2.075   2.633
  194TIP3    H1  588   2.521   2.075   2.584
  194TIP3    H2  589   2.662   2.129   2.580
  195TIP3   OH2  590   3.005   0.549   1.821
  195TIP3    H1  591   3.022   0.544   1.915
  195TIP3    H2  592   2.910   0.556   1.814
  196TIP3   OH2  593   5.827   3.292   2.199
  196TIP3    H1  594   5.898   3.348   2.231
  196TIP3    H2  595   5.751   3.316   2.253
  197TIP3   OH2  596   0.680   3.080   0.952
  197TIP3    H1  597   0.599   3.045   0.914
  197TIP3    H2  598   0.686   3.039   1.038
  198TIP3   OH2  599   4.385   1.896   3.434
  198TIP3    H1  600   4.403   1.803   3.447
  198TIP3    H2  601   4.464   1.941   3.465
  199TIP3   OH2  602   1.090   1.021   1.639
  199TIP3    H1  603   1.040   1.006   1.719
  199TIP3    H2  604   1.110   0.934   1.606
  200TIP3   OH2  605   0.962   2.112   1.685
  200TIP3    H1  606   1.056   2.106   1.664
  200TIP3    H2  607   0.927   2.027   1.659
  201TIP3   OH2  608   4.352   4.613   4.731
  201TIP3    H1  609   4.287   4.676   4.763
  201TIP3    H2  610   4.433   4.638   4.776
  202TIP3   OH2  611   1.561   4.122   2.599
  202TIP3    H1  612   1.619   4.090   2.668
  202TIP3    H2  613   1.475   4.089   2.624
  203TIP3   OH2  614   0.199   3.881   2.973
  203TIP3    H1  615   0.248   3.827   3.035
  203TIP3    H2  616   0.154   3.817   2.917
  204TIP3   OH2  617   1.887   3.647   0.210
  204TIP3    H1  618   1.959   3.637   0.272
  204TIP3    H2  619   1.872   3.559   0.177
  205TIP3   OH2  620   6.206   4.771   0.402
  205TIP3    H1  621   6.128   4.805   0.359
  205TIP3    H2  622   6.215   4.826   0.480
  206TIP3   OH2  623   0.295   2.355   4.341
  206TIP3    H1  624   0.230   2.329   4.407
  206TIP3    H2  625   0.243   2.370   4.262
  207TIP3   OH2  626   1.192   4.893   4.675
  207TIP3    H1  627   1.143   4.873   4.755
  207TIP3    H2  628   1.261   4.952   4.703
  208TIP3   OH2  629   5.698   2.778   0.155
  208TIP3    H1  630   5.781   2.739   0.183
  208TIP3    H2  631   5.634   2.709   0.169
  209TIP3   OH2  632   2.810   0.834   2.778
  209TIP3    H1  633   2.891   0.829   2.728
  209TIP3    H2  634   2.803   0.748   2.820
  210TIP3   OH2  635   3.442   1.152   4.002
  210TIP3    H1  636   3.511   1.165   3.936
  210TIP3    H2  637   3.478   1.087   4.062
  211TIP3   OH2  638   0.049   5.763   4.493
  211TIP3    H1  639   0.129   5.813   4.510
  211TIP3    H2  640   0.065   5.720   4.409
  212TIP3   OH2  641   0.113   5.755   1.709
  212TIP3    H1  642   0.073   5.771   1.623
  212TIP3    H2  643   0.150   5.839   1.734
  213TIP3   OH2  644   3.789   3.334   4.783
  213TIP3    H1  645   3.824   3.406   4.730
  213TIP3    H2  646   3.714   3.303   4.734
  214TIP3   OH2  647   4.564   1.015   0.422
  214TIP3    H1  648   4.487   0.980   0.377
  214TIP3    H2  649   4.538   1.103   0.450
  215TIP3   OH2  650   1.321   4.425   0.590
  215TIP3    H1  651   1.412   4.454   0.586
  215TIP3    H2  652   1.272   4.491   0.541
  216TIP3   OH2  653   0.145   5.021   2.399
  216TIP3    H1  654   0.215   5.055   2.343
  216TIP3    H2  655   0.097   4.960   2.342
  217TIP3   OH2  656   2.432   2.926   1.803
  217TIP3    H1  657   2.425   2.959   1.713
  217TIP3    H2  658   2.458   2.834   1.792
  218TIP3   OH2  659   5.767   1.953   3.488
  218TIP3    H1  660   5.842   1.988   3.440
  218TIP3    H2  661   5.791   1.862   3.507
  219TIP3   OH2  662   4.809   2.776   4.177
  219TIP3    H1  663   4.799   2.835   4.103
  219TIP3    H2  664   4.804   2.832   4.254
  220TIP3   OH2  665   1.221   2.435   1.136
  220TIP3    H1  666   1.133   2.428   1.174
  220TIP3    H2  667   1.206   2.443   1.042
  221TIP3   OH2  668   0.793   5.780   3.145
  221TIP3    H1  669   0.840   5.784   3.228
  221TIP3    H2  670   0.703   5.756   3.170
  222TIP3   OH2  671   3.940   1.631   4.964
  222TIP3    H1  672   3.926   1.550   4.915
  222TIP3    H2  673   4.035   1.646   4.960
  223TIP3   OH2  674   2.959   1.256   4.499
  223TIP3    H1  675   3.007   1.242   4.581
  223TIP3    H2  676   2.919   1.171   4.480
  224TIP3   OH2  677   4.630   5.339   4.169
  224TIP3    H1  678   4.684   5.283   4.114
  224TIP3    H2  679   4.591   5.279   4.233
  225TIP3   OH2  680   2.999   4.261   4.033
  225TIP3    H1  681   2.925   4.308   3.994
  225TIP3    H2  682   2.962   4.213   4.106
  226TIP3   OH2  683   0.146   3.370   3.852
  226TIP3    H1  684   0.125   3.379   3.945
  226TIP3    H2  685   0.146   3.459   3.818
  227TIP3   OH2  686   0.155   4.455   0.954
  227TIP3    H1  687   0.116   4.540   0.973
  227TIP3    H2  688   0.197   4.467   0.869
  228TIP3   OH2  689   4.423   2.895   3.084
  228TIP3    H1  690   4.504   2.892   3.135
  228TIP3    H2  691   4.393   2.986   3.092
  229TIP3   OH2  692   0.906   2.554   0.869
  229TIP3    H1  693   0.892   2.577   0.961
  229TIP3    H2  694   0.877   2.463   0.863
  230TIP3   OH2  695   4.139   3.446   4.998
  230TIP3    H1  696   4.094   3.456   5.082
  230TIP3    H2  697   4.202   3.376   5.013
  231TIP3   OH2  698   4.082   3.761   1.514
  231TIP3    H1  699   4.050   3.698   1.450
  231TIP3    H2  700   4.177   3.761   1.502
  232TIP3   OH2  701   3.416   3.410   4.823
  232TIP3    H1  702   3.398   3.416   4.917
  232TIP3    H2  703   3.507   3.383   4.818
  233TIP3   OH2  704   3.767   1.675   3.785
  233TIP3    H1  705   3.811   1.595   3.758
  233TIP3    H2  706   3.838   1.732   3.815
  234TIP3   OH2  707   2.748   5.671   3.827
  234TIP3    H1  708   2.818   5.732   3.805
  234TIP3    H2  709   2.750   5.605   3.758
  235TIP3   OH2  710   4.397   0.374   2.640
  235TIP3    H1  711   4.318   0.323   2.624
  235TIP3    H2  712   4.369   0.443   2.700
  236TIP3   OH2  713   1.602   4.393   4.254
  236TIP3    H1  714   1.537   4.336   4.212
  236TIP3    H2  715   1.687   4.354   4.232
  237TIP3   OH2  716   1.861   4.455   4.394
  237TIP3    H1  717   1.949   4.420   4.383
  237TIP3    H2  718   1.806   4.378   4.411
  238TIP3   OH2  719   0.628   0.440   0.755
  238TIP3    H1  720   0.685   0.403   0.687
  238TIP3    H2  721   0.680   0.434   0.835
  239TIP3   OH2  722   4.587   0.436   5.019
  239TIP3    H1  723   4.580   0.529   4.997
  239TIP3    H2  724   4.550   0.430   5.107
  240TIP3   OH2  725   3.552   2.870   2.418
  240TIP3    H1  726   3.504   2.912   2.347
  240TIP3    H2  727   3.644   2.894   2.403
  241TIP3   OH2  728   0.779   0.731   4.226
  241TIP3    H1  729   0.816   0.658   4.177
  241TIP3    H2  730   0.693   0.747   4.185
  242TIP3   OH2  731   6.213   3.182   0.350
  242TIP3    H1  732   6.253   3.231   0.422
  242TIP3    H2  733   6.260   3.212   0.272
  243TIP3   OH2  734   6.276   0.852   3.687
  243TIP3    H1  735   6.309   0.813   3.768
  243TIP3    H2  736   6.323   0.935   3.679
  244TIP3   OH2  737   1.467   4.820   3.796
  244TIP3    H1  738   1.460   4.768   3.716
  244TIP3    H2  739   1.454   4.756   3.867
  245TIP3   OH2  740   3.408   0.268   1.370
  245TIP3    H1  741   3.403   0.359   1.399
  245TIP3    H2  742   3.370   0.218   1.441
  246TIP3   OH2  743   1.456   1.201   3.781
  246TIP3    H1  744   1.415   1.222   3.697
  246TIP3    H2  745   1.382   1.181   3.839
  247TIP3   OH2  746   3.386   5.592   4.944
  247TIP3    H1  747   3.411   5.543   4.866
  247TIP3    H2  748   3.411   5.683   4.926
  248TIP3   OH2  749   4.728   5.477   3.355
  248TIP3    H1  750   4.738   5.402   3.414
  248TIP3    H2  751   4.812   5.483   3.309
  249TIP3   OH2  752   1.414   1.645   3.421
  249TIP3    H1  753   1.374   1.568   3.462
  249TIP3    H2  754   1.352   1.671   3.353
  250TIP3   OH2  755   2.916   4.539   3.180
  250TIP3    H1  756   2.917   4.539   3.084
  250TIP3    H2  757   2.931   4.631   3.204
  251TIP3   OH2  758   3.790   0.774   0.252
  251TIP3    H1  759   3.853   0.736   0.313
  251TIP3    H2  760   3.764   0.857   0.293
  252TIP3   OH2  761   0.768   4.112   2.104
  252TIP3    H1  762   0.825   4.056   2.157
  252TIP3    H2  763   0.828   4.153   2.041
  253TIP3   OH2  764   3.444   5.917   3.109
  253TIP3    H1  765   3.439   5.851   3.040
  253TIP3    H2  766   3.516   5.974   3.084
  254TIP3   OH2  767   0.632   0.611   1.721
  254TIP3    H1  768   0.596   0.541   1.776
  254TIP3    H2  769   0.647   0.570   1.636
  255TIP3   OH2  770   3.375   2.515   1.409
  255TIP3    H1  771   3.431   2.445   1.375
  255TIP3    H2  772   3.286   2.487   1.388
  256TIP3   OH2  773   1.486   2.295   1.084
  256TIP3    H1  774   1.407   2.349   1.083
  256TIP3    H2  775   1.525   2.311   1.170
  257TIP3   OH2  776   4.737   1.590   1.778
  257TIP3    H1  777   4.802   1.549   1.835
  257TIP3    H2  778   4.655   1.546   1.799
  258TIP3   OH2  779   4.335   3.604   3.953
  258TIP3    H1  780   4.246   3.602   3.919
  258TIP3    H2  781   4.327   3.582   4.046
  259TIP3   OH2  782   5.496   3.610   1.495
  259TIP3    H1  783   5.591   3.625   1.495
  259TIP3    H2  784   5.465   3.648   1.413
  260TIP3   OH2  785   0.299   0.595   0.557
  260TIP3    H1  786   0.222   0.540   0.546
  260TIP3    H2  787   0.328   0.578   0.647
  261TIP3   OH2  788   2.507   1.470   4.050
  261TIP3    H1  789   2.537   1.535   3.986
  261TIP3    H2  790   2.489   1.392   3.999
  262TIP3   OH2  791   4.994   0.863   1.958
  262TIP3    H1  792   4.994   0.769   1.976
  262TIP3    H2  793   4.943   0.901   2.029
  263TIP3   OH2  794   0.066   4.368   4.286
  263TIP3    H1  795  -0.001   4.361   4.354
  263TIP3    H2  796   0.081   4.278   4.258
  264TIP3   OH2  797   5.054   4.290   4.869
  264TIP3    H1  798   5.135   4.258   4.827
  264TIP3    H2  799   5.067   4.272   4.962
  265TIP3   OH2  800   2.322   2.506   1.976
  265TIP3    H1  801   2.415   2.515   1.996
  265TIP3    H2  802   2.310   2.412   1.960
  266TIP3   OH2  803   5.606   3.901   2.161
  266TIP3    H1  804   5.549   3.824   2.157
  266TIP3    H2  805   5.641   3.900   2.250
  267TIP3   OH2  806   0.114   0.844   2.098
  267TIP3    H1  807   0.140   0.752   2.090
  267TIP3    H2  808   0.071   0.850   2.183
  268TIP3   OH2  809   1.417   4.541   2.401
  268TIP3    H1  810   1.506   4.515   2.425
  268TIP3    H2  811   1.380   4.576   2.482
  269TIP3   OH2  812   3.560   4.360   1.342
  269TIP3    H1  813   3.559   4.409   1.424
  269TIP3    H2  814   3.534   4.425   1.276
  270TIP3   OH2  815   1.433   4.784   0.961
  270TIP3    H1  816   1.350   4.826   0.939
  270TIP3    H2  817   1.488   4.856   0.993
  271TIP3   OH2  818   5.325   2.488   5.088
  271TIP3    H1  819   5.263   2.483   5.015
  271TIP3    H2  820   5.409   2.510   5.047
  272TIP3   OH2  821   0.294   1.388   5.001
  272TIP3    H1  822   0.324   1.302   5.032
  272TIP3    H2  823   0.368   1.423   4.952
  273TIP3   OH2  824   2.563   0.449   4.681
  273TIP3    H1  825   2.502   0.409   4.619
  273TIP3    H2  826   2.541   0.542   4.680
  274TIP3   OH2  827   1.320   5.159   4.353
  274TIP3    H1  828   1.352   5.186   4.439
  274TIP3    H2  829   1.323   5.064   4.355
  275TIP3   OH2  830   3.145   2.651   1.900
  275TIP3    H1  831   3.083   2.655   1.827
  275TIP3    H2  832   3.218   2.600   1.867
  276TIP3   OH2  833   1.846   0.318   2.504
  276TIP3    H1  834   1.927   0.269   2.500
  276TIP3    H2  835   1.854   0.372   2.582
  277TIP3   OH2  836   2.548   0.706   2.967
  277TIP3    H1  837   2.638   0.673   2.960
  277TIP3    H2  838   2.507   0.651   3.034
  278TIP3   OH2  839   3.516   0.552   3.112
  278TIP3    H1  840   3.422   0.538   3.103
  278TIP3    H2  841   3.529   0.573   3.204
  279TIP3   OH2  842   3.048   2.957   4.274
  279TIP3    H1  843   3.106   2.980   4.201
  279TIP3    H2  844   2.970   3.011   4.260
  280TIP3   OH2  845   5.893   0.296   4.040
  280TIP3    H1  846   5.986   0.297   4.018
  280TIP3    H2  847   5.849   0.331   3.963
  281TIP3   OH2  848   3.806   0.056   1.156
  281TIP3    H1  849   3.797   0.126   1.221
  281TIP3    H2  850   3.827  -0.022   1.208
  282TIP3   OH2  851   3.673   4.543   4.210
  282TIP3    H1  852   3.579   4.532   4.221
  282TIP3    H2  853   3.688   4.531   4.116
  283TIP3   OH2  854   5.023   4.645   1.892
  283TIP3    H1  855   5.084   4.700   1.843
  283TIP3    H2  856   4.986   4.586   1.826
  284TIP3   OH2  857   5.277   2.852   4.321
  284TIP3    H1  858   5.347   2.822   4.262
  284TIP3    H2  859   5.226   2.913   4.267
  285TIP3   OH2  860   6.057   2.546   2.788
  285TIP3    H1  861   6.140   2.590   2.804
  285TIP3    H2  862   6.017   2.596   2.717
  286TIP3   OH2  863   5.568   1.520   4.309
  286TIP3    H1  864   5.594   1.565   4.389
  286TIP3    H2  865   5.485   1.561   4.284
  287TIP3   OH2  866   4.605   3.229   5.173
  287TIP3    H1  867   4.596   3.254   5.081
  287TIP3    H2  868   4.631   3.310   5.218
  288TIP3   OH2  869   3.861   4.346   1.354
  288TIP3    H1  870   3.772   4.324   1.327
  288TIP3    H2  871   3.911   4.265   1.339
  289TIP3   OH2  872   1.617   0.942   2.330
  289TIP3    H1  873   1.576   0.980   2.408
  289TIP3    H2  874   1.703   0.913   2.360
  290TIP3   OH2  875   6.200   2.035   0.793
  290TIP3    H1  876   6.179   2.067   0.881
  290TIP3    H2  877   6.137   2.080   0.736
  291TIP3   OH2  878   2.939   5.458   0.170
  291TIP3    H1  879   3.017   5.450   0.225
  291TIP3    H2  880   2.899   5.371   0.173
  292TIP3   OH2  881   1.075   0.750   1.588
  292TIP3    H1  882   1.078   0.682   1.520
  292TIP3    H2  883   0.985   0.747   1.620
  293TIP3   OH2  884   2.657   3.422   0.007
  293TIP3    H1  885   2.705   3.430   0.089
  293TIP3    H2  886   2.702   3.353  -0.041
  294TIP3   OH2  887   2.053   1.764   2.444
  294TIP3    H1  888   2.148   1.757   2.438
  294TIP3    H2  889   2.039   1.834   2.509
  295TIP3   OH2  890   3.821   2.087   2.228
  295TIP3    H1  891   3.847   2.009   2.277
  295TIP3    H2  892   3.860   2.074   2.141
  296TIP3   OH2  893   1.233   2.190   3.828
  296TIP3    H1  894   1.272   2.184   3.915
  296TIP3    H2  895   1.303   2.222   3.772
  297TIP3   OH2  896   2.600   5.047   1.989
  297TIP3    H1  897   2.693   5.069   1.982
  297TIP3    H2  898   2.589   5.015   2.078
  298TIP3   OH2  899   3.624   3.626   2.803
  298TIP3    H1  900   3.571   3.701   2.776
  298TIP3    H2  901   3.564   3.570   2.853
  299TIP3   OH2  902   0.294   2.993   1.741
  299TIP3    H1  903   0.299   2.901   1.716
  299TIP3    H2  904   0.378   3.011   1.783
  300TIP3   OH2  905   3.634   0.695   2.487
  300TIP3    H1  906   3.710   0.752   2.493
  300TIP3    H2  907   3.644   0.650   2.403
  301TIP3   OH2  908   5.747   3.996   0.814
  301TIP3    H1  909   5.729   4.083   0.780
  301TIP3    H2  910   5.835   3.975   0.784
  302TIP3   OH2  911   2.100   0.245   0.660
  302TIP3    H1  912   2.087   0.186   0.587
  302TIP3    H2  913   2.192   0.269   0.656
  303TIP3   OH2  914   4.215   5.292   0.061
  303TIP3    H1  915   4.257   5.206   0.056
  303TIP3    H2  916   4.279   5.352   0.024
  304TIP3   OH2  917   6.029   2.919   3.224
  304TIP3    H1  918   6.067   2.858   3.160
  304TIP3    H2  919   6.005   2.864   3.298
  305TIP3   OH2  920   0.334   4.616   4.443
  305TIP3    H1  921   0.307   4.699   4.403
  305TIP3    H2  922   0.405   4.584   4.388
  306TIP3   OH2  923   0.143   2.462   4.122
  306TIP3    H1  924   0.060   2.506   4.139
  306TIP3    H2  925   0.118   2.381   4.077
  307TIP3   OH2  926   3.469   2.625   2.759
  307TIP3    H1  927   3.374   2.619   2.764
  307TIP3    H2  928   3.496   2.655   2.846
  308TIP3   OH2  929   4.992   5.128   5.048
  308TIP3    H1  930   4.911   5.078   5.041
  308TIP3    H2  931   5.062   5.063   5.047
  309TIP3   OH2  932   1.964   3.914   0.336
  309TIP3    H1  933   1.909   3.842   0.307
  309TIP3    H2  934   1.990   3.959   0.255
  310TIP3   OH2  935   1.419   3.799   3.455
  310TIP3    H1  936   1.467   3.879   3.434
  310TIP3    H2  937   1.364   3.784   3.378
  311TIP3   OH2  938   1.721   3.122   3.984
  311TIP3    H1  939   1.640   3.077   3.959
  311TIP3    H2  940   1.700   3.215   3.975
  312TIP3   OH2  941   4.862   2.265   1.119
  312TIP3    H1  942   4.789   2.212   1.151
  312TIP3    H2  943   4.840   2.354   1.144
  313TIP3   OH2  944   0.011   0.979   0.508
  313TIP3    H1  945  -0.010   0.893   0.472
  313TIP3    H2  946   0.100   0.970   0.542
  314TIP3   OH2  947   4.097   3.495   3.138
  314TIP3    H1  948   4.168   3.553   3.109
  314TIP3    H2  949   4.030   3.555   3.170
  315TIP3   OH2  950   4.820   4.428   3.655
  315TIP3    H1  951   4.913   4.430   3.678
  315TIP3    H2  952   4.780   4.373   3.723
  316TIP3   OH2  953   4.441   0.490   4.181
  316TIP3    H1  954   4.519   0.435   4.176
  316TIP3    H2  955   4.393   0.472   4.100
  317TIP3   OH2  956   5.115   0.755   4.748
  317TIP3    H1  957   5.200   0.730   4.784
  317TIP3    H2  958   5.136   0.794   4.663
  318TIP3   OH2  959   4.056   2.524   0.116
  318TIP3    H1  960   4.097   2.439   0.101
  318TIP3    H2  961   4.023   2.520   0.206
  319TIP3   OH2  962   2.040   5.830   3.207
  319TIP3    H1  963   1.981   5.804   3.136
  319TIP3    H2  964   2.011   5.779   3.282
  320TIP3   OH2  965   1.110   3.283   3.484
  320TIP3    H1  966   1.025   3.313   3.451
  320TIP3    H2  967   1.121   3.196   3.447
  321TIP3   OH2  968   3.761   1.157   0.744
  321TIP3    H1  969   3.677   1.164   0.789
  321TIP3    H2  970   3.777   1.244   0.708
  322TIP3   OH2  971   5.877   1.438   1.031
  322TIP3    H1  972   5.913   1.446   0.943
  322TIP3    H2  973   5.794   1.392   1.020
  323TIP3   OH2  974   2.523   2.300   2.164
  323TIP3    H1  975   2.545   2.392   2.150
  323TIP3    H2  976   2.448   2.301   2.224
  324TIP3   OH2  977   4.967   1.488   4.075
  324TIP3    H1  978   5.028   1.541   4.126
  324TIP3    H2  979   4.881   1.504   4.115
  325TIP3   OH2  980   4.052   4.725   1.136
  325TIP3    H1  981   4.080   4.678   1.215
  325TIP3    H2  982   4.045   4.656   1.069
  326TIP3   OH2  983   0.945   2.881   1.712
  326TIP3    H1  984   1.012   2.919   1.655
  326TIP3    H2  985   0.995   2.831   1.777
  327TIP3   OH2  986   2.180   0.872   1.473
  327TIP3    H1  987   2.181   0.777   1.486
  327TIP3    H2  988   2.101   0.901   1.518
  328TIP3   OH2  989   6.218   0.083   0.308
  328TIP3    H1  990   6.276   0.142   0.356
  328TIP3    H2  991   6.273   0.007   0.288
  329TIP3   OH2  992   5.651   5.838   2.802
  329TIP3    H1  993   5.572   5.801   2.842
  329TIP3    H2  994   5.622   5.919   2.761
  330TIP3   OH2  995   5.327   0.131   4.398
  330TIP3    H1  996   5.405   0.095   4.441
  330TIP3    H2  997   5.353   0.142   4.307
  331TIP3   OH2  998   4.688   2.686   2.321
  331TIP3    H1  999   4.714   2.600   2.287
  331TIP3    H2 1000   4.596   2.675   2.346
  332TIP3   OH2 1001   5.737   3.001   2.162
  332TIP3    H1 1002   5.769   3.091   2.156
  332TIP3    H2 1003   5.648   3.005   2.124
  333TIP3   OH2 1004   4.013   5.338   1.834
  333TIP3    H1 1005   4.013   5.431   1.811
  333TIP3    H2 1006   3.945   5.300   1.779
  334TIP3   OH2 1007   2.395   5.859   0.461
  334TIP3    H1 1008   2.309   5.822   0.480
  334TIP3    H2 1009   2.455   5.812   0.520
  335TIP3   OH2 1010   2.948   5.193   0.549
  335TIP3    H1 1011   3.012   5.186   0.620
  335TIP3    H2 1012   2.879   5.131   0.572
  336TIP3   OH2 1013   2.428   5.393   2.057
  336TIP3    H1 1014   2.475   5.336   1.996
  336TIP3    H2 1015   2.336   5.368   2.048
  337TIP3   OH2 1016   1.853   0.696   2.488
  337TIP3    H1 1017   1.880   0.716   2.398
  337TIP3    H2 1018   1.926   0.647   2.525
  338TIP3   OH2 1019   5.130   4.629   4.807
  338TIP3    H1 1020   5.089   4.692   4.866
  338TIP3    H2 1021   5.202   4.592   4.857
  339TIP3   OH2 1022   2.459   4.209   3.599
  339TIP3    H1 1023   2.419   4.257   3.526
  339TIP3    H2 1024   2.553   4.214   3.582
  340TIP3   OH2 1025   5.504   5.380   0.427
  340TIP3    H1 1026   5.481   5.330   0.505
  340TIP3    H2 1027   5.560   5.451   0.459
  341TIP3   OH2 1028   2.871   1.419   0.825
  341TIP3    H1 1029   2.885   1.347   0.763
  341TIP3    H2 1030   2.777   1.421   0.839
  342TIP3   OH2 1031   5.816   5.600   1.063
  342TIP3    H1 1032   5.820   5.598   0.967
  342TIP3    H2 1033   5.740   5.545   1.085
  343TIP3   OH2 1034   3.811   3.997   4.932
  343TIP3    H1 1035   3.751   3.925   4.951
  343TIP3    H2 1036   3.769   4.046   4.862
  344TIP3   OH2 1037   0.166   5.401   3.216
  344TIP3    H1 1038   0.246   5.378   3.169
  344TIP3    H2 1039   0.194   5.414   3.306
  345TIP3   OH2 1040   5.610   0.956   1.358
  345TIP3    H1 1041   5.631   0.937   1.450
  345TIP3    H2 1042   5.594   0.870   1.319
  346TIP3   OH2 1043   3.222   4.446   2.029
  346TIP3    H1 1044   3.243   4.539   2.023
  346TIP3    H2 1045   3.238   4.412   1.941
  347TIP3   OH2 1046   5.938   3.329   4.231
  347TIP3    H1 1047   5.889   3.247   4.243
  347TIP3    H2 1048   6.030   3.303   4.236
  348TIP3   OH2 1049   6.247   5.096   3.384
  348TIP3    H1 1050   6.201   5.021   3.347
  348TIP3    H2 1051   6.196   5.172   3.355
  349TIP3   OH2 1052   6.179   4.664   0.787
  349TIP3    H1 1053   6.208   4.657   0.878
  349TIP3    H2 1054   6.195   4.756   0.764
  350TIP3   OH2 1055   4.809   0.995   0.547
  350TIP3    H1 1056   4.737   1.003   0.485
  350TIP3    H2 1057   4.869   1.066   0.523
  351TIP3   OH2 1058   3.676   0.860   1.378
  351TIP3    H1 1059   3.753   0.870   1.321
  351TIP3    H2 1060   3.694   0.780   1.428
  352TIP3   OH2 1061   3.187   1.275   1.274
  352TIP3    H1 1062   3.119   1.321   1.323
  352TIP3    H2 1063   3.244   1.237   1.341
  353TIP3   OH2 1064   4.035   5.355   3.628
  353TIP3    H1 1065   3.963   5.293   3.638
  353TIP3    H2 1066   4.068   5.340   3.540
  354TIP3   OH2 1067   3.509   4.569   1.528
  354TIP3    H1 1068   3.459   4.565   1.610
  354TIP3    H2 1069   3.554   4.653   1.532
  355TIP3   OH2 1070   5.553   2.388   3.911
  355TIP3    H1 1071   5.554   2.302   3.868
  355TIP3    H2 1072   5.464   2.397   3.945
  356TIP3   OH2 1073   1.909   0.133   4.828
  356TIP3    H1 1074   1.973   0.084   4.777
  356TIP3    H2 1075   1.869   0.068   4.885
  357TIP3   OH2 1076   4.573   4.541   4.426
  357TIP3    H1 1077   4.481   4.555   4.451
  357TIP3    H2 1078   4.581   4.583   4.341
  358TIP3   OH2 1079   5.075   2.331   0.105
  358TIP3    H1 1080   5.036   2.277   0.173
  358TIP3    H2 1081   5.000   2.371   0.060
  359TIP3   OH2 1082   5.860   5.262   0.305
  359TIP3    H1 1083   5.828   5.265   0.395
  359TIP3    H2 1084   5.948   5.224   0.312
  360TIP3   OH2 1085   5.564   2.876   4.201
  360TIP3    H1 1086   5.544   2.967   4.224
  360TIP3    H2 1087   5.626   2.882   4.128
  361TIP3   OH2 1088   5.666   5.370   3.380
  361TIP3    H1 1089   5.589   5.329   3.420
  361TIP3    H2 1090   5.738   5.310   3.400
  362TIP3   OH2 1091   1.430   3.219   4.122
  362TIP3    H1 1092   1.412   3.169   4.043
  362TIP3    H2 1093   1.503   3.276   4.098
  363TIP3   OH2 1094   6.313   0.406   2.265
  363TIP3    H1 1095   6.394   0.371   2.304
  363TIP3    H2 1096   6.261   0.328   2.246
  364TIP3   OH2 1097   3.491   2.307   1.294
  364TIP3    H1 1098   3.439   2.226   1.293
  364TIP3    H2 1099   3.581   2.277   1.307
  365TIP3   OH2 1100   2.832   3.070   1.696
  365TIP3    H1 1101   2.739   3.075   1.673
  365TIP3    H2 1102   2.842   2.984   1.738
  366TIP3   OH2 1103   3.768   2.419   0.471
  366TIP3    H1 1104   3.684   2.460   0.490
  366TIP3    H2 1105   3.795   2.380   0.554
  367TIP3   OH2 1106   3.000   4.974   2.147
  367TIP3    H1 1107   3.031   5.011   2.230
  367TIP3    H2 1108   2.945   4.899   2.173
  368TIP3   OH2 1109   3.751   0.358   3.218
  368TIP3    H1 1110   3.845   0.374   3.205
  368TIP3    H2 1111   3.719   0.332   3.132
  369TIP3   OH2 1112   2.368   1.110   1.982
  369TIP3    H1 1113   2.274   1.107   1.967
  369TIP3    H2 1114   2.397   1.190   1.939
  370TIP3   OH2 1115   4.178   0.627   3.699
  370TIP3    H1 1116   4.217   0.540   3.700
  370TIP3    H2 1117   4.252   0.687   3.704
  371TIP3   OH2 1118   1.557   3.489   1.420
  371TIP3    H1 1119   1.472   3.464   1.383
  371TIP3    H2 1120   1.597   3.544   1.353
  372TIP3   OH2 1121   3.525   3.154   1.663
  372TIP3    H1 1122   3.459   3.173   1.730
  372TIP3    H2 1123   3.475   3.138   1.583
  373TIP3   OH2 1124   2.186   0.592   1.407
  373TIP3    H1 1125   2.278   0.607   1.432
  373TIP3    H2 1126   2.178   0.497   1.404
  374TIP3   OH2 1127   0.690   2.926   1.169
  374TIP3    H1 1128   0.731   2.916   1.255
  374TIP3    H2 1129   0.596   2.915   1.185
  375TIP3   OH2 1130   3.219   0.693   2.740
  375TIP3    H1 1131   3.259   0.766   2.789
  375TIP3    H2 1132   3.181   0.734   2.662
  376TIP3   OH2 1133   5.055   1.413   1.147
  376TIP3    H1 1134   5.143   1.440   1.173
  376TIP3    H2 1135   5.004   1.418   1.228
  377TIP3   OH2 1136   5.716   1.952   0.761
  377TIP3    H1 1137   5.763   2.021   0.713
  377TIP3    H2 1138   5.647   1.924   0.701
  378TIP3   OH2 1139   0.415   2.751   3.516
  378TIP3    H1 1140   0.490   2.810   3.521
  378TIP3    H2 1141   0.434   2.682   3.580
  379TIP3   OH2 1142   2.995   0.921   4.105
  379TIP3    H1 1143   2.939   0.995   4.080
  379TIP3    H2 1144   2.941   0.869   4.164
  380TIP3   OH2 1145   1.315   3.307   2.108
  380TIP3    H1 1146   1.403   3.288   2.141
  380TIP3    H2 1147   1.320   3.399   2.081
  381TIP3   OH2 1148   1.230   5.679   3.667
  381TIP3    H1 1149   1.154   5.632   3.631
  381TIP3    H2 1150   1.271   5.616   3.726
  382TIP3   OH2 1151   3.971   3.043   3.962
  382TIP3    H1 1152   4.015   3.069   4.043
  382TIP3    H2 1153   3.979   3.119   3.904
  383TIP3   OH2 1154   4.677   2.479   1.429
  383TIP3    H1 1155   4.625   2.557   1.447
  383TIP3    H2 1156   4.652   2.454   1.340
  384TIP3   OH2 1157   4.066   1.355   3.328
  384TIP3    H1 1158   4.142   1.367   3.271
  384TIP3    H2 1159   4.061   1.436   3.378
  385TIP3   OH2 1160   4.106   2.650   3.553
  385TIP3    H1 1161   4.190   2.662   3.595
  385TIP3    H2 1162   4.118   2.685   3.465
  386TIP3   OH2 1163   5.177   5.805   4.740
  386TIP3    H1 1164   5.186   5.757   4.823
  386TIP3    H2 1165   5.224   5.751   4.676
  387TIP3   OH2 1166   4.734   1.990   4.389
  387TIP3    H1 1167   4.772   1.905   4.365
  387TIP3    H2 1168   4.675   1.971   4.461
  388TIP3   OH2 1169   1.263   3.196   2.974
  388TIP3    H1 1170   1.355   3.171   2.987
  388TIP3    H2 1171   1.245   3.172   2.883
  389TIP3   OH2 1172   0.990   2.723   3.384
  389TIP3    H1 1173   0.984   2.639   3.429
  389TIP3    H2 1174   1.084   2.739   3.376
  390TIP3   OH2 1175   2.560   3.432   2.492
  390TIP3    H1 1176   2.496   3.468   2.553
  390TIP3    H2 1177   2.602   3.508   2.452
  391TIP3   OH2 1178   2.549   4.941   3.229
  391TIP3    H1 1179   2.461   4.949   3.267
  391TIP3    H2 1180   2.597   4.885   3.291
  392TIP3   OH2 1181   3.528   5.024   3.910
  392TIP3    H1 1182   3.487   5.109   3.893
  392TIP3    H2 1183   3.610   5.044   3.955
  393TIP3   OH2 1184   0.881   5.170   5.050
  393TIP3    H1 1185   0.927   5.240   5.004
  393TIP3    H2 1186   0.859   5.209   5.135
  394TIP3   OH2 1187   1.809   2.723   3.623
  394TIP3    H1 1188   1.811   2.643   3.675
  394TIP3    H2 1189   1.864   2.785   3.672
  395TIP3   OH2 1190   1.131   2.223   0.939
  395TIP3    H1 1191   1.154   2.301   0.889
  395TIP3    H2 1192   1.212   2.172   0.943
  396TIP3   OH2 1193   1.763   2.906   1.413
  396TIP3    H1 1194   1.800   2.822   1.442
  396TIP3    H2 1195   1.784   2.910   1.320
  397TIP3   OH2 1196   2.210   4.395   3.102
  397TIP3    H1 1197   2.257   4.325   3.057
  397TIP3    H2 1198   2.196   4.462   3.035
  398TIP3   OH2 1199   5.919   0.387   1.869
  398TIP3    H1 1200   5.858   0.314   1.860
  398TIP3    H2 1201   5.910   0.415   1.960
  399TIP3   OH2 1202   2.190   1.819   4.897
  399TIP3    H1 1203   2.235   1.744   4.939
  399TIP3    H2 1204   2.259   1.863   4.848
  400TIP3   OH2 1205   2.041   1.013   5.089
  400TIP3    H1 1206   2.074   1.061   5.165
  400TIP3    H2 1207   1.983   0.947   5.127
  401TIP3   OH2 1208   4.022   3.989   3.390
  401TIP3    H1 1209   4.027   4.083   3.402
  401TIP3    H2 1210   3.976   3.978   3.306
  402TIP3   OH2 1211   5.231   0.823   0.018
  402TIP3    H1 1212   5.291   0.748   0.022
  402TIP3    H2 1213   5.280   0.895   0.058
  403TIP3   OH2 1214   2.501   1.256   4.484
  403TIP3    H1 1215   2.559   1.253   4.559
  403TIP3    H2 1216   2.418   1.220   4.516
  404TIP3   OH2 1217   1.852   1.285   2.698
  404TIP3    H1 1218   1.888   1.208   2.654
  404TIP3    H2 1219   1.767   1.255   2.732
  405TIP3   OH2 1220   1.948   4.580   0.557
  405TIP3    H1 1221   1.893   4.658   0.557
  405TIP3    H2 1222   1.935   4.542   0.471
  406TIP3   OH2 1223   2.810   1.743   2.530
  406TIP3    H1 1224   2.903   1.719   2.535
  406TIP3    H2 1225   2.802   1.819   2.589
  407TIP3   OH2 1226   5.470   3.727   0.243
  407TIP3    H1 1227   5.554   3.690   0.269
  407TIP3    H2 1228   5.404   3.668   0.279
  408TIP3   OH2 1229   1.812   4.984   4.416
  408TIP3    H1 1230   1.762   4.992   4.497
  408TIP3    H2 1231   1.818   4.890   4.400
  409TIP3   OH2 1232   4.629   0.921   3.520
  409TIP3    H1 1233   4.675   0.879   3.593
  409TIP3    H2 1234   4.574   0.852   3.483
  410TIP3   OH2 1235   5.472   1.297   1.637
  410TIP3    H1 1236   5.454   1.308   1.544
  410TIP3    H2 1237   5.567   1.310   1.645
  411TIP3   OH2 1238   4.154   1.906   2.312
  411TIP3    H1 1239   4.178   1.951   2.231
  411TIP3    H2 1240   4.129   1.818   2.284
  412TIP3   OH2 1241   1.042   1.283   4.106
  412TIP3    H1 1242   0.952   1.261   4.129
  412TIP3    H2 1243   1.095   1.214   4.146
  413TIP3   OH2 1244   4.079   4.865   1.752
  413TIP3    H1 1245   4.043   4.949   1.722
  413TIP3    H2 1246   4.155   4.851   1.697
  414TIP3   OH2 1247   6.223   5.702   0.975
  414TIP3    H1 1248   6.161   5.648   0.926
  414TIP3    H2 1249   6.261   5.760   0.909
  415TIP3   OH2 1250   2.347   2.331   4.191
  415TIP3    H1 1251   2.292   2.398   4.149
  415TIP3    H2 1252   2.323   2.249   4.148
  416TIP3   OH2 1253   0.359   2.317   0.467
  416TIP3    H1 1254   0.310   2.373   0.527
  416TIP3    H2 1255   0.451   2.337   0.486
  417TIP3   OH2 1256   5.779   3.251   4.600
  417TIP3    H1 1257   5.815   3.177   4.552
  417TIP3    H2 1258   5.712   3.212   4.657
  418TIP3   OH2 1259   3.072   1.034   0.839
  418TIP3    H1 1260   3.025   0.965   0.887
  418TIP3    H2 1261   3.117   0.987   0.769
  419TIP3   OH2 1262   0.890   4.219   3.444
  419TIP3    H1 1263   0.857   4.272   3.516
  419TIP3    H2 1264   0.828   4.147   3.436
  420TIP3   OH2 1265   3.854   3.372   3.584
  420TIP3    H1 1266   3.786   3.428   3.620
  420TIP3    H2 1267   3.831   3.362   3.491
  421TIP3   OH2 1268   0.081   3.293   2.902
  421TIP3    H1 1269   0.156   3.251   2.859
  421TIP3    H2 1270   0.005   3.253   2.860
  422TIP3   OH2 1271   5.336   0.425   0.905
  422TIP3    H1 1272   5.400   0.360   0.880
  422TIP3    H2 1273   5.386   0.492   0.951
  423TIP3   OH2 1274   0.302   1.057   4.325
  423TIP3    H1 1275   0.244   1.076   4.251
  423TIP3    H2 1276   0.319   0.963   4.319
  424TIP3   OH2 1277   4.434   2.490   4.453
  424TIP3    H1 1278   4.406   2.554   4.519
  424TIP3    H2 1279   4.526   2.511   4.437
  425TIP3   OH2 1280   2.331   2.644   4.933
  425TIP3    H1 1281   2.413   2.610   4.968
  425TIP3    H2 1282   2.356   2.724   4.886
  426TIP3   OH2 1283   1.951   5.713   3.462
  426TIP3    H1 1284   1.874   5.661   3.485
  426TIP3    H2 1285   2.004   5.713   3.542
  427TIP3   OH2 1286   4.939   4.933   2.132
  427TIP3    H1 1287   4.902   4.889   2.055
  427TIP3    H2 1288   4.902   4.886   2.207
  428TIP3   OH2 1289   0.378   5.754   1.957
  428TIP3    H1 1290   0.467   5.720   1.954
  428TIP3    H2 1291   0.354   5.769   1.866
  429TIP3   OH2 1292   6.293   5.791   1.420
  429TIP3    H1 1293   6.367   5.850   1.404
  429TIP3    H2 1294   6.334   5.705   1.430
  430TIP3   OH2 1295   3.478   0.529   4.955
  430TIP3    H1 1296   3.425   0.577   4.892
  430TIP3    H2 1297   3.555   0.585   4.970
  431TIP3   OH2 1298   0.615   2.982   3.749
  431TIP3    H1 1299   0.527   2.999   3.784
  431TIP3    H2 1300   0.672   2.986   3.827
  432TIP3   OH2 1301   1.703   4.669   3.330
  432TIP3    H1 1302   1.654   4.688   3.250
  432TIP3    H2 1303   1.728   4.577   3.321
  433TIP3   OH2 1304   2.195   3.732   1.579
  433TIP3    H1 1305   2.284   3.697   1.583
  433TIP3    H2 1306   2.153   3.682   1.509
  434TIP3   OH2 1307   1.846   2.095   3.548
  434TIP3    H1 1308   1.908   2.129   3.483
  434TIP3    H2 1309   1.876   2.131   3.631
  435TIP3   OH2 1310   4.697   0.355   4.214
  435TIP3    H1 1311   4.775   0.403   4.243
  435TIP3    H2 1312   4.731   0.275   4.175
  436TIP3   OH2 1313   2.402   5.819   3.827
  436TIP3    H1 1314   2.402   5.755   3.898
  436TIP3    H2 1315   2.393   5.766   3.747
  437TIP3   OH2 1316   4.735   0.719   2.396
  437TIP3    H1 1317   4.700   0.680   2.476
  437TIP3    H2 1318   4.661   0.723   2.336
  438TIP3   OH2 1319   4.234   2.278   3.384
  438TIP3    H1 1320   4.312   2.326   3.412
  438TIP3    H2 1321   4.209   2.320   3.301
  439TIP3   OH2 1322   0.543   0.784   4.092
  439TIP3    H1 1323   0.484   0.755   4.162
  439TIP3    H2 1324   0.490   0.847   4.042
  440TIP3   OH2 1325   1.556   0.550   2.384
  440TIP3    H1 1326   1.581   0.615   2.318
  440TIP3    H2 1327   1.633   0.493   2.391
  441TIP3   OH2 1328   3.489   1.265   4.524
  441TIP3    H1 1329   3.475   1.358   4.504
  441TIP3    H2 1330   3.580   1.260   4.551
  442TIP3   OH2 1331   1.538   3.975   3.011
  442TIP3    H1 1332   1.490   4.050   2.976
  442TIP3    H2 1333   1.614   4.014   3.056
  443TIP3   OH2 1334   3.835   2.335   1.479
  443TIP3    H1 1335   3.820   2.282   1.401
  443TIP3    H2 1336   3.751   2.378   1.496
  444TIP3   OH2 1337   3.406   3.946   1.145
  444TIP3    H1 1338   3.362   3.862   1.161
  444TIP3    H2 1339   3.497   3.929   1.169
  445TIP3   OH2 1340   3.397   4.627   4.941
  445TIP3    H1 1341   3.402   4.722   4.938
  445TIP3    H2 1342   3.347   4.603   4.863
  446TIP3   OH2 1343   1.571   1.137   4.376
  446TIP3    H1 1344   1.514   1.187   4.318
  446TIP3    H2 1345   1.647   1.114   4.322
  447TIP3   OH2 1346   5.297   3.430   2.019
  447TIP3    H1 1347   5.350   3.409   2.096
  447TIP3    H2 1348   5.216   3.465   2.055
  448TIP3   OH2 1349   0.668   4.480   3.249
  448TIP3    H1 1350   0.588   4.514   3.210
  448TIP3    H2 1351   0.663   4.505   3.341
  449TIP3   OH2 1352   2.073   0.605   0.766
  449TIP3    H1 1353   2.012   0.578   0.697
  449TIP3    H2 1354   2.051   0.549   0.840
  450TIP3   OH2 1355   3.122   2.443   4.760
  450TIP3    H1 1356   3.027   2.454   4.768
  450TIP3    H2 1357   3.147   2.394   4.838
  451TIP3   OH2 1358   5.691   4.419   3.058
  451TIP3    H1 1359   5.690   4.514   3.044
  451TIP3    H2 1360   5.769   4.389   3.011
  452TIP3   OH2 1361   1.505   3.917   1.203
  452TIP3    H1 1362   1.484   3.896   1.112
  452TIP3    H2 1363   1.570   3.851   1.228
  453TIP3   OH2 1364   4.057   1.434   1.994
  453TIP3    H1 1365   3.972   1.407   2.029
  453TIP3    H2 1366   4.094   1.354   1.957
  454TIP3   OH2 1367   5.024   2.151   0.278
  454TIP3    H1 1368   5.049   2.151   0.371
  454TIP3    H2 1369   5.038   2.061   0.250
  455TIP3   OH2 1370   5.713   3.690   4.748
  455TIP3    H1 1371   5.808   3.684   4.737
  455TIP3    H2 1372   5.685   3.602   4.773
  456TIP3   OH2 1373   5.539   4.266   4.343
  456TIP3    H1 1374   5.586   4.183   4.331
  456TIP3    H2 1375   5.493   4.256   4.426
  457TIP3   OH2 1376   4.602   0.710   0.866
  457TIP3    H1 1377   4.638   0.788   0.824
  457TIP3    H2 1378   4.556   0.744   0.943
  458TIP3   OH2 1379   1.349   3.126   1.478
  458TIP3    H1 1380   1.373   3.218   1.489
  458TIP3    H2 1381   1.414   3.091   1.417
  459TIP3   OH2 1382   4.952   3.515   3.686
  459TIP3    H1 1383   4.921   3.425   3.675
  459TIP3    H2 1384   4.909   3.564   3.615
  460TIP3   OH2 1385   0.074   4.413   1.322
  460TIP3    H1 1386   0.160   4.454   1.323
  460TIP3    H2 1387   0.013   4.484   1.303
  461TIP3   OH2 1388   1.166   2.888   3.972
  461TIP3    H1 1389   1.082   2.847   3.993
  461TIP3    H2 1390   1.152   2.930   3.888
  462TIP3   OH2 1391   1.052   4.986   3.524
  462TIP3    H1 1392   0.983   4.954   3.581
  462TIP3    H2 1393   1.011   5.056   3.473
  463TIP3   OH2 1394   2.385   3.457   0.003
  463TIP3    H1 1395   2.471   3.460   0.045
  463TIP3    H2 1396   2.326   3.421   0.070
  464TIP3   OH2 1397   1.054   1.180   3.742
  464TIP3    H1 1398   1.006   1.162   3.661
  464TIP3    H2 1399   1.112   1.105   3.752
  465TIP3   OH2 1400   5.463   3.310   1.159
  465TIP3    H1 1401   5.367   3.306   1.154
  465TIP3    H2 1402   5.483   3.301   1.252
  466TIP3   OH2 1403   4.428   0.108   1.038
  466TIP3    H1 1404   4.418   0.014   1.050
  466TIP3    H2 1405   4.476   0.117   0.956
  467TIP3   OH2 1406   2.559   4.180   3.151
  467TIP3    H1 1407   2.634   4.121   3.154
  467TIP3    H2 1408   2.597   4.268   3.151
  468TIP3   OH2 1409   6.027   3.945   0.919
  468TIP3    H1 1410   6.041   4.040   0.919
  468TIP3    H2 1411   6.053   3.917   0.832
  469TIP3   OH2 1412   3.134   5.977   3.091
  469TIP3    H1 1413   3.221   6.004   3.064
  469TIP3    H2 1414   3.125   5.888   3.057
  470TIP3   OH2 1415   1.281   0.756   5.076
  470TIP3    H1 1416   1.342   0.789   5.011
  470TIP3    H2 1417   1.195   0.785   5.045
  471TIP3   OH2 1418   3.553   3.496   4.283
  471TIP3    H1 1419   3.594   3.443   4.215
  471TIP3    H2 1420   3.497   3.435   4.331
  472TIP3   OH2 1421   5.870   0.900   4.484
  472TIP3    H1 1422   5.938   0.882   4.548
  472TIP3    H2 1423   5.834   0.813   4.463
  473TIP3   OH2 1424   1.550   4.656   4.720
  473TIP3    H1 1425   1.458   4.657   4.747
  473TIP3    H2 1426   1.549   4.625   4.630
  474TIP3   OH2 1427   1.566   3.576   3.143
  474TIP3    H1 1428   1.510   3.503   3.117
  474TIP3    H2 1429   1.655   3.545   3.125
  475TIP3   OH2 1430   0.075   2.038   1.313
  475TIP3    H1 1431   0.141   2.044   1.244
  475TIP3    H2 1432   0.034   1.953   1.300
  476TIP3   OH2 1433   3.234   4.873   1.035
  476TIP3    H1 1434   3.321   4.912   1.035
  476TIP3    H2 1435   3.237   4.808   1.106
  477TIP3   OH2 1436   4.522   5.201   1.406
  477TIP3    H1 1437   4.570   5.136   1.458
  477TIP3    H2 1438   4.535   5.283   1.453
  478TIP3   OH2 1439   2.895   2.395   2.535
  478TIP3    H1 1440   2.929   2.474   2.492
  478TIP3    H2 1441   2.947   2.324   2.498
  479TIP3   OH2 1442   4.440   1.588   4.015
  479TIP3    H1 1443   4.451   1.644   3.938
  479TIP3    H2 1444   4.491   1.510   3.995
  480TIP3   OH2 1445   3.265   4.517   1.406
  480TIP3    H1 1446   3.354   4.519   1.440
  480TIP3    H2 1447   3.221   4.447   1.454
  481TIP3   OH2 1448   1.449   5.451   1.787
  481TIP3    H1 1449   1.389   5.502   1.732
  481TIP3    H2 1450   1.494   5.517   1.840
  482TIP3   OH2 1451   2.481   1.065   4.834
  482TIP3    H1 1452   2.439   1.123   4.897
  482TIP3    H2 1453   2.553   1.118   4.798
  483TIP3   OH2 1454   3.939   5.745   0.825
  483TIP3    H1 1455   3.884   5.669   0.808
  483TIP3    H2 1456   3.878   5.818   0.837
  484TIP3   OH2 1457   3.101   5.552   5.014
  484TIP3    H1 1458   3.120   5.469   5.057
  484TIP3    H2 1459   3.184   5.579   4.975
  485TIP3   OH2 1460   1.627   3.083   0.482
  485TIP3    H1 1461   1.718   3.100   0.461
  485TIP3    H2 1462   1.616   2.989   0.469
  486TIP3   OH2 1463   0.356   3.718   0.619
  486TIP3    H1 1464   0.442   3.760   0.617
  486TIP3    H2 1465   0.314   3.747   0.538
  487TIP3   OH2 1466   3.676   0.137   0.638
  487TIP3    H1 1467   3.736   0.170   0.704
  487TIP3    H2 1468   3.727   0.137   0.557
  488TIP3   OH2 1469   2.360   4.764   0.401
  488TIP3    H1 1470   2.408   4.840   0.434
  488TIP3    H2 1471   2.297   4.744   0.471
  489TIP3   OH2 1472   5.559   1.691   0.667
  489TIP3    H1 1473   5.524   1.672   0.580
  489TIP3    H2 1474   5.568   1.605   0.708
  490TIP3   OH2 1475   0.249   3.151   3.440
  490TIP3    H1 1476   0.269   3.152   3.534
  490TIP3    H2 1477   0.155   3.173   3.436
  491TIP3   OH2 1478   2.185   2.750   1.943
  491TIP3    H1 1479   2.226   2.663   1.947
  491TIP3    H2 1480   2.183   2.780   2.034
  492TIP3   OH2 1481   0.936   5.196   3.370
  492TIP3    H1 1482   0.859   5.162   3.325
  492TIP3    H2 1483   0.947   5.285   3.337
  493TIP3   OH2 1484   5.774   2.044   4.785
  493TIP3    H1 1485   5.837   2.000   4.729
  493TIP3    H2 1486   5.769   1.990   4.864
  494TIP3   OH2 1487   2.385   5.704   2.640
  494TIP3    H1 1488   2.457   5.677   2.582
  494TIP3    H2 1489   2.306   5.695   2.586
  495TIP3   OH2 1490   2.164   2.697   3.363
  495TIP3    H1 1491   2.074   2.693   3.330
  495TIP3    H2 1492   2.155   2.716   3.456
  496TIP3   OH2 1493   1.002   1.184   4.574
  496TIP3    H1 1494   0.915   1.198   4.610
  496TIP3    H2 1495   1.059   1.177   4.651
  497TIP3   OH2 1496   1.899   0.742   2.194
  497TIP3    H1 1497   1.977   0.776   2.150
  497TIP3    H2 1498   1.869   0.670   2.138
  498TIP3   OH2 1499   1.279   5.352   3.676
  498TIP3    H1 1500   1.198   5.347   3.726
  498TIP3    H2 1501   1.250   5.377   3.588
  499TIP3   OH2 1502   6.024   3.295   5.112
  499TIP3    H1 1503   6.054   3.212   5.151
  499TIP3    H2 1504   6.086   3.312   5.041
  500TIP3   OH2 1505   0.926   1.652   1.303
  500TIP3    H1 1506   0.921   1.574   1.248
  500TIP3    H2 1507   0.991   1.629   1.369
  501TIP3   OH2 1508   5.279   0.068   4.720
  501TIP3    H1 1509   5.219   0.086   4.792
  501TIP3    H2 1510   5.355   0.026   4.761
  502TIP3   OH2 1511   4.179   1.157   2.656
  502TIP3    H1 1512   4.126   1.212   2.598
  502TIP3    H2 1513   4.268   1.168   2.624
  503TIP3   OH2 1514   3.704   2.055   0.999
  503TIP3    H1 1515   3.669   1.995   1.064
  503TIP3    H2 1516   3.628   2.088   0.952
  504TIP3   OH2 1517   1.318   0.689   0.202
  504TIP3    H1 1518   1.231   0.718   0.230
  504TIP3    H2 1519   1.378   0.735   0.260
  505TIP3   OH2 1520   0.720   0.033   1.876
  505TIP3    H1 1521   0.688   0.034   1.786
  505TIP3    H2 1522   0.650  -0.007   1.927
  506TIP3   OH2 1523   2.741   5.747   1.356
  506TIP3    H1 1524   2.683   5.753   1.432
  506TIP3    H2 1525   2.760   5.838   1.333
  507TIP3   OH2 1526   4.509   4.395   3.796
  507TIP3    H1 1527   4.489   4.408   3.703
  507TIP3    H2 1528   4.497   4.301   3.811
  508TIP3   OH2 1529   5.528   0.817   2.392
  508TIP3    H1 1530   5.458   0.843   2.453
  508TIP3    H2 1531   5.548   0.897   2.343
  509TIP3   OH2 1532   2.313   0.038   1.759
  509TIP3    H1 1533   2.300   0.114   1.701
  509TIP3    H2 1534   2.366   0.071   1.831
  510TIP3   OH2 1535   1.747   3.984   4.999
  510TIP3    H1 1536   1.776   4.064   4.957
  510TIP3    H2 1537   1.654   3.999   5.018
  511TIP3   OH2 1538   2.223   3.239   4.702
  511TIP3    H1 1539   2.274   3.161   4.680
  511TIP3    H2 1540   2.210   3.232   4.797
  512TIP3   OH2 1541   3.934   4.806   0.585
  512TIP3    H1 1542   3.912   4.862   0.510
  512TIP3    H2 1543   3.851   4.790   0.629
  513TIP3   OH2 1544   1.856   1.000   2.975
  513TIP3    H1 1545   1.822   1.007   2.886
  513TIP3    H2 1546   1.951   0.988   2.964
  514TIP3   OH2 1547   1.587   3.536   2.483
  514TIP3    H1 1548   1.617   3.555   2.394
  514TIP3    H2 1549   1.606   3.616   2.532
  515TIP3   OH2 1550   3.907   3.277   2.136
  515TIP3    H1 1551   3.875   3.189   2.118
  515TIP3    H2 1552   3.827   3.329   2.146
  516TIP3   OH2 1553   3.476   2.138   3.369
  516TIP3    H1 1554   3.531   2.198   3.318
  516TIP3    H2 1555   3.539   2.084   3.417
  517TIP3   OH2 1556   1.339   5.619   1.342
  517TIP3    H1 1557   1.429   5.609   1.312
  517TIP3    H2 1558   1.325   5.546   1.402
  518TIP3   OH2 1559   4.917   5.604   3.636
  518TIP3    H1 1560   4.829   5.639   3.649
  518TIP3    H2 1561   4.903   5.512   3.615
  519TIP3   OH2 1562   6.208   4.328   4.490
  519TIP3    H1 1563   6.127   4.278   4.497
  519TIP3    H2 1564   6.252   4.315   4.574
  520TIP3   OH2 1565   0.480   4.413   0.828
  520TIP3    H1 1566   0.497   4.320   0.815
  520TIP3    H2 1567   0.410   4.434   0.767
  521TIP3   OH2 1568   0.511   2.712   1.156
  521TIP3    H1 1569   0.495   2.681   1.067
  521TIP3    H2 1570   0.541   2.634   1.203
  522TIP3   OH2 1571   1.587   1.860   0.468
  522TIP3    H1 1572   1.660   1.798   0.482
  522TIP3    H2 1573   1.585   1.874   0.374
  523TIP3   OH2 1574   1.586   1.443   3.886
  523TIP3    H1 1575   1.678   1.451   3.862
  523TIP3    H2 1576   1.563   1.353   3.862
  524TIP3   OH2 1577   5.121   3.064   1.182
  524TIP3    H1 1578   5.085   3.026   1.101
  524TIP3    H2 1579   5.142   3.154   1.158
  525TIP3   OH2 1580   0.494   3.173   5.044
  525TIP3    H1 1581   0.480   3.254   5.094
  525TIP3    H2 1582   0.504   3.202   4.953
  526TIP3   OH2 1583   3.466   3.168   3.486
  526TIP3    H1 1584   3.477   3.246   3.540
  526TIP3    H2 1585   3.549   3.159   3.441
  527TIP3   OH2 1586   5.429   2.008   2.338
  527TIP3    H1 1587   5.386   2.035   2.257
  527TIP3    H2 1588   5.522   2.001   2.315
  528TIP3   OH2 1589   5.239   5.923   1.692
  528TIP3    H1 1590   5.275   5.879   1.615
  528TIP3    H2 1591   5.264   6.015   1.681
  529TIP3   OH2 1592   4.983   1.883   1.514
  529TIP3    H1 1593   4.928   1.959   1.533
  529TIP3    H2 1594   5.030   1.907   1.434
  530TIP3   OH2 1595   1.030   3.670   4.559
  530TIP3    H1 1596   1.077   3.751   4.541
  530TIP3    H2 1597   0.963   3.694   4.623
  531TIP3   OH2 1598   5.780   3.097   4.232
  531TIP3    H1 1599   5.789   3.050   4.150
  531TIP3    H2 1600   5.688   3.125   4.235
  532TIP3   OH2 1601   6.157   0.603   2.155
  532TIP3    H1 1602   6.211   0.532   2.190
  532TIP3    H2 1603   6.157   0.590   2.060
  533TIP3   OH2 1604   3.068   2.736   1.023
  533TIP3    H1 1605   3.149   2.776   1.055
  533TIP3    H2 1606   3.025   2.805   0.973
  534TIP3   OH2 1607   3.287   1.330   3.452
  534TIP3    H1 1608   3.324   1.413   3.421
  534TIP3    H2 1609   3.258   1.349   3.542
  535TIP3   OH2 1610   3.128   3.946   4.748
  535TIP3    H1 1611   3.180   3.947   4.667
  535TIP3    H2 1612   3.173   3.884   4.805
  536TIP3   OH2 1613   1.031   2.707   4.363
  536TIP3    H1 1614   1.110   2.755   4.338
  536TIP3    H2 1615   0.979   2.703   4.283
  537TIP3   OH2 1616   5.879   5.165   2.359
  537TIP3    H1 1617   5.812   5.138   2.421
  537TIP3    H2 1618   5.889   5.259   2.374
  538TIP3   OH2 1619   5.290   5.379   2.268
  538TIP3    H1 1620   5.203   5.347   2.290
  538TIP3    H2 1621   5.348   5.334   2.330
  539TIP3   OH2 1622   6.323   3.127   4.885
  539TIP3    H1 1623   6.325   3.103   4.978
  539TIP3    H2 1624   6.270   3.059   4.844
  540TIP3   OH2 1625   1.048  -0.012   2.330
  540TIP3    H1 1626   1.009  -0.052   2.252
  540TIP3    H2 1627   1.060   0.080   2.306
  541TIP3   OH2 1628   2.677   5.142   2.788
  541TIP3    H1 1629   2.600   5.168   2.736
  541TIP3    H2 1630   2.640   5.107   2.869
  542TIP3   OH2 1631   2.492   2.546   0.709
  542TIP3    H1 1632   2.454   2.475   0.760
  542TIP3    H2 1633   2.579   2.514   0.684
  543TIP3   OH2 1634   3.464   1.819   4.390
  543TIP3    H1 1635   3.491   1.866   4.470
  543TIP3    H2 1636   3.376   1.788   4.409
  544TIP3   OH2 1637   3.507   4.122   4.695
  544TIP3    H1 1638   3.460   4.190   4.646
  544TIP3    H2 1639   3.467   4.040   4.667
  545TIP3   OH2 1640   0.107   5.183   0.215
  545TIP3    H1 1641   0.178   5.131   0.177
  545TIP3    H2 1642   0.150   5.233   0.285
  546TIP3   OH2 1643   5.282   4.303   2.466
  546TIP3    H1 1644   5.279   4.219   2.513
  546TIP3    H2 1645   5.195   4.341   2.480
  547TIP3   OH2 1646   3.995   1.151   2.066
  547TIP3    H1 1647   3.977   1.059   2.046
  547TIP3    H2 1648   3.908   1.190   2.076
  548TIP3   OH2 1649   5.216   2.388   0.658
  548TIP3    H1 1650   5.139   2.430   0.619
  548TIP3    H2 1651   5.225   2.305   0.610
  549TIP3   OH2 1652   2.516   5.272   5.174
  549TIP3    H1 1653   2.490   5.362   5.157
  549TIP3    H2 1654   2.536   5.236   5.087
  550TIP3   OH2 1655   1.506   2.019   2.430
  550TIP3    H1 1656   1.479   2.036   2.339
  550TIP3    H2 1657   1.566   2.090   2.451
  551TIP3   OH2 1658   2.066   0.749   0.199
  551TIP3    H1 1659   2.016   0.802   0.136
  551TIP3    H2 1660   2.018   0.760   0.282
  552TIP3   OH2 1661   1.086   5.779   3.983
  552TIP3    H1 1662   1.050   5.695   4.012
  552TIP3    H2 1663   1.148   5.804   4.052
  553TIP3   OH2 1664   5.372   0.318   4.670
  553TIP3    H1 1665   5.445   0.337   4.729
  553TIP3    H2 1666   5.357   0.224   4.680
  554TIP3   OH2 1667   0.957   1.516   2.220
  554TIP3    H1 1668   0.950   1.439   2.276
  554TIP3    H2 1669   1.047   1.515   2.188
  555TIP3   OH2 1670   2.663   4.801   1.871
  555TIP3    H1 1671   2.646   4.749   1.950
  555TIP3    H2 1672   2.638   4.890   1.895
  556TIP3   OH2 1673   0.373   5.049   4.197
  556TIP3    H1 1674   0.365   5.140   4.225
  556TIP3    H2 1675   0.455   5.046   4.148
  557TIP3   OH2 1676   5.879   0.703   0.603
  557TIP3    H1 1677   5.909   0.793   0.620
  557TIP3    H2 1678   5.899   0.656   0.684
  558TIP3   OH2 1679   4.136   2.907   3.057
  558TIP3    H1 1680   4.226   2.879   3.076
  558TIP3    H2 1681   4.117   2.870   2.970
  559TIP3   OH2 1682   4.483   4.722   3.489
  559TIP3    H1 1683   4.471   4.751   3.580
  559TIP3    H2 1684   4.575   4.696   3.485
  560TIP3   OH2 1685   2.208   1.223   4.027
  560TIP3    H1 1686   2.301   1.201   4.025
  560TIP3    H2 1687   2.201   1.300   3.971
  561TIP3   OH2 1688   5.609   1.497   3.050
  561TIP3    H1 1689   5.569   1.551   2.981
  561TIP3    H2 1690   5.640   1.560   3.115
  562TIP3   OH2 1691   0.738   1.672   2.027
  562TIP3    H1 1692   0.746   1.711   2.114
  562TIP3    H2 1693   0.772   1.583   2.037
  563TIP3   OH2 1694   0.344   2.732   1.637
  563TIP3    H1 1695   0.378   2.780   1.561
  563TIP3    H2 1696   0.352   2.639   1.612
  564TIP3   OH2 1697   1.368   0.765   2.470
  564TIP3    H1 1698   1.445   0.712   2.449
  564TIP3    H2 1699   1.297   0.701   2.480
  565TIP3   OH2 1700   1.074   1.502   0.179
  565TIP3    H1 1701   1.005   1.447   0.141
  565TIP3    H2 1702   1.151   1.444   0.182
  566TIP3   OH2 1703   5.107   5.372   5.001
  566TIP3    H1 1704   5.027   5.416   4.972
  566TIP3    H2 1705   5.076   5.288   5.035
  567TIP3   OH2 1706   1.571   0.491   3.027
  567TIP3    H1 1707   1.536   0.485   2.939
  567TIP3    H2 1708   1.654   0.538   3.017
  568TIP3   OH2 1709   1.277   3.772   2.256
  568TIP3    H1 1710   1.277   3.700   2.192
  568TIP3    H2 1711   1.241   3.846   2.208
  569TIP3   OH2 1712   4.982   0.460   1.366
  569TIP3    H1 1713   4.946   0.454   1.454
  569TIP3    H2 1714   4.942   0.538   1.328
  570TIP3   OH2 1715   0.754   5.177   4.578
  570TIP3    H1 1716   0.703   5.131   4.644
  570TIP3    H2 1717   0.766   5.113   4.507
  571TIP3   OH2 1718   4.735   1.236   4.931
  571TIP3    H1 1719   4.694   1.152   4.911
  571TIP3    H2 1720   4.738   1.240   5.026
  572TIP3   OH2 1721   5.562   4.910   1.730
  572TIP3    H1 1722   5.619   4.877   1.799
  572TIP3    H2 1723   5.590   4.864   1.651
  573TIP3   OH2 1724   0.324   5.325   0.608
  573TIP3    H1 1725   0.376   5.397   0.643
  573TIP3    H2 1726   0.366   5.246   0.642
  574TIP3   OH2 1727   0.312   0.552   4.059
  574TIP3    H1 1728   0.234   0.607   4.062
  574TIP3    H2 1729   0.326   0.526   4.151
  575TIP3   OH2 1730   4.414   2.654   2.386
  575TIP3    H1 1731   4.324   2.676   2.411
  575TIP3    H2 1732   4.415   2.558   2.382
  576TIP3   OH2 1733   0.575   3.140   1.407
  576TIP3    H1 1734   0.625   3.206   1.456
  576TIP3    H2 1735   0.587   3.164   1.316
  577TIP3   OH2 1736   2.671   1.898   0.194
  577TIP3    H1 1737   2.648   1.952   0.118
  577TIP3    H2 1738   2.640   1.948   0.270
  578TIP3   OH2 1739   4.435   4.277   0.085
  578TIP3    H1 1740   4.496   4.235   0.145
  578TIP3    H2 1741   4.403   4.353   0.132
  579TIP3   OH2 1742   0.810   1.658   0.822
  579TIP3    H1 1743   0.813   1.747   0.787
  579TIP3    H2 1744   0.896   1.621   0.802
  580TIP3   OH2 1745   1.309   4.418   3.973
  580TIP3    H1 1746   1.353   4.356   4.031
  580TIP3    H2 1747   1.312   4.376   3.887
  581TIP3   OH2 1748   1.781   1.663   0.797
  581TIP3    H1 1749   1.719   1.688   0.865
  581TIP3    H2 1750   1.762   1.571   0.779
  582TIP3   OH2 1751   5.151   1.431   3.098
  582TIP3    H1 1752   5.121   1.350   3.140
  582TIP3    H2 1753   5.076   1.459   3.045
  583TIP3   OH2 1754   2.229   3.734   4.864
  583TIP3    H1 1755   2.178   3.658   4.838
  583TIP3    H2 1756   2.297   3.742   4.797
  584TIP3   OH2 1757   0.996   0.091   0.190
  584TIP3    H1 1758   1.035   0.064   0.273
  584TIP3    H2 1759   0.968   0.181   0.204
  585TIP3   OH2 1760   4.876   3.985   0.595
  585TIP3    H1 1761   4.803   3.923   0.589
  585TIP3    H2 1762   4.838   4.063   0.636
  586TIP3   OH2 1763   0.395   5.797   1.637
  586TIP3    H1 1764   0.429   5.880   1.671
  586TIP3    H2 1765   0.312   5.821   1.596
  587TIP3   OH2 1766   3.063   3.949   1.125
  587TIP3    H1 1767   3.107   4.010   1.185
  587TIP3    H2 1768   3.061   3.866   1.173
  588TIP3   OH2 1769   3.839   3.125   0.808
  588TIP3    H1 1770   3.788   3.058   0.762
  588TIP3    H2 1771   3.894   3.164   0.739
  589TIP3   OH2 1772   6.249   5.862   2.829
  589TIP3    H1 1773   6.248   5.795   2.761
  589TIP3    H2 1774   6.331   5.910   2.814
  590TIP3   OH2 1775   4.944   0.414   4.018
  590TIP3    H1 1776   4.909   0.325   4.014
  590TIP3    H2 1777   5.011   0.411   4.086
  591TIP3   OH2 1778   2.429   3.419   1.693
  591TIP3    H1 1779   2.438   3.514   1.680
  591TIP3    H2 1780   2.514   3.392   1.728
  592TIP3   OH2 1781   4.426   2.221   1.348
  592TIP3    H1 1782   4.473   2.261   1.274
  592TIP3    H2 1783   4.496   2.185   1.403
  593TIP3   OH2 1784   0.446   0.587   4.511
  593TIP3    H1 1785   0.536   0.589   4.478
  593TIP3    H2 1786   0.401   0.527   4.452
  594TIP3   OH2 1787   1.883   1.475   4.885
  594TIP3    H1 1788   1.953   1.422   4.923
  594TIP3    H2 1789   1.838   1.416   4.825
  595TIP3   OH2 1790   1.258   2.792   1.309
  595TIP3    H1 1791   1.243   2.810   1.217
  595TIP3    H2 1792   1.353   2.784   1.317
  596TIP3   OH2 1793   1.993   5.530   1.426
  596TIP3    H1 1794   1.963   5.501   1.512
  596TIP3    H2 1795   1.926   5.591   1.396
  597TIP3   OH2 1796   5.538   2.601   0.338
  597TIP3    H1 1797   5.491   2.602   0.422
  597TIP3    H2 1798   5.541   2.509   0.313
  598TIP3   OH2 1799   1.332   3.803   0.746
  598TIP3    H1 1800   1.259   3.827   0.690
  598TIP3    H2 1801   1.390   3.752   0.690
  599TIP3   OH2 1802   3.203   1.752   4.510
  599TIP3    H1 1803   3.204   1.665   4.470
  599TIP3    H2 1804   3.172   1.738   4.599
  600TIP3   OH2 1805   2.427   3.093   3.445
  600TIP3    H1 1806   2.363   3.164   3.439
  600TIP3    H2 1807   2.502   3.133   3.489
  601TIP3   OH2 1808   5.447   4.207   4.633
  601TIP3    H1 1809   5.414   4.216   4.723
  601TIP3    H2 1810   5.515   4.273   4.626
  602TIP3   OH2 1811   3.566   1.477   2.159
  602TIP3    H1 1812   3.544   1.449   2.247
  602TIP3    H2 1813   3.552   1.572   2.160
  603TIP3   OH2 1814   0.127   0.123   4.064
  603TIP3    H1 1815   0.108   0.178   3.988
  603TIP3    H2 1816   0.098   0.175   4.139
  604TIP3   OH2 1817   0.483   0.197   1.329
  604TIP3    H1 1818   0.450   0.112   1.358
  604TIP3    H2 1819   0.571   0.202   1.365
  605TIP3   OH2 1820   3.441   0.967   1.303
  605TIP3    H1 1821   3.534   0.944   1.311
  605TIP3    H2 1822   3.415   0.928   1.220
  606TIP3   OH2 1823   5.988   1.931   4.595
  606TIP3    H1 1824   6.083   1.926   4.582
  606TIP3    H2 1825   5.951   1.897   4.514
  607TIP3   OH2 1826   1.187   5.853   4.258
  607TIP3    H1 1827   1.168   5.869   4.351
  607TIP3    H2 1828   1.219   5.937   4.225
  608TIP3   OH2 1829   3.385   3.159   2.489
  608TIP3    H1 1830   3.476   3.155   2.521
  608TIP3    H2 1831   3.388   3.115   2.404
  609TIP3   OH2 1832   0.331   1.991   3.387
  609TIP3    H1 1833   0.355   2.068   3.334
  609TIP3    H2 1834   0.253   2.019   3.434
  610TIP3   OH2 1835   0.322   4.672   3.714
  610TIP3    H1 1836   0.270   4.751   3.699
  610TIP3    H2 1837   0.273   4.623   3.780
  611TIP3   OH2 1838   5.968   3.943   4.918
  611TIP3    H1 1839   5.917   3.989   4.852
  611TIP3    H2 1840   6.003   3.866   4.873
  612TIP3   OH2 1841   0.717   2.518   2.578
  612TIP3    H1 1842   0.765   2.590   2.538
  612TIP3    H2 1843   0.635   2.513   2.528
  613TIP3   OH2 1844   3.263   3.369   1.510
  613TIP3    H1 1845   3.269   3.429   1.436
  613TIP3    H2 1846   3.173   3.339   1.510
  614TIP3   OH2 1847   1.684   4.369   4.658
  614TIP3    H1 1848   1.615   4.402   4.602
  614TIP3    H2 1849   1.752   4.436   4.654
  615TIP3   OH2 1850   0.782   2.311   0.871
  615TIP3    H1 1851   0.690   2.315   0.894
  615TIP3    H2 1852   0.784   2.257   0.791
  616TIP3   OH2 1853   5.798   0.849   2.828
  616TIP3    H1 1854   5.850   0.846   2.909
  616TIP3    H2 1855   5.861   0.872   2.760
  617TIP3   OH2 1856   1.094   3.930   4.690
  617TIP3    H1 1857   1.064   3.864   4.754
  617TIP3    H2 1858   1.014   3.962   4.650
  618TIP3   OH2 1859   1.569   1.105   2.899
  618TIP3    H1 1860   1.479   1.095   2.868
  618TIP3    H2 1861   1.603   1.015   2.904
  619TIP3   OH2 1862   2.306   4.850   2.925
  619TIP3    H1 1863   2.390   4.895   2.937
  619TIP3    H2 1864   2.240   4.914   2.951
  620TIP3   OH2 1865   1.468   5.242   2.806
  620TIP3    H1 1866   1.419   5.264   2.886
  620TIP3    H2 1867   1.431   5.300   2.739
  621TIP3   OH2 1868   0.156   0.699   0.197
  621TIP3    H1 1869   0.105   0.741   0.129
  621TIP3    H2 1870   0.097   0.696   0.273
  622TIP3   OH2 1871   4.665   4.472   1.408
  622TIP3    H1 1872   4.579   4.512   1.424
  622TIP3    H2 1873   4.712   4.536   1.356
  623TIP3   OH2 1874   2.424   2.709   1.411
  623TIP3    H1 1875   2.339   2.667   1.425
  623TIP3    H2 1876   2.424   2.732   1.318
  624TIP3   OH2 1877   5.626   1.615   5.131
  624TIP3    H1 1878   5.548   1.639   5.082
  624TIP3    H2 1879   5.657   1.698   5.169
  625TIP3   OH2 1880   5.353   2.880   2.278
  625TIP3    H1 1881   5.397   2.817   2.336
  625TIP3    H2 1882   5.361   2.842   2.191
  626TIP3   OH2 1883   1.806   4.942   3.406
  626TIP3    H1 1884   1.799   4.893   3.488
  626TIP3    H2 1885   1.744   4.900   3.347
  627TIP3   OH2 1886   3.293   5.191   1.902
  627TIP3    H1 1887   3.338   5.196   1.818
  627TIP3    H2 1888   3.225   5.124   1.889
  628TIP3   OH2 1889   2.742   1.118   4.072
  628TIP3    H1 1890   2.812   1.110   4.007
  628TIP3    H2 1891   2.756   1.204   4.113
  629TIP3   OH2 1892   1.702   2.569   4.956
  629TIP3    H1 1893   1.730   2.503   5.020
  629TIP3    H2 1894   1.658   2.518   4.887
  630TIP3   OH2 1895   3.365   2.140   1.887
  630TIP3    H1 1896   3.447   2.181   1.861
  630TIP3    H2 1897   3.331   2.195   1.957
  631TIP3   OH2 1898   2.106   3.930   1.746
  631TIP3    H1 1899   2.031   3.911   1.802
  631TIP3    H2 1900   2.128   3.847   1.705
  632TIP3   OH2 1901   0.412   1.928   1.270
  632TIP3    H1 1902   0.355   1.960   1.200
  632TIP3    H2 1903   0.385   1.837   1.283
  633TIP3   OH2 1904   5.635   0.813   5.184
  633TIP3    H1 1905   5.642   0.902   5.149
  633TIP3    H2 1906   5.722   0.776   5.170
  634TIP3   OH2 1907   4.485   2.990   1.003
  634TIP3    H1 1908   4.481   2.895   0.999
  634TIP3    H2 1909   4.563   3.009   1.054
  635TIP3   OH2 1910   6.349   2.635   3.466
  635TIP3    H1 1911   6.392   2.684   3.536
  635TIP3    H2 1912   6.257   2.630   3.492
  636TIP3   OH2 1913   0.514   5.761   0.407
  636TIP3    H1 1914   0.596   5.712   0.413
  636TIP3    H2 1915   0.513   5.816   0.485
  637TIP3   OH2 1916   0.053   1.722   3.526
  637TIP3    H1 1917   0.017   1.635   3.511
  637TIP3    H2 1918   0.128   1.728   3.466
  638TIP3   OH2 1919   6.105   5.103   1.903
  638TIP3    H1 1920   6.082   5.196   1.913
  638TIP3    H2 1921   6.036   5.056   1.951
  639TIP3   OH2 1922   3.379   0.323   0.961
  639TIP3    H1 1923   3.352   0.356   0.875
  639TIP3    H2 1924   3.423   0.398   1.002
  640TIP3   OH2 1925   4.256   0.045   2.398
  640TIP3    H1 1926   4.193   0.100   2.444
  640TIP3    H2 1927   4.215   0.030   2.312
  641TIP3   OH2 1928   0.504   2.654   0.653
  641TIP3    H1 1929   0.583   2.705   0.675
  641TIP3    H2 1930   0.536   2.587   0.593
  642TIP3   OH2 1931   5.492   0.387   4.432
  642TIP3    H1 1932   5.525   0.466   4.475
  642TIP3    H2 1933   5.438   0.344   4.498
  643TIP3   OH2 1934   2.064   1.744  -0.018
  643TIP3    H1 1935   2.015   1.784   0.054
  643TIP3    H2 1936   2.147   1.719   0.021
  644TIP3   OH2 1937   0.590   2.892   4.390
  644TIP3    H1 1938   0.604   2.798   4.400
  644TIP3    H2 1939   0.507   2.899   4.341
  645TIP3   OH2 1940   3.586   1.191   3.070
  645TIP3    H1 1941   3.621   1.147   3.147
  645TIP3    H2 1942   3.651   1.258   3.049
  646TIP3   OH2 1943   3.063   3.643   4.203
  646TIP3    H1 1944   2.993   3.687   4.250
  646TIP3    H2 1945   3.047   3.664   4.111
  647TIP3   OH2 1946   1.410   4.224   0.342
  647TIP3    H1 1947   1.391   4.256   0.254
  647TIP3    H2 1948   1.335   4.250   0.394
  648TIP3   OH2 1949   0.566   1.297   3.641
  648TIP3    H1 1950   0.599   1.386   3.651
  648TIP3    H2 1951   0.630   1.253   3.586
  649TIP3   OH2 1952   3.090   1.895   4.316
  649TIP3    H1 1953   3.145   1.869   4.390
  649TIP3    H2 1954   3.015   1.837   4.320
  650TIP3   OH2 1955   2.119   1.018   2.984
  650TIP3    H1 1956   2.205   0.978   2.971
  650TIP3    H2 1957   2.112   1.031   3.079
  651TIP3   OH2 1958   3.999   5.031   3.872
  651TIP3    H1 1959   3.949   5.092   3.926
  651TIP3    H2 1960   3.965   4.945   3.894
  652TIP3   OH2 1961   3.754   5.638   0.111
  652TIP3    H1 1962   3.805   5.591   0.046
  652TIP3    H2 1963   3.663   5.612   0.093
  653TIP3   OH2 1964   2.631   3.957   3.820
  653TIP3    H1 1965   2.649   3.866   3.795
  653TIP3    H2 1966   2.549   3.977   3.774
  654TIP3   OH2 1967   2.810   0.942   0.257
  654TIP3    H1 1968   2.872   0.918   0.188
  654TIP3    H2 1969   2.752   0.866   0.265
  655TIP3   OH2 1970   1.404   2.101   2.166
  655TIP3    H1 1971   1.413   2.090   2.071
  655TIP3    H2 1972   1.461   2.175   2.187
  656TIP3   OH2 1973   3.379   1.527   0.732
  656TIP3    H1 1974   3.296   1.522   0.780
  656TIP3    H2 1975   3.411   1.616   0.749
  657TIP3   OH2 1976   0.115   1.420  -0.008
  657TIP3    H1 1977   0.065   1.443   0.070
  657TIP3    H2 1978   0.066   1.459  -0.081
  658TIP3   OH2 1979   3.677   4.820   5.009
  658TIP3    H1 1980   3.637   4.736   4.987
  658TIP3    H2 1981   3.754   4.825   4.952
  659TIP3   OH2 1982   1.008   3.678   2.864
  659TIP3    H1 1983   0.997   3.740   2.936
  659TIP3    H2 1984   1.085   3.627   2.888
  660TIP3   OH2 1985   1.992   4.634   3.295
  660TIP3    H1 1986   1.959   4.668   3.211
  660TIP3    H2 1987   1.919   4.647   3.356
  661TIP3   OH2 1988   4.578   4.009   4.850
  661TIP3    H1 1989   4.554   3.956   4.926
  661TIP3    H2 1990   4.596   3.944   4.781
  662TIP3   OH2 1991   3.955   1.643   4.527
  662TIP3    H1 1992   3.910   1.591   4.461
  662TIP3    H2 1993   3.975   1.725   4.483
  663TIP3   OH2 1994   5.473   1.325   1.949
  663TIP3    H1 1995   5.503   1.299   1.862
  663TIP3    H2 1996   5.505   1.256   2.007
  664TIP3   OH2 1997   3.036   0.199   3.503
  664TIP3    H1 1998   3.099   0.139   3.464
  664TIP3    H2 1999   3.066   0.208   3.594
  665TIP3   OH2 2000   5.075   4.872   2.741
  665TIP3    H1 2001   4.980   4.872   2.750
  665TIP3    H2 2002   5.100   4.780   2.741
  666TIP3   OH2 2003   5.899   4.208   5.017
  666TIP3    H1 2004   5.809   4.183   4.995
  666TIP3    H2 2005   5.951   4.130   4.999
  667TIP3   OH2 2006   2.306   1.568   1.210
  667TIP3    H1 2007   2.215   1.566   1.240
  667TIP3    H2 2008   2.355   1.605   1.284
  668TIP3   OH2 2009   4.090   5.568   4.794
  668TIP3    H1 2010   4.113   5.514   4.718
  668TIP3    H2 2011   4.073   5.655   4.758
  669TIP3   OH2 2012   0.553   3.170   0.048
  669TIP3    H1 2013   0.522   3.086   0.016
  669TIP3    H2 2014   0.585   3.216  -0.030
  670TIP3   OH2 2015   4.995   2.096   4.345
  670TIP3    H1 2016   4.915   2.090   4.398
  670TIP3    H2 2017   4.963   2.093   4.255
  671TIP3   OH2 2018   2.740   1.877   3.332
  671TIP3    H1 2019   2.652   1.888   3.370
  671TIP3    H2 2020   2.765   1.788   3.355
  672TIP3   OH2 2021   1.852   3.450   0.041
  672TIP3    H1 2022   1.844   3.354   0.048
  672TIP3    H2 2023   1.832   3.468  -0.051
  673TIP3   OH2 2024   0.180   3.315   1.848
  673TIP3    H1 2025   0.127   3.294   1.771
  673TIP3    H2 2026   0.264   3.272   1.832
  674TIP3   OH2 2027   3.174   4.660   5.127
  674TIP3    H1 2028   3.138   4.597   5.190
  674TIP3    H2 2029   3.256   4.619   5.097
  675TIP3   OH2 2030   4.840   0.340   3.424
  675TIP3    H1 2031   4.778   0.392   3.475
  675TIP3    H2 2032   4.876   0.277   3.487
  676TIP3   OH2 2033   4.608   5.504   5.016
  676TIP3    H1 2034   4.590   5.463   5.100
  676TIP3    H2 2035   4.524   5.542   4.989
  677TIP3   OH2 2036   2.621   3.749   3.182
  677TIP3    H1 2037   2.672   3.669   3.170
  677TIP3    H2 2038   2.531   3.718   3.197
  678TIP3   OH2 2039   4.210   1.940   1.592
  678TIP3    H1 2040   4.214   1.945   1.497
  678TIP3    H2 2041   4.117   1.956   1.613
  679TIP3   OH2 2042   1.230   4.114   4.292
  679TIP3    H1 2043   1.206   4.165   4.369
  679TIP3    H2 2044   1.203   4.025   4.312
  680TIP3   OH2 2045   3.556   1.087   2.807
  680TIP3    H1 2046   3.645   1.055   2.819
  680TIP3    H2 2047   3.540   1.143   2.883
  681TIP3   OH2 2048   1.222   1.667   2.446
  681TIP3    H1 2049   1.290   1.662   2.513
  681TIP3    H2 2050   1.227   1.583   2.400
  682TIP3   OH2 2051   1.953   0.461   1.995
  682TIP3    H1 2052   1.962   0.397   1.923
  682TIP3    H2 2053   2.042   0.476   2.024
  683TIP3   OH2 2054   0.128   4.327   4.858
  683TIP3    H1 2055   0.152   4.244   4.817
  683TIP3    H2 2056   0.121   4.389   4.785
  684TIP3   OH2 2057   0.232   0.936   3.135
  684TIP3    H1 2058   0.255   1.008   3.077
  684TIP3    H2 2059   0.209   0.978   3.218
  685TIP3   OH2 2060   1.818   1.153   1.962
  685TIP3    H1 2061   1.874   1.150   2.039
  685TIP3    H2 2062   1.731   1.132   1.995
  686TIP3   OH2 2063   1.275   4.909   4.091
  686TIP3    H1 2064   1.210   4.978   4.100
  686TIP3    H2 2065   1.354   4.955   4.062
  687TIP3   OH2 2066   1.189   0.230   3.189
  687TIP3    H1 2067   1.121   0.195   3.247
  687TIP3    H2 2068   1.153   0.312   3.156
  688TIP3   OH2 2069   5.588   4.799   0.855
  688TIP3    H1 2070   5.529   4.815   0.781
  688TIP3    H2 2071   5.547   4.727   0.903
  689TIP3   OH2 2072   1.884   1.585   2.589
  689TIP3    H1 2073   1.945   1.641   2.541
  689TIP3    H2 2074   1.939   1.513   2.621
  690TIP3   OH2 2075   3.639   3.814   0.897
  690TIP3    H1 2076   3.653   3.798   0.990
  690TIP3    H2 2077   3.544   3.811   0.885
  691TIP3   OH2 2078   4.952   0.913   2.349
  691TIP3    H1 2079   5.029   0.867   2.315
  691TIP3    H2 2080   4.879   0.853   2.333
  692TIP3   OH2 2081   0.559   3.794   4.239
  692TIP3    H1 2082   0.619   3.841   4.181
  692TIP3    H2 2083   0.509   3.863   4.283
  693TIP3   OH2 2084   2.145   1.503   0.801
  693TIP3    H1 2085   2.185   1.532   0.720
  693TIP3    H2 2086   2.087   1.431   0.775
  694TIP3   OH2 2087   4.271   4.983   4.430
  694TIP3    H1 2088   4.320   4.993   4.512
  694TIP3    H2 2089   4.218   5.062   4.423
  695TIP3   OH2 2090   5.819   5.349   4.477
  695TIP3    H1 2091   5.786   5.262   4.456
  695TIP3    H2 2092   5.741   5.402   4.494
  696TIP3   OH2 2093   4.795   0.296   0.700
  696TIP3    H1 2094   4.865   0.349   0.662
  696TIP3    H2 2095   4.716   0.349   0.689
  697TIP3   OH2 2096   1.811   3.717   0.635
  697TIP3    H1 2097   1.888   3.743   0.685
  697TIP3    H2 2098   1.784   3.797   0.589
  698TIP3   OH2 2099   4.550   5.037   2.371
  698TIP3    H1 2100   4.532   4.943   2.369
  698TIP3    H2 2101   4.593   5.056   2.288
  699TIP3   OH2 2102   5.313   1.662   5.129
  699TIP3    H1 2103   5.242   1.651   5.066
  699TIP3    H2 2104   5.303   1.590   5.191
  700TIP3   OH2 2105   3.103   5.960   0.807
  700TIP3    H1 2106   3.095   6.017   0.731
  700TIP3    H2 2107   3.109   5.871   0.771
  701TIP3   OH2 2108   0.542   2.406   4.170
  701TIP3    H1 2109   0.549   2.367   4.257
  701TIP3    H2 2110   0.617   2.465   4.164
  702TIP3   OH2 2111   4.844   5.618   4.705
  702TIP3    H1 2112   4.750   5.602   4.694
  702TIP3    H2 2113   4.861   5.697   4.654
  703TIP3   OH2 2114   5.035   4.777   3.705
  703TIP3    H1 2115   5.076   4.706   3.653
  703TIP3    H2 2116   5.081   4.774   3.789
  704TIP3   OH2 2117   4.050   0.638   3.452
  704TIP3    H1 2118   4.094   0.656   3.535
  704TIP3    H2 2119   3.964   0.604   3.477
  705TIP3   OH2 2120   4.354   5.492   2.286
  705TIP3    H1 2121   4.299   5.477   2.363
  705TIP3    H2 2122   4.444   5.486   2.319
  706TIP3   OH2 2123   3.238   0.123   3.763
  706TIP3    H1 2124   3.243   0.167   3.848
  706TIP3    H2 2125   3.327   0.091   3.748
  707TIP3   OH2 2126   5.509   3.476   0.900
  707TIP3    H1 2127   5.422   3.517   0.902
  707TIP3    H2 2128   5.569   3.547   0.879
  708TIP3   OH2 2129   5.333   1.878   1.778
  708TIP3    H1 2130   5.262   1.834   1.825
  708TIP3    H2 2131   5.407   1.817   1.783
  709TIP3   OH2 2132   4.726   5.079   0.506
  709TIP3    H1 2133   4.806   5.094   0.456
  709TIP3    H2 2134   4.737   4.991   0.543
  710TIP3   OH2 2135   4.887   3.383   4.862
  710TIP3    H1 2136   4.927   3.299   4.838
  710TIP3    H2 2137   4.931   3.407   4.943
  711TIP3   OH2 2138   3.185   4.771   2.340
  711TIP3    H1 2139   3.124   4.698   2.330
  711TIP3    H2 2140   3.132   4.843   2.373
  712TIP3   OH2 2141   1.718   0.147   4.138
  712TIP3    H1 2142   1.808   0.115   4.132
  712TIP3    H2 2143   1.670   0.093   4.076
  713TIP3   OH2 2144   2.663   1.699   1.593
  713TIP3    H1 2145   2.633   1.678   1.681
  713TIP3    H2 2146   2.714   1.623   1.565
  714TIP3   OH2 2147   1.554   2.220   0.637
  714TIP3    H1 2148   1.564   2.250   0.546
  714TIP3    H2 2149   1.486   2.153   0.633
  715TIP3   OH2 2150   3.476   4.706   0.125
  715TIP3    H1 2151   3.563   4.722   0.160
  715TIP3    H2 2152   3.443   4.792   0.101
  716TIP3   OH2 2153   2.379   0.336   4.514
  716TIP3    H1 2154   2.313   0.405   4.512
  716TIP3    H2 2155   2.362   0.290   4.596
  717TIP3   OH2 2156   2.191   2.574   1.491
  717TIP3    H1 2157   2.231   2.501   1.539
  717TIP3    H2 2158   2.126   2.610   1.551
  718TIP3   OH2 2159   2.176   1.726   1.860
  718TIP3    H1 2160   2.246   1.778   1.822
  718TIP3    H2 2161   2.220   1.674   1.928
  719TIP3   OH2 2162   5.970   0.729   0.307
  719TIP3    H1 2163   5.945   0.706   0.397
  719TIP3    H2 2164   6.064   0.712   0.303
  720TIP3   OH2 2165   3.675   3.833   1.805
  720TIP3    H1 2166   3.642   3.815   1.893
  720TIP3    H2 2167   3.764   3.797   1.806
  721TIP3   OH2 2168   2.594   3.356   2.240
  721TIP3    H1 2169   2.573   3.355   2.333
  721TIP3    H2 2170   2.509   3.342   2.197
  722TIP3   OH2 2171   5.979   3.934   0.630
  722TIP3    H1 2172   6.065   3.915   0.591
  722TIP3    H2 2173   5.934   3.988   0.564
  723TIP3   OH2 2174   4.914   2.473   2.667
  723TIP3    H1 2175   4.992   2.527   2.677
  723TIP3    H2 2176   4.934   2.414   2.595
  724TIP3   OH2 2177   1.554   4.760   1.485
  724TIP3    H1 2178   1.537   4.724   1.399
  724TIP3    H2 2179   1.645   4.740   1.503
  725TIP3   OH2 2180   4.840   1.751   0.429
  725TIP3    H1 2181   4.931   1.764   0.455
  725TIP3    H2 2182   4.832   1.797   0.346
  726TIP3   OH2 2183   0.118   0.567   1.987
  726TIP3    H1 2184   0.175   0.526   2.052
  726TIP3    H2 2185   0.033   0.525   2.000
  727TIP3   OH2 2186   4.586   5.271   1.091
  727TIP3    H1 2187   4.658   5.209   1.083
  727TIP3    H2 2188   4.546   5.251   1.175
  728TIP3   OH2 2189   0.612   1.533   2.934
  728TIP3    H1 2190   0.665   1.456   2.913
  728TIP3    H2 2191   0.615   1.587   2.855
  729TIP3   OH2 2192   2.088   5.496   1.005
  729TIP3    H1 2193   2.051   5.584   0.993
  729TIP3    H2 2194   2.131   5.477   0.922
  730TIP3   OH2 2195   2.565   0.723   4.686
  730TIP3    H1 2196   2.550   0.760   4.599
  730TIP3    H2 2197   2.654   0.748   4.708
  731TIP3   OH2 2198   2.761   3.375   1.003
  731TIP3    H1 2199   2.790   3.301   0.950
  731TIP3    H2 2200   2.668   3.357   1.020
  732TIP3   OH2 2201   0.284  -0.012   4.275
  732TIP3    H1 2202   0.244   0.038   4.204
  732TIP3    H2 2203   0.246  -0.100   4.267
  733TIP3   OH2 2204   4.163   4.631   3.015
  733TIP3    H1 2205   4.148   4.625   2.920
  733TIP3    H2 2206   4.095   4.691   3.046
  734TIP3   OH2 2207   1.314   3.247   5.038
  734TIP3    H1 2208   1.296   3.181   5.105
  734TIP3    H2 2209   1.302   3.201   4.955
  735TIP3   OH2 2210   0.265   4.033   2.483
  735TIP3    H1 2211   0.172   4.042   2.461
  735TIP3    H2 2212   0.267   3.976   2.559
  736TIP3   OH2 2213   0.513   3.736   2.551
  736TIP3    H1 2214   0.503   3.648   2.589
  736TIP3    H2 2215   0.458   3.792   2.605
  737TIP3   OH2 2216   6.176   2.944   0.815
  737TIP3    H1 2217   6.205   2.919   0.728
  737TIP3    H2 2218   6.143   3.033   0.805
  738TIP3   OH2 2219   4.239   0.752   0.333
  738TIP3    H1 2220   4.247   0.845   0.355
  738TIP3    H2 2221   4.321   0.730   0.290
  739TIP3   OH2 2222   2.683   2.890   1.439
  739TIP3    H1 2223   2.771   2.857   1.419
  739TIP3    H2 2224   2.633   2.812   1.463
  740TIP3   OH2 2225   0.953   0.300   2.547
  740TIP3    H1 2226   0.962   0.272   2.456
  740TIP3    H2 2227   0.898   0.378   2.543
  741TIP3   OH2 2228   1.272   5.556   2.268
  741TIP3    H1 2229   1.246   5.532   2.357
  741TIP3    H2 2230   1.280   5.472   2.222
  742TIP3   OH2 2231   0.827   5.829   5.015
  742TIP3    H1 2232   0.795   5.840   5.104
  742TIP3    H2 2233   0.750   5.847   4.960
  743TIP3   OH2 2234   2.031   5.294   4.675
  743TIP3    H1 2235   2.002   5.276   4.586
  743TIP3    H2 2236   2.110   5.346   4.665
  744TIP3   OH2 2237   4.985   4.342   2.014
  744TIP3    H1 2238   4.986   4.427   2.060
  744TIP3    H2 2239   4.991   4.278   2.085
  745TIP3   OH2 2240   2.271   4.707   1.780
  745TIP3    H1 2241   2.179   4.728   1.796
  745TIP3    H2 2242   2.293   4.755   1.700
  746TIP3   OH2 2243   5.185   1.818   0.939
  746TIP3    H1 2244   5.157   1.832   1.030
  746TIP3    H2 2245   5.129   1.746   0.908
  747TIP3   OH2 2246   4.531   1.239   1.960
  747TIP3    H1 2247   4.470   1.267   2.029
  747TIP3    H2 2248   4.618   1.255   1.998
  748TIP3   OH2 2249   2.024   0.182   1.403
  748TIP3    H1 2250   2.099   0.129   1.432
  748TIP3    H2 2251   2.063   0.253   1.352
  749TIP3   OH2 2252   3.940   4.324   3.088
  749TIP3    H1 2253   3.975   4.370   3.011
  749TIP3    H2 2254   3.852   4.360   3.099
  750TIP3   OH2 2255   5.221   0.138   0.567
  750TIP3    H1 2256   5.212   0.233   0.571
  750TIP3    H2 2257   5.316   0.124   0.559
  751TIP3   OH2 2258   6.357   4.627   2.602
  751TIP3    H1 2259   6.285   4.633   2.539
  751TIP3    H2 2260   6.392   4.539   2.589
  752TIP3   OH2 2261   2.360   4.800   1.545
  752TIP3    H1 2262   2.290   4.776   1.484
  752TIP3    H2 2263   2.435   4.818   1.488
  753TIP3   OH2 2264   3.119   1.443   0.324
  753TIP3    H1 2265   3.129   1.358   0.367
  753TIP3    H2 2266   3.208   1.469   0.301
  754TIP3   OH2 2267   4.856   5.463   4.933
  754TIP3    H1 2268   4.866   5.527   4.862
  754TIP3    H2 2269   4.761   5.455   4.944
  755TIP3   OH2 2270   4.867   2.196   3.583
  755TIP3    H1 2271   4.800   2.147   3.535
  755TIP3    H2 2272   4.936   2.132   3.600
  756TIP3   OH2 2273   3.910   2.344   2.448
  756TIP3    H1 2274   3.934   2.253   2.426
  756TIP3    H2 2275   3.830   2.336   2.499
  757TIP3   OH2 2276   2.027   2.059   0.984
  757TIP3    H1 2277   2.003   2.050   1.077
  757TIP3    H2 2278   1.945   2.048   0.937
  758TIP3   OH2 2279   4.924   5.297   3.642
  758TIP3    H1 2280   4.866   5.251   3.581
  758TIP3    H2 2281   4.869   5.318   3.717
  759TIP3   OH2 2282   0.471   5.931   3.558
  759TIP3    H1 2283   0.440   5.887   3.479
  759TIP3    H2 2284   0.394   5.933   3.616
  760TIP3   OH2 2285   2.003   2.832   3.991
  760TIP3    H1 2286   2.050   2.750   4.000
  760TIP3    H2 2287   1.935   2.829   4.059
  761TIP3   OH2 2288   0.237   1.377   1.246
  761TIP3    H1 2289   0.275   1.340   1.166
  761TIP3    H2 2290   0.299   1.354   1.315
  762TIP3   OH2 2291   1.996   1.089   2.590
  762TIP3    H1 2292   1.967   1.046   2.510
  762TIP3    H2 2293   2.070   1.036   2.620
  763TIP3   OH2 2294   1.139   3.987   3.500
  763TIP3    H1 2295   1.112   3.994   3.409
  763TIP3    H2 2296   1.101   3.905   3.530
  764TIP3   OH2 2297   0.807   3.014   4.588
  764TIP3    H1 2298   0.754   2.947   4.545
  764TIP3    H2 2299   0.878   2.965   4.629
  765TIP3   OH2 2300   6.108   5.117   1.595
  765TIP3    H1 2301   6.036   5.060   1.622
  765TIP3    H2 2302   6.074   5.164   1.519
  766TIP3   OH2 2303   6.250   3.227   2.692
  766TIP3    H1 2304   6.283   3.183   2.613
  766TIP3    H2 2305   6.186   3.166   2.728
  767TIP3   OH2 2306   5.844   0.864   2.075
  767TIP3    H1 2307   5.920   0.871   2.133
  767TIP3    H2 2308   5.819   0.772   2.079
  768TIP3   OH2 2309   0.745   2.336   2.791
  768TIP3    H1 2310   0.834   2.344   2.825
  768TIP3    H2 2311   0.741   2.399   2.719
  769TIP3   OH2 2312   2.019   1.387   0.183
  769TIP3    H1 2313   1.965   1.367   0.259
  769TIP3    H2 2314   1.965   1.361   0.108
  770TIP3   OH2 2315   5.512   4.474   3.703
  770TIP3    H1 2316   5.533   4.490   3.611
  770TIP3    H2 2317   5.530   4.381   3.716
  771TIP3   OH2 2318   3.919   5.958   0.050
  771TIP3    H1 2319   3.955   5.896  -0.013
  771TIP3    H2 2320   3.995   6.007   0.082
  772TIP3   OH2 2321   5.794   4.617   4.044
  772TIP3    H1 2322   5.724   4.614   4.109
  772TIP3    H2 2323   5.800   4.527   4.011
  773TIP3   OH2 2324   5.305   3.510   4.015
  773TIP3    H1 2325   5.222   3.491   4.059
  773TIP3    H2 2326   5.321   3.433   3.960
  774TIP3   OH2 2327   0.484   3.467   3.696
  774TIP3    H1 2328   0.518   3.480   3.785
  774TIP3    H2 2329   0.527   3.387   3.665
  775TIP3   OH2 2330   2.859   0.094   3.841
  775TIP3    H1 2331   2.929   0.044   3.798
  775TIP3    H2 2332   2.882   0.092   3.934
  776TIP3   OH2 2333   3.096   3.253   4.042
  776TIP3    H1 2334   3.155   3.209   3.982
  776TIP3    H2 2335   3.150   3.277   4.117
  777TIP3   OH2 2336   1.349   4.634   4.283
  777TIP3    H1 2337   1.314   4.723   4.290
  777TIP3    H2 2338   1.307   4.586   4.354
  778TIP3   OH2 2339   1.032   0.470   0.189
  778TIP3    H1 2340   1.028   0.537   0.122
  778TIP3    H2 2341   1.004   0.514   0.269
  779TIP3   OH2 2342   0.154   2.324   5.053
  779TIP3    H1 2343   0.093   2.330   4.980
  779TIP3    H2 2344   0.111   2.264   5.115
  780TIP3   OH2 2345   1.792   0.716   3.377
  780TIP3    H1 2346   1.718   0.656   3.365
  780TIP3    H2 2347   1.811   0.711   3.471
  781TIP3   OH2 2348   2.426   5.491   4.701
  781TIP3    H1 2349   2.377   5.428   4.649
  781TIP3    H2 2350   2.517   5.478   4.674
  782TIP3   OH2 2351   0.186   5.141   2.977
  782TIP3    H1 2352   0.216   5.120   2.888
  782TIP3    H2 2353   0.100   5.182   2.964
  783TIP3   OH2 2354   1.479   5.942   3.078
  783TIP3    H1 2355   1.417   5.961   3.008
  783TIP3    H2 2356   1.519   5.859   3.053
  784TIP3   OH2 2357   6.098   3.608   0.438
  784TIP3    H1 2358   6.091   3.695   0.399
  784TIP3    H2 2359   6.009   3.585   0.463
  785TIP3   OH2 2360   5.216   2.468   0.344
  785TIP3    H1 2361   5.133   2.472   0.391
  785TIP3    H2 2362   5.262   2.394   0.384
  786TIP3   OH2 2363   1.872   4.289   0.090
  786TIP3    H1 2364   1.840   4.304   0.179
  786TIP3    H2 2365   1.794   4.265   0.040
  787TIP3   OH2 2366   1.013   4.394   4.780
  787TIP3    H1 2367   0.966   4.404   4.697
  787TIP3    H2 2368   0.951   4.350   4.837
  788TIP3   OH2 2369   0.779   2.571   2.999
  788TIP3    H1 2370   0.726   2.598   2.924
  788TIP3    H2 2371   0.865   2.611   2.984
  789TIP3   OH2 2372   1.935   3.103   0.865
  789TIP3    H1 2373   1.905   3.194   0.858
  789TIP3    H2 2374   2.030   3.110   0.869
  790TIP3   OH2 2375   4.169   4.855   3.627
  790TIP3    H1 2376   4.084   4.884   3.661
  790TIP3    H2 2377   4.167   4.880   3.535
  791TIP3   OH2 2378   0.497   0.894   2.958
  791TIP3    H1 2379   0.516   0.806   2.992
  791TIP3    H2 2380   0.553   0.901   2.880
  792TIP3   OH2 2381   4.801   4.133   2.708
  792TIP3    H1 2382   4.837   4.078   2.778
  792TIP3    H2 2383   4.710   4.105   2.699
  793TIP3   OH2 2384   5.560   0.508   3.462
  793TIP3    H1 2385   5.518   0.430   3.426
  793TIP3    H2 2386   5.515   0.523   3.545
  794TIP3   OH2 2387   4.651   4.821   1.753
  794TIP3    H1 2388   4.571   4.772   1.772
  794TIP3    H2 2389   4.713   4.794   1.821
  795TIP3   OH2 2390   2.945   1.873   1.164
  795TIP3    H1 2391   3.021   1.838   1.117
  795TIP3    H2 2392   2.910   1.942   1.106
  796TIP3   OH2 2393   4.979   3.992   2.883
  796TIP3    H1 2394   4.968   3.960   2.972
  796TIP3    H2 2395   5.071   4.020   2.879
  797TIP3   OH2 2396   1.452   4.223   4.107
  797TIP3    H1 2397   1.404   4.183   4.179
  797TIP3    H2 2398   1.488   4.149   4.058
  798TIP3   OH2 2399   0.522   0.486   4.843
  798TIP3    H1 2400   0.553   0.474   4.754
  798TIP3    H2 2401   0.595   0.526   4.889
  799TIP3   OH2 2402   5.965   2.240   3.576
  799TIP3    H1 2403   5.884   2.263   3.623
  799TIP3    H2 2404   6.011   2.323   3.566
  800TIP3   OH2 2405   5.514   3.156   0.574
  800TIP3    H1 2406   5.423   3.127   0.587
  800TIP3    H2 2407   5.562   3.075   0.554
  801TIP3   OH2 2408   1.328   4.198   2.093
  801TIP3    H1 2409   1.332   4.291   2.118
  801TIP3    H2 2410   1.400   4.188   2.030
  802TIP3   OH2 2411   1.976   2.494   2.022
  802TIP3    H1 2412   2.003   2.482   1.931
  802TIP3    H2 2413   2.045   2.453   2.074
  803TIP3   OH2 2414   3.691   5.757   3.239
  803TIP3    H1 2415   3.692   5.753   3.144
  803TIP3    H2 2416   3.633   5.831   3.259
  804TIP3   OH2 2417   2.668   3.463   0.466
  804TIP3    H1 2418   2.572   3.454   0.473
  804TIP3    H2 2419   2.681   3.549   0.426
  805TIP3   OH2 2420   5.508   5.874   1.070
  805TIP3    H1 2421   5.504   5.914   0.983
  805TIP3    H2 2422   5.601   5.875   1.092
  806TIP3   OH2 2423   3.397   1.428   0.188
  806TIP3    H1 2424   3.436   1.477   0.261
  806TIP3    H2 2425   3.426   1.474   0.110
  807TIP3   OH2 2426   4.541   0.953   3.121
  807TIP3    H1 2427   4.492   0.951   3.039
  807TIP3    H2 2428   4.548   1.046   3.143
  808TIP3   OH2 2429   1.042   2.410   0.569
  808TIP3    H1 2430   1.138   2.414   0.573
  808TIP3    H2 2431   1.020   2.322   0.596
  809TIP3   OH2 2432   1.648   4.907   3.123
  809TIP3    H1 2433   1.728   4.853   3.118
  809TIP3    H2 2434   1.648   4.957   3.041
  810TIP3   OH2 2435   2.694   5.123   0.712
  810TIP3    H1 2436   2.627   5.099   0.776
  810TIP3    H2 2437   2.777   5.100   0.755
  811TIP3   OH2 2438   5.115   5.753   2.165
  811TIP3    H1 2439   5.146   5.740   2.075
  811TIP3    H2 2440   5.066   5.673   2.186
  812TIP3   OH2 2441   0.145   1.964   3.830
  812TIP3    H1 2442   0.216   2.000   3.883
  812TIP3    H2 2443   0.126   2.032   3.766
  813TIP3   OH2 2444   4.115   2.738   4.457
  813TIP3    H1 2445   4.044   2.680   4.430
  813TIP3    H2 2446   4.077   2.826   4.450
  814TIP3   OH2 2447   0.656   2.976   2.888
  814TIP3    H1 2448   0.744   2.998   2.920
  814TIP3    H2 2449   0.637   3.044   2.822
  815TIP3   OH2 2450   3.486   5.002   3.394
  815TIP3    H1 2451   3.463   5.090   3.424
  815TIP3    H2 2452   3.547   4.969   3.459
  816TIP3   OH2 2453   0.582   5.429   3.813
  816TIP3    H1 2454   0.644   5.478   3.868
  816TIP3    H2 2455   0.633   5.404   3.737
  817TIP3   OH2 2456   4.377   0.940   0.035
  817TIP3    H1 2457   4.355   0.969   0.124
  817TIP3    H2 2458   4.320   0.991  -0.022
  818TIP3   OH2 2459   5.713   4.726   2.792
  818TIP3    H1 2460   5.793   4.676   2.783
  818TIP3    H2 2461   5.711   4.752   2.884
  819TIP3   OH2 2462   2.785   4.124   0.839
  819TIP3    H1 2463   2.741   4.124   0.754
  819TIP3    H2 2464   2.769   4.211   0.875
  820TIP3   OH2 2465   0.303   2.441   3.086
  820TIP3    H1 2466   0.325   2.473   3.174
  820TIP3    H2 2467   0.382   2.395   3.057
  821TIP3   OH2 2468   1.400   3.250   1.793
  821TIP3    H1 2469   1.402   3.312   1.865
  821TIP3    H2 2470   1.443   3.295   1.721
  822TIP3   OH2 2471   2.154   0.833   1.146
  822TIP3    H1 2472   2.207   0.804   1.220
  822TIP3    H2 2473   2.113   0.914   1.177
  823TIP3   OH2 2474   2.843   1.643   3.334
  823TIP3    H1 2475   2.896   1.563   3.340
  823TIP3    H2 2476   2.753   1.612   3.337
  824TIP3   OH2 2477   0.361   0.269   1.079
  824TIP3    H1 2478   0.402   0.247   1.162
  824TIP3    H2 2479   0.281   0.216   1.077
  825TIP3   OH2 2480   0.252   0.055   3.664
  825TIP3    H1 2481   0.167   0.019   3.640
  825TIP3    H2 2482   0.312   0.025   3.595
  826TIP3   OH2 2483   0.385   4.012   4.590
  826TIP3    H1 2484   0.290   4.022   4.591
  826TIP3    H2 2485   0.399   3.917   4.602
  827TIP3   OH2 2486   2.969   3.149   1.232
  827TIP3    H1 2487   2.876   3.160   1.210
  827TIP3    H2 2488   2.969   3.125   1.325
  828TIP3   OH2 2489   2.746   3.243   2.583
  828TIP3    H1 2490   2.682   3.310   2.561
  828TIP3    H2 2491   2.764   3.257   2.676
  829TIP3   OH2 2492   5.018   1.166   4.163
  829TIP3    H1 2493   5.018   1.112   4.242
  829TIP3    H2 2494   5.089   1.130   4.109
  830TIP3   OH2 2495   2.710   2.990   2.899
  830TIP3    H1 2496   2.749   2.910   2.934
  830TIP3    H2 2497   2.772   3.059   2.922
  831TIP3   OH2 2498   0.532   3.762   4.969
  831TIP3    H1 2499   0.540   3.667   4.956
  831TIP3    H2 2500   0.583   3.779   5.049
  832TIP3   OH2 2501   1.809   5.769   3.915
  832TIP3    H1 2502   1.745   5.769   3.987
  832TIP3    H2 2503   1.817   5.861   3.891
  833TIP3   OH2 2504   1.294   1.040   2.730
  833TIP3    H1 2505   1.305   0.946   2.743
  833TIP3    H2 2506   1.201   1.051   2.707
  834TIP3   OH2 2507   6.215   3.985   0.479
  834TIP3    H1 2508   6.246   3.945   0.398
  834TIP3    H2 2509   6.254   4.073   0.479
  835TIP3   OH2 2510   5.929   3.838   3.313
  835TIP3    H1 2511   5.947   3.753   3.273
  835TIP3    H2 2512   5.841   3.861   3.281
  836TIP3   OH2 2513   4.180   0.224   2.612
  836TIP3    H1 2514   4.105   0.269   2.572
  836TIP3    H2 2515   4.147   0.191   2.695
  837TIP3   OH2 2516   3.770   0.884   4.503
  837TIP3    H1 2517   3.735   0.824   4.569
  837TIP3    H2 2518   3.843   0.927   4.546
  838TIP3   OH2 2519   1.411   1.077   3.187
  838TIP3    H1 2520   1.475   1.095   3.256
  838TIP3    H2 2521   1.381   1.164   3.160
  839TIP3   OH2 2522   6.221   3.007   2.004
  839TIP3    H1 2523   6.290   3.055   2.049
  839TIP3    H2 2524   6.266   2.938   1.956
  840TIP3   OH2 2525   5.657   5.126   5.168
  840TIP3    H1 2526   5.711   5.203   5.151
  840TIP3    H2 2527   5.649   5.082   5.084
  841TIP3   OH2 2528   1.923   3.657   1.471
  841TIP3    H1 2529   1.986   3.596   1.433
  841TIP3    H2 2530   1.855   3.602   1.510
  842TIP3   OH2 2531   2.318   3.054   1.480
  842TIP3    H1 2532   2.225   3.075   1.468
  842TIP3    H2 2533   2.326   2.965   1.446
  843TIP3   OH2 2534   5.812   1.311   2.992
  843TIP3    H1 2535   5.755   1.380   3.026
  843TIP3    H2 2536   5.778   1.294   2.904
  844TIP3   OH2 2537   6.018   4.977   1.357
  844TIP3    H1 2538   5.924   4.990   1.370
  844TIP3    H2 2539   6.042   4.909   1.420
  845TIP3   OH2 2540   3.607   4.656   1.179
  845TIP3    H1 2541   3.537   4.679   1.240
  845TIP3    H2 2542   3.564   4.601   1.113
  846TIP3   OH2 2543   4.925   3.559   0.773
  846TIP3    H1 2544   4.839   3.596   0.796
  846TIP3    H2 2545   4.980   3.636   0.756
  847TIP3   OH2 2546   3.047   5.844   2.448
  847TIP3    H1 2547   2.998   5.816   2.524
  847TIP3    H2 2548   3.063   5.763   2.399
  848TIP3   OH2 2549   1.614   5.193   4.213
  848TIP3    H1 2550   1.574   5.150   4.138
  848TIP3    H2 2551   1.590   5.139   4.288
  849TIP3   OH2 2552   1.631   0.051   3.210
  849TIP3    H1 2553   1.603   0.130   3.164
  849TIP3    H2 2554   1.675  -0.001   3.143
  850TIP3   OH2 2555   1.706   3.052   1.926
  850TIP3    H1 2556   1.647   3.016   1.992
  850TIP3    H2 2557   1.658   3.045   1.844
  851TIP3   OH2 2558   4.656   0.071   2.226
  851TIP3    H1 2559   4.596   0.055   2.153
  851TIP3    H2 2560   4.602   0.059   2.304
  852TIP3   OH2 2561   0.354   0.766   0.830
  852TIP3    H1 2562   0.338   0.709   0.904
  852TIP3    H2 2563   0.447   0.757   0.812
  853TIP3   OH2 2564   0.236   2.345   1.100
  853TIP3    H1 2565   0.144   2.323   1.086
  853TIP3    H2 2566   0.243   2.438   1.077
  854TIP3   OH2 2567   1.707   2.697   0.908
  854TIP3    H1 2568   1.771   2.755   0.868
  854TIP3    H2 2569   1.646   2.677   0.837
  855TIP3   OH2 2570   1.583   1.901   5.072
  855TIP3    H1 2571   1.525   1.893   5.147
  855TIP3    H2 2572   1.633   1.819   5.072
  856TIP3   OH2 2573   4.848   0.335   2.399
  856TIP3    H1 2574   4.929   0.335   2.450
  856TIP3    H2 2575   4.786   0.385   2.452
  857TIP3   OH2 2576   6.136   3.861   3.935
  857TIP3    H1 2577   6.168   3.948   3.957
  857TIP3    H2 2578   6.045   3.861   3.964
  858TIP3   OH2 2579   6.277   5.151   3.730
  858TIP3    H1 2580   6.211   5.215   3.704
  858TIP3    H2 2581   6.249   5.122   3.817
  859TIP3   OH2 2582   1.770   5.691   0.963
  859TIP3    H1 2583   1.721   5.691   0.881
  859TIP3    H2 2584   1.704   5.682   1.031
  860TIP3   OH2 2585   1.827   3.374   3.176
  860TIP3    H1 2586   1.771   3.354   3.250
  860TIP3    H2 2587   1.789   3.326   3.103
  861TIP3   OH2 2588   4.038   5.135   1.170
  861TIP3    H1 2589   4.028   5.229   1.151
  861TIP3    H2 2590   4.117   5.130   1.223
  862TIP3   OH2 2591   4.532   1.616   1.049
  862TIP3    H1 2592   4.461   1.670   1.016
  862TIP3    H2 2593   4.602   1.625   0.985
  863TIP3   OH2 2594   4.843   0.577   1.889
  863TIP3    H1 2595   4.791   0.648   1.851
  863TIP3    H2 2596   4.809   0.568   1.978
  864TIP3   OH2 2597   4.681   2.642   3.311
  864TIP3    H1 2598   4.775   2.659   3.300
  864TIP3    H2 2599   4.672   2.623   3.405
  865TIP3   OH2 2600   3.510   5.456   3.807
  865TIP3    H1 2601   3.512   5.454   3.712
  865TIP3    H2 2602   3.468   5.374   3.832
  866TIP3   OH2 2603   4.461   4.877   1.354
  866TIP3    H1 2604   4.518   4.935   1.403
  866TIP3    H2 2605   4.520   4.827   1.297
  867TIP3   OH2 2606   3.012   5.973   2.204
  867TIP3    H1 2607   2.922   5.949   2.182
  867TIP3    H2 2608   3.019   5.959   2.298
  868TIP3   OH2 2609   1.257   1.382   4.352
  868TIP3    H1 2610   1.325   1.370   4.286
  868TIP3    H2 2611   1.214   1.296   4.357
  869TIP3   OH2 2612   0.564   1.727   2.340
  869TIP3    H1 2613   0.514   1.809   2.332
  869TIP3    H2 2614   0.655   1.754   2.330
  870TIP3   OH2 2615   2.121   2.065   4.016
  870TIP3    H1 2616   2.054   2.109   3.965
  870TIP3    H2 2617   2.073   2.001   4.069
  871TIP3   OH2 2618   3.915   4.422   4.297
  871TIP3    H1 2619   3.825   4.450   4.277
  871TIP3    H2 2620   3.929   4.346   4.239
  872TIP3   OH2 2621   1.857   0.097   2.193
  872TIP3    H1 2622   1.814   0.044   2.260
  872TIP3    H2 2623   1.896   0.170   2.241
  873TIP3   OH2 2624   5.797   2.623   3.054
  873TIP3    H1 2625   5.815   2.538   3.013
  873TIP3    H2 2626   5.883   2.663   3.066
  874TIP3   OH2 2627   4.727   3.759   2.991
  874TIP3    H1 2628   4.764   3.708   3.062
  874TIP3    H2 2629   4.706   3.844   3.031
  875TIP3   OH2 2630   3.195   2.448   4.241
  875TIP3    H1 2631   3.169   2.437   4.333
  875TIP3    H2 2632   3.117   2.481   4.198
  876TIP3   OH2 2633   3.893   5.960   5.127
  876TIP3    H1 2634   3.929   5.922   5.046
  876TIP3    H2 2635   3.799   5.948   5.119
  877TIP3   OH2 2636   5.066   0.982   0.762
  877TIP3    H1 2637   5.009   0.908   0.739
  877TIP3    H2 2638   5.027   1.057   0.717
  878TIP3   OH2 2639   4.034   2.973   4.766
  878TIP3    H1 2640   4.026   3.031   4.690
  878TIP3    H2 2641   3.950   2.981   4.811
  879TIP3   OH2 2642   5.875   2.751   4.722
  879TIP3    H1 2643   5.786   2.721   4.703
  879TIP3    H2 2644   5.932   2.687   4.679
  880TIP3   OH2 2645   1.720   5.581   0.059
  880TIP3    H1 2646   1.677   5.590  -0.026
  880TIP3    H2 2647   1.725   5.487   0.074
  881TIP3   OH2 2648   3.790   1.345   2.992
  881TIP3    H1 2649   3.806   1.437   2.972
  881TIP3    H2 2650   3.851   1.297   2.937
  882TIP3   OH2 2651   5.666   1.702   3.282
  882TIP3    H1 2652   5.618   1.696   3.364
  882TIP3    H2 2653   5.745   1.648   3.296
  883TIP3   OH2 2654   6.222   2.461   2.463
  883TIP3    H1 2655   6.262   2.432   2.381
  883TIP3    H2 2656   6.247   2.395   2.527
  884TIP3   OH2 2657   5.796   4.744   0.517
  884TIP3    H1 2658   5.815   4.701   0.600
  884TIP3    H2 2659   5.733   4.686   0.474
  885TIP3   OH2 2660   4.137   2.751   1.844
  885TIP3    H1 2661   4.169   2.678   1.792
  885TIP3    H2 2662   4.199   2.822   1.827
  886TIP3   OH2 2663   0.182   3.923   0.770
  886TIP3    H1 2664   0.258   3.881   0.729
  886TIP3    H2 2665   0.109   3.903   0.711
  887TIP3   OH2 2666   3.028   2.348   0.396
  887TIP3    H1 2667   3.030   2.443   0.389
  887TIP3    H2 2668   3.000   2.318   0.309
  888TIP3   OH2 2669   5.810   0.735   4.828
  888TIP3    H1 2670   5.861   0.654   4.825
  888TIP3    H2 2671   5.875   0.804   4.840
  889TIP3   OH2 2672   5.451   5.019   2.083
  889TIP3    H1 2673   5.516   5.088   2.074
  889TIP3    H2 2674   5.497   4.938   2.061
  890TIP3   OH2 2675   3.256   1.743   0.427
  890TIP3    H1 2676   3.288   1.832   0.411
  890TIP3    H2 2677   3.334   1.688   0.419
  891TIP3   OH2 2678   4.620   5.333   0.598
  891TIP3    H1 2679   4.578   5.379   0.525
  891TIP3    H2 2680   4.637   5.245   0.565
  892TIP3   OH2 2681   0.435   1.721   1.991
  892TIP3    H1 2682   0.438   1.731   1.896
  892TIP3    H2 2683   0.526   1.708   2.017
  893TIP3   OH2 2684   4.717   1.386   1.159
  893TIP3    H1 2685   4.811   1.373   1.150
  893TIP3    H2 2686   4.695   1.454   1.096
  894TIP3   OH2 2687   3.704   1.800   0.478
  894TIP3    H1 2688   3.763   1.869   0.445
  894TIP3    H2 2689   3.758   1.722   0.481
  895TIP3   OH2 2690   2.174   5.548   0.489
  895TIP3    H1 2691   2.090   5.593   0.499
  895TIP3    H2 2692   2.203   5.533   0.579
  896TIP3   OH2 2693   6.297   3.552   0.162
  896TIP3    H1 2694   6.218   3.500   0.148
  896TIP3    H2 2695   6.328   3.574   0.074
  897TIP3   OH2 2696   0.515   5.474   2.166
  897TIP3    H1 2697   0.578   5.403   2.155
  897TIP3    H2 2698   0.569   5.553   2.171
  898TIP3   OH2 2699   4.506   1.611   4.597
  898TIP3    H1 2700   4.511   1.707   4.588
  898TIP3    H2 2701   4.487   1.597   4.690
  899TIP3   OH2 2702   5.125   0.579   0.853
  899TIP3    H1 2703   5.110   0.632   0.775
  899TIP3    H2 2704   5.205   0.531   0.834
  900TIP3   OH2 2705   3.245   5.385   0.150
  900TIP3    H1 2706   3.224   5.371   0.243
  900TIP3    H2 2707   3.222   5.302   0.108
  901TIP3   OH2 2708   4.221   3.679   0.767
  901TIP3    H1 2709   4.282   3.729   0.712
  901TIP3    H2 2710   4.188   3.610   0.709
  902TIP3   OH2 2711   2.156   0.886   2.687
  902TIP3    H1 2712   2.214   0.875   2.763
  902TIP3    H2 2713   2.131   0.797   2.663
  903TIP3   OH2 2714   0.939   4.096   4.257
  903TIP3    H1 2715   1.033   4.081   4.246
  903TIP3    H2 2716   0.932   4.191   4.268
  904TIP3   OH2 2717   5.453   1.872   4.366
  904TIP3    H1 2718   5.397   1.949   4.353
  904TIP3    H2 2719   5.435   1.816   4.291
  905TIP3   OH2 2720   1.769   1.124   1.648
  905TIP3    H1 2721   1.759   1.118   1.743
  905TIP3    H2 2722   1.784   1.217   1.631
  906TIP3   OH2 2723   5.519   5.865   3.091
  906TIP3    H1 2724   5.485   5.775   3.090
  906TIP3    H2 2725   5.493   5.901   3.006
  907TIP3   OH2 2726   0.656   4.447   1.052
  907TIP3    H1 2727   0.745   4.446   1.017
  907TIP3    H2 2728   0.601   4.423   0.977
  908TIP3   OH2 2729   1.251   1.408   3.980
  908TIP3    H1 2730   1.210   1.396   3.894
  908TIP3    H2 2731   1.189   1.369   4.042
  909TIP3   OH2 2732   5.097   2.459   4.274
  909TIP3    H1 2733   5.046   2.514   4.215
  909TIP3    H2 2734   5.072   2.370   4.251
  910TIP3   OH2 2735   2.070   3.830   3.954
  910TIP3    H1 2736   1.997   3.865   3.903
  910TIP3    H2 2737   2.031   3.803   4.037
  911TIP3   OH2 2738   4.806   4.957   4.614
  911TIP3    H1 2739   4.832   4.990   4.701
  911TIP3    H2 2740   4.888   4.937   4.570
  912TIP3   OH2 2741   0.492   5.540   1.540
  912TIP3    H1 2742   0.470   5.618   1.593
  912TIP3    H2 2743   0.465   5.563   1.451
  913TIP3   OH2 2744   5.554   2.055   1.803
  913TIP3    H1 2745   5.487   2.017   1.861
  913TIP3    H2 2746   5.504   2.107   1.740
  914TIP3   OH2 2747   4.028   5.109   0.224
  914TIP3    H1 2748   3.988   5.123   0.138
  914TIP3    H2 2749   4.109   5.159   0.221
  915TIP3   OH2 2750   0.045   1.978   4.183
  915TIP3    H1 2751   0.015   1.918   4.115
  915TIP3    H2 2752   0.129   1.943   4.211
  916TIP3   OH2 2753   3.306   2.506   1.710
  916TIP3    H1 2754   3.227   2.453   1.704
  916TIP3    H2 2755   3.326   2.532   1.620
  917TIP3   OH2 2756   3.996   0.839   0.698
  917TIP3    H1 2757   4.089   0.861   0.695
  917TIP3    H2 2758   3.958   0.888   0.625
  918TIP3   OH2 2759   4.249   3.484   1.269
  918TIP3    H1 2760   4.222   3.468   1.178
  918TIP3    H2 2761   4.343   3.501   1.263
  919TIP3   OH2 2762   1.417   4.951   2.623
  919TIP3    H1 2763   1.465   5.024   2.584
  919TIP3    H2 2764   1.484   4.885   2.641
  920TIP3   OH2 2765   1.214   4.806   2.429
  920TIP3    H1 2766   1.190   4.892   2.394
  920TIP3    H2 2767   1.308   4.798   2.412
  921TIP3   OH2 2768   1.969   4.811   1.001
  921TIP3    H1 2769   1.992   4.901   1.025
  921TIP3    H2 2770   1.877   4.803   1.025
  922TIP3   OH2 2771   0.101   3.943   1.764
  922TIP3    H1 2772   0.077   4.010   1.829
  922TIP3    H2 2773   0.062   3.863   1.797
  923TIP3   OH2 2774   4.441   2.936   4.283
  923TIP3    H1 2775   4.467   2.969   4.198
  923TIP3    H2 2776   4.422   2.843   4.268
  924TIP3   OH2 2777   2.203   3.645   3.782
  924TIP3    H1 2778   2.174   3.681   3.698
  924TIP3    H2 2779   2.173   3.708   3.847
  925TIP3   OH2 2780   3.159   4.892   0.220
  925TIP3    H1 2781   3.158   4.810   0.171
  925TIP3    H2 2782   3.146   4.960   0.155
  926TIP3   OH2 2783   1.814   4.899   0.747
  926TIP3    H1 2784   1.795   4.825   0.806
  926TIP3    H2 2785   1.894   4.937   0.783
  927TIP3   OH2 2786   2.312   0.943   5.142
  927TIP3    H1 2787   2.354   0.886   5.078
  927TIP3    H2 2788   2.234   0.975   5.098
  928TIP3   OH2 2789   1.007   2.230   3.665
  928TIP3    H1 2790   1.062   2.234   3.586
  928TIP3    H2 2791   1.069   2.213   3.736
  929TIP3   OH2 2792   0.213   5.861   0.515
  929TIP3    H1 2793   0.119   5.845   0.505
  929TIP3    H2 2794   0.234   5.825   0.601
  930TIP3   OH2 2795   1.755   3.502   4.113
  930TIP3    H1 2796   1.693   3.533   4.178
  930TIP3    H2 2797   1.706   3.438   4.061
  931TIP3   OH2 2798   1.152   4.580   1.124
  931TIP3    H1 2799   1.154   4.495   1.169
  931TIP3    H2 2800   1.184   4.561   1.035
  932TIP3   OH2 2801   1.904   3.379   0.831
  932TIP3    H1 2802   1.928   3.439   0.902
  932TIP3    H2 2803   1.835   3.425   0.783
  933TIP3   OH2 2804   3.614   5.071   1.732
  933TIP3    H1 2805   3.656   5.137   1.786
  933TIP3    H2 2806   3.667   4.992   1.743
  934TIP3   OH2 2807   5.751   2.919   3.989
  934TIP3    H1 2808   5.742   2.965   3.905
  934TIP3    H2 2809   5.814   2.850   3.972
  935TIP3   OH2 2810   3.764   1.960   3.259
  935TIP3    H1 2811   3.713   1.971   3.179
  935TIP3    H2 2812   3.785   1.867   3.262
  936TIP3   OH2 2813   0.464   0.363   3.725
  936TIP3    H1 2814   0.492   0.446   3.765
  936TIP3    H2 2815   0.467   0.300   3.797
  937TIP3   OH2 2816   3.689   3.220   2.454
  937TIP3    H1 2817   3.684   3.266   2.370
  937TIP3    H2 2818   3.732   3.137   2.433
  938TIP3   OH2 2819   4.944   4.517   1.664
  938TIP3    H1 2820   4.958   4.565   1.582
  938TIP3    H2 2821   4.947   4.425   1.638
  939TIP3   OH2 2822   6.255   5.302   2.250
  939TIP3    H1 2823   6.249   5.207   2.237
  939TIP3    H2 2824   6.196   5.339   2.184
  940TIP3   OH2 2825   5.071   1.133   1.693
  940TIP3    H1 2826   5.132   1.094   1.631
  940TIP3    H2 2827   5.015   1.061   1.721
  941TIP3   OH2 2828   4.140   1.596   1.359
  941TIP3    H1 2829   4.159   1.504   1.338
  941TIP3    H2 2830   4.209   1.645   1.313
  942TIP3   OH2 2831   5.729   4.399   0.193
  942TIP3    H1 2832   5.695   4.351   0.118
  942TIP3    H2 2833   5.823   4.406   0.176
  943TIP3   OH2 2834   4.036   1.968   3.201
  943TIP3    H1 2835   3.986   1.975   3.282
  943TIP3    H2 2836   4.113   1.916   3.224
  944TIP3   OH2 2837   0.499   2.284   0.813
  944TIP3    H1 2838   0.410   2.302   0.783
  944TIP3    H2 2839   0.537   2.229   0.745
  945TIP3   OH2 2840   3.635   0.299   2.976
  945TIP3    H1 2841   3.582   0.254   2.910
  945TIP3    H2 2842   3.603   0.389   2.974
  946TIP3   OH2 2843   6.086   2.799   2.323
  946TIP3    H1 2844   6.018   2.846   2.371
  946TIP3    H2 2845   6.156   2.784   2.387
  947TIP3   OH2 2846   2.906   3.737   2.758
  947TIP3    H1 2847   2.930   3.708   2.846
  947TIP3    H2 2848   2.978   3.793   2.731
  948TIP3   OH2 2849   5.291   0.116   2.479
  948TIP3    H1 2850   5.277   0.137   2.387
  948TIP3    H2 2851   5.239   0.037   2.494
  949TIP3   OH2 2852   0.570   4.898   3.528
  949TIP3    H1 2853   0.544   4.958   3.459
  949TIP3    H2 2854   0.588   4.815   3.483
  950TIP3   OH2 2855   0.504   2.515   0.238
  950TIP3    H1 2856   0.432   2.495   0.178
  950TIP3    H2 2857   0.575   2.546   0.182
  951TIP3   OH2 2858   5.066   5.591   1.619
  951TIP3    H1 2859   5.104   5.667   1.661
  951TIP3    H2 2860   5.028   5.624   1.538
  952TIP3   OH2 2861   1.720   2.547   3.195
  952TIP3    H1 2862   1.700   2.489   3.267
  952TIP3    H2 2863   1.791   2.503   3.147
  953TIP3   OH2 2864   1.029   4.194   0.896
  953TIP3    H1 2865   1.018   4.117   0.952
  953TIP3    H2 2866   1.120   4.191   0.867
  954TIP3   OH2 2867   2.387   4.898   0.788
  954TIP3    H1 2868   2.341   4.840   0.850
  954TIP3    H2 2869   2.478   4.868   0.790
  955TIP3   OH2 2870   3.909   5.926   4.426
  955TIP3    H1 2871   3.846   5.960   4.490
  955TIP3    H2 2872   3.884   5.967   4.343
  956TIP3   OH2 2873   4.674   0.589   2.115
  956TIP3    H1 2874   4.753   0.641   2.121
  956TIP3    H2 2875   4.609   0.647   2.074
  957TIP3   OH2 2876   5.110   3.337   1.832
  957TIP3    H1 2877   5.168   3.370   1.901
  957TIP3    H2 2878   5.030   3.389   1.843
  958TIP3   OH2 2879   0.323   1.315   0.566
  958TIP3    H1 2880   0.285   1.393   0.607
  958TIP3    H2 2881   0.293   1.242   0.622
  959TIP3   OH2 2882   2.632   1.355   3.624
  959TIP3    H1 2883   2.618   1.289   3.693
  959TIP3    H2 2884   2.719   1.391   3.643
  960TIP3   OH2 2885   0.374   1.651   1.236
  960TIP3    H1 2886   0.416   1.565   1.231
  960TIP3    H2 2887   0.309   1.642   1.306
  961TIP3   OH2 2888   1.356   3.334   0.294
  961TIP3    H1 2889   1.306   3.266   0.248
  961TIP3    H2 2890   1.290   3.393   0.328
  962TIP3   OH2 2891   4.982   3.088   3.142
  962TIP3    H1 2892   4.955   3.023   3.207
  962TIP3    H2 2893   5.070   3.059   3.115
  963TIP3   OH2 2894   0.594   5.516   3.106
  963TIP3    H1 2895   0.549   5.431   3.104
  963TIP3    H2 2896   0.571   5.557   3.023
  964TIP3   OH2 2897   0.358   4.564   2.841
  964TIP3    H1 2898   0.369   4.651   2.880
  964TIP3    H2 2899   0.439   4.551   2.791
  965TIP3   OH2 2900   1.943   0.962   2.349
  965TIP3    H1 2901   1.902   0.889   2.302
  965TIP3    H2 2902   1.942   1.034   2.286
  966TIP3   OH2 2903   2.768   0.204   3.538
  966TIP3    H1 2904   2.727   0.125   3.573
  966TIP3    H2 2905   2.856   0.175   3.512
  967TIP3   OH2 2906   4.277   2.491   1.707
  967TIP3    H1 2907   4.332   2.438   1.649
  967TIP3    H2 2908   4.188   2.480   1.673
  968TIP3   OH2 2909   1.458   1.398   4.688
  968TIP3    H1 2910   1.448   1.303   4.693
  968TIP3    H2 2911   1.379   1.428   4.643
  969TIP3   OH2 2912   0.240   1.017   0.278
  969TIP3    H1 2913   0.294   0.990   0.353
  969TIP3    H2 2914   0.161   0.963   0.285
  970TIP3   OH2 2915   1.275   2.046   4.430
  970TIP3    H1 2916   1.259   2.042   4.525
  970TIP3    H2 2917   1.356   1.996   4.418
  971TIP3   OH2 2918   4.489   4.737   2.623
  971TIP3    H1 2919   4.527   4.753   2.537
  971TIP3    H2 2920   4.395   4.755   2.611
  972TIP3   OH2 2921   5.405   0.084   0.055
  972TIP3    H1 2922   5.487   0.116   0.093
  972TIP3    H2 2923   5.368   0.028   0.123
  973TIP3   OH2 2924   5.947   1.458   3.537
  973TIP3    H1 2925   5.893   1.456   3.616
  973TIP3    H2 2926   5.946   1.368   3.505
  974TIP3   OH2 2927   1.652   5.410   4.387
  974TIP3    H1 2928   1.604   5.353   4.327
  974TIP3    H2 2929   1.607   5.494   4.382
  975TIP3   OH2 2930   4.589   5.083   0.815
  975TIP3    H1 2931   4.502   5.104   0.850
  975TIP3    H2 2932   4.599   5.142   0.741
  976TIP3   OH2 2933   5.699   0.446   2.555
  976TIP3    H1 2934   5.604   0.441   2.556
  976TIP3    H2 2935   5.725   0.420   2.644
  977TIP3   OH2 2936   3.468   0.858   2.628
  977TIP3    H1 2937   3.450   0.815   2.711
  977TIP3    H2 2938   3.547   0.815   2.595
  978TIP3   OH2 2939   6.125   3.484   2.877
  978TIP3    H1 2940   6.209   3.439   2.874
  978TIP3    H2 2941   6.145   3.570   2.915
  979TIP3   OH2 2942   3.517   2.079   4.310
  979TIP3    H1 2943   3.493   1.986   4.316
  979TIP3    H2 2944   3.435   2.123   4.289
  980TIP3   OH2 2945   3.765   0.641   0.943
  980TIP3    H1 2946   3.860   0.631   0.935
  980TIP3    H2 2947   3.752   0.734   0.961
  981TIP3   OH2 2948   5.884   3.629   2.118
  981TIP3    H1 2949   5.811   3.578   2.154
  981TIP3    H2 2950   5.959   3.606   2.173
  982TIP3   OH2 2951   4.004   1.917   4.402
  982TIP3    H1 2952   4.069   1.986   4.413
  982TIP3    H2 2953   3.920   1.963   4.400
  983TIP3   OH2 2954   2.075   0.229   2.347
  983TIP3    H1 2955   2.136   0.269   2.408
  983TIP3    H2 2956   2.116   0.147   2.321
  984TIP3   OH2 2957   5.686   4.908   3.599
  984TIP3    H1 2958   5.698   4.847   3.671
  984TIP3    H2 2959   5.713   4.993   3.635
  985TIP3   OH2 2960   2.069   5.553   1.806
  985TIP3    H1 2961   2.122   5.612   1.752
  985TIP3    H2 2962   2.081   5.467   1.767
  986TIP3   OH2 2963   2.209   4.584   2.899
  986TIP3    H1 2964   2.219   4.596   2.805
  986TIP3    H2 2965   2.238   4.667   2.937
  987TIP3   OH2 2966   2.712   2.243   1.574
  987TIP3    H1 2967   2.668   2.165   1.538
  987TIP3    H2 2968   2.727   2.221   1.666
  988TIP3   OH2 2969   4.095   3.338   1.885
  988TIP3    H1 2970   4.104   3.395   1.809
  988TIP3    H2 2971   4.005   3.305   1.879
  989TIP3   OH2 2972   2.711   1.843   0.876
  989TIP3    H1 2973   2.714   1.792   0.795
  989TIP3    H2 2974   2.662   1.787   0.937
  990TIP3   OH2 2975   5.274   2.452   4.011
  990TIP3    H1 2976   5.185   2.483   4.025
  990TIP3    H2 2977   5.323   2.530   3.984
  991TIP3   OH2 2978   1.539   3.622   1.666
  991TIP3    H1 2979   1.543   3.714   1.640
  991TIP3    H2 2980   1.544   3.573   1.583
  992TIP3   OH2 2981   0.493   4.481   2.262
  992TIP3    H1 2982   0.430   4.459   2.194
  992TIP3    H2 2983   0.543   4.401   2.276
  993TIP3   OH2 2984   5.386   5.187   2.434
  993TIP3    H1 2985   5.368   5.093   2.433
  993TIP3    H2 2986   5.356   5.217   2.520
  994TIP3   OH2 2987   3.855   5.363   0.450
  994TIP3    H1 2988   3.803   5.305   0.504
  994TIP3    H2 2989   3.945   5.353   0.482
  995TIP3   OH2 2990   0.823   0.877   2.019
  995TIP3    H1 2991   0.793   0.912   2.103
  995TIP3    H2 2992   0.747   0.884   1.961
  996TIP3   OH2 2993   4.793   0.924   4.015
  996TIP3    H1 2994   4.739   0.885   4.084
  996TIP3    H2 2995   4.834   1.000   4.057
  997TIP3   OH2 2996   5.169   0.763   1.655
  997TIP3    H1 2997   5.186   0.776   1.562
  997TIP3    H2 2998   5.254   0.737   1.691
  998TIP3   OH2 2999   1.664   2.010   1.709
  998TIP3    H1 3000   1.726   1.938   1.703
  998TIP3    H2 3001   1.713   2.087   1.681
  999TIP3   OH2 3002   0.253   4.530   3.975
  999TIP3    H1 3003   0.212   4.557   4.057
  999TIP3    H2 3004   0.192   4.466   3.937
 1000TIP3   OH2 3005   4.041   0.220   0.244
 1000TIP3    H1 3006   4.056   0.190   0.154
 1000TIP3    H2 3007   4.072   0.310   0.245
 1001TIP3   OH2 3008   5.976   5.495   3.910
 1001TIP3    H1 3009   5.897   5.440   3.909
 1001TIP3    H2 3010   5.994   5.512   3.817
 1002TIP3   OH2 3011   3.615   1.971   0.218
 1002TIP3    H1 3012   3.594   2.041   0.156
 1002TIP3    H2 3013   3.700   1.937   0.187
 1003TIP3   OH2 3014   5.534   2.022   3.933
 1003TIP3    H1 3015   5.564   2.072   4.009
 1003TIP3    H2 3016   5.441   2.009   3.948
 1004TIP3   OH2 3017   0.873   0.007   4.965
 1004TIP3    H1 3018   0.880  -0.035   4.879
 1004TIP3    H2 3019   0.954   0.057   4.974
 1005TIP3   OH2 3020   1.135   3.662   3.220
 1005TIP3    H1 3021   1.171   3.577   3.195
 1005TIP3    H2 3022   1.197   3.726   3.186
 1006TIP3   OH2 3023   3.210   5.664   3.298
 1006TIP3    H1 3024   3.198   5.581   3.251
 1006TIP3    H2 3025   3.121   5.698   3.309
 1007TIP3   OH2 3026   3.987   2.546   1.293
 1007TIP3    H1 3027   3.998   2.456   1.321
 1007TIP3    H2 3028   4.066   2.591   1.325
 1008TIP3   OH2 3029   3.621   4.659   2.781
 1008TIP3    H1 3030   3.529   4.675   2.803
 1008TIP3    H2 3031   3.663   4.642   2.865
 1009TIP3   OH2 3032   4.036   0.197   3.627
 1009TIP3    H1 3033   4.105   0.162   3.569
 1009TIP3    H2 3034   3.974   0.239   3.568
 1010TIP3   OH2 3035   4.431   1.637   2.270
 1010TIP3    H1 3036   4.348   1.632   2.316
 1010TIP3    H2 3037   4.457   1.729   2.278
 1011TIP3   OH2 3038   2.773   5.787   3.150
 1011TIP3    H1 3039   2.840   5.850   3.176
 1011TIP3    H2 3040   2.700   5.840   3.120
 1012TIP3   OH2 3041   4.457   5.079   1.783
 1012TIP3    H1 3042   4.423   4.989   1.787
 1012TIP3    H2 3043   4.539   5.071   1.735
 1013TIP3   OH2 3044   1.234   4.598   2.602
 1013TIP3    H1 3045   1.255   4.656   2.675
 1013TIP3    H2 3046   1.192   4.655   2.537
 1014TIP3   OH2 3047   2.987   0.711   3.941
 1014TIP3    H1 3048   3.044   0.642   3.974
 1014TIP3    H2 3049   3.005   0.787   3.998
 1015TIP3   OH2 3050   1.804   4.780   3.675
 1015TIP3    H1 3051   1.830   4.698   3.633
 1015TIP3    H2 3052   1.709   4.784   3.664
 1016TIP3   OH2 3053   2.299   3.780   2.208
 1016TIP3    H1 3054   2.279   3.714   2.276
 1016TIP3    H2 3055   2.250   3.750   2.132
 1017TIP3   OH2 3056   0.888   1.999   0.894
 1017TIP3    H1 3057   0.914   1.973   0.983
 1017TIP3    H2 3058   0.965   1.980   0.840
 1018TIP3   OH2 3059   5.024   5.174   2.918
 1018TIP3    H1 3060   4.975   5.156   2.999
 1018TIP3    H2 3061   5.109   5.206   2.949
 1019TIP3   OH2 3062   1.913   1.445   3.921
 1019TIP3    H1 3063   2.006   1.439   3.897
 1019TIP3    H2 3064   1.875   1.500   3.853
 1020TIP3   OH2 3065   2.959   2.792   3.918
 1020TIP3    H1 3066   2.894   2.858   3.942
 1020TIP3    H2 3067   2.917   2.743   3.847
 1021TIP3   OH2 3068   5.918   2.686   0.337
 1021TIP3    H1 3069   5.878   2.754   0.392
 1021TIP3    H2 3070   5.999   2.726   0.306
 1022TIP3   OH2 3071   4.480   2.877   4.555
 1022TIP3    H1 3072   4.436   2.909   4.477
 1022TIP3    H2 3073   4.416   2.820   4.597
 1023TIP3   OH2 3074   2.081   2.108   2.990
 1023TIP3    H1 3075   2.110   2.086   3.079
 1023TIP3    H2 3076   2.076   2.024   2.945
 1024TIP3   OH2 3077   5.472   3.717   4.100
 1024TIP3    H1 3078   5.425   3.797   4.122
 1024TIP3    H2 3079   5.409   3.664   4.051
 1025TIP3   OH2 3080   6.154   4.361   3.139
 1025TIP3    H1 3081   6.082   4.303   3.114
 1025TIP3    H2 3082   6.144   4.371   3.234
 1026TIP3   OH2 3083   4.258   0.756   0.848
 1026TIP3    H1 3084   4.286   0.684   0.904
 1026TIP3    H2 3085   4.330   0.770   0.787
 1027TIP3   OH2 3086   3.716   1.025   3.507
 1027TIP3    H1 3087   3.668   1.073   3.440
 1027TIP3    H2 3088   3.650   1.001   3.571
 1028TIP3   OH2 3089   0.786   2.429   3.235
 1028TIP3    H1 3090   0.798   2.498   3.170
 1028TIP3    H2 3091   0.771   2.350   3.183
 1029TIP3   OH2 3092   5.216   4.562   0.362
 1029TIP3    H1 3093   5.163   4.514   0.299
 1029TIP3    H2 3094   5.296   4.584   0.315
 1030TIP3   OH2 3095   5.876   3.219   0.047
 1030TIP3    H1 3096   5.809   3.235  -0.020
 1030TIP3    H2 3097   5.891   3.305   0.086
 1031TIP3   OH2 3098   0.415   5.637   3.339
 1031TIP3    H1 3099   0.371   5.663   3.258
 1031TIP3    H2 3100   0.360   5.567   3.375
 1032TIP3   OH2 3101   1.219   2.617   3.848
 1032TIP3    H1 3102   1.212   2.708   3.877
 1032TIP3    H2 3103   1.191   2.566   3.925
 1033TIP3   OH2 3104   6.039   4.174   3.709
 1033TIP3    H1 3105   6.102   4.176   3.637
 1033TIP3    H2 3106   5.962   4.221   3.675
 1034TIP3   OH2 3107   5.966   4.832   1.026
 1034TIP3    H1 3108   5.933   4.762   1.081
 1034TIP3    H2 3109   6.051   4.854   1.064
 1035TIP3   OH2 3110   3.336   0.857   2.109
 1035TIP3    H1 3111   3.254   0.890   2.146
 1035TIP3    H2 3112   3.312   0.828   2.021
 1036TIP3   OH2 3113   6.127   5.180   4.306
 1036TIP3    H1 3114   6.178   5.232   4.244
 1036TIP3    H2 3115   6.183   5.104   4.326
 1037TIP3   OH2 3116   0.926   2.307   0.111
 1037TIP3    H1 3117   0.904   2.217   0.132
 1037TIP3    H2 3118   1.002   2.301   0.053
 1038TIP3   OH2 3119   4.897   0.290   0.990
 1038TIP3    H1 3120   4.871   0.382   0.982
 1038TIP3    H2 3121   4.873   0.251   0.906
 1039TIP3   OH2 3122   0.705   5.157   3.223
 1039TIP3    H1 3123   0.699   5.239   3.175
 1039TIP3    H2 3124   0.636   5.163   3.289
 1040TIP3   OH2 3125   4.431   3.740   0.934
 1040TIP3    H1 3126   4.373   3.678   0.890
 1040TIP3    H2 3127   4.490   3.770   0.866
 1041TIP3   OH2 3128   5.104   1.843   0.191
 1041TIP3    H1 3129   5.126   1.770   0.134
 1041TIP3    H2 3130   5.169   1.841   0.261
 1042TIP3   OH2 3131   5.851   1.507   3.235
 1042TIP3    H1 3132   5.893   1.528   3.151
 1042TIP3    H2 3133   5.898   1.430   3.266
 1043TIP3   OH2 3134   0.402   5.232   2.779
 1043TIP3    H1 3135   0.422   5.155   2.725
 1043TIP3    H2 3136   0.367   5.296   2.717
 1044TIP3   OH2 3137   1.021   0.054   1.207
 1044TIP3    H1 3138   0.974  -0.007   1.263
 1044TIP3    H2 3139   1.113   0.029   1.215
 1045TIP3   OH2 3140   3.369   1.263   0.613
 1045TIP3    H1 3141   3.286   1.280   0.569
 1045TIP3    H2 3142   3.373   1.329   0.683
 1046TIP3   OH2 3143   6.298   1.122   3.916
 1046TIP3    H1 3144   6.266   1.211   3.931
 1046TIP3    H2 3145   6.238   1.066   3.966
 1047TIP3   OH2 3146   5.541   4.920   3.058
 1047TIP3    H1 3147   5.479   4.938   2.988
 1047TIP3    H2 3148   5.517   4.982   3.127
 1048TIP3   OH2 3149   3.534   4.145   0.941
 1048TIP3    H1 3150   3.498   4.124   1.027
 1048TIP3    H2 3151   3.617   4.099   0.937
 1049TIP3   OH2 3152   5.939   2.713   3.424
 1049TIP3    H1 3153   5.956   2.635   3.477
 1049TIP3    H2 3154   5.856   2.695   3.380
 1050TIP3   OH2 3155   1.639   5.804   4.669
 1050TIP3    H1 3156   1.551   5.808   4.708
 1050TIP3    H2 3157   1.660   5.711   4.668
 1051TIP3   OH2 3158   6.326   0.967   2.742
 1051TIP3    H1 3159   6.384   0.934   2.673
 1051TIP3    H2 3160   6.355   0.921   2.821
 1052TIP3   OH2 3161   4.325   5.330   4.784
 1052TIP3    H1 3162   4.341   5.411   4.833
 1052TIP3    H2 3163   4.239   5.301   4.814
 1053TIP3   OH2 3164   4.261   5.427   1.356
 1053TIP3    H1 3165   4.343   5.429   1.405
 1053TIP3    H2 3166   4.267   5.347   1.303
 1054TIP3   OH2 3167   0.708   0.974   4.341
 1054TIP3    H1 3168   0.762   1.007   4.413
 1054TIP3    H2 3169   0.754   0.897   4.310
 1055TIP3   OH2 3170   0.847   1.708   3.999
 1055TIP3    H1 3171   0.939   1.715   3.973
 1055TIP3    H2 3172   0.834   1.615   4.016
 1056TIP3   OH2 3173   0.861   1.423   1.770
 1056TIP3    H1 3174   0.916   1.491   1.731
 1056TIP3    H2 3175   0.846   1.360   1.700
 1057TIP3   OH2 3176   2.607   2.165   0.463
 1057TIP3    H1 3177   2.528   2.112   0.458
 1057TIP3    H2 3178   2.673   2.108   0.503
 1058TIP3   OH2 3179   1.129   5.211   1.489
 1058TIP3    H1 3180   1.065   5.207   1.418
 1058TIP3    H2 3181   1.170   5.124   1.489
 1059TIP3   OH2 3182   1.591   1.238   1.164
 1059TIP3    H1 3183   1.533   1.313   1.153
 1059TIP3    H2 3184   1.542   1.177   1.219
 1060TIP3   OH2 3185   6.174   1.182   2.646
 1060TIP3    H1 3186   6.261   1.144   2.664
 1060TIP3    H2 3187   6.189   1.243   2.574
 1061TIP3   OH2 3188   4.917   0.675   2.158
 1061TIP3    H1 3189   4.990   0.614   2.150
 1061TIP3    H2 3190   4.888   0.666   2.249
 1062TIP3   OH2 3191   1.157   3.652   2.613
 1062TIP3    H1 3192   1.236   3.683   2.658
 1062TIP3    H2 3193   1.189   3.581   2.557
 1063TIP3   OH2 3194   2.219   2.716   3.633
 1063TIP3    H1 3195   2.207   2.810   3.628
 1063TIP3    H2 3196   2.245   2.700   3.724
 1064TIP3   OH2 3197   5.199   2.768   2.550
 1064TIP3    H1 3198   5.142   2.802   2.481
 1064TIP3    H2 3199   5.265   2.716   2.504
 1065TIP3   OH2 3200   0.644   2.724   1.444
 1065TIP3    H1 3201   0.716   2.787   1.451
 1065TIP3    H2 3202   0.579   2.769   1.390
 1066TIP3   OH2 3203   3.432   4.896   1.936
 1066TIP3    H1 3204   3.514   4.847   1.932
 1066TIP3    H2 3205   3.451   4.978   1.892
 1067TIP3   OH2 3206   5.786   2.052   3.028
 1067TIP3    H1 3207   5.708   2.000   3.049
 1067TIP3    H2 3208   5.801   2.037   2.935
 1068TIP3   OH2 3209   0.968   0.214   1.623
 1068TIP3    H1 3210   0.950   0.279   1.691
 1068TIP3    H2 3211   1.033   0.256   1.567
 1069TIP3   OH2 3212   2.906   5.293   2.087
 1069TIP3    H1 3213   2.926   5.218   2.031
 1069TIP3    H2 3214   2.812   5.289   2.100
 1070TIP3   OH2 3215   3.170   0.755   4.905
 1070TIP3    H1 3216   3.153   0.838   4.949
 1070TIP3    H2 3217   3.153   0.689   4.972
 1071TIP3   OH2 3218   6.006   0.303   0.554
 1071TIP3    H1 3219   6.019   0.287   0.647
 1071TIP3    H2 3220   6.037   0.224   0.511
 1072TIP3   OH2 3221   0.306   2.541   0.025
 1072TIP3    H1 3222   0.254   2.563  -0.052
 1072TIP3    H2 3223   0.264   2.587   0.097
 1073TIP3   OH2 3224   5.044   4.873   4.494
 1073TIP3    H1 3225   5.063   4.792   4.446
 1073TIP3    H2 3226   5.127   4.895   4.538
 1074TIP3   OH2 3227   3.961   5.482   2.252
 1074TIP3    H1 3228   3.949   5.543   2.179
 1074TIP3    H2 3229   4.026   5.524   2.309
 1075TIP3   OH2 3230   1.543   2.767   1.141
 1075TIP3    H1 3231   1.626   2.791   1.101
 1075TIP3    H2 3232   1.496   2.720   1.072
 1076TIP3   OH2 3233   2.031   0.528   4.725
 1076TIP3    H1 3234   2.015   0.450   4.779
 1076TIP3    H2 3235   2.114   0.563   4.758
 1077TIP3   OH2 3236   3.841   3.723   0.138
 1077TIP3    H1 3237   3.804   3.784   0.075
 1077TIP3    H2 3238   3.839   3.638   0.094
 1078TIP3   OH2 3239   0.981   0.763   5.041
 1078TIP3    H1 3240   0.938   0.677   5.042
 1078TIP3    H2 3241   0.973   0.795   5.130
 1079TIP3   OH2 3242   0.785   3.201   1.598
 1079TIP3    H1 3243   0.876   3.210   1.570
 1079TIP3    H2 3244   0.777   3.261   1.672
 1080TIP3   OH2 3245   2.619   1.599   3.503
 1080TIP3    H1 3246   2.589   1.597   3.412
 1080TIP3    H2 3247   2.586   1.517   3.540
 1081TIP3   OH2 3248   5.185   4.381   1.833
 1081TIP3    H1 3249   5.154   4.439   1.764
 1081TIP3    H2 3250   5.109   4.369   1.890
 1082TIP3   OH2 3251   2.300   0.263   3.303
 1082TIP3    H1 3252   2.389   0.234   3.284
 1082TIP3    H2 3253   2.260   0.188   3.347
 1083TIP3   OH2 3254   5.254   4.793   2.987
 1083TIP3    H1 3255   5.293   4.720   3.034
 1083TIP3    H2 3256   5.200   4.753   2.919
 1084TIP3   OH2 3257   4.907   4.079   4.564
 1084TIP3    H1 3258   4.911   4.002   4.621
 1084TIP3    H2 3259   4.845   4.138   4.609
 1085TIP3   OH2 3260   2.439   5.587   3.994
 1085TIP3    H1 3261   2.425   5.496   3.967
 1085TIP3    H2 3262   2.492   5.581   4.073
 1086TIP3   OH2 3263   5.223   0.303   4.022
 1086TIP3    H1 3264   5.177   0.229   4.061
 1086TIP3    H2 3265   5.300   0.314   4.076
 1087TIP3   OH2 3266   3.838   5.353   1.205
 1087TIP3    H1 3267   3.859   5.318   1.118
 1087TIP3    H2 3268   3.766   5.414   1.189
 1088TIP3   OH2 3269   2.058   4.830   3.729
 1088TIP3    H1 3270   1.963   4.823   3.723
 1088TIP3    H2 3271   2.091   4.769   3.663
 1089TIP3   OH2 3272   3.889   4.152   4.511
 1089TIP3    H1 3273   3.825   4.163   4.582
 1089TIP3    H2 3274   3.974   4.165   4.553
 1090TIP3   OH2 3275   5.947   1.369   0.201
 1090TIP3    H1 3276   5.905   1.430   0.141
 1090TIP3    H2 3277   5.955   1.287   0.151
 1091TIP3   OH2 3278   3.451   4.770   4.000
 1091TIP3    H1 3279   3.389   4.751   3.930
 1091TIP3    H2 3280   3.489   4.854   3.975
 1092TIP3   OH2 3281   4.710   0.563   3.887
 1092TIP3    H1 3282   4.787   0.512   3.912
 1092TIP3    H2 3283   4.697   0.624   3.959
 1093TIP3   OH2 3284   6.310   0.309   1.456
 1093TIP3    H1 3285   6.401   0.328   1.434
 1093TIP3    H2 3286   6.304   0.329   1.550
 1094TIP3   OH2 3287   2.745   1.001   2.993
 1094TIP3    H1 3288   2.798   1.063   2.943
 1094TIP3    H2 3289   2.741   0.923   2.937
 1095TIP3   OH2 3290   2.674   4.477   4.520
 1095TIP3    H1 3291   2.582   4.505   4.519
 1095TIP3    H2 3292   2.723   4.556   4.545
 1096TIP3   OH2 3293   2.742   5.769   4.610
 1096TIP3    H1 3294   2.661   5.734   4.645
 1096TIP3    H2 3295   2.811   5.726   4.659
 1097TIP3   OH2 3296   1.839   5.849   0.617
 1097TIP3    H1 3297   1.875   5.765   0.587
 1097TIP3    H2 3298   1.769   5.824   0.677
 1098TIP3   OH2 3299   0.771   4.336   5.058
 1098TIP3    H1 3300   0.702   4.283   5.099
 1098TIP3    H2 3301   0.761   4.319   4.964
 1099TIP3   OH2 3302   0.495   1.231   4.047
 1099TIP3    H1 3303   0.455   1.307   4.005
 1099TIP3    H2 3304   0.422   1.170   4.061
 1100TIP3   OH2 3305   5.725   5.221   1.192
 1100TIP3    H1 3306   5.723   5.153   1.124
 1100TIP3    H2 3307   5.817   5.249   1.196
 1101TIP3   OH2 3308   2.344   5.189   1.224
 1101TIP3    H1 3309   2.277   5.256   1.215
 1101TIP3    H2 3310   2.296   5.106   1.217
 1102TIP3   OH2 3311   6.127   4.461   4.746
 1102TIP3    H1 3312   6.035   4.440   4.730
 1102TIP3    H2 3313   6.150   4.522   4.676
 1103TIP3   OH2 3314   2.558   3.083   1.575
 1103TIP3    H1 3315   2.470   3.097   1.540
 1103TIP3    H2 3316   2.598   3.021   1.514
 1104TIP3   OH2 3317   0.597   0.241   2.877
 1104TIP3    H1 3318   0.626   0.271   2.964
 1104TIP3    H2 3319   0.674   0.200   2.839
 1105TIP3   OH2 3320   5.595   1.250   3.932
 1105TIP3    H1 3321   5.605   1.344   3.919
 1105TIP3    H2 3322   5.556   1.242   4.019
 1106TIP3   OH2 3323   1.317   0.698   4.581
 1106TIP3    H1 3324   1.341   0.705   4.488
 1106TIP3    H2 3325   1.293   0.606   4.592
 1107TIP3   OH2 3326   0.356   1.165   3.757
 1107TIP3    H1 3327   0.417   1.222   3.710
 1107TIP3    H2 3328   0.320   1.221   3.826
 1108TIP3   OH2 3329   4.590   2.410   2.105
 1108TIP3    H1 3330   4.641   2.475   2.056
 1108TIP3    H2 3331   4.506   2.407   2.059
 1109TIP3   OH2 3332   2.298   0.512   3.905
 1109TIP3    H1 3333   2.355   0.537   3.832
 1109TIP3    H2 3334   2.256   0.594   3.931
 1110TIP3   OH2 3335   0.955   4.929   4.872
 1110TIP3    H1 3336   0.894   4.958   4.940
 1110TIP3    H2 3337   0.946   4.833   4.872
 1111TIP3   OH2 3338   5.357   1.184   5.010
 1111TIP3    H1 3339   5.360   1.261   4.953
 1111TIP3    H2 3340   5.267   1.183   5.043
 1112TIP3   OH2 3341   2.821   3.495   1.286
 1112TIP3    H1 3342   2.760   3.430   1.319
 1112TIP3    H2 3343   2.878   3.515   1.361
 1113TIP3   OH2 3344   4.073   1.024   4.357
 1113TIP3    H1 3345   4.066   0.936   4.393
 1113TIP3    H2 3346   4.072   1.012   4.262
 1114TIP3   OH2 3347   0.162   4.204   3.620
 1114TIP3    H1 3348   0.118   4.185   3.537
 1114TIP3    H2 3349   0.164   4.120   3.665
 1115TIP3   OH2 3350   3.322   1.158   1.472
 1115TIP3    H1 3351   3.287   1.122   1.555
 1115TIP3    H2 3352   3.353   1.081   1.425
 1116TIP3   OH2 3353   4.728   1.177   1.752
 1116TIP3    H1 3354   4.744   1.086   1.725
 1116TIP3    H2 3355   4.736   1.175   1.847
 1117TIP3   OH2 3356   4.357   3.584   1.749
 1117TIP3    H1 3357   4.366   3.679   1.753
 1117TIP3    H2 3358   4.387   3.553   1.835
 1118TIP3   OH2 3359   0.943   2.985   3.504
 1118TIP3    H1 3360   0.917   3.037   3.428
 1118TIP3    H2 3361   0.968   2.900   3.467
 1119TIP3   OH2 3362   1.903   2.843   2.320
 1119TIP3    H1 3363   1.815   2.867   2.349
 1119TIP3    H2 3364   1.889   2.786   2.245
 1120TIP3   OH2 3365   5.075   3.859   4.644
 1120TIP3    H1 3366   5.153   3.914   4.655
 1120TIP3    H2 3367   5.095   3.807   4.566
 1121TIP3   OH2 3368   2.878   5.152   4.970
 1121TIP3    H1 3369   2.785   5.168   4.985
 1121TIP3    H2 3370   2.909   5.113   5.052
 1122TIP3   OH2 3371   1.780   3.949   4.155
 1122TIP3    H1 3372   1.836   3.872   4.162
 1122TIP3    H2 3373   1.696   3.922   4.193
 1123TIP3   OH2 3374   1.420   4.205   2.842
 1123TIP3    H1 3375   1.361   4.130   2.841
 1123TIP3    H2 3376   1.382   4.267   2.779
 1124TIP3   OH2 3377   1.364   2.056   0.971
 1124TIP3    H1 3378   1.376   2.129   1.032
 1124TIP3    H2 3379   1.436   1.996   0.990
 1125TIP3   OH2 3380   0.008   4.181   0.136
 1125TIP3    H1 3381   0.026   4.275   0.131
 1125TIP3    H2 3382   0.037   4.155   0.223
 1126TIP3   OH2 3383   0.767   1.947   4.565
 1126TIP3    H1 3384   0.772   1.971   4.473
 1126TIP3    H2 3385   0.678   1.912   4.576
 1127TIP3   OH2 3386   0.086   2.985   4.275
 1127TIP3    H1 3387   0.074   3.026   4.190
 1127TIP3    H2 3388   0.106   3.057   4.334
 1128TIP3   OH2 3389   3.139   4.705   2.809
 1128TIP3    H1 3390   3.124   4.718   2.902
 1128TIP3    H2 3391   3.090   4.775   2.766
 1129TIP3   OH2 3392   5.905   3.029   4.486
 1129TIP3    H1 3393   5.971   2.966   4.456
 1129TIP3    H2 3394   5.858   3.053   4.406
 1130TIP3   OH2 3395   2.186   0.882   4.814
 1130TIP3    H1 3396   2.263   0.934   4.833
 1130TIP3    H2 3397   2.121   0.946   4.783
 1131TIP3   OH2 3398   5.412   5.909   3.511
 1131TIP3    H1 3399   5.395   6.002   3.499
 1131TIP3    H2 3400   5.491   5.893   3.459
 1132TIP3   OH2 3401   3.444   0.517   2.109
 1132TIP3    H1 3402   3.429   0.505   2.016
 1132TIP3    H2 3403   3.406   0.439   2.150
 1133TIP3   OH2 3404   3.372   4.044   2.358
 1133TIP3    H1 3405   3.386   4.000   2.442
 1133TIP3    H2 3406   3.434   4.116   2.359
 1134TIP3   OH2 3407   2.992   2.638   2.403
 1134TIP3    H1 3408   3.058   2.605   2.342
 1134TIP3    H2 3409   3.022   2.726   2.426
 1135TIP3   OH2 3410   2.466   0.737   2.391
 1135TIP3    H1 3411   2.498   0.745   2.301
 1135TIP3    H2 3412   2.374   0.762   2.386
 1136TIP3   OH2 3413   2.183   5.330   2.461
 1136TIP3    H1 3414   2.277   5.347   2.463
 1136TIP3    H2 3415   2.145   5.405   2.508
 1137TIP3   OH2 3416   4.458   5.333   4.543
 1137TIP3    H1 3417   4.408   5.335   4.624
 1137TIP3    H2 3418   4.532   5.276   4.562
 1138TIP3   OH2 3419   4.329   3.224   1.091
 1138TIP3    H1 3420   4.239   3.249   1.070
 1138TIP3    H2 3421   4.339   3.136   1.054
 1139TIP3   OH2 3422   5.587   0.378   1.623
 1139TIP3    H1 3423   5.542   0.298   1.595
 1139TIP3    H2 3424   5.562   0.443   1.557
 1140TIP3   OH2 3425   2.065   0.985   3.813
 1140TIP3    H1 3426   2.125   0.957   3.883
 1140TIP3    H2 3427   1.985   1.009   3.860
 1141TIP3   OH2 3428   5.910   0.428   2.143
 1141TIP3    H1 3429   5.986   0.419   2.201
 1141TIP3    H2 3430   5.866   0.507   2.174
 1142TIP3   OH2 3431   3.933   5.602   2.873
 1142TIP3    H1 3432   4.000   5.667   2.895
 1142TIP3    H2 3433   3.887   5.640   2.798
 1143TIP3   OH2 3434   4.962   3.590   1.941
 1143TIP3    H1 3435   4.873   3.612   1.913
 1143TIP3    H2 3436   4.956   3.580   2.036
 1144TIP3   OH2 3437   3.232   4.265   3.813
 1144TIP3    H1 3438   3.293   4.331   3.845
 1144TIP3    H2 3439   3.197   4.301   3.732
 1145TIP3   OH2 3440   4.534   4.739   2.352
 1145TIP3    H1 3441   4.625   4.715   2.335
 1145TIP3    H2 3442   4.483   4.670   2.308
 1146TIP3   OH2 3443   5.913   5.373   4.199
 1146TIP3    H1 3444   5.881   5.364   4.289
 1146TIP3    H2 3445   6.008   5.369   4.206
 1147TIP3   OH2 3446   2.881   1.057   4.844
 1147TIP3    H1 3447   2.972   1.075   4.866
 1147TIP3    H2 3448   2.840   1.033   4.927
 1148TIP3   OH2 3449   0.997   1.433   4.446
 1148TIP3    H1 3450   1.090   1.438   4.425
 1148TIP3    H2 3451   0.991   1.367   4.515
 1149TIP3   OH2 3452   6.106   0.216   2.204
 1149TIP3    H1 3453   6.130   0.130   2.168
 1149TIP3    H2 3454   6.020   0.201   2.244
 1150TIP3   OH2 3455   4.151   1.889   3.597
 1150TIP3    H1 3456   4.226   1.896   3.537
 1150TIP3    H2 3457   4.125   1.979   3.614
 1151TIP3   OH2 3458   3.368   2.900   0.506
 1151TIP3    H1 3459   3.291   2.844   0.503
 1151TIP3    H2 3460   3.335   2.988   0.490
 1152TIP3   OH2 3461   2.455   5.955   4.692
 1152TIP3    H1 3462   2.392   5.884   4.680
 1152TIP3    H2 3463   2.409   6.017   4.750
 1153TIP3   OH2 3464   5.756   3.212   2.896
 1153TIP3    H1 3465   5.761   3.145   2.964
 1153TIP3    H2 3466   5.845   3.220   2.863
 1154TIP3   OH2 3467   2.591   4.070   1.521
 1154TIP3    H1 3468   2.626   3.988   1.487
 1154TIP3    H2 3469   2.662   4.106   1.575
 1155TIP3   OH2 3470   3.828   3.839   1.403
 1155TIP3    H1 3471   3.896   3.799   1.458
 1155TIP3    H2 3472   3.858   3.929   1.390
 1156TIP3   OH2 3473   6.291   2.279   1.033
 1156TIP3    H1 3474   6.275   2.310   1.122
 1156TIP3    H2 3475   6.240   2.338   0.978
 1157TIP3   OH2 3476   0.106   5.403   2.758
 1157TIP3    H1 3477   0.049   5.367   2.825
 1157TIP3    H2 3478   0.068   5.488   2.735
 1158TIP3   OH2 3479   1.189   5.407   3.413
 1158TIP3    H1 3480   1.120   5.446   3.359
 1158TIP3    H2 3481   1.270   5.424   3.366
 1159TIP3   OH2 3482   1.252   1.992   1.857
 1159TIP3    H1 3483   1.302   1.926   1.905
 1159TIP3    H2 3484   1.304   2.009   1.778
 1160TIP3   OH2 3485   2.661   2.213   3.574
 1160TIP3    H1 3486   2.705   2.131   3.595
 1160TIP3    H2 3487   2.620   2.197   3.489
 1161TIP3   OH2 3488   3.642   4.180   3.982
 1161TIP3    H1 3489   3.617   4.262   3.940
 1161TIP3    H2 3490   3.719   4.150   3.933
 1162TIP3   OH2 3491   5.619   0.160   0.168
 1162TIP3    H1 3492   5.659   0.239   0.205
 1162TIP3    H2 3493   5.693   0.101   0.153
 1163TIP3   OH2 3494   5.021   0.539   3.529
 1163TIP3    H1 3495   4.962   0.534   3.453
 1163TIP3    H2 3496   5.001   0.624   3.568
 1164TIP3   OH2 3497   5.476   3.218   1.406
 1164TIP3    H1 3498   5.391   3.176   1.417
 1164TIP3    H2 3499   5.489   3.269   1.486
 1165TIP3   OH2 3500   4.217   3.231   1.337
 1165TIP3    H1 3501   4.278   3.214   1.265
 1165TIP3    H2 3502   4.205   3.326   1.336
 1166TIP3   OH2 3503   5.570   4.019   2.658
 1166TIP3    H1 3504   5.499   4.051   2.713
 1166TIP3    H2 3505   5.649   4.034   2.710
 1167TIP3   OH2 3506   2.720   3.891   2.975
 1167TIP3    H1 3507   2.689   3.840   3.050
 1167TIP3    H2 3508   2.805   3.855   2.953
 1168TIP3   OH2 3509   0.288   1.205   0.095
 1168TIP3    H1 3510   0.255   1.136   0.151
 1168TIP3    H2 3511   0.211   1.240   0.050
 1169TIP3   OH2 3512   1.952   0.232   3.255
 1169TIP3    H1 3513   1.885   0.164   3.242
 1169TIP3    H2 3514   1.980   0.221   3.346
 1170TIP3   OH2 3515   4.642   0.510   0.636
 1170TIP3    H1 3516   4.593   0.551   0.707
 1170TIP3    H2 3517   4.699   0.579   0.603
 1171TIP3   OH2 3518   2.151   3.980   2.536
 1171TIP3    H1 3519   2.150   4.003   2.443
 1171TIP3    H2 3520   2.107   4.053   2.579
 1172TIP3   OH2 3521   2.210   2.457   3.177
 1172TIP3    H1 3522   2.284   2.503   3.216
 1172TIP3    H2 3523   2.137   2.517   3.187
 1173TIP3   OH2 3524   0.356   3.946   1.713
 1173TIP3    H1 3525   0.380   3.884   1.645
 1173TIP3    H2 3526   0.261   3.934   1.724
 1174TIP3   OH2 3527   0.906   0.242   0.419
 1174TIP3    H1 3528   0.978   0.279   0.470
 1174TIP3    H2 3529   0.828   0.264   0.470
 1175TIP3   OH2 3530   5.190   2.282   3.048
 1175TIP3    H1 3531   5.164   2.225   2.976
 1175TIP3    H2 3532   5.130   2.259   3.119
 1176TIP3   OH2 3533   0.219   1.121   4.049
 1176TIP3    H1 3534   0.138   1.165   4.074
 1176TIP3    H2 3535   0.196   1.068   3.974
 1177TIP3   OH2 3536   6.074   4.163   2.223
 1177TIP3    H1 3537   6.119   4.186   2.142
 1177TIP3    H2 3538   6.017   4.090   2.198
 1178TIP3   OH2 3539   5.022   5.496   2.142
 1178TIP3    H1 3540   4.988   5.407   2.126
 1178TIP3    H2 3541   5.041   5.530   2.055
 1179TIP3   OH2 3542   5.658   2.336   0.514
 1179TIP3    H1 3543   5.669   2.403   0.447
 1179TIP3    H2 3544   5.582   2.366   0.565
 1180TIP3   OH2 3545   2.116   1.990   3.668
 1180TIP3    H1 3546   2.201   1.989   3.713
 1180TIP3    H2 3547   2.062   2.050   3.720
 1181TIP3   OH2 3548   0.258   3.284   0.568
 1181TIP3    H1 3549   0.199   3.254   0.637
 1181TIP3    H2 3550   0.280   3.374   0.592
 1182TIP3   OH2 3551   0.369   3.701   1.220
 1182TIP3    H1 3552   0.461   3.720   1.207
 1182TIP3    H2 3553   0.324   3.749   1.151
 1183TIP3   OH2 3554   3.438   0.145   0.463
 1183TIP3    H1 3555   3.509   0.150   0.526
 1183TIP3    H2 3556   3.478   0.106   0.385
 1184TIP3   OH2 3557   4.866   3.254   2.295
 1184TIP3    H1 3558   4.895   3.164   2.279
 1184TIP3    H2 3559   4.785   3.262   2.243
 1185TIP3   OH2 3560   2.551   4.547   0.946
 1185TIP3    H1 3561   2.569   4.566   1.038
 1185TIP3    H2 3562   2.456   4.556   0.938
 1186TIP3   OH2 3563   2.730   5.155   3.138
 1186TIP3    H1 3564   2.642   5.192   3.138
 1186TIP3    H2 3565   2.718   5.064   3.166
 1187TIP3   OH2 3566   1.715   3.949   0.120
 1187TIP3    H1 3567   1.716   3.864   0.165
 1187TIP3    H2 3568   1.731   4.013   0.189
 1188TIP3   OH2 3569   3.871   1.583   0.429
 1188TIP3    H1 3570   3.869   1.507   0.486
 1188TIP3    H2 3571   3.899   1.549   0.344
 1189TIP3   OH2 3572   3.864   2.274   1.029
 1189TIP3    H1 3573   3.959   2.264   1.018
 1189TIP3    H2 3574   3.827   2.190   1.001
 1190TIP3   OH2 3575   4.590   0.333   1.915
 1190TIP3    H1 3576   4.498   0.308   1.904
 1190TIP3    H2 3577   4.620   0.352   1.827
 1191TIP3   OH2 3578   4.074   4.569   1.351
 1191TIP3    H1 3579   4.014   4.505   1.313
 1191TIP3    H2 3580   4.135   4.516   1.403
 1192TIP3   OH2 3581   3.660   1.430   0.665
 1192TIP3    H1 3582   3.574   1.448   0.701
 1192TIP3    H2 3583   3.642   1.377   0.587
 1193TIP3   OH2 3584   2.528   4.499   3.532
 1193TIP3    H1 3585   2.439   4.505   3.497
 1193TIP3    H2 3586   2.561   4.415   3.500
 1194TIP3   OH2 3587   1.109   1.070   2.170
 1194TIP3    H1 3588   1.161   1.043   2.246
 1194TIP3    H2 3589   1.161   1.043   2.094
 1195TIP3   OH2 3590   4.555   0.059   0.803
 1195TIP3    H1 3591   4.555   0.097   0.715
 1195TIP3    H2 3592   4.630   0.000   0.803
 1196TIP3   OH2 3593   4.312   1.401   4.947
 1196TIP3    H1 3594   4.266   1.485   4.956
 1196TIP3    H2 3595   4.314   1.384   4.853
 1197TIP3   OH2 3596   1.400   1.275   4.993
 1197TIP3    H1 3597   1.355   1.349   5.033
 1197TIP3    H2 3598   1.488   1.308   4.974
 1198TIP3   OH2 3599  -0.001   3.501   4.955
 1198TIP3    H1 3600  -0.032   3.447   4.882
 1198TIP3    H2 3601   0.093   3.483   4.961
 1199TIP3   OH2 3602   6.036   2.854   4.954
 1199TIP3    H1 3603   6.062   2.783   4.895
 1199TIP3    H2 3604   5.974   2.907   4.904
 1200TIP3   OH2 3605   5.386   5.004   0.728
 1200TIP3    H1 3606   5.449   4.979   0.660
 1200TIP3    H2 3607   5.381   5.099   0.721
 1201TIP3   OH2 3608   3.240   1.483   4.443
 1201TIP3    H1 3609   3.294   1.450   4.370
 1201TIP3    H2 3610   3.151   1.457   4.420
 1202TIP3   OH2 3611   5.590   1.024   0.272
 1202TIP3    H1 3612   5.521   1.023   0.205
 1202TIP3    H2 3613   5.660   0.971   0.235
 1203TIP3   OH2 3614   5.912   1.017   4.120
 1203TIP3    H1 3615   5.863   1.016   4.038
 1203TIP3    H2 3616   6.000   0.986   4.096
 1204TIP3   OH2 3617   4.714   3.006   2.228
 1204TIP3    H1 3618   4.775   3.053   2.172
 1204TIP3    H2 3619   4.734   2.914   2.214
 1205TIP3   OH2 3620   4.826   5.652   1.338
 1205TIP3    H1 3621   4.788   5.643   1.425
 1205TIP3    H2 3622   4.763   5.706   1.289
 1206TIP3   OH2 3623   3.222   5.460   2.357
 1206TIP3    H1 3624   3.242   5.384   2.303
 1206TIP3    H2 3625   3.278   5.451   2.434
 1207TIP3   OH2 3626   2.155   0.519   3.227
 1207TIP3    H1 3627   2.134   0.426   3.224
 1207TIP3    H2 3628   2.168   0.539   3.320
 1208TIP3   OH2 3629   4.667   4.531   1.719
 1208TIP3    H1 3630   4.699   4.621   1.708
 1208TIP3    H2 3631   4.746   4.478   1.725
 1209TIP3   OH2 3632   6.228   5.786   2.304
 1209TIP3    H1 3633   6.134   5.806   2.305
 1209TIP3    H2 3634   6.239   5.720   2.372
 1210TIP3   OH2 3635   2.667   0.397   2.562
 1210TIP3    H1 3636   2.756   0.431   2.571
 1210TIP3    H2 3637   2.679   0.305   2.538
 1211TIP3   OH2 3638   4.700   0.792   4.626
 1211TIP3    H1 3639   4.735   0.709   4.593
 1211TIP3    H2 3640   4.750   0.811   4.705
 1212TIP3   OH2 3641   2.169   1.851   1.315
 1212TIP3    H1 3642   2.202   1.870   1.227
 1212TIP3    H2 3643   2.107   1.921   1.333
 1213TIP3   OH2 3644   5.633   4.533   4.240
 1213TIP3    H1 3645   5.562   4.597   4.236
 1213TIP3    H2 3646   5.589   4.449   4.247
 1214TIP3   OH2 3647   0.804   3.549   0.429
 1214TIP3    H1 3648   0.756   3.623   0.468
 1214TIP3    H2 3649   0.786   3.557   0.335
 1215TIP3   OH2 3650   3.529   0.860   4.385
 1215TIP3    H1 3651   3.511   0.946   4.348
 1215TIP3    H2 3652   3.604   0.874   4.444
 1216TIP3   OH2 3653   2.503   0.099   0.547
 1216TIP3    H1 3654   2.424   0.068   0.503
 1216TIP3    H2 3655   2.544   0.020   0.581
 1217TIP3   OH2 3656   6.227   4.630   4.538
 1217TIP3    H1 3657   6.142   4.665   4.568
 1217TIP3    H2 3658   6.221   4.631   4.443
 1218TIP3   OH2 3659   0.677   0.278   2.336
 1218TIP3    H1 3660   0.617   0.205   2.353
 1218TIP3    H2 3661   0.660   0.341   2.406
 1219TIP3   OH2 3662   5.734   4.372   1.135
 1219TIP3    H1 3663   5.659   4.374   1.077
 1219TIP3    H2 3664   5.775   4.287   1.119
 1220TIP3   OH2 3665   3.371   1.358   4.932
 1220TIP3    H1 3666   3.399   1.299   5.001
 1220TIP3    H2 3667   3.433   1.431   4.936
 1221TIP3   OH2 3668   5.125   1.969   0.726
 1221TIP3    H1 3669   5.141   1.898   0.787
 1221TIP3    H2 3670   5.126   2.048   0.779
 1222TIP3   OH2 3671   4.932   2.879   1.826
 1222TIP3    H1 3672   4.858   2.931   1.795
 1222TIP3    H2 3673   5.010   2.924   1.793
 1223TIP3   OH2 3674   1.411   5.769   3.488
 1223TIP3    H1 3675   1.353   5.768   3.411
 1223TIP3    H2 3676   1.363   5.718   3.554
 1224TIP3   OH2 3677   2.451   5.292   2.706
 1224TIP3    H1 3678   2.408   5.226   2.651
 1224TIP3    H2 3679   2.381   5.352   2.731
 1225TIP3   OH2 3680   3.855   5.765   2.176
 1225TIP3    H1 3681   3.899   5.841   2.139
 1225TIP3    H2 3682   3.800   5.800   2.246
 1226TIP3   OH2 3683   3.105   0.263   4.377
 1226TIP3    H1 3684   3.070   0.182   4.341
 1226TIP3    H2 3685   3.200   0.253   4.369
 1227TIP3   OH2 3686   0.271   4.799   2.947
 1227TIP3    H1 3687   0.250   4.801   3.040
 1227TIP3    H2 3688   0.192   4.831   2.904
 1228TIP3   OH2 3689   1.791   4.502   3.650
 1228TIP3    H1 3690   1.713   4.447   3.649
 1228TIP3    H2 3691   1.818   4.505   3.741
 1229TIP3   OH2 3692   1.148   2.091   2.257
 1229TIP3    H1 3693   1.239   2.094   2.227
 1229TIP3    H2 3694   1.145   2.151   2.332
 1230TIP3   OH2 3695   0.465   1.888   3.085
 1230TIP3    H1 3696   0.454   1.878   2.990
 1230TIP3    H2 3697   0.401   1.954   3.111
 1231TIP3   OH2 3698   5.556   1.728   1.697
 1231TIP3    H1 3699   5.522   1.696   1.613
 1231TIP3    H2 3700   5.638   1.681   1.709
 1232TIP3   OH2 3701   3.270   0.867   2.441
 1232TIP3    H1 3702   3.330   0.846   2.512
 1232TIP3    H2 3703   3.269   0.962   2.437
 1233TIP3   OH2 3704   3.333   4.000   3.528
 1233TIP3    H1 3705   3.354   3.933   3.592
 1233TIP3    H2 3706   3.267   4.054   3.571
 1234TIP3   OH2 3707   0.946   5.306   3.655
 1234TIP3    H1 3708   0.978   5.251   3.583
 1234TIP3    H2 3709   0.851   5.307   3.643
 1235TIP3   OH2 3710   5.933   4.845   4.048
 1235TIP3    H1 3711   5.991   4.815   3.978
 1235TIP3    H2 3712   5.875   4.771   4.065
 1236TIP3   OH2 3713   3.491   3.524   3.150
 1236TIP3    H1 3714   3.580   3.505   3.121
 1236TIP3    H2 3715   3.435   3.494   3.078
 1237TIP3   OH2 3716   3.395   5.779   1.015
 1237TIP3    H1 3717   3.358   5.862   1.045
 1237TIP3    H2 3718   3.357   5.714   1.074
 1238TIP3   OH2 3719   0.531   1.530   5.135
 1238TIP3    H1 3720   0.581   1.522   5.054
 1238TIP3    H2 3721   0.534   1.443   5.175
 1239TIP3   OH2 3722   5.784   1.353   1.724
 1239TIP3    H1 3723   5.843   1.292   1.769
 1239TIP3    H2 3724   5.837   1.430   1.706
 1240TIP3   OH2 3725   1.181   2.200   3.465
 1240TIP3    H1 3726   1.217   2.223   3.379
 1240TIP3    H2 3727   1.229   2.120   3.489
 1241TIP3   OH2 3728   0.177   4.943   2.046
 1241TIP3    H1 3729   0.126   4.945   1.965
 1241TIP3    H2 3730   0.137   4.873   2.098
 1242TIP3   OH2 3731   6.070   1.398   1.657
 1242TIP3    H1 3732   6.099   1.457   1.589
 1242TIP3    H2 3733   6.132   1.410   1.729
 1243TIP3   OH2 3734   1.109   1.001   0.947
 1243TIP3    H1 3735   1.075   0.983   0.860
 1243TIP3    H2 3736   1.179   1.065   0.933
 1244TIP3   OH2 3737   0.636   2.707   2.792
 1244TIP3    H1 3738   0.644   2.798   2.822
 1244TIP3    H2 3739   0.706   2.696   2.728
 1245TIP3   OH2 3740   3.310   2.341   0.238
 1245TIP3    H1 3741   3.246   2.410   0.221
 1245TIP3    H2 3742   3.394   2.386   0.241
 1246TIP3   OH2 3743   0.429   0.256   4.066
 1246TIP3    H1 3744   0.401   0.215   3.984
 1246TIP3    H2 3745   0.406   0.348   4.056
 1247TIP3   OH2 3746   1.807   1.051   4.252
 1247TIP3    H1 3747   1.893   1.092   4.242
 1247TIP3    H2 3748   1.767   1.059   4.165
 1248TIP3   OH2 3749   5.126   1.698   2.733
 1248TIP3    H1 3750   5.031   1.689   2.727
 1248TIP3    H2 3751   5.160   1.618   2.692
 1249TIP3   OH2 3752   3.830   0.130   0.865
 1249TIP3    H1 3753   3.921   0.112   0.841
 1249TIP3    H2 3754   3.816   0.080   0.946
 1250TIP3   OH2 3755   5.590   4.777   2.077
 1250TIP3    H1 3756   5.512   4.754   2.026
 1250TIP3    H2 3757   5.663   4.746   2.024
 1251TIP3   OH2 3758   5.099   4.039   4.378
 1251TIP3    H1 3759   5.165   4.048   4.447
 1251TIP3    H2 3760   5.021   4.082   4.414
 1252TIP3   OH2 3761   4.324   1.035   0.274
 1252TIP3    H1 3762   4.335   1.129   0.260
 1252TIP3    H2 3763   4.237   1.027   0.312
 1253TIP3   OH2 3764   5.483   0.108   1.917
 1253TIP3    H1 3765   5.439   0.038   1.965
 1253TIP3    H2 3766   5.497   0.177   1.983
 1254TIP3   OH2 3767   0.038   5.881   0.762
 1254TIP3    H1 3768  -0.034   5.917   0.710
 1254TIP3    H2 3769   0.058   5.797   0.721
 1255TIP3   OH2 3770   2.390   2.020   0.397
 1255TIP3    H1 3771   2.303   2.043   0.432
 1255TIP3    H2 3772   2.371   1.963   0.322
 1256TIP3   OH2 3773   1.749   1.327   1.383
 1256TIP3    H1 3774   1.705   1.278   1.313
 1256TIP3    H2 3775   1.682   1.334   1.452
 1257TIP3   OH2 3776   1.476   0.262   3.158
 1257TIP3    H1 3777   1.381   0.252   3.166
 1257TIP3    H2 3778   1.488   0.348   3.117
 1258TIP3   OH2 3779   1.576   0.521   4.200
 1258TIP3    H1 3780   1.573   0.602   4.149
 1258TIP3    H2 3781   1.663   0.522   4.241
 1259TIP3   OH2 3782   2.811   0.668   0.574
 1259TIP3    H1 3783   2.771   0.667   0.487
 1259TIP3    H2 3784   2.826   0.761   0.593
 1260TIP3   OH2 3785   1.137   4.356   3.418
 1260TIP3    H1 3786   1.199   4.291   3.385
 1260TIP3    H2 3787   1.057   4.306   3.436
 1261TIP3   OH2 3788   3.364   1.131   2.587
 1261TIP3    H1 3789   3.408   1.216   2.585
 1261TIP3    H2 3790   3.432   1.070   2.613
 1262TIP3   OH2 3791   4.483   0.624   3.741
 1262TIP3    H1 3792   4.528   0.608   3.824
 1262TIP3    H2 3793   4.443   0.540   3.719
 1263TIP3   OH2 3794   4.878   1.042   3.502
 1263TIP3    H1 3795   4.929   0.962   3.487
 1263TIP3    H2 3796   4.787   1.016   3.486
 1264TIP3   OH2 3797   5.330   2.021   4.164
 1264TIP3    H1 3798   5.343   2.111   4.195
 1264TIP3    H2 3799   5.235   2.013   4.154
 1265TIP3   OH2 3800   3.025   5.039   1.111
 1265TIP3    H1 3801   3.091   4.971   1.099
 1265TIP3    H2 3802   3.071   5.110   1.156
 1266TIP3   OH2 3803   5.153   0.210   0.228
 1266TIP3    H1 3804   5.207   0.141   0.267
 1266TIP3    H2 3805   5.195   0.228   0.144
 1267TIP3   OH2 3806   0.734   3.434   4.143
 1267TIP3    H1 3807   0.749   3.487   4.220
 1267TIP3    H2 3808   0.818   3.431   4.098
 1268TIP3   OH2 3809   0.561   2.645   3.177
 1268TIP3    H1 3810   0.652   2.667   3.196
 1268TIP3    H2 3811   0.566   2.564   3.125
 1269TIP3   OH2 3812   4.823   0.308   2.076
 1269TIP3    H1 3813   4.807   0.231   2.132
 1269TIP3    H2 3814   4.736   0.331   2.042
 1270TIP3   OH2 3815   2.436   0.895   3.793
 1270TIP3    H1 3816   2.430   0.911   3.888
 1270TIP3    H2 3817   2.448   0.801   3.785
 1271TIP3   OH2 3818   0.785   0.661   4.855
 1271TIP3    H1 3819   0.698   0.684   4.823
 1271TIP3    H2 3820   0.809   0.733   4.913
 1272TIP3   OH2 3821   2.011   4.809   4.697
 1272TIP3    H1 3822   2.036   4.864   4.771
 1272TIP3    H2 3823   1.923   4.838   4.674
 1273TIP3   OH2 3824   1.489   5.543   0.578
 1273TIP3    H1 3825   1.443   5.604   0.520
 1273TIP3    H2 3826   1.545   5.493   0.519
 1274TIP3   OH2 3827   1.449   3.856   1.589
 1274TIP3    H1 3828   1.372   3.800   1.577
 1274TIP3    H2 3829   1.422   3.942   1.558
 1275TIP3   OH2 3830   2.993   2.173   2.674
 1275TIP3    H1 3831   2.936   2.183   2.751
 1275TIP3    H2 3832   2.955   2.100   2.625
 1276TIP3   OH2 3833   0.519   3.152   3.357
 1276TIP3    H1 3834   0.511   3.142   3.262
 1276TIP3    H2 3835   0.429   3.155   3.388
 1277TIP3   OH2 3836   6.144   0.703   4.248
 1277TIP3    H1 3837   6.150   0.615   4.284
 1277TIP3    H2 3838   6.142   0.760   4.325
 1278TIP3   OH2 3839   0.272   5.392   0.345
 1278TIP3    H1 3840   0.275   5.373   0.439
 1278TIP3    H2 3841   0.206   5.461   0.337
 1279TIP3   OH2 3842   5.456   5.138   0.994
 1279TIP3    H1 3843   5.460   5.135   0.898
 1279TIP3    H2 3844   5.381   5.195   1.013
 1280TIP3   OH2 3845   2.313   0.187   4.121
 1280TIP3    H1 3846   2.244   0.250   4.144
 1280TIP3    H2 3847   2.384   0.241   4.086
 1281TIP3   OH2 3848   3.392   4.218   3.184
 1281TIP3    H1 3849   3.399   4.126   3.211
 1281TIP3    H2 3850   3.450   4.265   3.244
 1282TIP3   OH2 3851   4.451   3.963   0.245
 1282TIP3    H1 3852   4.444   3.870   0.267
 1282TIP3    H2 3853   4.438   3.967   0.150
 1283TIP3   OH2 3854   2.427   4.059   2.669
 1283TIP3    H1 3855   2.441   4.107   2.587
 1283TIP3    H2 3856   2.496   4.092   2.727
 1284TIP3   OH2 3857   3.084   3.421   2.790
 1284TIP3    H1 3858   2.994   3.402   2.816
 1284TIP3    H2 3859   3.093   3.381   2.704
 1285TIP3   OH2 3860   0.146   1.834   0.916
 1285TIP3    H1 3861   0.213   1.769   0.935
 1285TIP3    H2 3862   0.153   1.848   0.821
 1286TIP3   OH2 3863   4.011   1.384   2.544
 1286TIP3    H1 3864   4.014   1.480   2.551
 1286TIP3    H2 3865   3.922   1.365   2.515
 1287TIP3   OH2 3866   4.411   3.881   0.643
 1287TIP3    H1 3867   4.492   3.925   0.617
 1287TIP3    H2 3868   4.356   3.884   0.565
 1288TIP3   OH2 3869   0.588   5.392   4.493
 1288TIP3    H1 3870   0.515   5.373   4.551
 1288TIP3    H2 3871   0.645   5.316   4.500
 1289TIP3   OH2 3872   2.192   5.315   4.952
 1289TIP3    H1 3873   2.105   5.289   4.981
 1289TIP3    H2 3874   2.238   5.232   4.937
 1290TIP3   OH2 3875   1.876   2.727   2.078
 1290TIP3    H1 3876   1.914   2.645   2.048
 1290TIP3    H2 3877   1.820   2.756   2.005
 1291TIP3   OH2 3878   0.632   2.099   3.133
 1291TIP3    H1 3879   0.711   2.046   3.145
 1291TIP3    H2 3880   0.566   2.037   3.103
 1292TIP3   OH2 3881   6.140   0.122   2.623
 1292TIP3    H1 3882   6.217   0.095   2.575
 1292TIP3    H2 3883   6.107   0.198   2.576
 1293TIP3   OH2 3884   6.285   5.723   3.507
 1293TIP3    H1 3885   6.223   5.759   3.444
 1293TIP3    H2 3886   6.328   5.651   3.460
 1294TIP3   OH2 3887   2.451   5.948   2.755
 1294TIP3    H1 3888   2.404   5.878   2.710
 1294TIP3    H2 3889   2.384   5.992   2.808
 1295TIP3   OH2 3890   2.607   0.771   5.190
 1295TIP3    H1 3891   2.655   0.691   5.210
 1295TIP3    H2 3892   2.565   0.753   5.106
 1296TIP3   OH2 3893   6.225   3.440   0.898
 1296TIP3    H1 3894   6.285   3.460   0.827
 1296TIP3    H2 3895   6.259   3.488   0.973
 1297TIP3   OH2 3896   4.066   0.283   3.000
 1297TIP3    H1 3897   4.052   0.230   3.078
 1297TIP3    H2 3898   4.055   0.222   2.927
 1298TIP3   OH2 3899   4.087   3.563   2.481
 1298TIP3    H1 3900   3.995   3.581   2.500
 1298TIP3    H2 3901   4.113   3.498   2.546
 1299TIP3   OH2 3902   1.629   2.380   0.852
 1299TIP3    H1 3903   1.634   2.301   0.799
 1299TIP3    H2 3904   1.576   2.355   0.928
 1300TIP3   OH2 3905   4.509   0.391   2.371
 1300TIP3    H1 3906   4.480   0.309   2.410
 1300TIP3    H2 3907   4.577   0.365   2.308
 1301TIP3   OH2 3908   3.181   2.331   2.583
 1301TIP3    H1 3909   3.256   2.281   2.617
 1301TIP3    H2 3910   3.104   2.283   2.615
 1302TIP3   OH2 3911   2.724   3.427   3.714
 1302TIP3    H1 3912   2.705   3.493   3.648
 1302TIP3    H2 3913   2.814   3.445   3.741
 1303TIP3   OH2 3914   3.878   4.722   2.385
 1303TIP3    H1 3915   3.889   4.703   2.478
 1303TIP3    H2 3916   3.809   4.788   2.383
 1304TIP3   OH2 3917   0.519   3.554   3.950
 1304TIP3    H1 3918   0.562   3.481   3.994
 1304TIP3    H2 3919   0.489   3.611   4.021
 1305TIP3   OH2 3920   2.051   4.260   2.427
 1305TIP3    H1 3921   2.018   4.173   2.405
 1305TIP3    H2 3922   2.097   4.289   2.348
 1306TIP3   OH2 3923   1.833   0.865   0.655
 1306TIP3    H1 3924   1.852   0.959   0.648
 1306TIP3    H2 3925   1.865   0.841   0.742
 1307TIP3   OH2 3926   0.541   3.829   0.970
 1307TIP3    H1 3927   0.473   3.768   0.942
 1307TIP3    H2 3928   0.497   3.914   0.975
 1308TIP3   OH2 3929   1.414   0.161   5.094
 1308TIP3    H1 3930   1.487   0.103   5.117
 1308TIP3    H2 3931   1.353   0.154   5.167
 1309TIP3   OH2 3932   0.615   2.050   0.036
 1309TIP3    H1 3933   0.591   1.965   0.000
 1309TIP3    H2 3934   0.532   2.088   0.066
 1310TIP3   OH2 3935   1.206   0.038   0.003
 1310TIP3    H1 3936   1.157  -0.014  -0.061
 1310TIP3    H2 3937   1.145   0.051   0.075
 1311TIP3   OH2 3938   5.972   0.142   3.482
 1311TIP3    H1 3939   5.912   0.142   3.556
 1311TIP3    H2 3940   6.043   0.083   3.507
 1312TIP3   OH2 3941   4.556   1.886   4.601
 1312TIP3    H1 3942   4.635   1.901   4.652
 1312TIP3    H2 3943   4.495   1.953   4.632
 1313TIP3   OH2 3944   2.200   4.087   4.457
 1313TIP3    H1 3945   2.256   4.054   4.387
 1313TIP3    H2 3946   2.195   4.016   4.521
 1314TIP3   OH2 3947   3.282   1.729   0.036
 1314TIP3    H1 3948   3.291   1.758   0.127
 1314TIP3    H2 3949   3.312   1.804  -0.016
 1315TIP3   OH2 3950   3.948   5.559   5.028
 1315TIP3    H1 3951   4.007   5.576   4.955
 1315TIP3    H2 3952   4.003   5.565   5.106
 1316TIP3   OH2 3953   5.168   0.227   0.994
 1316TIP3    H1 3954   5.080   0.257   0.975
 1316TIP3    H2 3955   5.224   0.303   0.978
 1317TIP3   OH2 3956   5.982   3.317   3.060
 1317TIP3    H1 3957   5.965   3.229   3.026
 1317TIP3    H2 3958   6.040   3.357   2.994
 1318TIP3   OH2 3959   1.091   5.497   1.497
 1318TIP3    H1 3960   1.060   5.517   1.408
 1318TIP3    H2 3961   1.097   5.401   1.499
 1319TIP3   OH2 3962   3.876   2.994   3.145
 1319TIP3    H1 3963   3.956   2.950   3.115
 1319TIP3    H2 3964   3.813   2.980   3.075
 1320TIP3   OH2 3965   1.377   2.787   2.738
 1320TIP3    H1 3966   1.297   2.736   2.744
 1320TIP3    H2 3967   1.382   2.814   2.646
 1321TIP3   OH2 3968   0.238   4.078   1.457
 1321TIP3    H1 3969   0.148   4.076   1.489
 1321TIP3    H2 3970   0.287   4.024   1.518
 1322TIP3   OH2 3971   0.110   5.000   5.131
 1322TIP3    H1 3972   0.179   4.958   5.080
 1322TIP3    H2 3973   0.152   5.024   5.213
 1323TIP3   OH2 3974   3.226   1.119   4.527
 1323TIP3    H1 3975   3.214   1.079   4.441
 1323TIP3    H2 3976   3.313   1.160   4.523
 1324TIP3   OH2 3977   0.172   2.837   2.659
 1324TIP3    H1 3978   0.256   2.837   2.614
 1324TIP3    H2 3979   0.179   2.906   2.725
 1325TIP3   OH2 3980   5.598   1.127   5.160
 1325TIP3    H1 3981   5.531   1.099   5.097
 1325TIP3    H2 3982   5.583   1.221   5.170
 1326TIP3   OH2 3983   2.890   5.272   4.096
 1326TIP3    H1 3984   2.805   5.240   4.067
 1326TIP3    H2 3985   2.885   5.273   4.192
 1327TIP3   OH2 3986   5.438   1.882   3.608
 1327TIP3    H1 3987   5.471   1.897   3.520
 1327TIP3    H2 3988   5.504   1.827   3.650
 1328TIP3   OH2 3989   2.358   3.985   3.729
 1328TIP3    H1 3990   2.280   3.937   3.702
 1328TIP3    H2 3991   2.357   4.065   3.676
 1329TIP3   OH2 3992   6.314   0.810   5.162
 1329TIP3    H1 3993   6.262   0.736   5.194
 1329TIP3    H2 3994   6.263   0.887   5.188
 1330TIP3   OH2 3995   4.102   2.372   4.065
 1330TIP3    H1 3996   4.071   2.310   4.131
 1330TIP3    H2 3997   4.024   2.419   4.037
 1331TIP3   OH2 3998   0.632   4.109   3.167
 1331TIP3    H1 3999   0.664   4.050   3.235
 1331TIP3    H2 4000   0.711   4.140   3.123
 1332TIP3   OH2 4001   0.385   2.244   2.772
 1332TIP3    H1 4002   0.456   2.291   2.729
 1332TIP3    H2 4003   0.398   2.258   2.865
 1333TIP3   OH2 4004   2.789   2.417   3.433
 1333TIP3    H1 4005   2.733   2.468   3.375
 1333TIP3    H2 4006   2.732   2.391   3.505
 1334TIP3   OH2 4007   5.564   2.198   1.339
 1334TIP3    H1 4008   5.620   2.147   1.396
 1334TIP3    H2 4009   5.531   2.135   1.274
 1335TIP3   OH2 4010   2.412   3.025   0.917
 1335TIP3    H1 4011   2.502   3.041   0.944
 1335TIP3    H2 4012   2.401   2.930   0.924
 1336TIP3   OH2 4013   3.763   1.240   4.611
 1336TIP3    H1 4014   3.833   1.281   4.560
 1336TIP3    H2 4015   3.808   1.205   4.689
 1337TIP3   OH2 4016   5.418   2.331   3.194
 1337TIP3    H1 4017   5.462   2.344   3.110
 1337TIP3    H2 4018   5.329   2.362   3.180
 1338TIP3   OH2 4019   4.851   3.283  -0.021
 1338TIP3    H1 4020   4.898   3.240   0.051
 1338TIP3    H2 4021   4.818   3.364   0.017
 1339TIP3   OH2 4022   0.092   4.316   3.869
 1339TIP3    H1 4023   0.165   4.264   3.903
 1339TIP3    H2 4024   0.105   4.316   3.774
 1340TIP3   OH2 4025   5.397   5.248   2.727
 1340TIP3    H1 4026   5.393   5.161   2.767
 1340TIP3    H2 4027   5.484   5.280   2.748
 1341TIP3   OH2 4028   5.214   2.507   1.416
 1341TIP3    H1 4029   5.155   2.577   1.442
 1341TIP3    H2 4030   5.216   2.511   1.320
 1342TIP3   OH2 4031   5.909   2.904   1.280
 1342TIP3    H1 4032   5.955   2.948   1.208
 1342TIP3    H2 4033   5.895   2.815   1.248
 1343TIP3   OH2 4034   4.464   1.385   1.307
 1343TIP3    H1 4035   4.534   1.392   1.241
 1343TIP3    H2 4036   4.511   1.379   1.390
 1344TIP3   OH2 4037   3.589   2.225   2.517
 1344TIP3    H1 4038   3.604   2.184   2.433
 1344TIP3    H2 4039   3.507   2.188   2.548
 1345TIP3   OH2 4040   2.336   3.468   3.988
 1345TIP3    H1 4041   2.354   3.562   3.979
 1345TIP3    H2 4042   2.422   3.427   3.989
 1346TIP3   OH2 4043   5.951   2.878   2.028
 1346TIP3    H1 4044   6.031   2.932   2.031
 1346TIP3    H2 4045   5.886   2.930   2.075
 1347TIP3   OH2 4046   5.375   2.171   3.697
 1347TIP3    H1 4047   5.461   2.131   3.707
 1347TIP3    H2 4048   5.371   2.198   3.605
 1348TIP3   OH2 4049   0.408   4.781   1.985
 1348TIP3    H1 4050   0.470   4.785   2.058
 1348TIP3    H2 4051   0.371   4.869   1.980
 1349TIP3   OH2 4052   4.888   0.828   0.988
 1349TIP3    H1 4053   4.857   0.862   0.904
 1349TIP3    H2 4054   4.882   0.902   1.048
 1350TIP3   OH2 4055   2.672   2.976   0.963
 1350TIP3    H1 4056   2.695   2.883   0.972
 1350TIP3    H2 4057   2.742   3.013   0.909
 1351TIP3   OH2 4058   0.354   1.383   0.293
 1351TIP3    H1 4059   0.374   1.345   0.379
 1351TIP3    H2 4060   0.345   1.307   0.235
 1352TIP3   OH2 4061   4.320   4.213   2.475
 1352TIP3    H1 4062   4.274   4.290   2.508
 1352TIP3    H2 4063   4.397   4.205   2.532
 1353TIP3   OH2 4064   6.021   1.532   0.832
 1353TIP3    H1 4065   5.969   1.597   0.878
 1353TIP3    H2 4066   6.112   1.560   0.845
 1354TIP3   OH2 4067   4.778   2.914   1.061
 1354TIP3    H1 4068   4.849   2.960   1.015
 1354TIP3    H2 4069   4.820   2.881   1.141
 1355TIP3   OH2 4070   3.246   3.949   3.281
 1355TIP3    H1 4071   3.313   3.887   3.252
 1355TIP3    H2 4072   3.276   3.977   3.368
 1356TIP3   OH2 4073   0.283   3.197   2.713
 1356TIP3    H1 4074   0.260   3.281   2.674
 1356TIP3    H2 4075   0.309   3.142   2.639
 1357TIP3   OH2 4076   0.633   1.674   1.043
 1357TIP3    H1 4077   0.715   1.663   0.996
 1357TIP3    H2 4078   0.611   1.766   1.033
 1358TIP3   OH2 4079   5.414   5.170   3.218
 1358TIP3    H1 4080   5.449   5.188   3.305
 1358TIP3    H2 4081   5.346   5.105   3.231
 1359TIP3   OH2 4082   6.159   2.446   0.863
 1359TIP3    H1 4083   6.087   2.485   0.813
 1359TIP3    H2 4084   6.237   2.494   0.836
 1360TIP3   OH2 4085   0.422   2.006   0.664
 1360TIP3    H1 4086   0.379   2.033   0.584
 1360TIP3    H2 4087   0.362   1.943   0.704
 1361TIP3   OH2 4088   5.845   5.124   3.403
 1361TIP3    H1 4089   5.840   5.138   3.498
 1361TIP3    H2 4090   5.826   5.030   3.392
 1362TIP3   OH2 4091   3.088   1.184   2.043
 1362TIP3    H1 4092   3.146   1.164   2.117
 1362TIP3    H2 4093   3.134   1.253   1.995
 1363TIP3   OH2 4094   5.608   3.866   3.365
 1363TIP3    H1 4095   5.516   3.889   3.353
 1363TIP3    H2 4096   5.605   3.775   3.398
 1364TIP3   OH2 4097   2.134   0.291   4.301
 1364TIP3    H1 4098   2.096   0.301   4.389
 1364TIP3    H2 4099   2.164   0.200   4.298
 1365TIP3   OH2 4100   2.851   4.278   2.831
 1365TIP3    H1 4101   2.895   4.334   2.766
 1365TIP3    H2 4102   2.826   4.338   2.901
 1366TIP3   OH2 4103   5.873   5.479   2.918
 1366TIP3    H1 4104   5.839   5.411   2.861
 1366TIP3    H2 4105   5.799   5.500   2.976
 1367TIP3   OH2 4106   4.885   2.158   1.518
 1367TIP3    H1 4107   4.946   2.176   1.446
 1367TIP3    H2 4108   4.863   2.245   1.552
 1368TIP3   OH2 4109   2.003   3.056   1.701
 1368TIP3    H1 4110   2.010   3.115   1.776
 1368TIP3    H2 4111   1.939   3.098   1.643
 1369TIP3   OH2 4112   1.830   2.101   2.786
 1369TIP3    H1 4113   1.808   2.021   2.833
 1369TIP3    H2 4114   1.861   2.161   2.854
 1370TIP3   OH2 4115   2.599   2.321   4.305
 1370TIP3    H1 4116   2.569   2.328   4.396
 1370TIP3    H2 4117   2.519   2.327   4.253
 1371TIP3   OH2 4118   0.469   2.215   3.749
 1371TIP3    H1 4119   0.494   2.176   3.833
 1371TIP3    H2 4120   0.552   2.230   3.704
 1372TIP3   OH2 4121   1.583   4.871   2.147
 1372TIP3    H1 4122   1.530   4.947   2.173
 1372TIP3    H2 4123   1.671   4.891   2.179
 1373TIP3   OH2 4124   6.140   1.389   2.465
 1373TIP3    H1 4125   6.199   1.429   2.402
 1373TIP3    H2 4126   6.112   1.461   2.521
 1374TIP3   OH2 4127   3.895   0.461   3.963
 1374TIP3    H1 4128   3.891   0.556   3.972
 1374TIP3    H2 4129   3.852   0.428   4.042
 1375TIP3   OH2 4130   2.093   3.013   1.103
 1375TIP3    H1 4131   2.073   2.933   1.152
 1375TIP3    H2 4132   2.028   3.015   1.033
 1376TIP3   OH2 4133   0.570   1.010   3.192
 1376TIP3    H1 4134   0.520   0.993   3.112
 1376TIP3    H2 4135   0.510   0.989   3.263
 1377TIP3   OH2 4136   5.586   0.183   2.831
 1377TIP3    H1 4137   5.669   0.202   2.874
 1377TIP3    H2 4138   5.584   0.087   2.825
 1378TIP3   OH2 4139   5.648   0.587   2.974
 1378TIP3    H1 4140   5.684   0.664   2.930
 1378TIP3    H2 4141   5.703   0.514   2.945
 1379TIP3   OH2 4142   0.234   3.455   2.571
 1379TIP3    H1 4143   0.231   3.546   2.599
 1379TIP3    H2 4144   0.160   3.445   2.511
 1380TIP3   OH2 4145   4.142   5.000   0.653
 1380TIP3    H1 4146   4.088   4.922   0.668
 1380TIP3    H2 4147   4.110   5.036   0.570
 1381TIP3   OH2 4148   0.536   1.874   4.701
 1381TIP3    H1 4149   0.458   1.929   4.715
 1381TIP3    H2 4150   0.576   1.868   4.788
 1382TIP3   OH2 4151   5.365   4.887   0.399
 1382TIP3    H1 4152   5.422   4.965   0.402
 1382TIP3    H2 4153   5.409   4.828   0.338
 1383TIP3   OH2 4154   0.118   0.650   4.951
 1383TIP3    H1 4155   0.162   0.568   4.927
 1383TIP3    H2 4156   0.097   0.691   4.867
 1384TIP3   OH2 4157   2.389   3.669   1.957
 1384TIP3    H1 4158   2.391   3.710   2.043
 1384TIP3    H2 4159   2.325   3.598   1.966
 1385TIP3   OH2 4160   0.467   4.060   2.947
 1385TIP3    H1 4161   0.388   4.113   2.948
 1385TIP3    H2 4162   0.527   4.104   3.008
 1386TIP3   OH2 4163   4.857   2.762   3.540
 1386TIP3    H1 4164   4.942   2.798   3.562
 1386TIP3    H2 4165   4.875   2.673   3.511
 1387TIP3   OH2 4166   5.418   5.702   0.145
 1387TIP3    H1 4167   5.474   5.753   0.204
 1387TIP3    H2 4168   5.385   5.631   0.199
 1388TIP3   OH2 4169   2.076   3.317   3.425
 1388TIP3    H1 4170   2.051   3.305   3.517
 1388TIP3    H2 4171   2.166   3.348   3.428
 1389TIP3   OH2 4172   6.325   0.504   4.614
 1389TIP3    H1 4173   6.308   0.449   4.690
 1389TIP3    H2 4174   6.404   0.552   4.637
 1390TIP3   OH2 4175   2.134   2.614   4.134
 1390TIP3    H1 4176   2.088   2.536   4.104
 1390TIP3    H2 4177   2.085   2.643   4.211
 1391TIP3   OH2 4178   2.165   5.437   3.703
 1391TIP3    H1 4179   2.241   5.492   3.718
 1391TIP3    H2 4180   2.195   5.369   3.643
 1392TIP3   OH2 4181   2.139   5.823   0.538
 1392TIP3    H1 4182   2.077   5.750   0.548
 1392TIP3    H2 4183   2.111   5.868   0.459
 1393TIP3   OH2 4184   5.497   4.044   0.207
 1393TIP3    H1 4185   5.402   4.031   0.206
 1393TIP3    H2 4186   5.523   4.017   0.295
 1394TIP3   OH2 4187   2.922   0.547   1.480
 1394TIP3    H1 4188   3.010   0.557   1.444
 1394TIP3    H2 4189   2.887   0.636   1.485
 1395TIP3   OH2 4190   3.441   5.931   2.285
 1395TIP3    H1 4191   3.387   5.964   2.213
 1395TIP3    H2 4192   3.428   5.836   2.283
 1396TIP3   OH2 4193   0.162   5.061   3.247
 1396TIP3    H1 4194   0.151   5.104   3.162
 1396TIP3    H2 4195   0.082   5.080   3.295
 1397TIP3   OH2 4196   0.925   5.559   4.037
 1397TIP3    H1 4197   0.859   5.571   3.968
 1397TIP3    H2 4198   0.902   5.477   4.079
 1398TIP3   OH2 4199   1.216   1.670   2.005
 1398TIP3    H1 4200   1.185   1.716   2.083
 1398TIP3    H2 4201   1.162   1.704   1.934
 1399TIP3   OH2 4202   3.134   2.908   1.276
 1399TIP3    H1 4203   3.196   2.863   1.219
 1399TIP3    H2 4204   3.137   2.999   1.247
 1400TIP3   OH2 4205   4.568   1.191   4.633
 1400TIP3    H1 4206   4.615   1.113   4.605
 1400TIP3    H2 4207   4.559   1.181   4.728
 1401TIP3   OH2 4208   4.425   2.207   1.928
 1401TIP3    H1 4209   4.493   2.185   1.865
 1401TIP3    H2 4210   4.386   2.288   1.893
 1402TIP3   OH2 4211   4.970   2.488   1.846
 1402TIP3    H1 4212   5.053   2.533   1.861
 1402TIP3    H2 4213   4.995   2.404   1.807
 1403TIP3   OH2 4214   0.276   5.743   3.066
 1403TIP3    H1 4215   0.182   5.755   3.077
 1403TIP3    H2 4216   0.286   5.659   3.022
 1404TIP3   OH2 4217   4.637   2.122   1.796
 1404TIP3    H1 4218   4.703   2.065   1.835
 1404TIP3    H2 4219   4.587   2.065   1.738
 1405TIP3   OH2 4220   2.486   2.433   0.104
 1405TIP3    H1 4221   2.550   2.412   0.173
 1405TIP3    H2 4222   2.430   2.500   0.144
 1406TIP3   OH2 4223   3.822   2.120   0.635
 1406TIP3    H1 4224   3.824   2.043   0.692
 1406TIP3    H2 4225   3.836   2.085   0.547
 1407TIP3   OH2 4226   3.189   0.433   1.639
 1407TIP3    H1 4227   3.200   0.459   1.548
 1407TIP3    H2 4228   3.129   0.498   1.675
 1408TIP3   OH2 4229   0.262   2.214   2.429
 1408TIP3    H1 4230   0.261   2.286   2.492
 1408TIP3    H2 4231   0.274   2.255   2.344
 1409TIP3   OH2 4232   1.433   5.220   4.592
 1409TIP3    H1 4233   1.450   5.296   4.648
 1409TIP3    H2 4234   1.421   5.147   4.653
 1410TIP3   OH2 4235   5.556   4.114   3.497
 1410TIP3    H1 4236   5.624   4.055   3.530
 1410TIP3    H2 4237   5.602   4.171   3.436
 1411TIP3   OH2 4238   4.692   2.666   0.224
 1411TIP3    H1 4239   4.697   2.715   0.142
 1411TIP3    H2 4240   4.759   2.706   0.280
 1412TIP3   OH2 4241   5.450   5.594   2.988
 1412TIP3    H1 4242   5.519   5.564   3.047
 1412TIP3    H2 4243   5.474   5.556   2.903
 1413TIP3   OH2 4244   5.532   4.307   0.960
 1413TIP3    H1 4245   5.573   4.279   0.878
 1413TIP3    H2 4246   5.516   4.226   1.008
 1414TIP3   OH2 4247   5.135   3.364   1.545
 1414TIP3    H1 4248   5.111   3.348   1.637
 1414TIP3    H2 4249   5.166   3.280   1.513
 1415TIP3   OH2 4250   4.416   5.535   3.625
 1415TIP3    H1 4251   4.429   5.460   3.683
 1415TIP3    H2 4252   4.501   5.580   3.625
 1416TIP3   OH2 4253   3.824   4.072   0.234
 1416TIP3    H1 4254   3.741   4.104   0.200
 1416TIP3    H2 4255   3.874   4.047   0.155
 1417TIP3   OH2 4256   0.795   2.880   4.880
 1417TIP3    H1 4257   0.799   2.805   4.821
 1417TIP3    H2 4258   0.887   2.904   4.894
 1418TIP3   OH2 4259   3.574   0.399   0.571
 1418TIP3    H1 4260   3.605   0.367   0.656
 1418TIP3    H2 4261   3.652   0.395   0.515
 1419TIP3   OH2 4262   4.532   0.143   2.498
 1419TIP3    H1 4263   4.443   0.113   2.479
 1419TIP3    H2 4264   4.523   0.196   2.577
 1420TIP3   OH2 4265   0.850   2.665   4.581
 1420TIP3    H1 4266   0.919   2.694   4.521
 1420TIP3    H2 4267   0.896   2.633   4.658
 1421TIP3   OH2 4268   6.027   4.858   2.719
 1421TIP3    H1 4269   5.988   4.811   2.645
 1421TIP3    H2 4270   6.107   4.896   2.683
 1422TIP3   OH2 4271   0.350   5.930   4.200
 1422TIP3    H1 4272   0.443   5.948   4.212
 1422TIP3    H2 4273   0.312   6.015   4.175
 1423TIP3   OH2 4274   4.190   4.475   3.442
 1423TIP3    H1 4275   4.218   4.510   3.357
 1423TIP3    H2 4276   4.132   4.403   3.420
 1424TIP3   OH2 4277   1.976   2.762   1.030
 1424TIP3    H1 4278   2.002   2.713   1.107
 1424TIP3    H2 4279   2.026   2.724   0.958
 1425TIP3   OH2 4280   4.496   1.662   1.526
 1425TIP3    H1 4281   4.583   1.655   1.487
 1425TIP3    H2 4282   4.506   1.629   1.615
 1426TIP3   OH2 4283   1.833   2.786   3.356
 1426TIP3    H1 4284   1.809   2.702   3.316
 1426TIP3    H2 4285   1.821   2.772   3.450
 1427TIP3   OH2 4286   6.120   0.393   3.589
 1427TIP3    H1 4287   6.167   0.430   3.664
 1427TIP3    H2 4288   6.028   0.401   3.613
 1428TIP3   OH2 4289   3.856   5.952   4.159
 1428TIP3    H1 4290   3.833   5.891   4.090
 1428TIP3    H2 4291   3.952   5.946   4.166
 1429TIP3   OH2 4292   1.477   3.080   3.885
 1429TIP3    H1 4293   1.436   3.011   3.833
 1429TIP3    H2 4294   1.500   3.147   3.820
 1430TIP3   OH2 4295   0.662   0.736   0.701
 1430TIP3    H1 4296   0.742   0.744   0.649
 1430TIP3    H2 4297   0.643   0.642   0.702
 1431TIP3   OH2 4298   0.332   3.779   1.496
 1431TIP3    H1 4299   0.333   3.696   1.544
 1431TIP3    H2 4300   0.272   3.763   1.423
 1432TIP3   OH2 4301   3.013   0.108   0.563
 1432TIP3    H1 4302   2.998   0.139   0.653
 1432TIP3    H2 4303   3.030   0.014   0.573
 1433TIP3   OH2 4304   2.917   4.625   0.699
 1433TIP3    H1 4305   2.937   4.619   0.793
 1433TIP3    H2 4306   2.910   4.534   0.671
 1434TIP3   OH2 4307   4.788   2.353   4.101
 1434TIP3    H1 4308   4.795   2.275   4.045
 1434TIP3    H2 4309   4.847   2.416   4.061
 1435TIP3   OH2 4310   0.819   2.964   2.089
 1435TIP3    H1 4311   0.811   2.906   2.014
 1435TIP3    H2 4312   0.853   3.046   2.052
 1436TIP3   OH2 4313   3.322   3.930   4.562
 1436TIP3    H1 4314   3.332   4.018   4.527
 1436TIP3    H2 4315   3.318   3.874   4.485
 1437TIP3   OH2 4316   1.629   4.928   0.549
 1437TIP3    H1 4317   1.693   4.894   0.611
 1437TIP3    H2 4318   1.678   4.938   0.467
 1438TIP3   OH2 4319   0.391   5.315   1.623
 1438TIP3    H1 4320   0.339   5.349   1.696
 1438TIP3    H2 4321   0.421   5.393   1.576
 1439TIP3   OH2 4322   4.925   5.237   2.119
 1439TIP3    H1 4323   4.985   5.230   2.045
 1439TIP3    H2 4324   4.902   5.147   2.140
 1440TIP3   OH2 4325   1.789   1.607   2.005
 1440TIP3    H1 4326   1.838   1.631   2.084
 1440TIP3    H2 4327   1.739   1.529   2.031
 1441TIP3   OH2 4328   2.877   4.236   1.341
 1441TIP3    H1 4329   2.782   4.227   1.328
 1441TIP3    H2 4330   2.895   4.328   1.323
 1442TIP3   OH2 4331   4.972   0.510   2.647
 1442TIP3    H1 4332   4.886   0.527   2.608
 1442TIP3    H2 4333   4.952   0.470   2.732
 1443TIP3   OH2 4334   3.366   5.294   0.822
 1443TIP3    H1 4335   3.388   5.387   0.810
 1443TIP3    H2 4336   3.427   5.265   0.890
 1444TIP3   OH2 4337   5.507   0.131   0.578
 1444TIP3    H1 4338   5.574   0.189   0.542
 1444TIP3    H2 4339   5.555   0.051   0.600
 1445TIP3   OH2 4340   6.197   2.401   1.280
 1445TIP3    H1 4341   6.122   2.353   1.245
 1445TIP3    H2 4342   6.195   2.385   1.374
 1446TIP3   OH2 4343   3.709   2.638   1.989
 1446TIP3    H1 4344   3.693   2.645   2.083
 1446TIP3    H2 4345   3.629   2.601   1.953
 1447TIP3   OH2 4346   2.236   3.108   1.878
 1447TIP3    H1 4347   2.307   3.049   1.853
 1447TIP3    H2 4348   2.157   3.054   1.878
 1448TIP3   OH2 4349   4.282   3.833   2.662
 1448TIP3    H1 4350   4.348   3.770   2.631
 1448TIP3    H2 4351   4.218   3.779   2.708
 1449TIP3   OH2 4352   6.272   1.494   3.033
 1449TIP3    H1 4353   6.261   1.412   3.080
 1449TIP3    H2 4354   6.209   1.554   3.073
 1450TIP3   OH2 4355   2.139   3.182   5.151
 1450TIP3    H1 4356   2.168   3.117   5.087
 1450TIP3    H2 4357   2.217   3.199   5.205
 1451TIP3   OH2 4358   3.934   5.251   2.125
 1451TIP3    H1 4359   3.965   5.311   2.193
 1451TIP3    H2 4360   3.984   5.275   2.047
 1452TIP3   OH2 4361   2.490   0.625   2.654
 1452TIP3    H1 4362   2.491   0.667   2.568
 1452TIP3    H2 4363   2.538   0.686   2.711
 1453TIP3   OH2 4364   0.237   4.563   0.724
 1453TIP3    H1 4365   0.245   4.658   0.713
 1453TIP3    H2 4366   0.191   4.534   0.646
 1454TIP3   OH2 4367   2.603   3.062   3.241
 1454TIP3    H1 4368   2.581   2.969   3.238
 1454TIP3    H2 4369   2.530   3.103   3.287
 1455TIP3   OH2 4370   6.291   4.020   1.456
 1455TIP3    H1 4371   6.269   4.069   1.535
 1455TIP3    H2 4372   6.208   3.984   1.425
 1456TIP3   OH2 4373   4.973   2.575   4.064
 1456TIP3    H1 4374   4.985   2.614   3.977
 1456TIP3    H2 4375   4.918   2.637   4.111
 1457TIP3   OH2 4376   3.228   1.997   2.452
 1457TIP3    H1 4377   3.252   2.051   2.527
 1457TIP3    H2 4378   3.270   2.040   2.378
 1458TIP3   OH2 4379   4.329   4.523   3.203
 1458TIP3    H1 4380   4.264   4.561   3.145
 1458TIP3    H2 4381   4.313   4.429   3.198
 1459TIP3   OH2 4382   4.385   0.655   2.466
 1459TIP3    H1 4383   4.417   0.566   2.474
 1459TIP3    H2 4384   4.421   0.686   2.383
 1460TIP3   OH2 4385   2.969   3.487   3.269
 1460TIP3    H1 4386   3.061   3.510   3.286
 1460TIP3    H2 4387   2.968   3.391   3.272
 1461TIP3   OH2 4388   6.317   1.814   3.153
 1461TIP3    H1 4389   6.302   1.908   3.144
 1461TIP3    H2 4390   6.229   1.776   3.157
 1462TIP3   OH2 4391   2.618   3.072   1.964
 1462TIP3    H1 4392   2.659   3.000   1.916
 1462TIP3    H2 4393   2.527   3.044   1.976
 1463TIP3   OH2 4394   5.463   2.552   0.610
 1463TIP3    H1 4395   5.456   2.604   0.690
 1463TIP3    H2 4396   5.386   2.495   0.611
 1464TIP3   OH2 4397   6.195   1.703   3.743
 1464TIP3    H1 4398   6.194   1.781   3.686
 1464TIP3    H2 4399   6.239   1.636   3.692
 1465TIP3   OH2 4400   4.552   0.690   0.325
 1465TIP3    H1 4401   4.526   0.697   0.417
 1465TIP3    H2 4402   4.588   0.602   0.316
 1466TIP3   OH2 4403   0.315   5.526   0.969
 1466TIP3    H1 4404   0.377   5.453   0.971
 1466TIP3    H2 4405   0.246   5.500   1.030
 1467TIP3   OH2 4406   3.232   1.143   3.808
 1467TIP3    H1 4407   3.274   1.093   3.738
 1467TIP3    H2 4408   3.270   1.107   3.889
 1468TIP3   OH2 4409   5.118   0.690   3.288
 1468TIP3    H1 4410   5.133   0.718   3.378
 1468TIP3    H2 4411   5.027   0.713   3.270
 1469TIP3   OH2 4412   4.286   5.213   0.410
 1469TIP3    H1 4413   4.341   5.138   0.435
 1469TIP3    H2 4414   4.340   5.263   0.349
 1470TIP3   OH2 4415   4.816   0.870   3.171
 1470TIP3    H1 4416   4.729   0.908   3.185
 1470TIP3    H2 4417   4.851   0.917   3.095
 1471TIP3   OH2 4418   4.718   5.772   5.027
 1471TIP3    H1 4419   4.695   5.794   5.117
 1471TIP3    H2 4420   4.714   5.676   5.024
 1472TIP3   OH2 4421   4.037   2.592   2.991
 1472TIP3    H1 4422   4.129   2.616   2.982
 1472TIP3    H2 4423   4.029   2.510   2.942
 1473TIP3   OH2 4424   6.074   3.211   0.808
 1473TIP3    H1 4425   6.049   3.227   0.717
 1473TIP3    H2 4426   6.114   3.293   0.837
 1474TIP3   OH2 4427   0.419   0.725   2.613
 1474TIP3    H1 4428   0.376   0.765   2.689
 1474TIP3    H2 4429   0.476   0.794   2.580
 1475TIP3   OH2 4430   4.239   4.821   2.561
 1475TIP3    H1 4431   4.253   4.891   2.624
 1475TIP3    H2 4432   4.173   4.765   2.601
 1476TIP3   OH2 4433   2.369   1.121   1.137
 1476TIP3    H1 4434   2.370   1.029   1.165
 1476TIP3    H2 4435   2.277   1.139   1.117
 1477TIP3   OH2 4436   1.635   2.275   1.631
 1477TIP3    H1 4437   1.690   2.289   1.708
 1477TIP3    H2 4438   1.558   2.330   1.646
 1478TIP3   OH2 4439   1.630   2.378   3.931
 1478TIP3    H1 4440   1.655   2.289   3.954
 1478TIP3    H2 4441   1.547   2.369   3.885
 1479TIP3   OH2 4442   5.194   0.500   3.803
 1479TIP3    H1 4443   5.175   0.445   3.878
 1479TIP3    H2 4444   5.114   0.497   3.750
 1480TIP3   OH2 4445   4.075   1.881   5.122
 1480TIP3    H1 4446   3.994   1.917   5.158
 1480TIP3    H2 4447   4.129   1.862   5.198
 1481TIP3   OH2 4448   4.342   0.517   2.132
 1481TIP3    H1 4449   4.362   0.465   2.210
 1481TIP3    H2 4450   4.411   0.494   2.070
 1482TIP3   OH2 4451   0.006   2.178   2.540
 1482TIP3    H1 4452   0.100   2.181   2.525
 1482TIP3    H2 4453  -0.004   2.131   2.623
 1483TIP3   OH2 4454   1.810   1.730   0.491
 1483TIP3    H1 4455   1.890   1.732   0.439
 1483TIP3    H2 4456   1.840   1.732   0.582
 1484TIP3   OH2 4457   0.314   1.425   3.967
 1484TIP3    H1 4458   0.243   1.418   3.903
 1484TIP3    H2 4459   0.356   1.508   3.945
 1485TIP3   OH2 4460   5.823   3.958   1.363
 1485TIP3    H1 4461   5.734   3.969   1.397
 1485TIP3    H2 4462   5.848   4.046   1.333
 1486TIP3   OH2 4463   3.866   5.290   4.988
 1486TIP3    H1 4464   3.910   5.373   5.011
 1486TIP3    H2 4465   3.788   5.317   4.940
 1487TIP3   OH2 4466   1.733   2.991   3.210
 1487TIP3    H1 4467   1.796   2.952   3.271
 1487TIP3    H2 4468   1.655   3.006   3.263
 1488TIP3   OH2 4469   0.433   5.264   3.497
 1488TIP3    H1 4470   0.423   5.182   3.449
 1488TIP3    H2 4471   0.346   5.280   3.535
 1489TIP3   OH2 4472   1.818   4.216   4.117
 1489TIP3    H1 4473   1.795   4.123   4.105
 1489TIP3    H2 4474   1.849   4.244   4.031
 1490TIP3   OH2 4475   1.194   1.199   4.783
 1490TIP3    H1 4476   1.202   1.281   4.733
 1490TIP3    H2 4477   1.220   1.223   4.872
 1491TIP3   OH2 4478   3.455   1.918   1.500
 1491TIP3    H1 4479   3.509   1.841   1.485
 1491TIP3    H2 4480   3.516   1.985   1.530
 1492TIP3   OH2 4481   4.957   1.691   3.877
 1492TIP3    H1 4482   4.980   1.610   3.923
 1492TIP3    H2 4483   4.964   1.668   3.784
 1493TIP3   OH2 4484   1.555   1.419   1.537
 1493TIP3    H1 4485   1.562   1.514   1.535
 1493TIP3    H2 4486   1.560   1.396   1.630
 1494TIP3   OH2 4487   0.728   2.155   0.591
 1494TIP3    H1 4488   0.671   2.162   0.514
 1494TIP3    H2 4489   0.708   2.069   0.628
 1495TIP3   OH2 4490   6.081   1.718   1.630
 1495TIP3    H1 4491   6.110   1.665   1.705
 1495TIP3    H2 4492   6.132   1.685   1.556
 1496TIP3   OH2 4493   1.082   4.788   1.294
 1496TIP3    H1 4494   1.109   4.722   1.231
 1496TIP3    H2 4495   1.134   4.865   1.271
 1497TIP3   OH2 4496   5.148   0.782   0.543
 1497TIP3    H1 4497   5.161   0.875   0.564
 1497TIP3    H2 4498   5.111   0.782   0.455
 1498TIP3   OH2 4499   3.125   3.855   0.119
 1498TIP3    H1 4500   3.073   3.786   0.160
 1498TIP3    H2 4501   3.103   3.935   0.167
 1499TIP3   OH2 4502   2.109   1.120   1.073
 1499TIP3    H1 4503   2.127   1.150   0.984
 1499TIP3    H2 4504   2.016   1.140   1.086
 1500TIP3   OH2 4505   5.826   4.117   1.054
 1500TIP3    H1 4506   5.912   4.126   1.013
 1500TIP3    H2 4507   5.791   4.035   1.020
 1501TIP3   OH2 4508   5.827   3.785   2.809
 1501TIP3    H1 4509   5.887   3.716   2.779
 1501TIP3    H2 4510   5.843   3.858   2.749
 1502TIP3   OH2 4511   4.641   5.685   3.685
 1502TIP3    H1 4512   4.665   5.768   3.643
 1502TIP3    H2 4513   4.616   5.710   3.774
 1503TIP3   OH2 4514   5.852   5.691   4.277
 1503TIP3    H1 4515   5.881   5.606   4.309
 1503TIP3    H2 4516   5.778   5.671   4.219
 1504TIP3   OH2 4517   6.296   2.795   1.006
 1504TIP3    H1 4518   6.231   2.848   0.959
 1504TIP3    H2 4519   6.246   2.754   1.077
 1505TIP3   OH2 4520   3.218   1.505   5.132
 1505TIP3    H1 4521   3.235   1.576   5.195
 1505TIP3    H2 4522   3.303   1.463   5.120
 1506TIP3   OH2 4523   1.464   3.786   4.721
 1506TIP3    H1 4524   1.400   3.717   4.742
 1506TIP3    H2 4525   1.549   3.743   4.730
 1507TIP3   OH2 4526   1.352   5.572   0.106
 1507TIP3    H1 4527   1.359   5.667   0.116
 1507TIP3    H2 4528   1.316   5.560   0.018
 1508TIP3   OH2 4529   1.051   4.124   2.779
 1508TIP3    H1 4530   1.000   4.193   2.822
 1508TIP3    H2 4531   1.127   4.170   2.743
 1509TIP3   OH2 4532   1.128   0.516   3.412
 1509TIP3    H1 4533   1.073   0.528   3.334
 1509TIP3    H2 4534   1.103   0.588   3.470
 1510TIP3   OH2 4535   5.464   4.111   2.327
 1510TIP3    H1 4536   5.517   4.146   2.255
 1510TIP3    H2 4537   5.434   4.189   2.374
 1511TIP3   OH2 4538   2.574   2.485   1.126
 1511TIP3    H1 4539   2.567   2.462   1.034
 1511TIP3    H2 4540   2.566   2.402   1.172
 1512TIP3   OH2 4541   4.256   4.366   4.834
 1512TIP3    H1 4542   4.317   4.301   4.801
 1512TIP3    H2 4543   4.290   4.450   4.801
 1513TIP3   OH2 4544   5.709   1.100   4.585
 1513TIP3    H1 4545   5.756   1.125   4.665
 1513TIP3    H2 4546   5.757   1.024   4.552
 1514TIP3   OH2 4547   0.031   1.523   2.382
 1514TIP3    H1 4548   0.055   1.558   2.468
 1514TIP3    H2 4549   0.113   1.526   2.332
 1515TIP3   OH2 4550   0.906   5.520   4.747
 1515TIP3    H1 4551   0.835   5.550   4.690
 1515TIP3    H2 4552   0.955   5.457   4.695
 1516TIP3   OH2 4553   1.812   2.533   1.129
 1516TIP3    H1 4554   1.782   2.600   1.067
 1516TIP3    H2 4555   1.905   2.522   1.110
 1517TIP3   OH2 4556   4.604   4.201   0.274
 1517TIP3    H1 4557   4.564   4.211   0.361
 1517TIP3    H2 4558   4.620   4.107   0.266
 1518TIP3   OH2 4559   1.145   3.105   3.217
 1518TIP3    H1 4560   1.113   3.181   3.168
 1518TIP3    H2 4561   1.126   3.030   3.160
 1519TIP3   OH2 4562   0.776   3.573   4.366
 1519TIP3    H1 4563   0.863   3.540   4.388
 1519TIP3    H2 4564   0.772   3.659   4.407
 1520TIP3   OH2 4565   2.258   2.627   2.316
 1520TIP3    H1 4566   2.236   2.543   2.276
 1520TIP3    H2 4567   2.353   2.629   2.317
 1521TIP3   OH2 4568   0.364   5.563   3.709
 1521TIP3    H1 4569   0.351   5.648   3.751
 1521TIP3    H2 4570   0.400   5.507   3.778
 1522TIP3   OH2 4571   5.145   5.501   2.545
 1522TIP3    H1 4572   5.196   5.557   2.605
 1522TIP3    H2 4573   5.175   5.525   2.458
 1523TIP3   OH2 4574   5.239   1.073   0.478
 1523TIP3    H1 4575   5.175   1.069   0.407
 1523TIP3    H2 4576   5.222   1.157   0.521
 1524TIP3   OH2 4577   4.455   3.297   2.080
 1524TIP3    H1 4578   4.544   3.331   2.071
 1524TIP3    H2 4579   4.445   3.279   2.174
 1525TIP3   OH2 4580   3.766   2.993   4.123
 1525TIP3    H1 4581   3.803   3.021   4.039
 1525TIP3    H2 4582   3.674   2.976   4.103
 1526TIP3   OH2 4583   0.651   2.888   3.452
 1526TIP3    H1 4584   0.642   2.972   3.407
 1526TIP3    H2 4585   0.651   2.911   3.545
 1527TIP3   OH2 4586   3.424   1.428   1.163
 1527TIP3    H1 4587   3.414   1.515   1.201
 1527TIP3    H2 4588   3.354   1.376   1.203
 1528TIP3   OH2 4589   0.536   3.261   1.115
 1528TIP3    H1 4590   0.569   3.238   1.029
 1528TIP3    H2 4591   0.471   3.193   1.135
 1529TIP3   OH2 4592   2.857   1.166   2.341
 1529TIP3    H1 4593   2.911   1.245   2.345
 1529TIP3    H2 4594   2.843   1.142   2.433
 1530TIP3   OH2 4595   0.873   5.495   2.977
 1530TIP3    H1 4596   0.798   5.553   2.990
 1530TIP3    H2 4597   0.834   5.413   2.946
 1531TIP3   OH2 4598   3.764   5.722   4.601
 1531TIP3    H1 4599   3.722   5.714   4.515
 1531TIP3    H2 4600   3.858   5.710   4.583
 1532TIP3   OH2 4601   1.274   4.203   0.765
 1532TIP3    H1 4602   1.334   4.144   0.718
 1532TIP3    H2 4603   1.281   4.286   0.718
 1533TIP3   OH2 4604   3.496   0.173   2.408
 1533TIP3    H1 4605   3.585   0.151   2.379
 1533TIP3    H2 4606   3.455   0.213   2.332
 1534TIP3   OH2 4607   3.089   3.407   3.599
 1534TIP3    H1 4608   3.127   3.474   3.542
 1534TIP3    H2 4609   3.016   3.371   3.549
 1535TIP3   OH2 4610   1.249   5.382   2.030
 1535TIP3    H1 4611   1.336   5.394   1.990
 1535TIP3    H2 4612   1.190   5.374   1.956
 1536TIP3   OH2 4613   1.271   3.098   0.175
 1536TIP3    H1 4614   1.197   3.064   0.226
 1536TIP3    H2 4615   1.244   3.088   0.084
 1537TIP3   OH2 4616   4.337   5.559   4.936
 1537TIP3    H1 4617   4.250   5.579   4.902
 1537TIP3    H2 4618   4.387   5.640   4.923
 1538TIP3   OH2 4619   5.035   0.115   4.526
 1538TIP3    H1 4620   5.060   0.049   4.590
 1538TIP3    H2 4621   5.106   0.114   4.461
 1539TIP3   OH2 4622   0.087   5.014   0.516
 1539TIP3    H1 4623   0.094   4.982   0.606
 1539TIP3    H2 4624   0.001   5.057   0.513
 1540TIP3   OH2 4625   0.352   2.867   4.243
 1540TIP3    H1 4626   0.284   2.918   4.288
 1540TIP3    H2 4627   0.310   2.838   4.162
 1541TIP3   OH2 4628  -0.004   2.511   1.542
 1541TIP3    H1 4629   0.025   2.421   1.523
 1541TIP3    H2 4630   0.051   2.565   1.486
 1542TIP3   OH2 4631   1.925   0.907   1.579
 1542TIP3    H1 4632   1.884   0.991   1.600
 1542TIP3    H2 4633   1.856   0.855   1.539
 1543TIP3   OH2 4634   6.090   3.699   2.662
 1543TIP3    H1 4635   6.121   3.613   2.635
 1543TIP3    H2 4636   6.037   3.730   2.588
 1544TIP3   OH2 4637   4.594   1.481   3.256
 1544TIP3    H1 4638   4.554   1.467   3.170
 1544TIP3    H2 4639   4.684   1.507   3.237
 1545TIP3   OH2 4640   1.598   4.019   3.376
 1545TIP3    H1 4641   1.650   4.028   3.297
 1545TIP3    H2 4642   1.661   3.995   3.444
 1546TIP3   OH2 4643   3.085   5.808   5.150
 1546TIP3    H1 4644   3.178   5.803   5.172
 1546TIP3    H2 4645   3.065   5.723   5.111
 1547TIP3   OH2 4646   0.705   2.459   1.502
 1547TIP3    H1 4647   0.623   2.444   1.549
 1547TIP3    H2 4648   0.699   2.548   1.470
 1548TIP3   OH2 4649   1.939   3.601   3.110
 1548TIP3    H1 4650   2.006   3.622   3.175
 1548TIP3    H2 4651   1.909   3.514   3.134
 1549TIP3   OH2 4652   1.387   2.310   1.969
 1549TIP3    H1 4653   1.367   2.383   1.911
 1549TIP3    H2 4654   1.430   2.245   1.913
 1550TIP3   OH2 4655   5.920   1.066   0.096
 1550TIP3    H1 4656   5.960   1.026   0.019
 1550TIP3    H2 4657   5.848   1.007   0.118
 1551TIP3   OH2 4658   0.422   0.174   4.714
 1551TIP3    H1 4659   0.368   0.224   4.774
 1551TIP3    H2 4660   0.480   0.123   4.771
 1552TIP3   OH2 4661   5.292   3.320   3.345
 1552TIP3    H1 4662   5.236   3.244   3.363
 1552TIP3    H2 4663   5.268   3.383   3.413
 1553TIP3   OH2 4664   2.811   1.733   3.646
 1553TIP3    H1 4665   2.735   1.685   3.612
 1553TIP3    H2 4666   2.866   1.666   3.686
 1554TIP3   OH2 4667   5.130   3.060   1.761
 1554TIP3    H1 4668   5.136   3.154   1.778
 1554TIP3    H2 4669   5.220   3.031   1.750
 1555TIP3   OH2 4670   5.375   4.270   2.840
 1555TIP3    H1 4671   5.378   4.312   2.926
 1555TIP3    H2 4672   5.282   4.264   2.819
 1556TIP3   OH2 4673   3.199   4.464   4.120
 1556TIP3    H1 4674   3.201   4.512   4.037
 1556TIP3    H2 4675   3.143   4.388   4.103
 1557TIP3   OH2 4676   4.698   0.571   3.026
 1557TIP3    H1 4677   4.620   0.517   3.017
 1557TIP3    H2 4678   4.682   0.625   3.104
 1558TIP3   OH2 4679   2.444   1.918   4.822
 1558TIP3    H1 4680   2.446   1.847   4.759
 1558TIP3    H2 4681   2.527   1.965   4.809
 1559TIP3   OH2 4682   6.215   4.603   1.206
 1559TIP3    H1 4683   6.153   4.652   1.260
 1559TIP3    H2 4684   6.160   4.539   1.159
 1560TIP3   OH2 4685   3.673   0.601   3.656
 1560TIP3    H1 4686   3.681   0.539   3.729
 1560TIP3    H2 4687   3.608   0.562   3.598
 1561TIP3   OH2 4688   6.284   5.567   1.919
 1561TIP3    H1 4689   6.223   5.509   1.964
 1561TIP3    H2 4690   6.229   5.620   1.862
 1562TIP3   OH2 4691   1.546   3.018   1.311
 1562TIP3    H1 4692   1.625   2.975   1.344
 1562TIP3    H2 4693   1.523   2.970   1.232
 1563TIP3   OH2 4694   4.652   1.862   1.981
 1563TIP3    H1 4695   4.689   1.799   2.043
 1563TIP3    H2 4696   4.694   1.839   1.897
 1564TIP3   OH2 4697   2.940   3.727   4.850
 1564TIP3    H1 4698   2.970   3.817   4.851
 1564TIP3    H2 4699   2.866   3.725   4.912
 1565TIP3   OH2 4700   3.445   1.142   0.238
 1565TIP3    H1 4701   3.396   1.060   0.250
 1565TIP3    H2 4702   3.387   1.197   0.186
 1566TIP3   OH2 4703   6.081   5.909   1.570
 1566TIP3    H1 4704   6.146   5.860   1.520
 1566TIP3    H2 4705   6.047   5.974   1.508
 1567TIP3   OH2 4706   4.275   5.772   2.641
 1567TIP3    H1 4707   4.302   5.827   2.714
 1567TIP3    H2 4708   4.185   5.798   2.624
 1568TIP3   OH2 4709   0.824   5.645   1.136
 1568TIP3    H1 4710   0.738   5.653   1.095
 1568TIP3    H2 4711   0.883   5.693   1.078
 1569TIP3   OH2 4712   2.338   2.746   0.900
 1569TIP3    H1 4713   2.327   2.777   0.810
 1569TIP3    H2 4714   2.302   2.658   0.900
 1570TIP3   OH2 4715   5.100   4.104   0.519
 1570TIP3    H1 4716   5.039   4.031   0.508
 1570TIP3    H2 4717   5.065   4.173   0.463
 1571TIP3   OH2 4718   3.113   5.781   4.274
 1571TIP3    H1 4719   3.068   5.819   4.199
 1571TIP3    H2 4720   3.165   5.853   4.309
 1572TIP3   OH2 4721   3.182   5.318   4.299
 1572TIP3    H1 4722   3.096   5.277   4.305
 1572TIP3    H2 4723   3.165   5.412   4.310
 1573TIP3   OH2 4724   5.832   4.895   3.191
 1573TIP3    H1 4725   5.808   4.899   3.099
 1573TIP3    H2 4726   5.754   4.861   3.235
 1574TIP3   OH2 4727   1.104   1.772   3.896
 1574TIP3    H1 4728   1.194   1.756   3.925
 1574TIP3    H2 4729   1.109   1.769   3.800
 1575TIP3   OH2 4730   4.546   1.906   2.297
 1575TIP3    H1 4731   4.543   1.966   2.223
 1575TIP3    H2 4732   4.636   1.912   2.329
 1576TIP3   OH2 4733   0.672   1.462   3.988
 1576TIP3    H1 4734   0.596   1.487   3.936
 1576TIP3    H2 4735   0.704   1.381   3.947
 1577TIP3   OH2 4736   1.929   4.197   4.615
 1577TIP3    H1 4737   1.993   4.264   4.590
 1577TIP3    H2 4738   1.888   4.171   4.532
 1578TIP3   OH2 4739   5.138   0.787   2.875
 1578TIP3    H1 4740   5.091   0.713   2.913
 1578TIP3    H2 4741   5.178   0.752   2.795
 1579TIP3   OH2 4742   0.216   2.743   2.040
 1579TIP3    H1 4743   0.291   2.699   1.999
 1579TIP3    H2 4744   0.142   2.684   2.024
 1580TIP3   OH2 4745   2.630   0.494   1.385
 1580TIP3    H1 4746   2.721   0.465   1.390
 1580TIP3    H2 4747   2.579   0.413   1.391
 1581TIP3   OH2 4748   0.516   4.045   2.360
 1581TIP3    H1 4749   0.490   4.072   2.271
 1581TIP3    H2 4750   0.433   4.028   2.405
 1582TIP3   OH2 4751   2.196   5.755   4.111
 1582TIP3    H1 4752   2.255   5.700   4.060
 1582TIP3    H2 4753   2.245   5.837   4.123
 1583TIP3   OH2 4754   1.815   1.154   4.537
 1583TIP3    H1 4755   1.837   1.211   4.463
 1583TIP3    H2 4756   1.767   1.081   4.498
 1584TIP3   OH2 4757   0.516   1.391   4.820
 1584TIP3    H1 4758   0.549   1.424   4.737
 1584TIP3    H2 4759   0.589   1.401   4.881
 1585TIP3   OH2 4760   2.769   1.393   4.154
 1585TIP3    H1 4761   2.684   1.408   4.194
 1585TIP3    H2 4762   2.783   1.470   4.098
 1586TIP3   OH2 4763   5.472   1.239   4.512
 1586TIP3    H1 4764   5.479   1.312   4.573
 1586TIP3    H2 4765   5.553   1.188   4.525
 1587TIP3   OH2 4766   4.217   4.559   0.014
 1587TIP3    H1 4767   4.277   4.570  -0.059
 1587TIP3    H2 4768   4.179   4.646   0.028
 1588TIP3   OH2 4769   1.162   2.594   1.555
 1588TIP3    H1 4770   1.168   2.686   1.530
 1588TIP3    H2 4771   1.228   2.550   1.501
 1589TIP3   OH2 4772   3.930   3.244   3.037
 1589TIP3    H1 4773   3.971   3.295   3.106
 1589TIP3    H2 4774   3.905   3.161   3.078
 1590TIP3   OH2 4775   5.144   1.373   0.510
 1590TIP3    H1 4776   5.094   1.414   0.440
 1590TIP3    H2 4777   5.200   1.444   0.543
 1591TIP3   OH2 4778   5.382   1.952   1.373
 1591TIP3    H1 4779   5.419   1.956   1.285
 1591TIP3    H2 4780   5.451   1.913   1.426
 1592TIP3   OH2 4781   3.626   4.849   1.524
 1592TIP3    H1 4782   3.649   4.901   1.601
 1592TIP3    H2 4783   3.703   4.794   1.508
 1593TIP3   OH2 4784   5.500   0.607   1.520
 1593TIP3    H1 4785   5.497   0.662   1.598
 1593TIP3    H2 4786   5.502   0.669   1.447
 1594TIP3   OH2 4787   2.088   3.584   1.793
 1594TIP3    H1 4788   2.126   3.626   1.716
 1594TIP3    H2 4789   2.001   3.555   1.764
 1595TIP3   OH2 4790   2.440   2.957   2.822
 1595TIP3    H1 4791   2.395   3.031   2.783
 1595TIP3    H2 4792   2.529   2.987   2.837
 1596TIP3   OH2 4793   0.361   0.439   0.773
 1596TIP3    H1 4794   0.335   0.450   0.864
 1596TIP3    H2 4795   0.457   0.436   0.776
 1597TIP3   OH2 4796   1.103   0.426   0.520
 1597TIP3    H1 4797   1.054   0.506   0.541
 1597TIP3    H2 4798   1.193   0.445   0.547
 1598TIP3   OH2 4799   0.000   4.224   0.482
 1598TIP3    H1 4800   0.061   4.181   0.542
 1598TIP3    H2 4801   0.004   4.317   0.506
 1599TIP3   OH2 4802   1.359   4.680   4.959
 1599TIP3    H1 4803   1.300   4.744   4.999
 1599TIP3    H2 4804   1.431   4.671   5.022
 1600TIP3   OH2 4805   5.317   5.364   4.806
 1600TIP3    H1 4806   5.237   5.371   4.858
 1600TIP3    H2 4807   5.387   5.355   4.871
 1601TIP3   OH2 4808   1.588   5.697   3.259
 1601TIP3    H1 4809   1.554   5.679   3.347
 1601TIP3    H2 4810   1.523   5.755   3.220
 1602TIP3   OH2 4811   2.366   1.915   0.980
 1602TIP3    H1 4812   2.410   1.870   1.053
 1602TIP3    H2 4813   2.418   1.994   0.965
 1603TIP3   OH2 4814   0.611   2.733   4.099
 1603TIP3    H1 4815   0.555   2.808   4.084
 1603TIP3    H2 4816   0.585   2.700   4.185
 1604TIP3   OH2 4817   3.998   0.642   0.406
 1604TIP3    H1 4818   4.044   0.592   0.473
 1604TIP3    H2 4819   4.067   0.669   0.345
 1605TIP3   OH2 4820   1.678   5.437   0.399
 1605TIP3    H1 4821   1.762   5.395   0.379
 1605TIP3    H2 4822   1.686   5.526   0.365
 1606TIP3   OH2 4823   2.855   4.539   1.427
 1606TIP3    H1 4824   2.775   4.574   1.467
 1606TIP3    H2 4825   2.913   4.521   1.500
 1607TIP3   OH2 4826   3.228   2.445   3.885
 1607TIP3    H1 4827   3.190   2.359   3.903
 1607TIP3    H2 4828   3.179   2.477   3.809
 1608TIP3   OH2 4829   5.319   3.650   4.635
 1608TIP3    H1 4830   5.248   3.590   4.658
 1608TIP3    H2 4831   5.379   3.645   4.710
 1609TIP3   OH2 4832   6.024   2.610   0.626
 1609TIP3    H1 4833   6.007   2.684   0.568
 1609TIP3    H2 4834   6.057   2.541   0.568
 1610TIP3   OH2 4835   2.977   0.981   0.463
 1610TIP3    H1 4836   2.887   0.988   0.493
 1610TIP3    H2 4837   2.971   0.984   0.368
 1611TIP3   OH2 4838   2.434   0.070   0.214
 1611TIP3    H1 4839   2.509   0.075   0.273
 1611TIP3    H2 4840   2.458   0.124   0.139
 1612TIP3   OH2 4841   2.316   4.346   3.357
 1612TIP3    H1 4842   2.263   4.353   3.277
 1612TIP3    H2 4843   2.259   4.300   3.419
 1613TIP3   OH2 4844   4.097   3.872   3.645
 1613TIP3    H1 4845   4.092   3.869   3.549
 1613TIP3    H2 4846   4.131   3.959   3.665
 1614TIP3   OH2 4847   4.948   1.675   5.140
 1614TIP3    H1 4848   4.907   1.757   5.113
 1614TIP3    H2 4849   5.014   1.658   5.073
 1615TIP3   OH2 4850   3.181   3.124   3.808
 1615TIP3    H1 4851   3.267   3.087   3.786
 1615TIP3    H2 4852   3.133   3.124   3.725
 1616TIP3   OH2 4853   1.129   2.395   4.006
 1616TIP3    H1 4854   1.035   2.408   3.995
 1616TIP3    H2 4855   1.156   2.350   3.925
 1617TIP3   OH2 4856   0.754   2.301   4.898
 1617TIP3    H1 4857   0.676   2.350   4.925
 1617TIP3    H2 4858   0.815   2.310   4.971
 1618TIP3   OH2 4859   3.767   1.755   5.108
 1618TIP3    H1 4860   3.826   1.695   5.061
 1618TIP3    H2 4861   3.820   1.835   5.120
 1619TIP3   OH2 4862   4.439   2.895   1.304
 1619TIP3    H1 4863   4.343   2.899   1.299
 1619TIP3    H2 4864   4.467   2.881   1.214
 1620TIP3   OH2 4865   2.049   5.128   3.939
 1620TIP3    H1 4866   1.983   5.122   3.871
 1620TIP3    H2 4867   2.005   5.174   4.011
 1621TIP3   OH2 4868   6.006   5.319   1.053
 1621TIP3    H1 4869   5.969   5.272   0.978
 1621TIP3    H2 4870   6.096   5.339   1.027
 1622TIP3   OH2 4871   5.345   1.061   2.144
 1622TIP3    H1 4872   5.306   1.056   2.056
 1622TIP3    H2 4873   5.426   1.011   2.136
 1623TIP3   OH2 4874   3.516   2.369   3.077
 1623TIP3    H1 4875   3.443   2.352   3.017
 1623TIP3    H2 4876   3.529   2.463   3.073
 1624TIP3   OH2 4877   0.521   3.662   2.008
 1624TIP3    H1 4878   0.442   3.633   1.963
 1624TIP3    H2 4879   0.488   3.714   2.082
 1625TIP3   OH2 4880   0.330   3.011   2.484
 1625TIP3    H1 4881   0.392   3.039   2.416
 1625TIP3    H2 4882   0.338   2.916   2.486
 1626TIP3   OH2 4883   5.119   4.826   0.419
 1626TIP3    H1 4884   5.149   4.735   0.421
 1626TIP3    H2 4885   5.199   4.878   0.411
 1627TIP3   OH2 4886   6.037   3.146   3.993
 1627TIP3    H1 4887   6.007   3.237   3.992
 1627TIP3    H2 4888   6.052   3.125   3.900
 1628TIP3   OH2 4889   5.406   1.639   1.442
 1628TIP3    H1 4890   5.446   1.661   1.358
 1628TIP3    H2 4891   5.328   1.693   1.447
 1629TIP3   OH2 4892   1.517   0.208   1.075
 1629TIP3    H1 4893   1.524   0.183   1.167
 1629TIP3    H2 4894   1.578   0.150   1.029
 1630TIP3   OH2 4895   4.141   0.210   0.979
 1630TIP3    H1 4896   4.225   0.176   1.009
 1630TIP3    H2 4897   4.127   0.169   0.894
 1631TIP3   OH2 4898   4.286   5.811   2.212
 1631TIP3    H1 4899   4.286   5.776   2.301
 1631TIP3    H2 4900   4.332   5.745   2.160
 1632TIP3   OH2 4901   3.575   1.546   4.922
 1632TIP3    H1 4902   3.631   1.474   4.950
 1632TIP3    H2 4903   3.624   1.591   4.854
 1633TIP3   OH2 4904   0.551   2.349   3.000
 1633TIP3    H1 4905   0.619   2.374   2.937
 1633TIP3    H2 4906   0.579   2.265   3.035
 1634TIP3   OH2 4907   5.754   0.133   3.075
 1634TIP3    H1 4908   5.725   0.181   3.152
 1634TIP3    H2 4909   5.846   0.113   3.092
 1635TIP3   OH2 4910   4.259   3.218   4.396
 1635TIP3    H1 4911   4.308   3.165   4.333
 1635TIP3    H2 4912   4.285   3.183   4.482
 1636TIP3   OH2 4913   2.390   4.561   2.385
 1636TIP3    H1 4914   2.438   4.582   2.305
 1636TIP3    H2 4915   2.324   4.498   2.357
 1637TIP3   OH2 4916   2.295   1.651   4.018
 1637TIP3    H1 4917   2.362   1.583   4.012
 1637TIP3    H2 4918   2.253   1.636   4.103
 1638TIP3   OH2 4919   4.842   3.466   4.553
 1638TIP3    H1 4920   4.820   3.377   4.524
 1638TIP3    H2 4921   4.932   3.458   4.586
 1639TIP3   OH2 4922   3.572   4.031   3.367
 1639TIP3    H1 4923   3.502   4.011   3.430
 1639TIP3    H2 4924   3.653   4.014   3.415
 1640TIP3   OH2 4925   2.607   0.032   0.915
 1640TIP3    H1 4926   2.663   0.110   0.905
 1640TIP3    H2 4927   2.519   0.068   0.927
 1641TIP3   OH2 4928   2.030   4.304   1.372
 1641TIP3    H1 4929   2.060   4.248   1.444
 1641TIP3    H2 4930   1.936   4.287   1.367
 1642TIP3   OH2 4931   0.358   1.977   0.371
 1642TIP3    H1 4932   0.334   2.068   0.352
 1642TIP3    H2 4933   0.453   1.979   0.383
 1643TIP3   OH2 4934   1.633   5.539   1.161
 1643TIP3    H1 4935   1.670   5.601   1.223
 1643TIP3    H2 4936   1.685   5.459   1.173
 1644TIP3   OH2 4937   3.568   4.626   0.425
 1644TIP3    H1 4938   3.576   4.654   0.334
 1644TIP3    H2 4939   3.583   4.705   0.476
 1645TIP3   OH2 4940   5.776   3.619   3.043
 1645TIP3    H1 4941   5.861   3.613   3.088
 1645TIP3    H2 4942   5.790   3.575   2.960
 1646TIP3   OH2 4943   5.765   3.115   0.280
 1646TIP3    H1 4944   5.825   3.108   0.206
 1646TIP3    H2 4945   5.707   3.040   0.271
 1647TIP3   OH2 4946   2.097   2.906   4.238
 1647TIP3    H1 4947   2.118   2.904   4.145
 1647TIP3    H2 4948   2.017   2.854   4.246
 1648TIP3   OH2 4949   0.879   4.764   3.393
 1648TIP3    H1 4950   0.970   4.748   3.417
 1648TIP3    H2 4951   0.880   4.769   3.297
 1649TIP3   OH2 4952   2.276   0.038   1.433
 1649TIP3    H1 4953   2.313   0.054   1.346
 1649TIP3    H2 4954   2.304   0.113   1.485
 1650TIP3   OH2 4955   3.144   2.525   0.074
 1650TIP3    H1 4956   3.152   2.478  -0.009
 1650TIP3    H2 4957   3.200   2.602   0.064
 1651TIP3   OH2 4958   0.253   2.562   2.389
 1651TIP3    H1 4959   0.172   2.523   2.357
 1651TIP3    H2 4960   0.233   2.655   2.398
 1652TIP3   OH2 4961   5.812   0.461   1.515
 1652TIP3    H1 4962   5.731   0.417   1.541
 1652TIP3    H2 4963   5.789   0.554   1.517
 1653TIP3   OH2 4964   1.276   0.552   1.339
 1653TIP3    H1 4965   1.256   0.640   1.309
 1653TIP3    H2 4966   1.313   0.563   1.427
 1654TIP3   OH2 4967   4.769   4.444   4.031
 1654TIP3    H1 4968   4.842   4.384   4.017
 1654TIP3    H2 4969   4.809   4.530   4.034
 1655TIP3   OH2 4970   3.339   1.278   3.036
 1655TIP3    H1 4971   3.431   1.252   3.033
 1655TIP3    H2 4972   3.300   1.220   3.101
 1656TIP3   OH2 4973   5.726   3.679   4.236
 1656TIP3    H1 4974   5.647   3.674   4.182
 1656TIP3    H2 4975   5.721   3.602   4.294
 1657TIP3   OH2 4976   3.909   1.435   1.254
 1657TIP3    H1 4977   3.931   1.525   1.279
 1657TIP3    H2 4978   3.969   1.415   1.182
 1658TIP3   OH2 4979   4.162   3.827   4.221
 1658TIP3    H1 4980   4.237   3.867   4.263
 1658TIP3    H2 4981   4.195   3.745   4.184
 1659TIP3   OH2 4982   5.289   5.360   1.989
 1659TIP3    H1 4983   5.290   5.363   2.085
 1659TIP3    H2 4984   5.271   5.450   1.963
 1660TIP3   OH2 4985   0.479   4.054   4.326
 1660TIP3    H1 4986   0.545   4.113   4.290
 1660TIP3    H2 4987   0.449   4.097   4.406
 1661TIP3   OH2 4988   0.856   0.314   1.876
 1661TIP3    H1 4989   0.905   0.393   1.898
 1661TIP3    H2 4990   0.766   0.344   1.866
 1662TIP3   OH2 4991   1.493   1.844   4.544
 1662TIP3    H1 4992   1.441   1.782   4.492
 1662TIP3    H2 4993   1.433   1.876   4.611
 1663TIP3   OH2 4994   1.232   4.703   1.567
 1663TIP3    H1 4995   1.230   4.798   1.562
 1663TIP3    H2 4996   1.147   4.675   1.534
 1664TIP3   OH2 4997   2.290   4.332   2.661
 1664TIP3    H1 4998   2.231   4.264   2.629
 1664TIP3    H2 4999   2.310   4.305   2.751
 1665TIP3   OH2 5000   1.662   3.976   0.804
 1665TIP3    H1 5001   1.609   3.968   0.725
 1665TIP3    H2 5002   1.598   3.972   0.876
 1666TIP3   OH2 5003   6.078   3.453   2.222
 1666TIP3    H1 5004   6.086   3.372   2.272
 1666TIP3    H2 5005   6.147   3.447   2.156
 1667TIP3   OH2 5006   5.969   5.119   3.856
 1667TIP3    H1 5007   5.973   5.150   3.946
 1667TIP3    H2 5008   6.046   5.063   3.846
 1668TIP3   OH2 5009   1.283   5.677   0.803
 1668TIP3    H1 5010   1.342   5.639   0.868
 1668TIP3    H2 5011   1.321   5.762   0.783
 1669TIP3   OH2 5012   4.073   0.081   4.061
 1669TIP3    H1 5013   4.086   0.169   4.025
 1669TIP3    H2 5014   4.145   0.030   4.024
 1670TIP3   OH2 5015   1.038   0.763   3.544
 1670TIP3    H1 5016   1.093   0.838   3.521
 1670TIP3    H2 5017   0.949   0.797   3.540
 1671TIP3   OH2 5018   1.955   3.713   4.166
 1671TIP3    H1 5019   1.913   3.627   4.159
 1671TIP3    H2 5020   2.027   3.700   4.227
 1672TIP3   OH2 5021   2.333   4.413   4.239
 1672TIP3    H1 5022   2.381   4.335   4.212
 1672TIP3    H2 5023   2.242   4.386   4.240
 1673TIP3   OH2 5024   0.887   3.993   4.509
 1673TIP3    H1 5025   0.915   4.003   4.418
 1673TIP3    H2 5026   0.856   4.080   4.535
 1674TIP3   OH2 5027   4.171   0.600   4.271
 1674TIP3    H1 5028   4.220   0.675   4.305
 1674TIP3    H2 5029   4.239   0.535   4.249
 1675TIP3   OH2 5030   1.173   0.450   5.110
 1675TIP3    H1 5031   1.204   0.540   5.106
 1675TIP3    H2 5032   1.178   0.419   5.019
 1676TIP3   OH2 5033   1.312   3.549   0.981
 1676TIP3    H1 5034   1.219   3.553   1.003
 1676TIP3    H2 5035   1.317   3.483   0.913
 1677TIP3   OH2 5036   4.198   4.918   3.076
 1677TIP3    H1 5037   4.254   4.996   3.087
 1677TIP3    H2 5038   4.252   4.858   3.025
 1678TIP3   OH2 5039   2.418   4.159   2.105
 1678TIP3    H1 5040   2.463   4.237   2.073
 1678TIP3    H2 5041   2.393   4.112   2.025
 1679TIP3   OH2 5042   5.764   0.485   0.952
 1679TIP3    H1 5043   5.721   0.501   1.037
 1679TIP3    H2 5044   5.720   0.407   0.918
 1680TIP3   OH2 5045   4.517   2.757   0.462
 1680TIP3    H1 5046   4.450   2.760   0.531
 1680TIP3    H2 5047   4.509   2.670   0.425
 1681TIP3   OH2 5048   3.400   5.234   1.314
 1681TIP3    H1 5049   3.455   5.308   1.338
 1681TIP3    H2 5050   3.451   5.157   1.340
 1682TIP3   OH2 5051   5.373   3.663   0.642
 1682TIP3    H1 5052   5.345   3.649   0.552
 1682TIP3    H2 5053   5.297   3.701   0.685
 1683TIP3   OH2 5054   2.247   2.245   1.920
 1683TIP3    H1 5055   2.277   2.173   1.864
 1683TIP3    H2 5056   2.219   2.202   2.001
 1684TIP3   OH2 5057   2.248   1.448   4.791
 1684TIP3    H1 5058   2.246   1.407   4.705
 1684TIP3    H2 5059   2.269   1.377   4.851
 1685TIP3   OH2 5060   5.361   4.949   2.700
 1685TIP3    H1 5061   5.340   4.901   2.619
 1685TIP3    H2 5062   5.285   4.933   2.757
 1686TIP3   OH2 5063   4.987   5.333   2.378
 1686TIP3    H1 5064   4.917   5.267   2.378
 1686TIP3    H2 5065   4.972   5.384   2.299
 1687TIP3   OH2 5066   2.686   3.101   1.246
 1687TIP3    H1 5067   2.659   3.054   1.167
 1687TIP3    H2 5068   2.682   3.036   1.315
 1688TIP3   OH2 5069   1.472   5.682   1.941
 1688TIP3    H1 5070   1.412   5.741   1.895
 1688TIP3    H2 5071   1.559   5.713   1.916
 1689TIP3   OH2 5072   0.102   0.626   2.771
 1689TIP3    H1 5073   0.137   0.707   2.807
 1689TIP3    H2 5074   0.147   0.557   2.818
 1690TIP3   OH2 5075   1.304   2.916   0.567
 1690TIP3    H1 5076   1.395   2.911   0.594
 1690TIP3    H2 5077   1.282   3.009   0.571
 1691TIP3   OH2 5078   4.649   5.578   0.729
 1691TIP3    H1 5079   4.632   5.488   0.701
 1691TIP3    H2 5080   4.686   5.568   0.817
 1692TIP3   OH2 5081   2.888   5.973   0.530
 1692TIP3    H1 5082   2.918   5.893   0.487
 1692TIP3    H2 5083   2.967   6.016   0.561
 1693TIP3   OH2 5084   3.067   3.483   2.386
 1693TIP3    H1 5085   3.099   3.428   2.458
 1693TIP3    H2 5086   2.975   3.499   2.408
 1694TIP3   OH2 5087   4.889   4.815   3.165
 1694TIP3    H1 5088   4.859   4.768   3.087
 1694TIP3    H2 5089   4.923   4.746   3.223
 1695TIP3   OH2 5090   4.508   1.049   2.393
 1695TIP3    H1 5091   4.546   1.130   2.426
 1695TIP3    H2 5092   4.418   1.072   2.372
 1696TIP3   OH2 5093   3.536   2.781   3.309
 1696TIP3    H1 5094   3.621   2.760   3.347
 1696TIP3    H2 5095   3.490   2.829   3.377
 1697TIP3   OH2 5096   2.576   0.672   1.605
 1697TIP3    H1 5097   2.628   0.627   1.672
 1697TIP3    H2 5098   2.581   0.615   1.528
 1698TIP3   OH2 5099   4.095   1.472   2.924
 1698TIP3    H1 5100   4.027   1.538   2.921
 1698TIP3    H2 5101   4.048   1.388   2.927
 1699TIP3   OH2 5102   0.877   5.072   2.274
 1699TIP3    H1 5103   0.863   5.048   2.365
 1699TIP3    H2 5104   0.934   5.004   2.239
 1700TIP3   OH2 5105   6.251   3.208   0.079
 1700TIP3    H1 5106   6.177   3.268   0.087
 1700TIP3    H2 5107   6.251   3.182  -0.013
 1701TIP3   OH2 5108   2.154   3.822   3.569
 1701TIP3    H1 5109   2.207   3.853   3.496
 1701TIP3    H2 5110   2.110   3.744   3.535
 1702TIP3   OH2 5111   4.581   5.321   2.878
 1702TIP3    H1 5112   4.658   5.285   2.922
 1702TIP3    H2 5113   4.560   5.258   2.810
 1703TIP3   OH2 5114   4.171   2.759   4.875
 1703TIP3    H1 5115   4.104   2.711   4.924
 1703TIP3    H2 5116   4.124   2.834   4.838
 1704TIP3   OH2 5117   6.306   5.447   4.296
 1704TIP3    H1 5118   6.222   5.442   4.341
 1704TIP3    H2 5119   6.283   5.450   4.203
 1705TIP3   OH2 5120   6.254   3.684   1.339
 1705TIP3    H1 5121   6.316   3.648   1.401
 1705TIP3    H2 5122   6.213   3.757   1.386
 1706TIP3   OH2 5123   0.341   3.844   3.639
 1706TIP3    H1 5124   0.370   3.925   3.680
 1706TIP3    H2 5125   0.326   3.868   3.548
 1707TIP3   OH2 5126   6.100   3.450   1.324
 1707TIP3    H1 5127   6.117   3.544   1.319
 1707TIP3    H2 5128   6.177   3.413   1.368
 1708TIP3   OH2 5129   5.330   0.938   2.561
 1708TIP3    H1 5130   5.276   0.859   2.563
 1708TIP3    H2 5131   5.352   0.955   2.653
 1709TIP3   OH2 5132   0.106   3.857   1.041
 1709TIP3    H1 5133   0.124   3.888   0.953
 1709TIP3    H2 5134   0.086   3.936   1.092
 1710TIP3   OH2 5135   1.549   2.307   2.281
 1710TIP3    H1 5136   1.622   2.365   2.262
 1710TIP3    H2 5137   1.472   2.363   2.279
 1711TIP3   OH2 5138   1.362   0.694   4.305
 1711TIP3    H1 5139   1.365   0.601   4.328
 1711TIP3    H2 5140   1.440   0.707   4.250
 1712TIP3   OH2 5141   1.584   4.220   4.941
 1712TIP3    H1 5142   1.613   4.255   4.857
 1712TIP3    H2 5143   1.517   4.156   4.919
 1713TIP3   OH2 5144   3.338   5.237   3.869
 1713TIP3    H1 5145   3.305   5.265   3.783
 1713TIP3    H2 5146   3.260   5.212   3.918
 1714TIP3   OH2 5147   3.474   5.064   2.660
 1714TIP3    H1 5148   3.432   5.118   2.593
 1714TIP3    H2 5149   3.431   4.978   2.652
 1715TIP3   OH2 5150   2.004   0.069   4.144
 1715TIP3    H1 5151   2.057   0.018   4.083
 1715TIP3    H2 5152   2.037   0.158   4.134
 1716TIP3   OH2 5153   1.810   1.475   0.384
 1716TIP3    H1 5154   1.820   1.563   0.421
 1716TIP3    H2 5155   1.862   1.419   0.442
 1717TIP3   OH2 5156   0.248   5.972   1.168
 1717TIP3    H1 5157   0.222   6.001   1.081
 1717TIP3    H2 5158   0.213   5.884   1.176
 1718TIP3   OH2 5159   5.264   2.134   4.805
 1718TIP3    H1 5160   5.210   2.161   4.731
 1718TIP3    H2 5161   5.352   2.163   4.782
 1719TIP3   OH2 5162   4.910   1.477   1.376
 1719TIP3    H1 5163   4.888   1.403   1.433
 1719TIP3    H2 5164   4.826   1.522   1.363
 1720TIP3   OH2 5165   3.175   5.255   2.165
 1720TIP3    H1 5166   3.220   5.245   2.081
 1720TIP3    H2 5167   3.083   5.271   2.142
 1721TIP3   OH2 5168   0.209   5.710   1.219
 1721TIP3    H1 5169   0.167   5.637   1.174
 1721TIP3    H2 5170   0.291   5.673   1.253
 1722TIP3   OH2 5171   1.142   4.215   4.968
 1722TIP3    H1 5172   1.064   4.162   4.953
 1722TIP3    H2 5173   1.183   4.225   4.882
 1723TIP3   OH2 5174   0.910   4.272   4.520
 1723TIP3    H1 5175   0.894   4.329   4.445
 1723TIP3    H2 5176   1.000   4.242   4.508
 1724TIP3   OH2 5177   3.108   1.917   0.790
 1724TIP3    H1 5178   3.129   1.848   0.853
 1724TIP3    H2 5179   3.151   1.995   0.825
 1725TIP3   OH2 5180   2.583   2.835   3.795
 1725TIP3    H1 5181   2.555   2.813   3.706
 1725TIP3    H2 5182   2.672   2.869   3.784
 1726TIP3   OH2 5183   3.292   0.896   0.306
 1726TIP3    H1 5184   3.356   0.825   0.305
 1726TIP3    H2 5185   3.280   0.915   0.399
 1727TIP3   OH2 5186   2.194   1.086   0.547
 1727TIP3    H1 5187   2.186   0.994   0.573
 1727TIP3    H2 5188   2.286   1.097   0.525
 1728TIP3   OH2 5189   5.585   2.554   5.009
 1728TIP3    H1 5190   5.600   2.509   4.926
 1728TIP3    H2 5191   5.673   2.574   5.042
 1729TIP3   OH2 5192   6.217   0.051   1.592
 1729TIP3    H1 5193   6.143  -0.010   1.595
 1729TIP3    H2 5194   6.176   0.137   1.600
 1730TIP3   OH2 5195   2.205   3.216   0.878
 1730TIP3    H1 5196   2.288   3.168   0.882
 1730TIP3    H2 5197   2.194   3.253   0.965
 1731TIP3   OH2 5198   0.627   1.012   3.743
 1731TIP3    H1 5199   0.715   1.050   3.730
 1731TIP3    H2 5200   0.567   1.085   3.729
 1732TIP3   OH2 5201   0.244   3.437   0.095
 1732TIP3    H1 5202   0.195   3.375   0.149
 1732TIP3    H2 5203   0.294   3.489   0.158
 1733TIP3   OH2 5204   0.343   5.041   1.608
 1733TIP3    H1 5205   0.366   5.134   1.600
 1733TIP3    H2 5206   0.282   5.038   1.682
 1734TIP3   OH2 5207   0.832   3.008   2.376
 1734TIP3    H1 5208   0.803   2.991   2.287
 1734TIP3    H2 5209   0.835   3.103   2.383
 1735TIP3   OH2 5210   1.547   4.771   4.426
 1735TIP3    H1 5211   1.636   4.784   4.393
 1735TIP3    H2 5212   1.517   4.691   4.383
 1736TIP3   OH2 5213   6.001   0.602   0.891
 1736TIP3    H1 5214   6.057   0.641   0.958
 1736TIP3    H2 5215   5.916   0.593   0.933
 1737TIP3   OH2 5216   3.212   0.551   3.573
 1737TIP3    H1 5217   3.252   0.633   3.602
 1737TIP3    H2 5218   3.282   0.486   3.579
 1738TIP3   OH2 5219   3.947   1.385   5.126
 1738TIP3    H1 5220   3.949   1.451   5.196
 1738TIP3    H2 5221   4.039   1.368   5.106
 1739TIP3   OH2 5222   0.674   1.142   3.419
 1739TIP3    H1 5223   0.671   1.173   3.329
 1739TIP3    H2 5224   0.654   1.049   3.413
 1740TIP3   OH2 5225   3.874   3.330   1.266
 1740TIP3    H1 5226   3.795   3.305   1.220
 1740TIP3    H2 5227   3.925   3.250   1.273
 1741TIP3   OH2 5228   3.768   4.781   3.960
 1741TIP3    H1 5229   3.838   4.749   4.017
 1741TIP3    H2 5230   3.708   4.827   4.019
 1742TIP3   OH2 5231   0.670   0.155   5.154
 1742TIP3    H1 5232   0.731   0.094   5.195
 1742TIP3    H2 5233   0.723   0.200   5.088
 1743TIP3   OH2 5234   2.703   0.071   4.132
 1743TIP3    H1 5235   2.780   0.016   4.118
 1743TIP3    H2 5236   2.731   0.136   4.197
 1744TIP3   OH2 5237   5.118   5.216   2.628
 1744TIP3    H1 5238   5.194   5.237   2.682
 1744TIP3    H2 5239   5.106   5.122   2.641
 1745TIP3   OH2 5240   6.351   0.345   4.231
 1745TIP3    H1 5241   6.325   0.384   4.147
 1745TIP3    H2 5242   6.301   0.394   4.297
 1746TIP3   OH2 5243   5.538   5.843   4.996
 1746TIP3    H1 5244   5.482   5.834   5.073
 1746TIP3    H2 5245   5.591   5.764   4.996
 1747TIP3   OH2 5246  -0.022   2.677   2.813
 1747TIP3    H1 5247   0.048   2.725   2.769
 1747TIP3    H2 5248   0.023   2.630   2.884
 1748TIP3   OH2 5249   5.995   5.833   4.664
 1748TIP3    H1 5250   5.907   5.850   4.629
 1748TIP3    H2 5251   6.054   5.858   4.592
 1749TIP3   OH2 5252   1.965   4.324   3.217
 1749TIP3    H1 5253   2.031   4.391   3.200
 1749TIP3    H2 5254   2.010   4.241   3.206
 1750TIP3   OH2 5255   1.122   2.962   1.502
 1750TIP3    H1 5256   1.150   2.900   1.435
 1750TIP3    H2 5257   1.184   3.035   1.496
 1751TIP3   OH2 5258   0.575   0.153   1.660
 1751TIP3    H1 5259   0.583   0.245   1.636
 1751TIP3    H2 5260   0.483   0.132   1.641
 1752TIP3   OH2 5261   6.268   5.470   3.358
 1752TIP3    H1 5262   6.213   5.392   3.356
 1752TIP3    H2 5263   6.340   5.450   3.297
 1753TIP3   OH2 5264   4.081   3.476   2.146
 1753TIP3    H1 5265   4.117   3.472   2.057
 1753TIP3    H2 5266   4.014   3.407   2.148
 1754TIP3   OH2 5267   1.122   0.460   3.726
 1754TIP3    H1 5268   1.165   0.447   3.641
 1754TIP3    H2 5269   1.133   0.376   3.771
 1755TIP3   OH2 5270   0.004   5.000   4.450
 1755TIP3    H1 5271  -0.086   5.009   4.481
 1755TIP3    H2 5272   0.047   5.081   4.478
 1756TIP3   OH2 5273   0.902   5.785   3.419
 1756TIP3    H1 5274   0.898   5.764   3.512
 1756TIP3    H2 5275   0.895   5.701   3.375
 1757TIP3   OH2 5276   5.522   1.442   2.501
 1757TIP3    H1 5277   5.462   1.492   2.446
 1757TIP3    H2 5278   5.600   1.498   2.507
 1758TIP3   OH2 5279   5.645   4.016   4.016
 1758TIP3    H1 5280   5.608   3.949   3.958
 1758TIP3    H2 5281   5.580   4.087   4.015
 1759TIP3   OH2 5282   4.679   4.788   4.870
 1759TIP3    H1 5283   4.681   4.722   4.800
 1759TIP3    H2 5284   4.688   4.736   4.950
 1760TIP3   OH2 5285   0.918   4.378   4.259
 1760TIP3    H1 5286   0.831   4.417   4.264
 1760TIP3    H2 5287   0.959   4.418   4.182
 1761TIP3   OH2 5288   4.438   0.150   1.747
 1761TIP3    H1 5289   4.438   0.202   1.667
 1761TIP3    H2 5290   4.399   0.066   1.720
 1762TIP3   OH2 5291   2.376   4.257   2.914
 1762TIP3    H1 5292   2.453   4.273   2.968
 1762TIP3    H2 5293   2.356   4.164   2.925
 1763TIP3   OH2 5294   1.190   5.612   5.099
 1763TIP3    H1 5295   1.102   5.611   5.061
 1763TIP3    H2 5296   1.208   5.705   5.113
 1764TIP3   OH2 5297   3.937   2.893   1.932
 1764TIP3    H1 5298   4.019   2.858   1.895
 1764TIP3    H2 5299   3.871   2.876   1.865
 1765TIP3   OH2 5300   5.278   3.588   1.670
 1765TIP3    H1 5301   5.215   3.525   1.634
 1765TIP3    H2 5302   5.351   3.587   1.608
 1766TIP3   OH2 5303   2.877   3.209   0.761
 1766TIP3    H1 5304   2.812   3.168   0.704
 1766TIP3    H2 5305   2.908   3.285   0.712
 1767TIP3   OH2 5306   1.435   3.121   3.211
 1767TIP3    H1 5307   1.438   3.070   3.130
 1767TIP3    H2 5308   1.348   3.104   3.246
 1768TIP3   OH2 5309   4.372   3.933   4.363
 1768TIP3    H1 5310   4.455   3.956   4.405
 1768TIP3    H2 5311   4.343   4.015   4.323
 1769TIP3   OH2 5312   1.250   3.086   2.716
 1769TIP3    H1 5313   1.304   3.008   2.701
 1769TIP3    H2 5314   1.266   3.141   2.639
 1770TIP3   OH2 5315   2.047   1.586   2.982
 1770TIP3    H1 5316   2.119   1.557   3.039
 1770TIP3    H2 5317   2.022   1.507   2.934
 1771TIP3   OH2 5318   1.368   1.047   0.553
 1771TIP3    H1 5319   1.430   0.975   0.544
 1771TIP3    H2 5320   1.326   1.054   0.468
 1772TIP3   OH2 5321   5.329   1.217   4.147
 1772TIP3    H1 5322   5.257   1.279   4.156
 1772TIP3    H2 5323   5.406   1.266   4.176
 1773TIP3   OH2 5324   2.556   5.319   3.422
 1773TIP3    H1 5325   2.514   5.284   3.500
 1773TIP3    H2 5326   2.482   5.350   3.368
 1774TIP3   OH2 5327   4.449   1.299   2.515
 1774TIP3    H1 5328   4.507   1.321   2.442
 1774TIP3    H2 5329   4.448   1.377   2.570
 1775TIP3   OH2 5330   6.224   5.034   3.962
 1775TIP3    H1 5331   6.311   5.010   3.992
 1775TIP3    H2 5332   6.168   4.960   3.984
 1776TIP3   OH2 5333   1.779   1.249   4.787
 1776TIP3    H1 5334   1.700   1.197   4.797
 1776TIP3    H2 5335   1.812   1.226   4.700
 1777TIP3   OH2 5336   0.274   5.002   0.096
 1777TIP3    H1 5337   0.232   5.028   0.013
 1777TIP3    H2 5338   0.323   4.923   0.074
 1778TIP3   OH2 5339   4.543   5.709   1.373
 1778TIP3    H1 5340   4.502   5.678   1.292
 1778TIP3    H2 5341   4.509   5.651   1.441
 1779TIP3   OH2 5342   3.163   1.719   1.027
 1779TIP3    H1 5343   3.150   1.639   0.975
 1779TIP3    H2 5344   3.222   1.693   1.097
 1780TIP3   OH2 5345   3.111   1.205   0.470
 1780TIP3    H1 5346   3.091   1.113   0.453
 1780TIP3    H2 5347   3.057   1.227   0.546
 1781TIP3   OH2 5348   3.598   2.454   1.571
 1781TIP3    H1 5349   3.513   2.434   1.533
 1781TIP3    H2 5350   3.598   2.549   1.582
 1782TIP3   OH2 5351   3.990   1.846   2.776
 1782TIP3    H1 5352   3.902   1.830   2.809
 1782TIP3    H2 5353   4.023   1.918   2.830
 1783TIP3   OH2 5354   2.924   0.288   0.134
 1783TIP3    H1 5355   2.845   0.263   0.183
 1783TIP3    H2 5356   2.990   0.224   0.161
 1784TIP3   OH2 5357   6.248   3.832   2.314
 1784TIP3    H1 5358   6.234   3.920   2.351
 1784TIP3    H2 5359   6.231   3.843   2.220
 1785TIP3   OH2 5360   3.248   5.881   2.049
 1785TIP3    H1 5361   3.177   5.907   2.107
 1785TIP3    H2 5362   3.234   5.788   2.034
 1786TIP3   OH2 5363   4.562   3.399   0.287
 1786TIP3    H1 5364   4.649   3.360   0.288
 1786TIP3    H2 5365   4.541   3.409   0.195
 1787TIP3   OH2 5366   1.914   5.685   2.321
 1787TIP3    H1 5367   1.907   5.625   2.246
 1787TIP3    H2 5368   1.833   5.737   2.318
 1788TIP3   OH2 5369   5.563   3.658   2.650
 1788TIP3    H1 5370   5.592   3.569   2.668
 1788TIP3    H2 5371   5.639   3.712   2.669
 1789TIP3   OH2 5372   6.050   0.131   3.091
 1789TIP3    H1 5373   6.074   0.184   3.014
 1789TIP3    H2 5374   6.121   0.145   3.153
 1790TIP3   OH2 5375   0.611   3.965   1.845
 1790TIP3    H1 5376   0.578   3.991   1.759
 1790TIP3    H2 5377   0.532   3.941   1.895
 1791TIP3   OH2 5378   1.374   5.936   1.341
 1791TIP3    H1 5379   1.380   6.001   1.270
 1791TIP3    H2 5380   1.404   5.983   1.419
 1792TIP3   OH2 5381   3.233   4.027   0.919
 1792TIP3    H1 5382   3.169   3.968   0.960
 1792TIP3    H2 5383   3.309   4.023   0.978
 1793TIP3   OH2 5384   2.447   5.108   3.586
 1793TIP3    H1 5385   2.506   5.035   3.605
 1793TIP3    H2 5386   2.368   5.089   3.637
 1794TIP3   OH2 5387   3.973   4.017   1.083
 1794TIP3    H1 5388   3.937   4.046   0.999
 1794TIP3    H2 5389   4.065   4.000   1.066
 1795TIP3   OH2 5390   3.894   0.184   1.530
 1795TIP3    H1 5391   3.825   0.210   1.469
 1795TIP3    H2 5392   3.975   0.207   1.486
 1796TIP3   OH2 5393   3.907   5.019   4.394
 1796TIP3    H1 5394   3.873   4.936   4.425
 1796TIP3    H2 5395   3.849   5.085   4.431
 1797TIP3   OH2 5396   0.647   2.149   2.269
 1797TIP3    H1 5397   0.666   2.116   2.181
 1797TIP3    H2 5398   0.602   2.076   2.312
 1798TIP3   OH2 5399   4.345   4.468   0.262
 1798TIP3    H1 5400   4.295   4.433   0.335
 1798TIP3    H2 5401   4.291   4.540   0.228
 1799TIP3   OH2 5402   5.859   2.504   0.820
 1799TIP3    H1 5403   5.775   2.551   0.817
 1799TIP3    H2 5404   5.910   2.542   0.748
 1800TIP3   OH2 5405   1.545   2.931   0.721
 1800TIP3    H1 5406   1.639   2.914   0.709
 1800TIP3    H2 5407   1.536   3.025   0.703
 1801TIP3   OH2 5408   3.038   4.384   4.799
 1801TIP3    H1 5409   3.069   4.328   4.870
 1801TIP3    H2 5410   2.979   4.329   4.749
 1802TIP3   OH2 5411   1.405   0.072   2.221
 1802TIP3    H1 5412   1.457   0.106   2.293
 1802TIP3    H2 5413   1.321   0.117   2.229
 1803TIP3   OH2 5414   1.438   2.308   3.713
 1803TIP3    H1 5415   1.418   2.389   3.665
 1803TIP3    H2 5416   1.481   2.252   3.648
 1804TIP3   OH2 5417   4.062   1.346   3.978
 1804TIP3    H1 5418   4.009   1.337   4.057
 1804TIP3    H2 5419   4.149   1.315   4.004
 1805TIP3   OH2 5420   4.555   3.806   3.756
 1805TIP3    H1 5421   4.578   3.735   3.816
 1805TIP3    H2 5422   4.477   3.775   3.711
 1806TIP3   OH2 5423   5.569   2.525   4.455
 1806TIP3    H1 5424   5.475   2.517   4.470
 1806TIP3    H2 5425   5.591   2.449   4.400
 1807TIP3   OH2 5426   6.126   5.540   0.138
 1807TIP3    H1 5427   6.157   5.627   0.111
 1807TIP3    H2 5428   6.048   5.557   0.191
 1808TIP3   OH2 5429   1.202   5.893   0.594
 1808TIP3    H1 5430   1.130   5.847   0.551
 1808TIP3    H2 5431   1.194   5.983   0.564
 1809TIP3   OH2 5432   3.651   5.953   0.029
 1809TIP3    H1 5433   3.746   5.953   0.039
 1809TIP3    H2 5434   3.636   5.992  -0.058
 1810TIP3   OH2 5435   3.891   3.693   4.915
 1810TIP3    H1 5436   3.913   3.691   4.822
 1810TIP3    H2 5437   3.796   3.682   4.918
 1811TIP3   OH2 5438   5.769   0.647   1.795
 1811TIP3    H1 5439   5.789   0.555   1.781
 1811TIP3    H2 5440   5.735   0.652   1.884
 1812TIP3   OH2 5441   5.286   3.546   3.508
 1812TIP3    H1 5442   5.235   3.603   3.566
 1812TIP3    H2 5443   5.347   3.501   3.567
 1813TIP3   OH2 5444   1.966   4.559   1.906
 1813TIP3    H1 5445   1.883   4.565   1.953
 1813TIP3    H2 5446   1.986   4.650   1.882
 1814TIP3   OH2 5447   2.706   3.852   0.569
 1814TIP3    H1 5448   2.716   3.826   0.477
 1814TIP3    H2 5449   2.624   3.812   0.596
 1815TIP3   OH2 5450   3.318   5.392   5.125
 1815TIP3    H1 5451   3.354   5.458   5.065
 1815TIP3    H2 5452   3.314   5.437   5.209
 1816TIP3   OH2 5453   5.885   1.722   2.253
 1816TIP3    H1 5454   5.854   1.631   2.256
 1816TIP3    H2 5455   5.977   1.715   2.229
 1817TIP3   OH2 5456   2.717   3.624   4.210
 1817TIP3    H1 5457   2.728   3.604   4.117
 1817TIP3    H2 5458   2.768   3.557   4.255
 1818TIP3   OH2 5459   3.611   5.875   2.693
 1818TIP3    H1 5460   3.546   5.927   2.647
 1818TIP3    H2 5461   3.693   5.924   2.683
 1819TIP3   OH2 5462   0.952   2.437   2.003
 1819TIP3    H1 5463   0.887   2.382   1.959
 1819TIP3    H2 5464   0.909   2.463   2.085
 1820TIP3   OH2 5465   3.884   0.866   2.525
 1820TIP3    H1 5466   3.879   0.858   2.620
 1820TIP3    H2 5467   3.976   0.851   2.504
 1821TIP3   OH2 5468   4.832   1.870   0.152
 1821TIP3    H1 5469   4.927   1.880   0.150
 1821TIP3    H2 5470   4.799   1.958   0.138
 1822TIP3   OH2 5471   0.229   4.625   1.799
 1822TIP3    H1 5472   0.261   4.663   1.881
 1822TIP3    H2 5473   0.306   4.584   1.760
 1823TIP3   OH2 5474   2.603   2.165   3.319
 1823TIP3    H1 5475   2.607   2.134   3.228
 1823TIP3    H2 5476   2.672   2.231   3.324
 1824TIP3   OH2 5477   6.194   2.295   0.254
 1824TIP3    H1 5478   6.202   2.311   0.160
 1824TIP3    H2 5479   6.256   2.225   0.272
 1825TIP3   OH2 5480   1.203   3.848   4.995
 1825TIP3    H1 5481   1.113   3.819   4.978
 1825TIP3    H2 5482   1.254   3.767   4.996
 1826TIP3   OH2 5483   1.567   0.220   4.472
 1826TIP3    H1 5484   1.609   0.143   4.436
 1826TIP3    H2 5485   1.596   0.224   4.563
 1827TIP3   OH2 5486   5.662   2.215   2.467
 1827TIP3    H1 5487   5.733   2.163   2.428
 1827TIP3    H2 5488   5.664   2.297   2.418
 1828TIP3   OH2 5489   0.581   3.445   4.633
 1828TIP3    H1 5490   0.521   3.393   4.687
 1828TIP3    H2 5491   0.598   3.523   4.685
 1829TIP3   OH2 5492   4.894   0.224   3.743
 1829TIP3    H1 5493   4.863   0.261   3.826
 1829TIP3    H2 5494   4.843   0.143   3.732
 1830TIP3   OH2 5495   3.446   5.722   3.437
 1830TIP3    H1 5496   3.490   5.795   3.393
 1830TIP3    H2 5497   3.376   5.697   3.377
 1831TIP3   OH2 5498   1.643   3.863   0.492
 1831TIP3    H1 5499   1.552   3.847   0.464
 1831TIP3    H2 5500   1.675   3.930   0.432
 1832TIP3   OH2 5501   1.857   2.780   4.220
 1832TIP3    H1 5502   1.828   2.688   4.221
 1832TIP3    H2 5503   1.839   2.811   4.309
 1833TIP3   OH2 5504   0.473   5.618   1.297
 1833TIP3    H1 5505   0.510   5.682   1.359
 1833TIP3    H2 5506   0.504   5.648   1.211
 1834TIP3   OH2 5507   0.209   5.994   4.439
 1834TIP3    H1 5508   0.209   5.973   4.345
 1834TIP3    H2 5509   0.286   6.050   4.451
 1835TIP3   OH2 5510   2.178   4.532   0.376
 1835TIP3    H1 5511   2.203   4.614   0.332
 1835TIP3    H2 5512   2.256   4.507   0.426
 1836TIP3   OH2 5513   0.013   3.999   4.049
 1836TIP3    H1 5514  -0.040   3.966   4.122
 1836TIP3    H2 5515   0.062   4.072   4.086
 1837TIP3   OH2 5516   3.813   2.566   3.116
 1837TIP3    H1 5517   3.888   2.615   3.081
 1837TIP3    H2 5518   3.836   2.475   3.102
 1838TIP3   OH2 5519   4.309   4.569   0.630
 1838TIP3    H1 5520   4.244   4.634   0.657
 1838TIP3    H2 5521   4.282   4.489   0.675
 1839TIP3   OH2 5522   0.765   4.576   0.311
 1839TIP3    H1 5523   0.720   4.528   0.380
 1839TIP3    H2 5524   0.788   4.660   0.350
 1840TIP3   OH2 5525   3.823   2.904   1.393
 1840TIP3    H1 5526   3.748   2.883   1.448
 1840TIP3    H2 5527   3.896   2.910   1.455
 1841TIP3   OH2 5528   6.257   1.555   1.804
 1841TIP3    H1 5529   6.285   1.571   1.894
 1841TIP3    H2 5530   6.338   1.559   1.753
 1842TIP3   OH2 5531   3.474   5.057   0.545
 1842TIP3    H1 5532   3.432   4.971   0.543
 1842TIP3    H2 5533   3.529   5.059   0.467
 1843TIP3   OH2 5534   0.204   5.468   1.775
 1843TIP3    H1 5535   0.168   5.550   1.742
 1843TIP3    H2 5536   0.128   5.420   1.809
 1844TIP3   OH2 5537   2.169   2.065   2.115
 1844TIP3    H1 5538   2.107   2.056   2.043
 1844TIP3    H2 5539   2.238   2.002   2.095
 1845TIP3   OH2 5540   6.075   3.747   2.918
 1845TIP3    H1 5541   6.094   3.736   2.825
 1845TIP3    H2 5542   5.997   3.803   2.921
 1846TIP3   OH2 5543   2.814   5.188   3.445
 1846TIP3    H1 5544   2.773   5.102   3.459
 1846TIP3    H2 5545   2.744   5.242   3.408
 1847TIP3   OH2 5546   3.702   0.360   0.805
 1847TIP3    H1 5547   3.762   0.293   0.837
 1847TIP3    H2 5548   3.721   0.436   0.860
 1848TIP3   OH2 5549   1.727   0.251   2.964
 1848TIP3    H1 5550   1.798   0.315   2.965
 1848TIP3    H2 5551   1.651   0.299   2.997
 1849TIP3   OH2 5552   1.532   1.672   4.764
 1849TIP3    H1 5553   1.532   1.710   4.676
 1849TIP3    H2 5554   1.526   1.577   4.749
 1850TIP3   OH2 5555   1.883   3.822   2.983
 1850TIP3    H1 5556   1.932   3.844   2.904
 1850TIP3    H2 5557   1.911   3.733   3.005
 1851TIP3   OH2 5558   5.092   0.475   0.277
 1851TIP3    H1 5559   5.130   0.387   0.281
 1851TIP3    H2 5560   5.164   0.533   0.304
 1852TIP3   OH2 5561   2.218   5.587   5.014
 1852TIP3    H1 5562   2.124   5.578   5.029
 1852TIP3    H2 5563   2.245   5.503   4.978
 1853TIP3   OH2 5564   5.611   0.678   3.256
 1853TIP3    H1 5565   5.651   0.613   3.197
 1853TIP3    H2 5566   5.601   0.631   3.339
 1854TIP3   OH2 5567   5.277   4.466   5.107
 1854TIP3    H1 5568   5.327   4.547   5.120
 1854TIP3    H2 5569   5.200   4.475   5.163
 1855TIP3   OH2 5570   0.248   5.459   3.963
 1855TIP3    H1 5571   0.159   5.455   3.926
 1855TIP3    H2 5572   0.290   5.379   3.932
 1856TIP3   OH2 5573   1.091   3.237   4.735
 1856TIP3    H1 5574   0.996   3.246   4.741
 1856TIP3    H2 5575   1.104   3.151   4.695
 1857TIP3   OH2 5576   2.347   4.014   1.868
 1857TIP3    H1 5577   2.268   3.981   1.826
 1857TIP3    H2 5578   2.353   4.105   1.840
 1858TIP3   OH2 5579   3.716   3.536   1.965
 1858TIP3    H1 5580   3.698   3.616   2.015
 1858TIP3    H2 5581   3.637   3.520   1.914
 1859TIP3   OH2 5582   0.300   3.964   3.396
 1859TIP3    H1 5583   0.361   4.035   3.373
 1859TIP3    H2 5584   0.232   3.968   3.328
 1860TIP3   OH2 5585   5.428   0.397   3.171
 1860TIP3    H1 5586   5.363   0.392   3.240
 1860TIP3    H2 5587   5.431   0.489   3.145
 1861TIP3   OH2 5588   2.344   2.027   2.544
 1861TIP3    H1 5589   2.278   2.046   2.478
 1861TIP3    H2 5590   2.303   2.052   2.627
 1862TIP3   OH2 5591   2.499   1.961   3.708
 1862TIP3    H1 5592   2.434   1.948   3.778
 1862TIP3    H2 5593   2.559   2.026   3.743
 1863TIP3   OH2 5594   1.038   0.848   0.280
 1863TIP3    H1 5595   0.986   0.769   0.294
 1863TIP3    H2 5596   0.976   0.920   0.292
 1864TIP3   OH2 5597   0.861   4.500   1.991
 1864TIP3    H1 5598   0.930   4.566   1.987
 1864TIP3    H2 5599   0.906   4.417   1.979
 1865TIP3   OH2 5600   4.068   0.071   2.820
 1865TIP3    H1 5601   4.055   0.007   2.750
 1865TIP3    H2 5602   3.995   0.057   2.880
 1866TIP3   OH2 5603   5.143   1.604   4.933
 1866TIP3    H1 5604   5.156   1.661   4.858
 1866TIP3    H2 5605   5.125   1.518   4.895
 1867TIP3   OH2 5606   1.016   2.748   2.235
 1867TIP3    H1 5607   0.953   2.819   2.249
 1867TIP3    H2 5608   0.971   2.669   2.266
 1868TIP3   OH2 5609   4.476   4.215   0.543
 1868TIP3    H1 5610   4.385   4.201   0.514
 1868TIP3    H2 5611   4.485   4.310   0.547
 1869TIP3   OH2 5612   0.642   0.207   0.987
 1869TIP3    H1 5613   0.552   0.225   1.011
 1869TIP3    H2 5614   0.685   0.293   0.991
 1870TIP3   OH2 5615   5.246   0.323   2.936
 1870TIP3    H1 5616   5.303   0.330   3.013
 1870TIP3    H2 5617   5.305   0.304   2.864
 1871TIP3   OH2 5618   1.769   0.104   1.325
 1871TIP3    H1 5619   1.793   0.030   1.270
 1871TIP3    H2 5620   1.852   0.140   1.355
 1872TIP3   OH2 5621   3.223   4.431   0.105
 1872TIP3    H1 5622   3.193   4.509   0.058
 1872TIP3    H2 5623   3.254   4.464   0.190
 1873TIP3   OH2 5624   1.338   1.531   5.097
 1873TIP3    H1 5625   1.345   1.626   5.086
 1873TIP3    H2 5626   1.268   1.519   5.161
 1874TIP3   OH2 5627   1.253   1.438   2.285
 1874TIP3    H1 5628   1.270   1.345   2.303
 1874TIP3    H2 5629   1.327   1.465   2.229
 1875TIP3   OH2 5630   2.484   0.357   2.808
 1875TIP3    H1 5631   2.521   0.270   2.802
 1875TIP3    H2 5632   2.505   0.386   2.897
 1876TIP3   OH2 5633   2.625   5.809   0.728
 1876TIP3    H1 5634   2.676   5.765   0.660
 1876TIP3    H2 5635   2.582   5.739   0.776
 1877TIP3   OH2 5636   5.447   0.425   3.687
 1877TIP3    H1 5637   5.356   0.446   3.709
 1877TIP3    H2 5638   5.480   0.379   3.764
 1878TIP3   OH2 5639   4.424   0.246   4.896
 1878TIP3    H1 5640   4.408   0.265   4.804
 1878TIP3    H2 5641   4.503   0.294   4.918
 1879TIP3   OH2 5642   2.100   4.997   3.080
 1879TIP3    H1 5643   2.152   5.062   3.033
 1879TIP3    H2 5644   2.036   4.966   3.016
 1880TIP3   OH2 5645   5.243   2.947   3.082
 1880TIP3    H1 5646   5.245   2.917   2.991
 1880TIP3    H2 5647   5.331   2.983   3.097
 1881TIP3   OH2 5648   0.184   5.194   4.441
 1881TIP3    H1 5649   0.160   5.283   4.468
 1881TIP3    H2 5650   0.232   5.207   4.359
 1882TIP3   OH2 5651   0.294   0.238   3.169
 1882TIP3    H1 5652   0.387   0.217   3.171
 1882TIP3    H2 5653   0.290   0.331   3.193
 1883TIP3   OH2 5654   2.183   5.902   4.412
 1883TIP3    H1 5655   2.131   5.825   4.388
 1883TIP3    H2 5656   2.260   5.897   4.356
 1884TIP3   OH2 5657   1.203   2.471   1.812
 1884TIP3    H1 5658   1.118   2.439   1.842
 1884TIP3    H2 5659   1.184   2.553   1.768
 1885TIP3   OH2 5660   3.536   2.904   0.911
 1885TIP3    H1 5661   3.568   2.818   0.883
 1885TIP3    H2 5662   3.601   2.935   0.973
 1886TIP3   OH2 5663   0.798   5.041   4.314
 1886TIP3    H1 5664   0.846   4.979   4.369
 1886TIP3    H2 5665   0.861   5.069   4.247
 1887TIP3   OH2 5666   5.917   2.128   2.444
 1887TIP3    H1 5667   5.963   2.167   2.519
 1887TIP3    H2 5668   5.922   2.034   2.459
 1888TIP3   OH2 5669   0.988   4.753   3.830
 1888TIP3    H1 5670   1.010   4.692   3.901
 1888TIP3    H2 5671   1.056   4.820   3.834
 1889TIP3   OH2 5672   1.903   2.436   1.554
 1889TIP3    H1 5673   1.843   2.464   1.622
 1889TIP3    H2 5674   1.968   2.382   1.600
 1890TIP3   OH2 5675   2.574   5.539   4.244
 1890TIP3    H1 5676   2.515   5.590   4.298
 1890TIP3    H2 5677   2.650   5.595   4.231
 1891TIP3   OH2 5678   3.842   5.403   0.018
 1891TIP3    H1 5679   3.777   5.405   0.087
 1891TIP3    H2 5680   3.871   5.312   0.014
 1892TIP3   OH2 5681   0.736   2.213   4.649
 1892TIP3    H1 5682   0.741   2.240   4.741
 1892TIP3    H2 5683   0.761   2.120   4.650
 1893TIP3   OH2 5684   5.572   2.993   0.035
 1893TIP3    H1 5685   5.500   3.001   0.097
 1893TIP3    H2 5686   5.622   2.918   0.065
 1894TIP3   OH2 5687   6.316   0.255   3.462
 1894TIP3    H1 5688   6.395   0.296   3.497
 1894TIP3    H2 5689   6.246   0.317   3.483
 1895TIP3   OH2 5690   3.785   5.673   1.370
 1895TIP3    H1 5691   3.760   5.692   1.460
 1895TIP3    H2 5692   3.860   5.730   1.353
 1896TIP3   OH2 5693   4.644   4.987   1.522
 1896TIP3    H1 5694   4.674   4.920   1.584
 1896TIP3    H2 5695   4.724   5.014   1.476
 1897TIP3   OH2 5696   4.329   5.744   0.233
 1897TIP3    H1 5697   4.406   5.796   0.207
 1897TIP3    H2 5698   4.326   5.673   0.170
 1898TIP3   OH2 5699   4.440   4.658   1.783
 1898TIP3    H1 5700   4.468   4.576   1.742
 1898TIP3    H2 5701   4.358   4.636   1.827
 1899TIP3   OH2 5702   0.689   2.062   1.998
 1899TIP3    H1 5703   0.653   2.071   1.910
 1899TIP3    H2 5704   0.784   2.060   1.986
 1900TIP3   OH2 5705   3.739   2.008   4.471
 1900TIP3    H1 5706   3.664   2.018   4.412
 1900TIP3    H2 5707   3.709   1.945   4.537
 1901TIP3   OH2 5708   4.461   1.630   3.471
 1901TIP3    H1 5709   4.494   1.568   3.405
 1901TIP3    H2 5710   4.475   1.585   3.554
 1902TIP3   OH2 5711   6.092   5.708   2.623
 1902TIP3    H1 5712   5.998   5.715   2.636
 1902TIP3    H2 5713   6.120   5.799   2.606
 1903TIP3   OH2 5714   0.563   3.003   1.656
 1903TIP3    H1 5715   0.504   3.036   1.587
 1903TIP3    H2 5716   0.649   3.039   1.632
 1904TIP3   OH2 5717   0.057   5.167   4.922
 1904TIP3    H1 5718   0.064   5.139   5.013
 1904TIP3    H2 5719   0.012   5.095   4.878
 1905TIP3   OH2 5720   5.186   2.205   3.860
 1905TIP3    H1 5721   5.213   2.294   3.884
 1905TIP3    H2 5722   5.245   2.180   3.789
 1906TIP3   OH2 5723   2.994   3.420   3.838
 1906TIP3    H1 5724   3.047   3.419   3.758
 1906TIP3    H2 5725   3.021   3.342   3.886
 1907TIP3   OH2 5726   2.547   1.199   2.935
 1907TIP3    H1 5727   2.592   1.122   2.969
 1907TIP3    H2 5728   2.607   1.234   2.869
 1908TIP3   OH2 5729   0.775   2.683   0.300
 1908TIP3    H1 5730   0.812   2.703   0.386
 1908TIP3    H2 5731   0.768   2.587   0.298
 1909TIP3   OH2 5732   6.142   4.534   3.683
 1909TIP3    H1 5733   6.216   4.549   3.624
 1909TIP3    H2 5734   6.177   4.552   3.771
 1910TIP3   OH2 5735   0.833   2.530   2.226
 1910TIP3    H1 5736   0.745   2.567   2.236
 1910TIP3    H2 5737   0.832   2.450   2.278
 1911TIP3   OH2 5738   6.328   1.143   3.023
 1911TIP3    H1 5739   6.331   1.193   3.104
 1911TIP3    H2 5740   6.237   1.150   2.994
 1912TIP3   OH2 5741   6.131   2.617   2.125
 1912TIP3    H1 5742   6.116   2.654   2.212
 1912TIP3    H2 5743   6.119   2.690   2.066
 1913TIP3   OH2 5744   4.881   2.984   3.725
 1913TIP3    H1 5745   4.953   2.923   3.707
 1913TIP3    H2 5746   4.804   2.942   3.688
 1914TIP3   OH2 5747   2.607   4.686   3.856
 1914TIP3    H1 5748   2.592   4.607   3.804
 1914TIP3    H2 5749   2.524   4.733   3.852
 1915TIP3   OH2 5750   0.261   3.391   0.879
 1915TIP3    H1 5751   0.344   3.361   0.842
 1915TIP3    H2 5752   0.244   3.331   0.951
 1916TIP3   OH2 5753   2.718   1.053   1.408
 1916TIP3    H1 5754   2.695   1.088   1.322
 1916TIP3    H2 5755   2.638   1.011   1.439
 1917TIP3   OH2 5756   4.993   0.945   5.065
 1917TIP3    H1 5757   4.923   0.967   5.127
 1917TIP3    H2 5758   5.052   1.021   5.067
 1918TIP3   OH2 5759   5.571   0.355   4.841
 1918TIP3    H1 5760   5.626   0.285   4.878
 1918TIP3    H2 5761   5.529   0.395   4.917
 1919TIP3   OH2 5762   5.155   0.693   1.096
 1919TIP3    H1 5763   5.153   0.677   1.002
 1919TIP3    H2 5764   5.085   0.638   1.131
 1920TIP3   OH2 5765   3.150   5.992   3.805
 1920TIP3    H1 5766   3.163   5.959   3.716
 1920TIP3    H2 5767   3.222   5.955   3.855
 1921TIP3   OH2 5768   0.852   3.287   2.416
 1921TIP3    H1 5769   0.774   3.329   2.380
 1921TIP3    H2 5770   0.914   3.284   2.343
 1922TIP3   OH2 5771   3.092   3.625   1.861
 1922TIP3    H1 5772   3.012   3.615   1.809
 1922TIP3    H2 5773   3.162   3.634   1.797
 1923TIP3   OH2 5774   6.006   3.134   0.533
 1923TIP3    H1 5775   6.060   3.151   0.456
 1923TIP3    H2 5776   6.038   3.050   0.567
 1924TIP3   OH2 5777   4.204   3.201   0.260
 1924TIP3    H1 5778   4.217   3.205   0.355
 1924TIP3    H2 5779   4.180   3.290   0.235
 1925TIP3   OH2 5780   2.646   2.556   1.399
 1925TIP3    H1 5781   2.559   2.587   1.423
 1925TIP3    H2 5782   2.656   2.580   1.307
 1926TIP3   OH2 5783   2.700   1.642   0.676
 1926TIP3    H1 5784   2.640   1.567   0.680
 1926TIP3    H2 5785   2.769   1.614   0.616
 1927TIP3   OH2 5786   0.906   1.218   4.857
 1927TIP3    H1 5787   0.923   1.132   4.820
 1927TIP3    H2 5788   0.978   1.233   4.919
 1928TIP3   OH2 5789   1.375   3.786   3.164
 1928TIP3    H1 5790   1.451   3.735   3.135
 1928TIP3    H2 5791   1.378   3.865   3.111
 1929TIP3   OH2 5792   2.534   2.418   3.036
 1929TIP3    H1 5793   2.587   2.457   3.105
 1929TIP3    H2 5794   2.476   2.488   3.008
 1930TIP3   OH2 5795   1.345   0.276   0.854
 1930TIP3    H1 5796   1.394   0.293   0.934
 1930TIP3    H2 5797   1.339   0.181   0.848
 1931TIP3   OH2 5798   2.064   4.783   4.990
 1931TIP3    H1 5799   2.052   4.694   5.026
 1931TIP3    H2 5800   2.151   4.781   4.951
 1932TIP3   OH2 5801   0.436   1.981   2.368
 1932TIP3    H1 5802   0.347   1.951   2.350
 1932TIP3    H2 5803   0.427   2.075   2.386
 1933TIP3   OH2 5804   6.164   3.918   4.504
 1933TIP3    H1 5805   6.253   3.911   4.470
 1933TIP3    H2 5806   6.108   3.886   4.433
 1934TIP3   OH2 5807   0.220   5.478   4.400
 1934TIP3    H1 5808   0.268   5.431   4.332
 1934TIP3    H2 5809   0.131   5.486   4.365
 1935TIP3   OH2 5810   1.417   5.771   0.443
 1935TIP3    H1 5811   1.377   5.810   0.365
 1935TIP3    H2 5812   1.369   5.808   0.516
 1936TIP3   OH2 5813   4.705   3.380   2.055
 1936TIP3    H1 5814   4.740   3.340   1.976
 1936TIP3    H2 5815   4.731   3.472   2.050
 1937TIP3   OH2 5816   2.274   4.078   4.890
 1937TIP3    H1 5817   2.246   3.989   4.868
 1937TIP3    H2 5818   2.208   4.109   4.952
 1938TIP3   OH2 5819   1.873   4.199   4.901
 1938TIP3    H1 5820   1.896   4.290   4.922
 1938TIP3    H2 5821   1.876   4.195   4.806
 1939TIP3   OH2 5822   2.860   1.813   2.073
 1939TIP3    H1 5823   2.925   1.866   2.120
 1939TIP3    H2 5824   2.780   1.824   2.123
 1940TIP3   OH2 5825   0.179   2.958   2.903
 1940TIP3    H1 5826   0.190   2.866   2.930
 1940TIP3    H2 5827   0.239   3.007   2.959
 1941TIP3   OH2 5828   2.396   3.992   1.284
 1941TIP3    H1 5829   2.311   4.004   1.328
 1941TIP3    H2 5830   2.461   4.016   1.350
 1942TIP3   OH2 5831   1.461   2.155   5.084
 1942TIP3    H1 5832   1.525   2.097   5.042
 1942TIP3    H2 5833   1.514   2.225   5.123
 1943TIP3   OH2 5834   0.454   3.287   1.746
 1943TIP3    H1 5835   0.490   3.302   1.834
 1943TIP3    H2 5836   0.529   3.300   1.688
 1944TIP3   OH2 5837   2.924   0.613   3.492
 1944TIP3    H1 5838   3.003   0.600   3.546
 1944TIP3    H2 5839   2.856   0.564   3.537
 1945TIP3   OH2 5840   2.426   4.476   1.370
 1945TIP3    H1 5841   2.380   4.484   1.286
 1945TIP3    H2 5842   2.392   4.395   1.409
 1946TIP3   OH2 5843   4.834   4.156   0.116
 1946TIP3    H1 5844   4.837   4.226   0.052
 1946TIP3    H2 5845   4.766   4.183   0.178
 1947TIP3   OH2 5846   6.206   0.615   0.220
 1947TIP3    H1 5847   6.154   0.536   0.206
 1947TIP3    H2 5848   6.212   0.655   0.133
 1948TIP3   OH2 5849   1.749   3.388   4.434
 1948TIP3    H1 5850   1.835   3.404   4.394
 1948TIP3    H2 5851   1.687   3.434   4.378
 1949TIP3   OH2 5852   4.195   3.159   2.854
 1949TIP3    H1 5853   4.101   3.159   2.873
 1949TIP3    H2 5854   4.237   3.165   2.940
 1950TIP3   OH2 5855   5.301   0.635   3.080
 1950TIP3    H1 5856   5.335   0.719   3.049
 1950TIP3    H2 5857   5.235   0.659   3.145
 1951TIP3   OH2 5858   2.700   2.337   0.256
 1951TIP3    H1 5859   2.791   2.313   0.238
 1951TIP3    H2 5860   2.668   2.268   0.314
 1952TIP3   OH2 5861   2.908   2.749   1.377
 1952TIP3    H1 5862   2.866   2.697   1.309
 1952TIP3    H2 5863   2.977   2.796   1.331
 1953TIP3   OH2 5864   3.794   1.223   1.760
 1953TIP3    H1 5865   3.710   1.208   1.718
 1953TIP3    H2 5866   3.857   1.230   1.688
 1954TIP3   OH2 5867   5.074   5.185   1.381
 1954TIP3    H1 5868   5.111   5.151   1.299
 1954TIP3    H2 5869   5.138   5.160   1.448
 1955TIP3   OH2 5870   6.063   0.377   0.209
 1955TIP3    H1 5871   6.139   0.328   0.177
 1955TIP3    H2 5872   6.026   0.321   0.277
 1956TIP3   OH2 5873   0.819   2.926   1.433
 1956TIP3    H1 5874   0.789   3.014   1.456
 1956TIP3    H2 5875   0.889   2.908   1.495
 1957TIP3   OH2 5876   4.896   3.341   0.962
 1957TIP3    H1 5877   4.910   3.422   0.912
 1957TIP3    H2 5878   4.882   3.371   1.052
 1958TIP3   OH2 5879   4.335   5.595   1.939
 1958TIP3    H1 5880   4.244   5.613   1.963
 1958TIP3    H2 5881   4.353   5.509   1.977
 1959TIP3   OH2 5882   0.661   1.884   4.093
 1959TIP3    H1 5883   0.629   1.809   4.143
 1959TIP3    H2 5884   0.729   1.848   4.037
 1960TIP3   OH2 5885   0.793   1.329   0.535
 1960TIP3    H1 5886   0.776   1.350   0.443
 1960TIP3    H2 5887   0.738   1.390   0.584
 1961TIP3   OH2 5888   3.072   5.246   3.421
 1961TIP3    H1 5889   2.979   5.249   3.444
 1961TIP3    H2 5890   3.073   5.210   3.332
 1962TIP3   OH2 5891   0.362   3.411   4.189
 1962TIP3    H1 5892   0.400   3.323   4.184
 1962TIP3    H2 5893   0.419   3.457   4.250
 1963TIP3   OH2 5894   2.888   4.057   0.451
 1963TIP3    H1 5895   2.849   4.003   0.519
 1963TIP3    H2 5896   2.833   4.135   0.447
 1964TIP3   OH2 5897   2.944   0.152   4.982
 1964TIP3    H1 5898   2.949   0.173   4.889
 1964TIP3    H2 5899   2.871   0.205   5.015
 1965TIP3   OH2 5900   0.822   0.407   0.995
 1965TIP3    H1 5901   0.916   0.404   0.980
 1965TIP3    H2 5902   0.811   0.385   1.088
 1966TIP3   OH2 5903   5.537   3.884   1.876
 1966TIP3    H1 5904   5.453   3.839   1.871
 1966TIP3    H2 5905   5.561   3.880   1.969
 1967TIP3   OH2 5906   4.940   1.450   1.949
 1967TIP3    H1 5907   4.990   1.496   2.017
 1967TIP3    H2 5908   5.006   1.415   1.890
 1968TIP3   OH2 5909   4.408   2.152   0.463
 1968TIP3    H1 5910   4.418   2.168   0.370
 1968TIP3    H2 5911   4.339   2.085   0.469
 1969TIP3   OH2 5912   3.500   1.327   1.930
 1969TIP3    H1 5913   3.405   1.326   1.924
 1969TIP3    H2 5914   3.518   1.380   2.008
 1970TIP3   OH2 5915   6.145   1.919   2.055
 1970TIP3    H1 5916   6.145   1.837   2.105
 1970TIP3    H2 5917   6.194   1.897   1.975
 1971TIP3   OH2 5918   4.020   2.778   2.803
 1971TIP3    H1 5919   3.940   2.829   2.812
 1971TIP3    H2 5920   4.016   2.714   2.875
 1972TIP3   OH2 5921   2.975   2.721   2.776
 1972TIP3    H1 5922   2.954   2.780   2.849
 1972TIP3    H2 5923   2.892   2.679   2.754
 1973TIP3   OH2 5924   5.773   5.608   0.451
 1973TIP3    H1 5925   5.861   5.647   0.455
 1973TIP3    H2 5926   5.717   5.672   0.495
 1974TIP3   OH2 5927   0.390   3.009   3.946
 1974TIP3    H1 5928   0.329   2.960   4.000
 1974TIP3    H2 5929   0.446   3.054   4.009
 1975TIP3   OH2 5930   5.404   4.570   1.594
 1975TIP3    H1 5931   5.485   4.543   1.638
 1975TIP3    H2 5932   5.431   4.641   1.536
 1976TIP3   OH2 5933   2.247   2.121   2.777
 1976TIP3    H1 5934   2.185   2.138   2.847
 1976TIP3    H2 5935   2.324   2.172   2.800
 1977TIP3   OH2 5936   0.198   1.759   3.321
 1977TIP3    H1 5937   0.128   1.770   3.256
 1977TIP3    H2 5938   0.240   1.844   3.327
 1978TIP3   OH2 5939   5.856   4.498   5.153
 1978TIP3    H1 5940   5.774   4.537   5.122
 1978TIP3    H2 5941   5.845   4.404   5.138
 1979TIP3   OH2 5942   5.789   3.447   4.860
 1979TIP3    H1 5943   5.856   3.426   4.795
 1979TIP3    H2 5944   5.838   3.483   4.934
 1980TIP3   OH2 5945   2.210   5.055   3.736
 1980TIP3    H1 5946   2.172   5.096   3.814
 1980TIP3    H2 5947   2.163   4.972   3.727
 1981TIP3   OH2 5948   5.501   4.143   1.736
 1981TIP3    H1 5949   5.555   4.202   1.789
 1981TIP3    H2 5950   5.516   4.056   1.774
 1982TIP3   OH2 5951   2.141   5.116   1.448
 1982TIP3    H1 5952   2.065   5.072   1.410
 1982TIP3    H2 5953   2.124   5.209   1.437
 1983TIP3   OH2 5954   6.184   4.994   2.962
 1983TIP3    H1 5955   6.272   4.955   2.961
 1983TIP3    H2 5956   6.170   5.024   2.872
 1984TIP3   OH2 5957   2.059   5.510   2.613
 1984TIP3    H1 5958   2.089   5.525   2.702
 1984TIP3    H2 5959   2.066   5.595   2.570
 1985TIP3   OH2 5960   0.451   5.768   5.116
 1985TIP3    H1 5961   0.386   5.836   5.132
 1985TIP3    H2 5962   0.404   5.700   5.067
 1986TIP3   OH2 5963   4.994   1.256   4.575
 1986TIP3    H1 5964   5.079   1.294   4.552
 1986TIP3    H2 5965   4.987   1.178   4.519
 1987TIP3   OH2 5966   0.432   2.215   3.275
 1987TIP3    H1 5967   0.449   2.296   3.324
 1987TIP3    H2 5968   0.518   2.183   3.251
 1988TIP3   OH2 5969   1.046   0.310   2.826
 1988TIP3    H1 5970   0.981   0.243   2.848
 1988TIP3    H2 5971   1.024   0.335   2.736
 1989TIP3   OH2 5972   3.837   0.167   1.881
 1989TIP3    H1 5973   3.919   0.152   1.928
 1989TIP3    H2 5974   3.846   0.118   1.800
 1990TIP3   OH2 5975   3.139   2.494   0.930
 1990TIP3    H1 5976   3.128   2.470   1.022
 1990TIP3    H2 5977   3.081   2.570   0.918
 1991TIP3   OH2 5978   3.618   1.480   4.195
 1991TIP3    H1 5979   3.592   1.568   4.169
 1991TIP3    H2 5980   3.536   1.437   4.221
 1992TIP3   OH2 5981   5.038   3.677   2.764
 1992TIP3    H1 5982   5.018   3.734   2.839
 1992TIP3    H2 5983   5.072   3.737   2.697
 1993TIP3   OH2 5984   1.752   0.878   1.198
 1993TIP3    H1 5985   1.754   0.971   1.221
 1993TIP3    H2 5986   1.776   0.833   1.279
 1994TIP3   OH2 5987   4.209   0.416   5.050
 1994TIP3    H1 5988   4.182   0.325   5.039
 1994TIP3    H2 5989   4.304   0.411   5.063
 1995TIP3   OH2 5990   1.029   3.734   1.745
 1995TIP3    H1 5991   1.018   3.811   1.688
 1995TIP3    H2 5992   1.004   3.765   1.832
 1996TIP3   OH2 5993   3.425   2.161   3.729
 1996TIP3    H1 5994   3.484   2.087   3.740
 1996TIP3    H2 5995   3.433   2.210   3.811
 1997TIP3   OH2 5996   0.666   1.063   1.720
 1997TIP3    H1 5997   0.629   1.074   1.808
 1997TIP3    H2 5998   0.611   0.997   1.679
 1998TIP3   OH2 5999   1.730   0.695   2.937
 1998TIP3    H1 6000   1.806   0.703   2.994
 1998TIP3    H2 6001   1.756   0.738   2.856
 1999TIP3   OH2 6002   6.251   2.748   2.542
 1999TIP3    H1 6003   6.246   2.653   2.531
 1999TIP3    H2 6004   6.341   2.765   2.569
 2000TIP3   OH2 6005   5.279   4.959   4.036
 2000TIP3    H1 6006   5.214   4.890   4.029
 2000TIP3    H2 6007   5.231   5.040   4.020
 2001TIP3   OH2 6008   2.026   1.733   0.337
 2001TIP3    H1 6009   2.087   1.676   0.291
 2001TIP3    H2 6010   2.065   1.820   0.330
 2002TIP3   OH2 6011   2.794   5.402   5.153
 2002TIP3    H1 6012   2.868   5.360   5.197
 2002TIP3    H2 6013   2.721   5.341   5.166
 2003TIP3   OH2 6014   4.528   1.439   2.987
 2003TIP3    H1 6015   4.595   1.389   2.940
 2003TIP3    H2 6016   4.446   1.398   2.961
 2004TIP3   OH2 6017   1.680   0.027   2.814
 2004TIP3    H1 6018   1.594  -0.015   2.804
 2004TIP3    H2 6019   1.661   0.110   2.858
 2005TIP3   OH2 6020   5.225   3.800   0.147
 2005TIP3    H1 6021   5.223   3.885   0.190
 2005TIP3    H2 6022   5.318   3.777   0.145
 2006TIP3   OH2 6023   3.391   3.720   2.549
 2006TIP3    H1 6024   3.327   3.786   2.574
 2006TIP3    H2 6025   3.383   3.652   2.615
 2007TIP3   OH2 6026   4.197   5.657   0.916
 2007TIP3    H1 6027   4.115   5.679   0.873
 2007TIP3    H2 6028   4.264   5.665   0.848
 2008TIP3   OH2 6029   1.515   0.182   1.342
 2008TIP3    H1 6030   1.506   0.255   1.403
 2008TIP3    H2 6031   1.609   0.165   1.338
 2009TIP3   OH2 6032   0.081   3.548   0.414
 2009TIP3    H1 6033   0.037   3.520   0.334
 2009TIP3    H2 6034   0.010   3.567   0.476
 2010TIP3   OH2 6035   0.070   1.927   4.825
 2010TIP3    H1 6036   0.137   1.993   4.807
 2010TIP3    H2 6037   0.112   1.866   4.886
 2011TIP3   OH2 6038   2.654   3.861   2.598
 2011TIP3    H1 6039   2.739   3.829   2.628
 2011TIP3    H2 6040   2.674   3.945   2.556
 2012TIP3   OH2 6041   2.998   1.596   3.858
 2012TIP3    H1 6042   3.063   1.647   3.810
 2012TIP3    H2 6043   3.004   1.628   3.948
 2013TIP3   OH2 6044   0.840   4.863   1.425
 2013TIP3    H1 6045   0.796   4.933   1.376
 2013TIP3    H2 6046   0.908   4.831   1.366
 2014TIP3   OH2 6047   2.749   5.143   2.382
 2014TIP3    H1 6048   2.815   5.208   2.405
 2014TIP3    H2 6049   2.690   5.189   2.322
 2015TIP3   OH2 6050   2.598   3.364   1.388
 2015TIP3    H1 6051   2.506   3.390   1.395
 2015TIP3    H2 6052   2.598   3.288   1.330
 2016TIP3   OH2 6053   6.113   1.140   1.051
 2016TIP3    H1 6054   6.135   1.145   0.958
 2016TIP3    H2 6055   6.091   1.230   1.075
 2017TIP3   OH2 6056   2.026   1.619   1.342
 2017TIP3    H1 6057   2.089   1.691   1.351
 2017TIP3    H2 6058   1.967   1.630   1.417
 2018TIP3   OH2 6059   0.855   0.350   0.006
 2018TIP3    H1 6060   0.781   0.369   0.063
 2018TIP3    H2 6061   0.932   0.374   0.058
 2019TIP3   OH2 6062   0.412   2.656   4.855
 2019TIP3    H1 6063   0.495   2.658   4.807
 2019TIP3    H2 6064   0.410   2.571   4.898
 2020TIP3   OH2 6065   4.488   3.346   1.652
 2020TIP3    H1 6066   4.412   3.393   1.685
 2020TIP3    H2 6067   4.454   3.260   1.628
 2021TIP3   OH2 6068   0.657   4.500   1.483
 2021TIP3    H1 6069   0.691   4.437   1.419
 2021TIP3    H2 6070   0.689   4.468   1.567
 2022TIP3   OH2 6071   2.252   0.656   0.509
 2022TIP3    H1 6072   2.228   0.609   0.589
 2022TIP3    H2 6073   2.220   0.601   0.438
 2023TIP3   OH2 6074   3.155   5.091   4.824
 2023TIP3    H1 6075   3.172   5.101   4.730
 2023TIP3    H2 6076   3.162   4.997   4.839
 2024TIP3   OH2 6077   3.254   1.930   4.055
 2024TIP3    H1 6078   3.209   1.937   4.140
 2024TIP3    H2 6079   3.259   2.020   4.024
 2025TIP3   OH2 6080   0.390   1.308   2.539
 2025TIP3    H1 6081   0.413   1.264   2.621
 2025TIP3    H2 6082   0.294   1.315   2.542
 2026TIP3   OH2 6083   4.062   5.231   0.815
 2026TIP3    H1 6084   4.073   5.138   0.796
 2026TIP3    H2 6085   4.089   5.276   0.735
 2027TIP3   OH2 6086   3.969   4.676   4.119
 2027TIP3    H1 6087   3.950   4.617   4.192
 2027TIP3    H2 6088   4.036   4.735   4.153
 2028TIP3   OH2 6089   2.579   1.379   0.804
 2028TIP3    H1 6090   2.507   1.376   0.867
 2028TIP3    H2 6091   2.542   1.340   0.725
 2029TIP3   OH2 6092   4.202   5.672   0.460
 2029TIP3    H1 6093   4.120   5.718   0.477
 2029TIP3    H2 6094   4.240   5.716   0.384
 2030TIP3   OH2 6095   4.181   0.144   4.981
 2030TIP3    H1 6096   4.271   0.162   4.954
 2030TIP3    H2 6097   4.133   0.129   4.899
 2031TIP3   OH2 6098   0.237   3.229   1.067
 2031TIP3    H1 6099   0.245   3.297   1.134
 2031TIP3    H2 6100   0.175   3.166   1.104
 2032TIP3   OH2 6101   3.219   1.351   1.889
 2032TIP3    H1 6102   3.165   1.328   1.813
 2032TIP3    H2 6103   3.223   1.446   1.888
 2033TIP3   OH2 6104   3.611   1.927   3.007
 2033TIP3    H1 6105   3.544   1.995   3.013
 2033TIP3    H2 6106   3.681   1.968   2.957
 2034TIP3   OH2 6107   4.313   2.493   1.174
 2034TIP3    H1 6108   4.230   2.463   1.136
 2034TIP3    H2 6109   4.291   2.523   1.262
 2035TIP3   OH2 6110   2.271   1.632   0.578
 2035TIP3    H1 6111   2.241   1.720   0.603
 2035TIP3    H2 6112   2.356   1.623   0.621
 2036TIP3   OH2 6113   0.185   0.020   4.647
 2036TIP3    H1 6114   0.273   0.057   4.659
 2036TIP3    H2 6115   0.133   0.059   4.717
 2037TIP3   OH2 6116   2.089   2.740   2.506
 2037TIP3    H1 6117   2.041   2.791   2.441
 2037TIP3    H2 6118   2.157   2.695   2.457
 2038TIP3   OH2 6119   4.998   2.844   0.125
 2038TIP3    H1 6120   5.064   2.777   0.135
 2038TIP3    H2 6121   4.944   2.838   0.204
 2039TIP3   OH2 6122   1.788   4.052   2.737
 2039TIP3    H1 6123   1.801   4.086   2.826
 2039TIP3    H2 6124   1.808   4.126   2.680
 2040TIP3   OH2 6125   1.021   3.643   0.626
 2040TIP3    H1 6126   1.036   3.727   0.670
 2040TIP3    H2 6127   0.979   3.588   0.693
 2041TIP3   OH2 6128   4.426   4.478   2.294
 2041TIP3    H1 6129   4.447   4.480   2.200
 2041TIP3    H2 6130   4.331   4.470   2.297
 2042TIP3   OH2 6131   4.378   4.167   4.688
 2042TIP3    H1 6132   4.442   4.199   4.624
 2042TIP3    H2 6133   4.431   4.117   4.751
 2043TIP3   OH2 6134   2.977   5.372   1.166
 2043TIP3    H1 6135   3.027   5.377   1.085
 2043TIP3    H2 6136   3.022   5.306   1.218
 2044TIP3   OH2 6137   2.180   3.394   0.170
 2044TIP3    H1 6138   2.198   3.346   0.251
 2044TIP3    H2 6139   2.105   3.450   0.190
 2045TIP3   OH2 6140   3.373   5.190   1.648
 2045TIP3    H1 6141   3.370   5.285   1.655
 2045TIP3    H2 6142   3.467   5.169   1.646
 2046TIP3   OH2 6143   5.368   2.296   4.238
 2046TIP3    H1 6144   5.456   2.296   4.199
 2046TIP3    H2 6145   5.314   2.342   4.175
 2047TIP3   OH2 6146   2.850   2.146   1.871
 2047TIP3    H1 6147   2.908   2.153   1.947
 2047TIP3    H2 6148   2.897   2.088   1.810
 2048TIP3   OH2 6149   3.806   5.689   3.948
 2048TIP3    H1 6150   3.765   5.624   4.005
 2048TIP3    H2 6151   3.831   5.640   3.870
 2049TIP3   OH2 6152   2.577   0.912   1.178
 2049TIP3    H1 6153   2.562   0.935   1.087
 2049TIP3    H2 6154   2.647   0.848   1.176
 2050TIP3   OH2 6155   1.417   5.908   0.805
 2050TIP3    H1 6156   1.461   5.968   0.746
 2050TIP3    H2 6157   1.324   5.924   0.790
 2051TIP3   OH2 6158   5.381   5.310   3.987
 2051TIP3    H1 6159   5.358   5.218   3.973
 2051TIP3    H2 6160   5.391   5.318   4.082
 2052TIP3   OH2 6161   1.604   3.615   3.418
 2052TIP3    H1 6162   1.595   3.548   3.350
 2052TIP3    H2 6163   1.534   3.677   3.399
 2053TIP3   OH2 6164   3.661   5.715   2.953
 2053TIP3    H1 6165   3.719   5.639   2.958
 2053TIP3    H2 6166   3.703   5.773   2.890
 2054TIP3   OH2 6167   5.246   1.504   1.726
 2054TIP3    H1 6168   5.316   1.457   1.680
 2054TIP3    H2 6169   5.180   1.520   1.659
 2055TIP3   OH2 6170   6.304   4.619   1.936
 2055TIP3    H1 6171   6.264   4.600   1.851
 2055TIP3    H2 6172   6.391   4.579   1.932
 2056TIP3   OH2 6173   3.347   2.854   1.880
 2056TIP3    H1 6174   3.301   2.925   1.925
 2056TIP3    H2 6175   3.280   2.786   1.870
 2057TIP3   OH2 6176   4.104   2.698   1.061
 2057TIP3    H1 6177   4.114   2.618   1.010
 2057TIP3    H2 6178   4.025   2.684   1.114
 2058TIP3   OH2 6179   5.805   5.271   2.735
 2058TIP3    H1 6180   5.763   5.276   2.649
 2058TIP3    H2 6181   5.780   5.185   2.769
 2059TIP3   OH2 6182   0.022   3.752   0.610
 2059TIP3    H1 6183  -0.052   3.794   0.567
 2059TIP3    H2 6184   0.097   3.770   0.553
 2060TIP3   OH2 6185   0.405   1.667   0.245
 2060TIP3    H1 6186   0.369   1.581   0.266
 2060TIP3    H2 6187   0.489   1.648   0.202
 2061TIP3   OH2 6188   4.713   1.569   4.132
 2061TIP3    H1 6189   4.649   1.520   4.184
 2061TIP3    H2 6190   4.660   1.636   4.088
 2062TIP3   OH2 6191   2.964   5.728   2.679
 2062TIP3    H1 6192   3.020   5.667   2.727
 2062TIP3    H2 6193   2.898   5.672   2.637
 2063TIP3   OH2 6194   4.945   2.608   1.077
 2063TIP3    H1 6195   4.850   2.600   1.072
 2063TIP3    H2 6196   4.960   2.689   1.126
 2064TIP3   OH2 6197   3.014   2.978   0.253
 2064TIP3    H1 6198   3.101   3.000   0.219
 2064TIP3    H2 6199   2.961   2.961   0.174
 2065TIP3   OH2 6200   4.678   0.956   0.778
 2065TIP3    H1 6201   4.658   1.038   0.824
 2065TIP3    H2 6202   4.728   0.983   0.701
 2066TIP3   OH2 6203   5.490   3.524   4.418
 2066TIP3    H1 6204   5.505   3.491   4.329
 2066TIP3    H2 6205   5.396   3.515   4.431
 2067TIP3   OH2 6206   2.967   0.943   3.326
 2067TIP3    H1 6207   2.873   0.923   3.325
 2067TIP3    H2 6208   2.971   1.037   3.310
 2068TIP3   OH2 6209   4.862   3.305   0.303
 2068TIP3    H1 6210   4.895   3.314   0.392
 2068TIP3    H2 6211   4.932   3.261   0.255
 2069TIP3   OH2 6212   0.278   4.595   1.339
 2069TIP3    H1 6213   0.312   4.663   1.397
 2069TIP3    H2 6214   0.355   4.561   1.294
 2070TIP3   OH2 6215   2.815   4.867   0.597
 2070TIP3    H1 6216   2.744   4.844   0.658
 2070TIP3    H2 6217   2.891   4.818   0.630
 2071TIP3   OH2 6218   6.257   3.798   3.111
 2071TIP3    H1 6219   6.307   3.717   3.115
 2071TIP3    H2 6220   6.171   3.772   3.077
 2072TIP3   OH2 6221   2.387   5.644   4.394
 2072TIP3    H1 6222   2.311   5.652   4.337
 2072TIP3    H2 6223   2.351   5.647   4.483
 2073TIP3   OH2 6224   4.293   1.157   1.592
 2073TIP3    H1 6225   4.382   1.191   1.596
 2073TIP3    H2 6226   4.304   1.067   1.560
 2074TIP3   OH2 6227   1.116   2.527   0.187
 2074TIP3    H1 6228   1.153   2.612   0.162
 2074TIP3    H2 6229   1.021   2.540   0.181
 2075TIP3   OH2 6230   5.637   5.546   3.190
 2075TIP3    H1 6231   5.573   5.609   3.223
 2075TIP3    H2 6232   5.654   5.489   3.265
 2076TIP3   OH2 6233   1.780   0.821   0.931
 2076TIP3    H1 6234   1.801   0.729   0.946
 2076TIP3    H2 6235   1.773   0.858   1.019
 2077TIP3   OH2 6236   4.321   4.058   5.019
 2077TIP3    H1 6237   4.329   3.970   4.983
 2077TIP3    H2 6238   4.242   4.094   4.979
 2078TIP3   OH2 6239   2.792   2.272   2.252
 2078TIP3    H1 6240   2.703   2.267   2.217
 2078TIP3    H2 6241   2.815   2.365   2.248
 2079TIP3   OH2 6242   0.393   4.453   2.511
 2079TIP3    H1 6243   0.343   4.535   2.505
 2079TIP3    H2 6244   0.428   4.439   2.422
 2080TIP3   OH2 6245   3.036   1.747   1.856
 2080TIP3    H1 6246   2.970   1.749   1.926
 2080TIP3    H2 6247   3.027   1.832   1.813
 2081TIP3   OH2 6248   5.088   5.904   0.014
 2081TIP3    H1 6249   5.142   5.938   0.086
 2081TIP3    H2 6250   5.020   5.970   0.002
 2082TIP3   OH2 6251   3.217   3.022   2.045
 2082TIP3    H1 6252   3.161   2.986   2.114
 2082TIP3    H2 6253   3.172   3.102   2.017
 2083TIP3   OH2 6254   3.939   0.686   2.213
 2083TIP3    H1 6255   3.991   0.660   2.288
 2083TIP3    H2 6256   3.848   0.665   2.237
 2084TIP3   OH2 6257   3.758   5.514   0.779
 2084TIP3    H1 6258   3.674   5.537   0.819
 2084TIP3    H2 6259   3.789   5.439   0.830
 2085TIP3   OH2 6260   4.472   1.435   1.805
 2085TIP3    H1 6261   4.413   1.497   1.849
 2085TIP3    H2 6262   4.496   1.373   1.874
 2086TIP3   OH2 6263   3.987   2.527   0.356
 2086TIP3    H1 6264   3.902   2.488   0.378
 2086TIP3    H2 6265   4.048   2.488   0.418
 2087TIP3   OH2 6266   0.357   1.130   5.092
 2087TIP3    H1 6267   0.363   1.036   5.108
 2087TIP3    H2 6268   0.334   1.137   4.999
 2088TIP3   OH2 6269   2.316   4.615   2.023
 2088TIP3    H1 6270   2.405   4.607   2.057
 2088TIP3    H2 6271   2.327   4.652   1.935
 2089TIP3   OH2 6272   3.385   3.679   0.546
 2089TIP3    H1 6273   3.298   3.680   0.585
 2089TIP3    H2 6274   3.383   3.750   0.482
 2090TIP3   OH2 6275   0.982   3.465   1.661
 2090TIP3    H1 6276   0.952   3.544   1.707
 2090TIP3    H2 6277   0.966   3.484   1.568
 2091TIP3   OH2 6278   0.638   4.352   4.237
 2091TIP3    H1 6279   0.619   4.340   4.144
 2091TIP3    H2 6280   0.595   4.435   4.259
 2092TIP3   OH2 6281   0.946   5.612   2.732
 2092TIP3    H1 6282   0.925   5.564   2.813
 2092TIP3    H2 6283   0.900   5.564   2.663
 2093TIP3   OH2 6284   2.409   1.671   1.457
 2093TIP3    H1 6285   2.404   1.721   1.538
 2093TIP3    H2 6286   2.487   1.617   1.467
 2094TIP3   OH2 6287   2.852   3.523   2.537
 2094TIP3    H1 6288   2.881   3.452   2.595
 2094TIP3    H2 6289   2.865   3.603   2.588
 2095TIP3   OH2 6290   0.443   0.116   3.844
 2095TIP3    H1 6291   0.378   0.091   3.777
 2095TIP3    H2 6292   0.457   0.035   3.894
 2096TIP3   OH2 6293   4.281   2.120   3.811
 2096TIP3    H1 6294   4.273   2.188   3.878
 2096TIP3    H2 6295   4.212   2.141   3.747
 2097TIP3   OH2 6296   2.075   2.531   0.321
 2097TIP3    H1 6297   2.116   2.541   0.408
 2097TIP3    H2 6298   2.054   2.438   0.315
 2098TIP3   OH2 6299   3.428   5.339   4.522
 2098TIP3    H1 6300   3.445   5.343   4.428
 2098TIP3    H2 6301   3.341   5.379   4.532
 2099TIP3   OH2 6302   3.473   2.889   4.038
 2099TIP3    H1 6303   3.514   2.803   4.046
 2099TIP3    H2 6304   3.380   2.873   4.053
 2100TIP3   OH2 6305   0.615   5.833   2.549
 2100TIP3    H1 6306   0.570   5.917   2.542
 2100TIP3    H2 6307   0.666   5.825   2.468
 2101TIP3   OH2 6308   0.368   5.255   3.876
 2101TIP3    H1 6309   0.374   5.167   3.838
 2101TIP3    H2 6310   0.444   5.301   3.842
 2102TIP3   OH2 6311   5.898   5.827   2.312
 2102TIP3    H1 6312   5.817   5.849   2.359
 2102TIP3    H2 6313   5.882   5.854   2.222
 2103TIP3   OH2 6314   2.482   3.972   4.721
 2103TIP3    H1 6315   2.444   3.933   4.642
 2103TIP3    H2 6316   2.407   4.002   4.773
 2104TIP3   OH2 6317   4.166   0.834   2.481
 2104TIP3    H1 6318   4.184   0.908   2.423
 2104TIP3    H2 6319   4.231   0.768   2.455
 2105TIP3   OH2 6320   5.162   4.184   1.387
 2105TIP3    H1 6321   5.189   4.094   1.368
 2105TIP3    H2 6322   5.243   4.229   1.407
 2106TIP3   OH2 6323   4.066   2.918   0.516
 2106TIP3    H1 6324   4.034   3.003   0.544
 2106TIP3    H2 6325   4.001   2.856   0.549
 2107TIP3   OH2 6326   0.324   5.353   2.004
 2107TIP3    H1 6327   0.273   5.430   1.978
 2107TIP3    H2 6328   0.392   5.387   2.061
 2108TIP3   OH2 6329   5.096   2.454   4.565
 2108TIP3    H1 6330   5.043   2.434   4.488
 2108TIP3    H2 6331   5.170   2.505   4.530
 2109TIP3   OH2 6332   1.764   0.894   2.679
 2109TIP3    H1 6333   1.826   0.962   2.651
 2109TIP3    H2 6334   1.792   0.816   2.633
 2110TIP3   OH2 6335   6.045   2.415   0.431
 2110TIP3    H1 6336   5.977   2.451   0.373
 2110TIP3    H2 6337   6.108   2.374   0.372
 2111TIP3   OH2 6338   5.295   4.924   1.811
 2111TIP3    H1 6339   5.260   4.842   1.775
 2111TIP3    H2 6340   5.390   4.913   1.806
 2112TIP3   OH2 6341   4.844   1.963   2.327
 2112TIP3    H1 6342   4.816   2.020   2.256
 2112TIP3    H2 6343   4.937   1.984   2.340
 2113TIP3   OH2 6344   2.576   3.860   4.232
 2113TIP3    H1 6345   2.630   3.918   4.178
 2113TIP3    H2 6346   2.627   3.780   4.241
 2114TIP3   OH2 6347   2.008   0.216   3.524
 2114TIP3    H1 6348   2.056   0.141   3.487
 2114TIP3    H2 6349   2.076   0.271   3.562
 2115TIP3   OH2 6350   4.190   2.225   0.984
 2115TIP3    H1 6351   4.202   2.210   0.890
 2115TIP3    H2 6352   4.245   2.159   1.025
 2116TIP3   OH2 6353   4.596   0.152   3.537
 2116TIP3    H1 6354   4.668   0.129   3.478
 2116TIP3    H2 6355   4.555   0.229   3.496
 2117TIP3   OH2 6356   1.573   3.001   4.248
 2117TIP3    H1 6357   1.506   3.054   4.205
 2117TIP3    H2 6358   1.617   3.062   4.308
 2118TIP3   OH2 6359   0.354   0.193   0.591
 2118TIP3    H1 6360   0.334   0.273   0.640
 2118TIP3    H2 6361   0.332   0.122   0.652
 2119TIP3   OH2 6362   3.559   5.040   4.624
 2119TIP3    H1 6363   3.498   5.107   4.654
 2119TIP3    H2 6364   3.643   5.063   4.665
 2120TIP3   OH2 6365   5.038   0.639   5.164
 2120TIP3    H1 6366   4.949   0.624   5.194
 2120TIP3    H2 6367   5.041   0.732   5.143
 2121TIP3   OH2 6368   1.783   2.219   4.720
 2121TIP3    H1 6369   1.751   2.133   4.695
 2121TIP3    H2 6370   1.871   2.203   4.754
 2122TIP3   OH2 6371   2.317   1.499   2.725
 2122TIP3    H1 6372   2.268   1.423   2.693
 2122TIP3    H2 6373   2.338   1.550   2.647
 2123TIP3   OH2 6374   2.759   2.517   1.651
 2123TIP3    H1 6375   2.730   2.554   1.567
 2123TIP3    H2 6376   2.681   2.474   1.686
 2124TIP3   OH2 6377   4.608   3.549   3.893
 2124TIP3    H1 6378   4.518   3.551   3.927
 2124TIP3    H2 6379   4.613   3.469   3.842
 2125TIP3   OH2 6380   4.105   2.822   3.321
 2125TIP3    H1 6381   4.154   2.894   3.361
 2125TIP3    H2 6382   4.110   2.839   3.227
 2126TIP3   OH2 6383   1.956   5.588   4.094
 2126TIP3    H1 6384   2.006   5.664   4.066
 2126TIP3    H2 6385   1.892   5.574   4.024
 2127TIP3   OH2 6386   1.058   0.851   3.999
 2127TIP3    H1 6387   1.078   0.813   3.914
 2127TIP3    H2 6388   0.965   0.830   4.013
 2128TIP3   OH2 6389   3.699   4.396   3.242
 2128TIP3    H1 6390   3.692   4.308   3.205
 2128TIP3    H2 6391   3.713   4.382   3.336
 2129TIP3   OH2 6392   0.806   0.714   1.220
 2129TIP3    H1 6393   0.808   0.691   1.127
 2129TIP3    H2 6394   0.863   0.791   1.226
 2130TIP3   OH2 6395   0.212   0.674   3.589
 2130TIP3    H1 6396   0.167   0.693   3.672
 2130TIP3    H2 6397   0.143   0.642   3.531
 2131TIP3   OH2 6398   2.526   4.291   4.744
 2131TIP3    H1 6399   2.461   4.360   4.729
 2131TIP3    H2 6400   2.597   4.311   4.682
 2132TIP3   OH2 6401   0.863   3.088   2.701
 2132TIP3    H1 6402   0.921   3.156   2.734
 2132TIP3    H2 6403   0.775   3.123   2.712
 2133TIP3   OH2 6404   5.386   2.388   2.149
 2133TIP3    H1 6405   5.358   2.299   2.126
 2133TIP3    H2 6406   5.400   2.431   2.065
 2134TIP3   OH2 6407   5.843   5.100   4.347
 2134TIP3    H1 6408   5.809   5.043   4.278
 2134TIP3    H2 6409   5.928   5.129   4.314
 2135TIP3   OH2 6410   1.535   2.597   0.711
 2135TIP3    H1 6411   1.579   2.627   0.631
 2135TIP3    H2 6412   1.586   2.522   0.740
 2136TIP3   OH2 6413   2.700   5.110   4.313
 2136TIP3    H1 6414   2.687   5.152   4.398
 2136TIP3    H2 6415   2.630   5.143   4.258
 2137TIP3   OH2 6416   1.220   4.869   2.795
 2137TIP3    H1 6417   1.265   4.864   2.880
 2137TIP3    H2 6418   1.290   4.893   2.733
 2138TIP3   OH2 6419   6.323   5.490   3.861
 2138TIP3    H1 6420   6.241   5.499   3.812
 2138TIP3    H2 6421   6.359   5.578   3.865
 2139TIP3   OH2 6422   3.525   0.229   4.471
 2139TIP3    H1 6423   3.466   0.280   4.415
 2139TIP3    H2 6424   3.612   0.265   4.454
 2140TIP3   OH2 6425   5.293   1.391   0.844
 2140TIP3    H1 6426   5.335   1.433   0.919
 2140TIP3    H2 6427   5.311   1.298   0.856
 2141TIP3   OH2 6428   5.115   0.440   4.700
 2141TIP3    H1 6429   5.109   0.459   4.793
 2141TIP3    H2 6430   5.189   0.380   4.693
 2142TIP3   OH2 6431   4.611   0.457   3.494
 2142TIP3    H1 6432   4.532   0.452   3.441
 2142TIP3    H2 6433   4.579   0.455   3.584
 2143TIP3   OH2 6434   0.445   2.495   4.514
 2143TIP3    H1 6435   0.408   2.429   4.456
 2143TIP3    H2 6436   0.423   2.465   4.602
 2144TIP3   OH2 6437   1.348   5.876   1.810
 2144TIP3    H1 6438   1.272   5.912   1.856
 2144TIP3    H2 6439   1.389   5.952   1.768
 2145TIP3   OH2 6440   0.624   5.598   4.707
 2145TIP3    H1 6441   0.600   5.519   4.755
 2145TIP3    H2 6442   0.560   5.605   4.637
 2146TIP3   OH2 6443   1.089   2.215   4.299
 2146TIP3    H1 6444   1.159   2.170   4.346
 2146TIP3    H2 6445   1.042   2.145   4.254
 2147TIP3   OH2 6446   2.130   2.574   1.215
 2147TIP3    H1 6447   2.169   2.495   1.177
 2147TIP3    H2 6448   2.112   2.550   1.306
 2148TIP3   OH2 6449   2.305   2.170   3.242
 2148TIP3    H1 6450   2.399   2.164   3.261
 2148TIP3    H2 6451   2.295   2.256   3.201
 2149TIP3   OH2 6452   3.246   0.520   3.111
 2149TIP3    H1 6453   3.197   0.478   3.181
 2149TIP3    H2 6454   3.220   0.474   3.032
 2150TIP3   OH2 6455   2.360   4.818   3.812
 2150TIP3    H1 6456   2.301   4.879   3.857
 2150TIP3    H2 6457   2.321   4.732   3.826
 2151TIP3   OH2 6458   3.338   1.573   3.961
 2151TIP3    H1 6459   3.407   1.560   3.896
 2151TIP3    H2 6460   3.273   1.627   3.916
 2152TIP3   OH2 6461   1.346   0.100   2.688
 2152TIP3    H1 6462   1.348   0.183   2.640
 2152TIP3    H2 6463   1.254   0.086   2.708
 2153TIP3   OH2 6464   5.441   0.570   2.289
 2153TIP3    H1 6465   5.398   0.551   2.373
 2153TIP3    H2 6466   5.494   0.647   2.306
 2154TIP3   OH2 6467   6.063   0.397   2.520
 2154TIP3    H1 6468   6.027   0.486   2.519
 2154TIP3    H2 6469   6.147   0.405   2.565
 2155TIP3   OH2 6470   4.165   3.798   1.938
 2155TIP3    H1 6471   4.253   3.787   1.903
 2155TIP3    H2 6472   4.177   3.798   2.033
 2156TIP3   OH2 6473   0.048   0.204   0.828
 2156TIP3    H1 6474  -0.011   0.139   0.866
 2156TIP3    H2 6475   0.114   0.153   0.782
 2157TIP3   OH2 6476   6.151   4.570   2.411
 2157TIP3    H1 6477   6.064   4.531   2.408
 2157TIP3    H2 6478   6.194   4.539   2.331
 2158TIP3   OH2 6479   2.016   5.923   1.495
 2158TIP3    H1 6480   1.950   5.866   1.455
 2158TIP3    H2 6481   2.015   6.002   1.442
 2159TIP3   OH2 6482   0.522   5.002   2.362
 2159TIP3    H1 6483   0.537   4.922   2.311
 2159TIP3    H2 6484   0.452   5.048   2.316
 2160TIP3   OH2 6485   5.419   0.754   1.765
 2160TIP3    H1 6486   5.410   0.846   1.740
 2160TIP3    H2 6487   5.402   0.753   1.859
 2161TIP3   OH2 6488   0.245   4.570   3.366
 2161TIP3    H1 6489   0.336   4.542   3.353
 2161TIP3    H2 6490   0.196   4.527   3.296
 2162TIP3   OH2 6491   2.979   4.535   0.962
 2162TIP3    H1 6492   2.983   4.439   0.961
 2162TIP3    H2 6493   2.983   4.558   1.055
 2163TIP3   OH2 6494   3.902   4.440   1.618
 2163TIP3    H1 6495   3.998   4.443   1.610
 2163TIP3    H2 6496   3.874   4.383   1.546
 2164TIP3   OH2 6497   4.665   2.625   1.004
 2164TIP3    H1 6498   4.679   2.718   1.020
 2164TIP3    H2 6499   4.658   2.617   0.909
 2165TIP3   OH2 6500   1.592   4.122   4.661
 2165TIP3    H1 6501   1.642   4.075   4.594
 2165TIP3    H2 6502   1.647   4.196   4.686
 2166TIP3   OH2 6503   0.064   5.979   2.429
 2166TIP3    H1 6504   0.004   6.008   2.498
 2166TIP3    H2 6505   0.017   5.909   2.384
 2167TIP3   OH2 6506   0.327   4.229   3.953
 2167TIP3    H1 6507   0.384   4.299   3.983
 2167TIP3    H2 6508   0.381   4.150   3.960
 2168TIP3   OH2 6509   5.275   2.196   0.449
 2168TIP3    H1 6510   5.348   2.185   0.388
 2168TIP3    H2 6511   5.251   2.106   0.474
 2169TIP3   OH2 6512   3.497   3.286   4.443
 2169TIP3    H1 6513   3.466   3.220   4.505
 2169TIP3    H2 6514   3.590   3.267   4.432
 2170TIP3   OH2 6515   2.053   1.721   3.714
 2170TIP3    H1 6516   2.060   1.810   3.681
 2170TIP3    H2 6517   2.144   1.693   3.726
 2171TIP3   OH2 6518   0.771   5.129   1.962
 2171TIP3    H1 6519   0.696   5.160   2.013
 2171TIP3    H2 6520   0.738   5.121   1.873
 2172TIP3   OH2 6521   6.252   0.328   1.039
 2172TIP3    H1 6522   6.319   0.342   0.973
 2172TIP3    H2 6523   6.289   0.262   1.098
 2173TIP3   OH2 6524   2.129   3.156   4.367
 2173TIP3    H1 6525   2.158   3.222   4.304
 2173TIP3    H2 6526   2.116   3.077   4.315
 2174TIP3   OH2 6527   2.931   3.677   3.019
 2174TIP3    H1 6528   2.966   3.757   3.057
 2174TIP3    H2 6529   2.953   3.609   3.082
 2175TIP3   OH2 6530   1.323   1.824   4.961
 2175TIP3    H1 6531   1.402   1.783   4.926
 2175TIP3    H2 6532   1.310   1.902   4.907
 2176TIP3   OH2 6533   2.825   1.223   0.248
 2176TIP3    H1 6534   2.833   1.263   0.335
 2176TIP3    H2 6535   2.807   1.131   0.265
 2177TIP3   OH2 6536   5.303   2.571   4.420
 2177TIP3    H1 6537   5.238   2.526   4.365
 2177TIP3    H2 6538   5.298   2.662   4.393
 2178TIP3   OH2 6539   5.244   4.113   3.549
 2178TIP3    H1 6540   5.224   4.045   3.484
 2178TIP3    H2 6541   5.339   4.126   3.542
 2179TIP3   OH2 6542   4.228   0.487   1.084
 2179TIP3    H1 6543   4.301   0.461   1.140
 2179TIP3    H2 6544   4.198   0.405   1.044
 2180TIP3   OH2 6545   3.975   1.999   1.353
 2180TIP3    H1 6546   3.965   1.982   1.447
 2180TIP3    H2 6547   4.069   1.990   1.337
 2181TIP3   OH2 6548   4.224   3.543   0.270
 2181TIP3    H1 6549   4.191   3.529   0.181
 2181TIP3    H2 6550   4.293   3.609   0.259
 2182TIP3   OH2 6551   4.436   0.558   1.821
 2182TIP3    H1 6552   4.489   0.614   1.878
 2182TIP3    H2 6553   4.476   0.567   1.734
 2183TIP3   OH2 6554   0.159   2.389   2.762
 2183TIP3    H1 6555   0.223   2.318   2.766
 2183TIP3    H2 6556   0.210   2.467   2.786
 2184TIP3   OH2 6557   1.761   1.279   3.086
 2184TIP3    H1 6558   1.856   1.279   3.102
 2184TIP3    H2 6559   1.745   1.196   3.041
 2185TIP3   OH2 6560   4.255   1.212   4.431
 2185TIP3    H1 6561   4.196   1.147   4.392
 2185TIP3    H2 6562   4.309   1.242   4.358
 2186TIP3   OH2 6563   2.124   2.556   0.890
 2186TIP3    H1 6564   2.051   2.528   0.836
 2186TIP3    H2 6565   2.162   2.475   0.923
 2187TIP3   OH2 6566   2.579   0.609   2.014
 2187TIP3    H1 6567   2.536   0.576   2.093
 2187TIP3    H2 6568   2.524   0.682   1.986
 2188TIP3   OH2 6569   2.193   4.709   0.624
 2188TIP3    H1 6570   2.145   4.637   0.583
 2188TIP3    H2 6571   2.278   4.671   0.646
 2189TIP3   OH2 6572   4.979   4.792   5.007
 2189TIP3    H1 6573   5.055   4.808   5.062
 2189TIP3    H2 6574   4.945   4.707   5.036
 2190TIP3   OH2 6575   5.648   3.849   0.051
 2190TIP3    H1 6576   5.577   3.910   0.072
 2190TIP3    H2 6577   5.656   3.795   0.129
 2191TIP3   OH2 6578   0.727   5.340   4.064
 2191TIP3    H1 6579   0.696   5.257   4.029
 2191TIP3    H2 6580   0.652   5.377   4.110
 2192TIP3   OH2 6581  -0.003   3.443   2.084
 2192TIP3    H1 6582   0.049   3.523   2.086
 2192TIP3    H2 6583  -0.013   3.423   1.991
 2193TIP3   OH2 6584   5.860   5.932   4.377
 2193TIP3    H1 6585   5.850   5.847   4.333
 2193TIP3    H2 6586   5.952   5.955   4.363
 2194TIP3   OH2 6587   4.356   5.732   4.243
 2194TIP3    H1 6588   4.309   5.718   4.161
 2194TIP3    H2 6589   4.383   5.644   4.270
 2195TIP3   OH2 6590   1.066   2.928   4.647
 2195TIP3    H1 6591   1.129   2.926   4.575
 2195TIP3    H2 6592   1.120   2.915   4.726
 2196TIP3   OH2 6593   1.244   3.438   1.461
 2196TIP3    H1 6594   1.276   3.416   1.374
 2196TIP3    H2 6595   1.160   3.393   1.468
 2197TIP3   OH2 6596   1.988   1.304   0.700
 2197TIP3    H1 6597   1.983   1.282   0.606
 2197TIP3    H2 6598   1.954   1.226   0.744
 2198TIP3   OH2 6599   5.240   1.016   1.886
 2198TIP3    H1 6600   5.190   1.091   1.855
 2198TIP3    H2 6601   5.175   0.945   1.891
 2199TIP3   OH2 6602   0.030   4.786   0.165
 2199TIP3    H1 6603  -0.010   4.754   0.246
 2199TIP3    H2 6604   0.109   4.734   0.155
 2200TIP3   OH2 6605   6.206   5.300   1.326
 2200TIP3    H1 6606   6.145   5.366   1.294
 2200TIP3    H2 6607   6.214   5.237   1.255
 2201TIP3   OH2 6608   3.652   0.311   4.965
 2201TIP3    H1 6609   3.604   0.392   4.954
 2201TIP3    H2 6610   3.647   0.268   4.880
 2202TIP3   OH2 6611   0.715   2.193   1.509
 2202TIP3    H1 6612   0.726   2.197   1.604
 2202TIP3    H2 6613   0.752   2.275   1.477
 2203TIP3   OH2 6614   3.272   0.187   4.620
 2203TIP3    H1 6615   3.233   0.268   4.654
 2203TIP3    H2 6616   3.340   0.216   4.560
 2204TIP3   OH2 6617   3.818   5.380   1.626
 2204TIP3    H1 6618   3.870   5.395   1.547
 2204TIP3    H2 6619   3.733   5.420   1.605
 2205TIP3   OH2 6620   3.650   5.862   0.864
 2205TIP3    H1 6621   3.682   5.812   0.939
 2205TIP3    H2 6622   3.608   5.939   0.904
 2206TIP3   OH2 6623   5.454   4.624   2.759
 2206TIP3    H1 6624   5.508   4.689   2.803
 2206TIP3    H2 6625   5.514   4.553   2.738
 2207TIP3   OH2 6626   0.987   5.650   4.356
 2207TIP3    H1 6627   1.029   5.574   4.396
 2207TIP3    H2 6628   1.051   5.683   4.293
 2208TIP3   OH2 6629   4.647   0.965   1.492
 2208TIP3    H1 6630   4.712   1.035   1.483
 2208TIP3    H2 6631   4.695   0.892   1.531
 2209TIP3   OH2 6632   2.841   1.528   4.504
 2209TIP3    H1 6633   2.764   1.530   4.560
 2209TIP3    H2 6634   2.881   1.443   4.521
 2210TIP3   OH2 6635   5.488   4.563   0.954
 2210TIP3    H1 6636   5.509   4.474   0.928
 2210TIP3    H2 6637   5.392   4.568   0.948
 2211TIP3   OH2 6638   3.097   1.777   2.323
 2211TIP3    H1 6639   3.106   1.826   2.242
 2211TIP3    H2 6640   3.092   1.845   2.391
 2212TIP3   OH2 6641   5.584   4.043   1.457
 2212TIP3    H1 6642   5.608   4.130   1.425
 2212TIP3    H2 6643   5.553   4.058   1.547
 2213TIP3   OH2 6644   3.681   3.752   4.347
 2213TIP3    H1 6645   3.609   3.813   4.329
 2213TIP3    H2 6646   3.646   3.666   4.323
 2214TIP3   OH2 6647   2.049   2.158   3.360
 2214TIP3    H1 6648   2.140   2.134   3.345
 2214TIP3    H2 6649   1.999   2.087   3.321
 2215TIP3   OH2 6650   5.109   0.148   1.617
 2215TIP3    H1 6651   5.129   0.237   1.589
 2215TIP3    H2 6652   5.081   0.156   1.708
 2216TIP3   OH2 6653   1.987   1.851   2.903
 2216TIP3    H1 6654   1.893   1.865   2.909
 2216TIP3    H2 6655   1.998   1.757   2.916
 2217TIP3   OH2 6656   6.185   1.900   3.532
 2217TIP3    H1 6657   6.149   1.940   3.453
 2217TIP3    H2 6658   6.268   1.862   3.504
 2218TIP3   OH2 6659   5.624   4.801   3.363
 2218TIP3    H1 6660   5.593   4.723   3.409
 2218TIP3    H2 6661   5.656   4.859   3.432
 2219TIP3   OH2 6662   2.525   0.812   4.418
 2219TIP3    H1 6663   2.505   0.762   4.339
 2219TIP3    H2 6664   2.580   0.884   4.387
 2220TIP3   OH2 6665   0.511   0.627   0.391
 2220TIP3    H1 6666   0.430   0.636   0.442
 2220TIP3    H2 6667   0.483   0.630   0.300
 2221TIP3   OH2 6668   2.453   0.217   2.155
 2221TIP3    H1 6669   2.434   0.160   2.230
 2221TIP3    H2 6670   2.375   0.209   2.099
 2222TIP3   OH2 6671   5.273   3.595   0.373
 2222TIP3    H1 6672   5.224   3.662   0.327
 2222TIP3    H2 6673   5.209   3.527   0.392
 2223TIP3   OH2 6674   4.244   5.135   1.364
 2223TIP3    H1 6675   4.336   5.111   1.370
 2223TIP3    H2 6676   4.218   5.153   1.455
 2224TIP3   OH2 6677   5.819   2.333   4.884
 2224TIP3    H1 6678   5.738   2.329   4.833
 2224TIP3    H2 6679   5.822   2.423   4.917
 2225TIP3   OH2 6680   5.381   1.613   1.983
 2225TIP3    H1 6681   5.290   1.633   2.004
 2225TIP3    H2 6682   5.376   1.559   1.904
 2226TIP3   OH2 6683   4.535   1.086   1.143
 2226TIP3    H1 6684   4.513   1.161   1.199
 2226TIP3    H2 6685   4.584   1.125   1.071
 2227TIP3   OH2 6686   2.365   3.744   1.179
 2227TIP3    H1 6687   2.397   3.829   1.209
 2227TIP3    H2 6688   2.443   3.688   1.176
 2228TIP3   OH2 6689   4.678   0.474   2.575
 2228TIP3    H1 6690   4.676   0.410   2.646
 2228TIP3    H2 6691   4.598   0.457   2.525
 2229TIP3   OH2 6692   1.487   4.090   0.970
 2229TIP3    H1 6693   1.520   4.155   1.032
 2229TIP3    H2 6694   1.476   4.138   0.888
 2230TIP3   OH2 6695   3.411   3.873   1.784
 2230TIP3    H1 6696   3.404   3.778   1.787
 2230TIP3    H2 6697   3.504   3.891   1.790
 2231TIP3   OH2 6698   3.226   4.818   4.501
 2231TIP3    H1 6699   3.158   4.790   4.441
 2231TIP3    H2 6700   3.249   4.906   4.472
 2232TIP3   OH2 6701   1.950   3.075   2.064
 2232TIP3    H1 6702   1.872   3.082   2.008
 2232TIP3    H2 6703   1.959   2.982   2.081
 2233TIP3   OH2 6704   0.402   3.296   2.922
 2233TIP3    H1 6705   0.329   3.265   2.976
 2233TIP3    H2 6706   0.408   3.231   2.852
 2234TIP3   OH2 6707   6.014   3.682   2.398
 2234TIP3    H1 6708   6.048   3.596   2.424
 2234TIP3    H2 6709   6.086   3.723   2.351
 2235TIP3   OH2 6710   3.485   1.639   1.765
 2235TIP3    H1 6711   3.503   1.546   1.780
 2235TIP3    H2 6712   3.404   1.655   1.812
 2236TIP3   OH2 6713   5.564   2.910   0.429
 2236TIP3    H1 6714   5.576   2.846   0.359
 2236TIP3    H2 6715   5.469   2.924   0.433
 2237TIP3   OH2 6716   4.446   3.594   2.602
 2237TIP3    H1 6717   4.418   3.519   2.655
 2237TIP3    H2 6718   4.537   3.608   2.628
 2238TIP3   OH2 6719   1.169   4.471   5.156
 2238TIP3    H1 6720   1.115   4.410   5.107
 2238TIP3    H2 6721   1.244   4.488   5.099
 2239TIP3   OH2 6722   4.038   3.092   5.096
 2239TIP3    H1 6723   4.046   3.025   5.028
 2239TIP3    H2 6724   4.118   3.144   5.087
 2240TIP3   OH2 6725   2.960   2.821   3.057
 2240TIP3    H1 6726   3.030   2.767   3.092
 2240TIP3    H2 6727   2.896   2.827   3.128
 2241TIP3   OH2 6728   1.898   3.038   0.437
 2241TIP3    H1 6729   1.957   2.964   0.456
 2241TIP3    H2 6730   1.934   3.110   0.488
 2242TIP3   OH2 6731   4.109   1.854   1.851
 2242TIP3    H1 6732   4.197   1.817   1.862
 2242TIP3    H2 6733   4.094   1.853   1.757
 2243TIP3   OH2 6734   0.633   1.941   0.980
 2243TIP3    H1 6735   0.601   2.013   1.034
 2243TIP3    H2 6736   0.723   1.963   0.959
 2244TIP3   OH2 6737   3.359   3.966   0.670
 2244TIP3    H1 6738   3.292   3.928   0.614
 2244TIP3    H2 6739   3.320   3.968   0.757
 2245TIP3   OH2 6740   2.269   1.270   1.386
 2245TIP3    H1 6741   2.184   1.311   1.400
 2245TIP3    H2 6742   2.262   1.229   1.300
 2246TIP3   OH2 6743   0.550   3.325   2.033
 2246TIP3    H1 6744   0.631   3.376   2.032
 2246TIP3    H2 6745   0.487   3.381   2.078
 2247TIP3   OH2 6746   1.492   0.319   1.607
 2247TIP3    H1 6747   1.516   0.329   1.699
 2247TIP3    H2 6748   1.403   0.355   1.601
 2248TIP3   OH2 6749   2.098   4.959   0.699
 2248TIP3    H1 6750   2.167   5.022   0.722
 2248TIP3    H2 6751   2.145   4.877   0.682
 2249TIP3   OH2 6752   4.003   0.318   4.664
 2249TIP3    H1 6753   3.948   0.245   4.693
 2249TIP3    H2 6754   4.066   0.277   4.604
 2250TIP3   OH2 6755   4.872   0.659   1.191
 2250TIP3    H1 6756   4.869   0.754   1.182
 2250TIP3    H2 6757   4.843   0.626   1.107
 2251TIP3   OH2 6758   4.743   4.031   3.080
 2251TIP3    H1 6759   4.709   4.072   3.159
 2251TIP3    H2 6760   4.799   4.097   3.040
 2252TIP3   OH2 6761   1.305   3.436   0.729
 2252TIP3    H1 6762   1.222   3.477   0.702
 2252TIP3    H2 6763   1.344   3.405   0.648
 2253TIP3   OH2 6764   1.228   0.423   1.634
 2253TIP3    H1 6765   1.221   0.341   1.682
 2253TIP3    H2 6766   1.193   0.403   1.547
 2254TIP3   OH2 6767   1.395   4.271   1.186
 2254TIP3    H1 6768   1.328   4.334   1.212
 2254TIP3    H2 6769   1.367   4.188   1.225
 2255TIP3   OH2 6770   2.312   5.078   3.321
 2255TIP3    H1 6771   2.218   5.088   3.338
 2255TIP3    H2 6772   2.354   5.116   3.398
 2256TIP3   OH2 6773   1.023   2.007   4.096
 2256TIP3    H1 6774   1.008   1.997   4.002
 2256TIP3    H2 6775   1.095   1.946   4.115
 2257TIP3   OH2 6776   0.182   3.012   1.439
 2257TIP3    H1 6777   0.126   3.020   1.516
 2257TIP3    H2 6778   0.229   3.095   1.434
 2258TIP3   OH2 6779   3.785   3.710   3.940
 2258TIP3    H1 6780   3.715   3.768   3.973
 2258TIP3    H2 6781   3.824   3.672   4.019
 2259TIP3   OH2 6782   1.698   3.637   4.806
 2259TIP3    H1 6783   1.739   3.566   4.755
 2259TIP3    H2 6784   1.765   3.705   4.810
 2260TIP3   OH2 6785   0.496   4.555   3.528
 2260TIP3    H1 6786   0.465   4.464   3.520
 2260TIP3    H2 6787   0.425   4.600   3.575
 2261TIP3   OH2 6788   5.291   0.759   4.096
 2261TIP3    H1 6789   5.345   0.825   4.051
 2261TIP3    H2 6790   5.203   0.775   4.063
 2262TIP3   OH2 6791   4.892   3.269   4.288
 2262TIP3    H1 6792   4.819   3.331   4.286
 2262TIP3    H2 6793   4.965   3.316   4.246
 2263TIP3   OH2 6794   1.834   4.044   1.087
 2263TIP3    H1 6795   1.901   4.097   1.044
 2263TIP3    H2 6796   1.826   3.966   1.033
 2264TIP3   OH2 6797   3.453   3.628   4.065
 2264TIP3    H1 6798   3.481   3.591   4.149
 2264TIP3    H2 6799   3.472   3.560   4.000
 2265TIP3   OH2 6800   3.840   3.486   1.706
 2265TIP3    H1 6801   3.830   3.504   1.799
 2265TIP3    H2 6802   3.930   3.514   1.686
 2266TIP3   OH2 6803   1.750   5.722   1.811
 2266TIP3    H1 6804   1.747   5.695   1.720
 2266TIP3    H2 6805   1.785   5.810   1.809
 2267TIP3   OH2 6806   0.296   5.594   4.973
 2267TIP3    H1 6807   0.201   5.602   4.977
 2267TIP3    H2 6808   0.313   5.537   4.899
 2268TIP3   OH2 6809   1.865   1.959   4.953
 2268TIP3    H1 6810   1.820   2.017   4.892
 2268TIP3    H2 6811   1.879   1.878   4.903
 2269TIP3   OH2 6812   3.728   1.748   1.836
 2269TIP3    H1 6813   3.634   1.727   1.837
 2269TIP3    H2 6814   3.771   1.667   1.807
 2270TIP3   OH2 6815   4.743   5.038   4.925
 2270TIP3    H1 6816   4.652   5.069   4.927
 2270TIP3    H2 6817   4.735   4.944   4.909
 2271TIP3   OH2 6818   2.842   4.904   4.827
 2271TIP3    H1 6819   2.868   4.989   4.863
 2271TIP3    H2 6820   2.916   4.846   4.847
 2272TIP3   OH2 6821   1.536   2.269   0.366
 2272TIP3    H1 6822   1.467   2.281   0.301
 2272TIP3    H2 6823   1.577   2.186   0.342
 2273TIP3   OH2 6824   3.632   3.560   0.517
 2273TIP3    H1 6825   3.551   3.602   0.486
 2273TIP3    H2 6826   3.655   3.608   0.596
 2274TIP3   OH2 6827   5.448   3.413   3.684
 2274TIP3    H1 6828   5.519   3.362   3.644
 2274TIP3    H2 6829   5.493   3.474   3.743
 2275TIP3   OH2 6830   0.052   1.520   1.106
 2275TIP3    H1 6831   0.052   1.479   1.020
 2275TIP3    H2 6832   0.116   1.471   1.157
 2276TIP3   OH2 6833   5.245   4.621   1.233
 2276TIP3    H1 6834   5.245   4.650   1.142
 2276TIP3    H2 6835   5.263   4.527   1.229
 2277TIP3   OH2 6836   5.248   2.549   0.865
 2277TIP3    H1 6837   5.199   2.614   0.815
 2277TIP3    H2 6838   5.239   2.468   0.814
 2278TIP3   OH2 6839   1.061   5.223   0.733
 2278TIP3    H1 6840   0.980   5.178   0.753
 2278TIP3    H2 6841   1.068   5.291   0.801
 2279TIP3   OH2 6842   0.369   2.578   2.758
 2279TIP3    H1 6843   0.360   2.595   2.664
 2279TIP3    H2 6844   0.453   2.616   2.782
 2280TIP3   OH2 6845   0.944   4.054   0.671
 2280TIP3    H1 6846   0.951   4.131   0.728
 2280TIP3    H2 6847   0.969   3.981   0.727
 2281TIP3   OH2 6848   0.350   2.091   3.983
 2281TIP3    H1 6849   0.443   2.083   4.007
 2281TIP3    H2 6850   0.326   2.179   4.010
 2282TIP3   OH2 6851   1.308   1.315   0.246
 2282TIP3    H1 6852   1.352   1.338   0.328
 2282TIP3    H2 6853   1.272   1.227   0.262
 2283TIP3   OH2 6854   1.484   2.830   4.453
 2283TIP3    H1 6855   1.518   2.743   4.434
 2283TIP3    H2 6856   1.505   2.882   4.375
 2284TIP3   OH2 6857   2.994   1.974   1.709
 2284TIP3    H1 6858   2.949   1.932   1.636
 2284TIP3    H2 6859   3.083   1.990   1.676
 2285TIP3   OH2 6860   1.722   2.006   3.961
 2285TIP3    H1 6861   1.789   2.065   3.926
 2285TIP3    H2 6862   1.652   2.008   3.896
 2286TIP3   OH2 6863   0.666   3.661   3.556
 2286TIP3    H1 6864   0.605   3.666   3.482
 2286TIP3    H2 6865   0.615   3.624   3.627
 2287TIP3   OH2 6866   1.659   4.948   1.198
 2287TIP3    H1 6867   1.659   4.977   1.107
 2287TIP3    H2 6868   1.625   4.859   1.196
 2288TIP3   OH2 6869   0.279   0.428   4.307
 2288TIP3    H1 6870   0.187   0.414   4.286
 2288TIP3    H2 6871   0.305   0.349   4.353
 2289TIP3   OH2 6872   2.974   2.643   5.176
 2289TIP3    H1 6873   2.972   2.739   5.177
 2289TIP3    H2 6874   3.027   2.621   5.099
 2290TIP3   OH2 6875   4.846   4.568   5.119
 2290TIP3    H1 6876   4.866   4.491   5.172
 2290TIP3    H2 6877   4.765   4.603   5.157
 2291TIP3   OH2 6878   0.209   2.367   3.765
 2291TIP3    H1 6879   0.210   2.406   3.852
 2291TIP3    H2 6880   0.276   2.298   3.769
 2292TIP3   OH2 6881   3.450   3.101   2.235
 2292TIP3    H1 6882   3.393   3.070   2.164
 2292TIP3    H2 6883   3.474   3.190   2.209
 2293TIP3   OH2 6884   1.794   2.886   4.466
 2293TIP3    H1 6885   1.831   2.944   4.532
 2293TIP3    H2 6886   1.707   2.923   4.447
 2294TIP3   OH2 6887   1.312   3.611   3.675
 2294TIP3    H1 6888   1.349   3.653   3.598
 2294TIP3    H2 6889   1.228   3.655   3.689
 2295TIP3   OH2 6890   3.184   5.368   4.656
 2295TIP3    H1 6891   3.152   5.452   4.624
 2295TIP3    H2 6892   3.105   5.315   4.666
 2296TIP3   OH2 6893   3.775   4.091   1.903
 2296TIP3    H1 6894   3.748   4.061   1.816
 2296TIP3    H2 6895   3.828   4.019   1.938
 2297TIP3   OH2 6896   2.909   5.190   0.018
 2297TIP3    H1 6897   2.898   5.146   0.102
 2297TIP3    H2 6898   2.832   5.163  -0.033
 2298TIP3   OH2 6899   5.494   2.309   2.695
 2298TIP3    H1 6900   5.586   2.282   2.701
 2298TIP3    H2 6901   5.473   2.301   2.602
 2299TIP3   OH2 6902   3.353   3.497   2.744
 2299TIP3    H1 6903   3.386   3.411   2.772
 2299TIP3    H2 6904   3.258   3.492   2.756
 2300TIP3   OH2 6905   4.128   1.050   4.676
 2300TIP3    H1 6906   4.128   0.956   4.658
 2300TIP3    H2 6907   4.188   1.087   4.611
 2301TIP3   OH2 6908   0.939   0.296   3.288
 2301TIP3    H1 6909   0.933   0.229   3.356
 2301TIP3    H2 6910   0.936   0.379   3.336
 2302TIP3   OH2 6911   4.231   2.721   2.636
 2302TIP3    H1 6912   4.153   2.745   2.686
 2302TIP3    H2 6913   4.298   2.782   2.665
 2303TIP3   OH2 6914   1.630   3.359   3.922
 2303TIP3    H1 6915   1.544   3.354   3.880
 2303TIP3    H2 6916   1.693   3.352   3.850
 2304TIP3   OH2 6917   0.194   1.364   3.489
 2304TIP3    H1 6918   0.216   1.270   3.489
 2304TIP3    H2 6919   0.220   1.394   3.402
 2305TIP3   OH2 6920   2.577   1.610   1.027
 2305TIP3    H1 6921   2.508   1.547   1.005
 2305TIP3    H2 6922   2.535   1.670   1.089
 2306TIP3   OH2 6923   4.430   4.320   5.068
 2306TIP3    H1 6924   4.390   4.333   4.982
 2306TIP3    H2 6925   4.417   4.228   5.087
 2307TIP3   OH2 6926   3.386   3.115   1.405
 2307TIP3    H1 6927   3.367   3.065   1.325
 2307TIP3    H2 6928   3.345   3.201   1.389
 2308TIP3   OH2 6929   4.811   5.096   1.880
 2308TIP3    H1 6930   4.759   5.024   1.915
 2308TIP3    H2 6931   4.897   5.058   1.863
 2309TIP3   OH2 6932   3.229   4.580   2.583
 2309TIP3    H1 6933   3.183   4.608   2.663
 2309TIP3    H2 6934   3.161   4.578   2.516
 2310TIP3   OH2 6935   1.934   1.167   3.987
 2310TIP3    H1 6936   1.923   1.262   3.992
 2310TIP3    H2 6937   2.029   1.154   3.989
 2311TIP3   OH2 6938   1.152   1.538   0.988
 2311TIP3    H1 6939   1.121   1.605   0.928
 2311TIP3    H2 6940   1.133   1.455   0.944
 2312TIP3   OH2 6941   5.938   2.721   4.008
 2312TIP3    H1 6942   5.959   2.695   4.098
 2312TIP3    H2 6943   5.995   2.795   3.990
 2313TIP3   OH2 6944   3.548   4.440   0.982
 2313TIP3    H1 6945   3.642   4.438   0.966
 2313TIP3    H2 6946   3.518   4.353   0.954
 2314TIP3   OH2 6947   6.298   4.502   0.537
 2314TIP3    H1 6948   6.356   4.560   0.488
 2314TIP3    H2 6949   6.259   4.559   0.604
 2315TIP3   OH2 6950   0.890   2.561   5.064
 2315TIP3    H1 6951   0.942   2.525   5.136
 2315TIP3    H2 6952   0.831   2.623   5.105
 2316TIP3   OH2 6953   1.062   0.266   4.416
 2316TIP3    H1 6954   1.007   0.331   4.460
 2316TIP3    H2 6955   1.069   0.297   4.325
 2317TIP3   OH2 6956   6.065   4.843   3.788
 2317TIP3    H1 6957   6.080   4.749   3.787
 2317TIP3    H2 6958   5.981   4.854   3.743
 2318TIP3   OH2 6959   5.604   1.516   2.162
 2318TIP3    H1 6960   5.670   1.507   2.094
 2318TIP3    H2 6961   5.527   1.472   2.127
 2319TIP3   OH2 6962   0.991   5.567   3.621
 2319TIP3    H1 6963   1.012   5.525   3.537
 2319TIP3    H2 6964   0.956   5.497   3.675
 2320TIP3   OH2 6965   4.709   0.827   2.769
 2320TIP3    H1 6966   4.614   0.836   2.777
 2320TIP3    H2 6967   4.727   0.738   2.798
 2321TIP3   OH2 6968   0.110   0.268   3.801
 2321TIP3    H1 6969   0.166   0.211   3.749
 2321TIP3    H2 6970   0.118   0.354   3.759
 2322TIP3   OH2 6971   4.352   2.965   2.745
 2322TIP3    H1 6972   4.325   2.999   2.660
 2322TIP3    H2 6973   4.291   3.005   2.807
 2323TIP3   OH2 6974   1.368   4.753   3.270
 2323TIP3    H1 6975   1.379   4.824   3.334
 2323TIP3    H2 6976   1.283   4.715   3.291
 2324TIP3   OH2 6977   4.070   2.274   4.697
 2324TIP3    H1 6978   4.148   2.323   4.721
 2324TIP3    H2 6979   4.015   2.275   4.776
 2325TIP3   OH2 6980   5.935   2.314   1.698
 2325TIP3    H1 6981   5.892   2.345   1.778
 2325TIP3    H2 6982   5.984   2.390   1.666
 2326TIP3   OH2 6983   1.362   4.149   3.804
 2326TIP3    H1 6984   1.278   4.114   3.833
 2326TIP3    H2 6985   1.411   4.073   3.773
 2327TIP3   OH2 6986   2.654   4.637   1.619
 2327TIP3    H1 6987   2.647   4.546   1.647
 2327TIP3    H2 6988   2.632   4.688   1.697
 2328TIP3   OH2 6989   5.255   3.095   5.202
 2328TIP3    H1 6990   5.337   3.109   5.155
 2328TIP3    H2 6991   5.206   3.035   5.146
 2329TIP3   OH2 6992   4.797   0.289   3.148
 2329TIP3    H1 6993   4.869   0.337   3.108
 2329TIP3    H2 6994   4.803   0.309   3.241
 2330TIP3   OH2 6995   0.264   1.141   2.955
 2330TIP3    H1 6996   0.174   1.146   2.987
 2330TIP3    H2 6997   0.304   1.223   2.983
 2331TIP3   OH2 6998   0.036   5.930   2.128
 2331TIP3    H1 6999   0.055   5.840   2.101
 2331TIP3    H2 7000  -0.036   5.922   2.190
 2332TIP3   OH2 7001   4.008   3.573   1.328
 2332TIP3    H1 7002   3.952   3.500   1.301
 2332TIP3    H2 7003   4.096   3.536   1.330
 2333TIP3   OH2 7004   5.312   1.662   3.115
 2333TIP3    H1 7005   5.245   1.598   3.090
 2333TIP3    H2 7006   5.284   1.692   3.202
 2334TIP3   OH2 7007   4.689   3.642   4.376
 2334TIP3    H1 7008   4.730   3.728   4.387
 2334TIP3    H2 7009   4.749   3.581   4.419
 2335TIP3   OH2 7010   5.619   2.480   4.732
 2335TIP3    H1 7011   5.576   2.394   4.724
 2335TIP3    H2 7012   5.615   2.517   4.644
 2336TIP3   OH2 7013   2.504   5.893   0.213
 2336TIP3    H1 7014   2.473   5.871   0.301
 2336TIP3    H2 7015   2.555   5.973   0.224
 2337TIP3   OH2 7016   2.942   0.240   2.046
 2337TIP3    H1 7017   2.904   0.320   2.082
 2337TIP3    H2 7018   2.883   0.170   2.073
 2338TIP3   OH2 7019   6.016   1.224   2.301
 2338TIP3    H1 7020   6.071   1.277   2.359
 2338TIP3    H2 7021   5.947   1.190   2.358
 2339TIP3   OH2 7022   3.860   3.657   0.415
 2339TIP3    H1 7023   3.862   3.679   0.322
 2339TIP3    H2 7024   3.774   3.617   0.428
 2340TIP3   OH2 7025   1.091   0.030   4.263
 2340TIP3    H1 7026   1.004   0.016   4.226
 2340TIP3    H2 7027   1.079   0.099   4.328
 2341TIP3   OH2 7028   2.239   4.447   3.723
 2341TIP3    H1 7029   2.193   4.504   3.661
 2341TIP3    H2 7030   2.196   4.362   3.714
 2342TIP3   OH2 7031   1.139   0.072   5.000
 2342TIP3    H1 7032   1.195   0.003   4.964
 2342TIP3    H2 7033   1.168   0.152   4.956
 2343TIP3   OH2 7034   3.763   5.141   4.057
 2343TIP3    H1 7035   3.856   5.147   4.077
 2343TIP3    H2 7036   3.725   5.094   4.131
 2344TIP3   OH2 7037   4.061   0.515   0.662
 2344TIP3    H1 7038   4.116   0.443   0.693
 2344TIP3    H2 7039   4.041   0.566   0.740
 2345TIP3   OH2 7040   1.113   4.500   2.331
 2345TIP3    H1 7041   1.070   4.414   2.335
 2345TIP3    H2 7042   1.159   4.508   2.415
 2346TIP3   OH2 7043   3.847   1.606   2.983
 2346TIP3    H1 7044   3.843   1.674   3.050
 2346TIP3    H2 7045   3.788   1.637   2.914
 2347TIP3   OH2 7046   6.181   0.619   2.903
 2347TIP3    H1 7047   6.223   0.687   2.956
 2347TIP3    H2 7048   6.240   0.544   2.908
 2348TIP3   OH2 7049   6.312   4.115   2.963
 2348TIP3    H1 7050   6.222   4.094   2.988
 2348TIP3    H2 7051   6.332   4.054   2.892
 2349TIP3   OH2 7052   2.777   0.325   4.565
 2349TIP3    H1 7053   2.713   0.353   4.631
 2349TIP3    H2 7054   2.833   0.263   4.612
 2350TIP3   OH2 7055   2.015   1.291   3.191
 2350TIP3    H1 7056   2.107   1.274   3.169
 2350TIP3    H2 7057   2.010   1.275   3.285
 2351TIP3   OH2 7058   3.233   0.019   0.271
 2351TIP3    H1 7059   3.201   0.058   0.190
 2351TIP3    H2 7060   3.255   0.094   0.327
 2352TIP3   OH2 7061   1.330   2.875   4.743
 2352TIP3    H1 7062   1.364   2.964   4.742
 2352TIP3    H2 7063   1.383   2.828   4.679
 2353TIP3   OH2 7064   1.514   3.558   0.346
 2353TIP3    H1 7065   1.493   3.622   0.278
 2353TIP3    H2 7066   1.473   3.477   0.317
 2354TIP3   OH2 7067   2.475   1.806   2.630
 2354TIP3    H1 7068   2.435   1.878   2.581
 2354TIP3    H2 7069   2.486   1.840   2.719
 2355TIP3   OH2 7070   2.702   1.401   5.142
 2355TIP3    H1 7071   2.780   1.455   5.154
 2355TIP3    H2 7072   2.684   1.405   5.048
 2356TIP3   OH2 7073   1.038   0.628   4.732
 2356TIP3    H1 7074   1.103   0.679   4.781
 2356TIP3    H2 7075   0.962   0.624   4.790
 2357TIP3   OH2 7076   4.888   1.913   5.004
 2357TIP3    H1 7077   4.972   1.954   5.023
 2357TIP3    H2 7078   4.825   1.985   5.005
 2358TIP3   OH2 7079   5.934   4.223   2.466
 2358TIP3    H1 7080   5.970   4.193   2.383
 2358TIP3    H2 7081   5.885   4.303   2.443
 2359TIP3   OH2 7082   4.739   3.722   0.891
 2359TIP3    H1 7083   4.740   3.818   0.885
 2359TIP3    H2 7084   4.781   3.703   0.975
 2360TIP3   OH2 7085   2.856   0.765   4.267
 2360TIP3    H1 7086   2.899   0.703   4.325
 2360TIP3    H2 7087   2.803   0.710   4.209
 2361TIP3   OH2 7088   0.470   3.739   2.280
 2361TIP3    H1 7089   0.456   3.741   2.374
 2361TIP3    H2 7090   0.562   3.759   2.268
 2362TIP3   OH2 7091   1.603   1.197   3.396
 2362TIP3    H1 7092   1.595   1.256   3.321
 2362TIP3    H2 7093   1.697   1.187   3.409
 2363TIP3   OH2 7094   0.641   2.518   3.450
 2363TIP3    H1 7095   0.714   2.498   3.392
 2363TIP3    H2 7096   0.576   2.561   3.394
 2364TIP3   OH2 7097   3.083   1.543   2.165
 2364TIP3    H1 7098   3.092   1.612   2.231
 2364TIP3    H2 7099   3.021   1.481   2.203
 2365TIP3   OH2 7100   5.954   2.230   4.395
 2365TIP3    H1 7101   5.993   2.165   4.337
 2365TIP3    H2 7102   5.895   2.180   4.451
 2366TIP3   OH2 7103   2.801   1.996   3.734
 2366TIP3    H1 7104   2.790   1.908   3.697
 2366TIP3    H2 7105   2.801   1.983   3.828
 2367TIP3   OH2 7106   0.134   1.288   2.667
 2367TIP3    H1 7107   0.076   1.355   2.703
 2367TIP3    H2 7108   0.166   1.240   2.744
 2368TIP3   OH2 7109   0.312   1.607   4.368
 2368TIP3    H1 7110   0.378   1.575   4.306
 2368TIP3    H2 7111   0.254   1.532   4.382
 2369TIP3   OH2 7112   0.372   3.447   2.197
 2369TIP3    H1 7113   0.316   3.521   2.174
 2369TIP3    H2 7114   0.312   3.382   2.235
 2370TIP3   OH2 7115   1.054   4.714   5.077
 2370TIP3    H1 7116   0.968   4.711   5.036
 2370TIP3    H2 7117   1.076   4.622   5.093
 2371TIP3   OH2 7118   2.758   0.684   3.799
 2371TIP3    H1 7119   2.834   0.667   3.855
 2371TIP3    H2 7120   2.759   0.613   3.735
 2372TIP3   OH2 7121   0.756   3.113   4.268
 2372TIP3    H1 7122   0.831   3.173   4.266
 2372TIP3    H2 7123   0.784   3.041   4.323
 2373TIP3   OH2 7124   2.128   1.202   1.660
 2373TIP3    H1 7125   2.177   1.180   1.581
 2373TIP3    H2 7126   2.103   1.293   1.649
 2374TIP3   OH2 7127   4.782   3.428   4.067
 2374TIP3    H1 7128   4.864   3.394   4.029
 2374TIP3    H2 7129   4.736   3.466   3.992
 2375TIP3   OH2 7130   3.929   1.557   2.316
 2375TIP3    H1 7131   3.887   1.471   2.317
 2375TIP3    H2 7132   3.876   1.609   2.256
 2376TIP3   OH2 7133   2.152   2.847   2.182
 2376TIP3    H1 7134   2.083   2.886   2.235
 2376TIP3    H2 7135   2.174   2.765   2.227
 2377TIP3   OH2 7136   5.496   5.562   3.868
 2377TIP3    H1 7137   5.460   5.474   3.881
 2377TIP3    H2 7138   5.490   5.577   3.773
 2378TIP3   OH2 7139   3.805   1.700   3.283
 2378TIP3    H1 7140   3.868   1.667   3.346
 2378TIP3    H2 7141   3.727   1.645   3.295
 2379TIP3   OH2 7142   1.982   5.766   0.296
 2379TIP3    H1 7143   1.924   5.813   0.236
 2379TIP3    H2 7144   1.979   5.675   0.266
 2380TIP3   OH2 7145   4.193   0.167   4.509
 2380TIP3    H1 7146   4.285   0.164   4.481
 2380TIP3    H2 7147   4.149   0.105   4.451
 2381TIP3   OH2 7148   0.293   2.302   2.169
 2381TIP3    H1 7149   0.360   2.267   2.110
 2381TIP3    H2 7150   0.264   2.383   2.127
 2382TIP3   OH2 7151   0.572   5.684   1.054
 2382TIP3    H1 7152   0.486   5.652   1.026
 2382TIP3    H2 7153   0.611   5.719   0.975
 2383TIP3   OH2 7154   2.766   1.407   4.838
 2383TIP3    H1 7155   2.854   1.438   4.858
 2383TIP3    H2 7156   2.776   1.313   4.823
 2384TIP3   OH2 7157   0.576   5.828   1.422
 2384TIP3    H1 7158   0.627   5.892   1.372
 2384TIP3    H2 7159   0.499   5.877   1.451
 2385TIP3   OH2 7160   3.443   0.651   0.803
 2385TIP3    H1 7161   3.391   0.639   0.723
 2385TIP3    H2 7162   3.534   0.642   0.774
 2386TIP3   OH2 7163   1.568   0.225   3.425
 2386TIP3    H1 7164   1.596   0.178   3.346
 2386TIP3    H2 7165   1.624   0.191   3.494
 2387TIP3   OH2 7166   1.385   3.827   0.363
 2387TIP3    H1 7167   1.306   3.787   0.399
 2387TIP3    H2 7168   1.352   3.901   0.311
 2388TIP3   OH2 7169   0.548   1.597   4.196
 2388TIP3    H1 7170   0.619   1.572   4.255
 2388TIP3    H2 7171   0.570   1.556   4.113
 2389TIP3   OH2 7172   5.197   3.361   1.130
 2389TIP3    H1 7173   5.182   3.410   1.049
 2389TIP3    H2 7174   5.165   3.419   1.199
 2390TIP3   OH2 7175   4.562   2.282   0.229
 2390TIP3    H1 7176   4.531   2.279   0.139
 2390TIP3    H2 7177   4.538   2.369   0.260
 2391TIP3   OH2 7178   1.155   3.998   0.252
 2391TIP3    H1 7179   1.111   4.082   0.237
 2391TIP3    H2 7180   1.121   3.941   0.182
 2392TIP3   OH2 7181   5.060   0.460   2.082
 2392TIP3    H1 7182   4.977   0.414   2.064
 2392TIP3    H2 7183   5.119   0.391   2.111
 2393TIP3   OH2 7184   0.229   3.886   0.437
 2393TIP3    H1 7185   0.245   3.975   0.405
 2393TIP3    H2 7186   0.175   3.845   0.369
 2394TIP3   OH2 7187   6.325   3.642   4.619
 2394TIP3    H1 7188   6.343   3.549   4.607
 2394TIP3    H2 7189   6.344   3.682   4.534
 2395TIP3   OH2 7190   2.394   2.705   0.324
 2395TIP3    H1 7191   2.331   2.648   0.280
 2395TIP3    H2 7192   2.472   2.650   0.335
 2396TIP3   OH2 7193   1.551   2.785   3.993
 2396TIP3    H1 7194   1.526   2.841   4.066
 2396TIP3    H2 7195   1.539   2.696   4.026
 2397TIP3   OH2 7196   3.309   0.273   2.207
 2397TIP3    H1 7197   3.339   0.183   2.204
 2397TIP3    H2 7198   3.214   0.266   2.216
 2398TIP3   OH2 7199   5.143   1.664   3.337
 2398TIP3    H1 7200   5.062   1.617   3.320
 2398TIP3    H2 7201   5.194   1.606   3.392
 2399TIP3   OH2 7202   2.588   1.037   4.291
 2399TIP3    H1 7203   2.668   1.046   4.240
 2399TIP3    H2 7204   2.589   1.112   4.350
 2400TIP3   OH2 7205   3.240   1.759   3.777
 2400TIP3    H1 7206   3.332   1.772   3.757
 2400TIP3    H2 7207   3.202   1.847   3.776
 2401TIP3   OH2 7208   2.028   3.528   4.871
 2401TIP3    H1 7209   2.007   3.451   4.923
 2401TIP3    H2 7210   1.979   3.517   4.790
 2402TIP3   OH2 7211   0.805   3.719   1.139
 2402TIP3    H1 7212   0.770   3.633   1.114
 2402TIP3    H2 7213   0.781   3.776   1.066
 2403TIP3   OH2 7214   5.190   0.225   2.050
 2403TIP3    H1 7215   5.182   0.152   2.110
 2403TIP3    H2 7216   5.272   0.268   2.075
 2404TIP3   OH2 7217   1.786   2.493   4.158
 2404TIP3    H1 7218   1.845   2.425   4.190
 2404TIP3    H2 7219   1.739   2.453   4.085
 2405TIP3   OH2 7220   5.395   0.721   4.376
 2405TIP3    H1 7221   5.391   0.751   4.285
 2405TIP3    H2 7222   5.310   0.680   4.392
 2406TIP3   OH2 7223   2.033   5.579   2.076
 2406TIP3    H1 7224   2.016   5.584   1.982
 2406TIP3    H2 7225   2.080   5.660   2.097
 2407TIP3   OH2 7226   2.256   5.761   2.958
 2407TIP3    H1 7227   2.247   5.853   2.934
 2407TIP3    H2 7228   2.340   5.735   2.918
 2408TIP3   OH2 7229   5.268   4.586   3.644
 2408TIP3    H1 7230   5.303   4.591   3.555
 2408TIP3    H2 7231   5.345   4.584   3.700
 2409TIP3   OH2 7232   5.289   5.606   0.525
 2409TIP3    H1 7233   5.207   5.582   0.481
 2409TIP3    H2 7234   5.302   5.538   0.591
 2410TIP3   OH2 7235   4.986   5.596   5.153
 2410TIP3    H1 7236   5.066   5.544   5.149
 2410TIP3    H2 7237   4.926   5.551   5.094
 2411TIP3   OH2 7238   0.396   0.073   2.778
 2411TIP3    H1 7239   0.436  -0.013   2.769
 2411TIP3    H2 7240   0.468   0.131   2.800
 2412TIP3   OH2 7241   1.325   0.086   4.515
 2412TIP3    H1 7242   1.345   0.171   4.556
 2412TIP3    H2 7243   1.375   0.086   4.434
 2413TIP3   OH2 7244   1.996   4.429   2.828
 2413TIP3    H1 7245   1.971   4.471   2.746
 2413TIP3    H2 7246   2.073   4.477   2.858
 2414TIP3   OH2 7247   2.533   4.959   0.464
 2414TIP3    H1 7248   2.614   4.907   0.468
 2414TIP3    H2 7249   2.548   5.031   0.526
 2415TIP3   OH2 7250   3.699   4.536   3.932
 2415TIP3    H1 7251   3.692   4.632   3.936
 2415TIP3    H2 7252   3.792   4.520   3.916
 2416TIP3   OH2 7253   5.540   1.019   1.789
 2416TIP3    H1 7254   5.633   1.040   1.789
 2416TIP3    H2 7255   5.521   0.993   1.879
 2417TIP3   OH2 7256   0.684   2.583   4.364
 2417TIP3    H1 7257   0.737   2.605   4.441
 2417TIP3    H2 7258   0.674   2.488   4.367
 2418TIP3   OH2 7259   2.883   2.877   0.040
 2418TIP3    H1 7260   2.861   2.788   0.012
 2418TIP3    H2 7261   2.922   2.917  -0.038
 2419TIP3   OH2 7262   2.275   5.101   2.587
 2419TIP3    H1 7263   2.269   5.026   2.528
 2419TIP3    H2 7264   2.214   5.165   2.550
 2420TIP3   OH2 7265   1.787   3.738   0.960
 2420TIP3    H1 7266   1.694   3.750   0.940
 2420TIP3    H2 7267   1.832   3.804   0.907
 2421TIP3   OH2 7268   0.946   4.902   4.488
 2421TIP3    H1 7269   0.957   4.811   4.513
 2421TIP3    H2 7270   1.029   4.944   4.513
 2422TIP3   OH2 7271   4.956   4.288   1.257
 2422TIP3    H1 7272   4.977   4.376   1.227
 2422TIP3    H2 7273   5.029   4.264   1.313
 2423TIP3   OH2 7274   5.462   1.760   0.918
 2423TIP3    H1 7275   5.370   1.766   0.894
 2423TIP3    H2 7276   5.509   1.759   0.834
 2424TIP3   OH2 7277   0.778   4.355   0.054
 2424TIP3    H1 7278   0.775   4.449   0.069
 2424TIP3    H2 7279   0.686   4.327   0.055
 2425TIP3   OH2 7280   5.875   0.740   1.451
 2425TIP3    H1 7281   5.967   0.716   1.464
 2425TIP3    H2 7282   5.867   0.824   1.497
 2426TIP3   OH2 7283   1.651   0.637   1.772
 2426TIP3    H1 7284   1.696   0.710   1.814
 2426TIP3    H2 7285   1.701   0.560   1.797
 2427TIP3   OH2 7286   1.586   2.457   1.287
 2427TIP3    H1 7287   1.670   2.431   1.323
 2427TIP3    H2 7288   1.606   2.480   1.196
 2428TIP3   OH2 7289   3.621   1.820   1.194
 2428TIP3    H1 7290   3.548   1.882   1.191
 2428TIP3    H2 7291   3.607   1.772   1.276
 2429TIP3   OH2 7292   5.778   4.840   1.565
 2429TIP3    H1 7293   5.819   4.800   1.642
 2429TIP3    H2 7294   5.799   4.933   1.571
 2430TIP3   OH2 7295   0.819   2.324   2.391
 2430TIP3    H1 7296   0.741   2.274   2.366
 2430TIP3    H2 7297   0.794   2.368   2.473
 2431TIP3   OH2 7298   1.698   2.400   3.434
 2431TIP3    H1 7299   1.696   2.431   3.525
 2431TIP3    H2 7300   1.647   2.319   3.435
 2432TIP3   OH2 7301   2.087   0.612   2.623
 2432TIP3    H1 7302   2.110   0.572   2.539
 2432TIP3    H2 7303   2.144   0.569   2.687
 2433TIP3   OH2 7304   3.548   1.893   4.634
 2433TIP3    H1 7305   3.608   1.828   4.671
 2433TIP3    H2 7306   3.540   1.960   4.702
 2434TIP3   OH2 7307   6.168   1.547   1.411
 2434TIP3    H1 7308   6.153   1.583   1.324
 2434TIP3    H2 7309   6.205   1.460   1.394
 2435TIP3   OH2 7310   2.245   0.878   2.349
 2435TIP3    H1 7311   2.153   0.855   2.342
 2435TIP3    H2 7312   2.246   0.957   2.403
 2436TIP3   OH2 7313   4.330   4.172   4.202
 2436TIP3    H1 7314   4.268   4.245   4.203
 2436TIP3    H2 7315   4.411   4.210   4.168
 2437TIP3   OH2 7316   0.625   1.469   0.691
 2437TIP3    H1 7317   0.534   1.487   0.716
 2437TIP3    H2 7318   0.677   1.525   0.749
 2438TIP3   OH2 7319   2.517   5.276   4.214
 2438TIP3    H1 7320   2.486   5.269   4.124
 2438TIP3    H2 7321   2.555   5.364   4.220
 2439TIP3   OH2 7322   1.804   1.393   1.677
 2439TIP3    H1 7323   1.769   1.459   1.618
 2439TIP3    H2 7324   1.753   1.402   1.757
 2440TIP3   OH2 7325   1.595   3.317   3.322
 2440TIP3    H1 7326   1.554   3.240   3.284
 2440TIP3    H2 7327   1.532   3.346   3.389
 2441TIP3   OH2 7328   0.255   3.072   3.152
 2441TIP3    H1 7329   0.321   3.003   3.162
 2441TIP3    H2 7330   0.256   3.119   3.235
 2442TIP3   OH2 7331   1.918   3.208   2.308
 2442TIP3    H1 7332   1.919   3.150   2.232
 2442TIP3    H2 7333   2.010   3.230   2.323
 2443TIP3   OH2 7334   2.853   2.339   1.345
 2443TIP3    H1 7335   2.870   2.279   1.418
 2443TIP3    H2 7336   2.785   2.397   1.378
 2444TIP3   OH2 7337   5.450   2.631   2.429
 2444TIP3    H1 7338   5.540   2.640   2.400
 2444TIP3    H2 7339   5.430   2.538   2.415
 2445TIP3   OH2 7340   6.289   3.279   1.656
 2445TIP3    H1 7341   6.308   3.310   1.567
 2445TIP3    H2 7342   6.210   3.226   1.646
 2446TIP3   OH2 7343   0.136   1.966   1.601
 2446TIP3    H1 7344   0.108   2.004   1.518
 2446TIP3    H2 7345   0.226   1.995   1.612
 2447TIP3   OH2 7346   2.113   0.835   2.027
 2447TIP3    H1 7347   2.121   0.880   1.943
 2447TIP3    H2 7348   2.199   0.843   2.067
 2448TIP3   OH2 7349   2.499   0.507   4.972
 2448TIP3    H1 7350   2.451   0.565   4.913
 2448TIP3    H2 7351   2.454   0.516   5.056
 2449TIP3   OH2 7352   2.592   0.170   3.290
 2449TIP3    H1 7353   2.602   0.076   3.305
 2449TIP3    H2 7354   2.659   0.210   3.346
 2450TIP3   OH2 7355   1.210   4.042   5.202
 2450TIP3    H1 7356   1.191   4.127   5.162
 2450TIP3    H2 7357   1.217   3.981   5.128
 2451TIP3   OH2 7358   3.575   4.204   2.342
 2451TIP3    H1 7359   3.589   4.186   2.249
 2451TIP3    H2 7360   3.652   4.256   2.368
 2452TIP3   OH2 7361   3.033   2.649   4.411
 2452TIP3    H1 7362   3.098   2.594   4.455
 2452TIP3    H2 7363   2.953   2.597   4.413
 2453TIP3   OH2 7364   5.655   4.236   0.669
 2453TIP3    H1 7365   5.721   4.280   0.615
 2453TIP3    H2 7366   5.653   4.147   0.634
 2454TIP3   OH2 7367   0.850   5.070   0.795
 2454TIP3    H1 7368   0.758   5.043   0.791
 2454TIP3    H2 7369   0.897   5.003   0.745
 2455TIP3   OH2 7370   2.752   2.785   4.169
 2455TIP3    H1 7371   2.731   2.765   4.260
 2455TIP3    H2 7372   2.809   2.713   4.140
 2456TIP3   OH2 7373   0.067   5.425   4.846
 2456TIP3    H1 7374   0.046   5.468   4.929
 2456TIP3    H2 7375   0.067   5.331   4.867
 2457TIP3   OH2 7376   2.969   4.254   0.122
 2457TIP3    H1 7377   3.019   4.332   0.099
 2457TIP3    H2 7378   3.028   4.204   0.178
 2458TIP3   OH2 7379   3.030   0.551   0.441
 2458TIP3    H1 7380   2.965   0.600   0.492
 2458TIP3    H2 7381   3.014   0.578   0.350
 2459TIP3   OH2 7382   5.347   4.644   2.184
 2459TIP3    H1 7383   5.293   4.723   2.182
 2459TIP3    H2 7384   5.360   4.626   2.277
 2460TIP3   OH2 7385   0.109   0.150   4.878
 2460TIP3    H1 7386   0.057   0.146   4.958
 2460TIP3    H2 7387   0.160   0.231   4.886
 2461TIP3   OH2 7388   5.878   3.663   3.818
 2461TIP3    H1 7389   5.919   3.705   3.742
 2461TIP3    H2 7390   5.864   3.734   3.881
 2462TIP3   OH2 7391   0.105   1.451   4.471
 2462TIP3    H1 7392   0.026   1.483   4.514
 2462TIP3    H2 7393   0.134   1.378   4.526
 2463TIP3   OH2 7394   1.573   0.777   4.122
 2463TIP3    H1 7395   1.527   0.754   4.041
 2463TIP3    H2 7396   1.605   0.866   4.107
 2464TIP3   OH2 7397   4.513   5.327   1.986
 2464TIP3    H1 7398   4.568   5.323   1.908
 2464TIP3    H2 7399   4.571   5.357   2.056
 2465TIP3   OH2 7400   5.502   5.374   5.015
 2465TIP3    H1 7401   5.524   5.465   4.996
 2465TIP3    H2 7402   5.521   5.364   5.109
 2466TIP3   OH2 7403   0.166   1.770   0.417
 2466TIP3    H1 7404   0.230   1.833   0.384
 2466TIP3    H2 7405   0.157   1.791   0.510
 2467TIP3   OH2 7406   3.071   3.919   2.165
 2467TIP3    H1 7407   3.005   3.852   2.144
 2467TIP3    H2 7408   3.154   3.872   2.163
 2468TIP3   OH2 7409   4.799   1.840   1.739
 2468TIP3    H1 7410   4.775   1.749   1.721
 2468TIP3    H2 7411   4.877   1.855   1.686
 2469TIP3   OH2 7412   4.125   1.583   0.662
 2469TIP3    H1 7413   4.056   1.525   0.694
 2469TIP3    H2 7414   4.105   1.668   0.701
 2470TIP3   OH2 7415   1.271   0.594   3.001
 2470TIP3    H1 7416   1.278   0.509   2.959
 2470TIP3    H2 7417   1.230   0.650   2.936
 2471TIP3   OH2 7418   4.878   5.411   2.703
 2471TIP3    H1 7419   4.886   5.459   2.786
 2471TIP3    H2 7420   4.827   5.333   2.725
 2472TIP3   OH2 7421   3.503   3.332   5.088
 2472TIP3    H1 7422   3.596   3.349   5.105
 2472TIP3    H2 7423   3.459   3.413   5.112
 2473TIP3   OH2 7424   3.581   0.954   3.757
 2473TIP3    H1 7425   3.662   0.921   3.796
 2473TIP3    H2 7426   3.530   0.988   3.830
 2474TIP3   OH2 7427   5.840   0.441   4.277
 2474TIP3    H1 7428   5.856   0.371   4.213
 2474TIP3    H2 7429   5.849   0.398   4.362
 2475TIP3   OH2 7430   0.563   2.904   5.007
 2475TIP3    H1 7431   0.556   2.997   5.026
 2475TIP3    H2 7432   0.623   2.900   4.932
 2476TIP3   OH2 7433   6.333   5.581   3.042
 2476TIP3    H1 7434   6.362   5.508   3.097
 2476TIP3    H2 7435   6.275   5.540   2.977
 2477TIP3   OH2 7436   5.762   0.828   0.172
 2477TIP3    H1 7437   5.844   0.794   0.210
 2477TIP3    H2 7438   5.767   0.805   0.080
 2478TIP3   OH2 7439   1.874   1.737   3.333
 2478TIP3    H1 7440   1.782   1.715   3.318
 2478TIP3    H2 7441   1.909   1.660   3.378
 2479TIP3   OH2 7442   5.229   2.443   1.129
 2479TIP3    H1 7443   5.210   2.510   1.064
 2479TIP3    H2 7444   5.276   2.375   1.081
 2480TIP3   OH2 7445   0.878   0.309   1.236
 2480TIP3    H1 7446   0.829   0.297   1.318
 2480TIP3    H2 7447   0.934   0.232   1.230
 2481TIP3   OH2 7448   5.756   5.328   3.988
 2481TIP3    H1 7449   5.807   5.336   4.068
 2481TIP3    H2 7450   5.747   5.234   3.974
 2482TIP3   OH2 7451   2.870   3.164   2.125
 2482TIP3    H1 7452   2.822   3.089   2.089
 2482TIP3    H2 7453   2.805   3.212   2.176
 2483TIP3   OH2 7454   3.278   2.381   2.038
 2483TIP3    H1 7455   3.263   2.454   2.098
 2483TIP3    H2 7456   3.193   2.367   1.996
 2484TIP3   OH2 7457   3.606   2.248   2.192
 2484TIP3    H1 7458   3.688   2.199   2.202
 2484TIP3    H2 7459   3.601   2.266   2.099
 2485TIP3   OH2 7460   0.853   0.150   2.140
 2485TIP3    H1 7461   0.932   0.200   2.161
 2485TIP3    H2 7462   0.790   0.175   2.208
 2486TIP3   OH2 7463   2.144   3.782   0.654
 2486TIP3    H1 7464   2.137   3.737   0.738
 2486TIP3    H2 7465   2.085   3.857   0.663
 2487TIP3   OH2 7466   0.069   4.596   2.872
 2487TIP3    H1 7467   0.061   4.635   2.785
 2487TIP3    H2 7468   0.163   4.596   2.889
 2488TIP3   OH2 7469   4.086   5.697   4.086
 2488TIP3    H1 7470   4.128   5.783   4.083
 2488TIP3    H2 7471   4.007   5.708   4.034
 2489TIP3   OH2 7472   1.659   0.210   4.731
 2489TIP3    H1 7473   1.753   0.209   4.750
 2489TIP3    H2 7474   1.623   0.141   4.786
 2490TIP3   OH2 7475   2.967   3.788   3.680
 2490TIP3    H1 7476   3.011   3.737   3.748
 2490TIP3    H2 7477   3.000   3.877   3.692
 2491TIP3   OH2 7478   4.022   5.809   2.530
 2491TIP3    H1 7479   3.972   5.858   2.465
 2491TIP3    H2 7480   3.956   5.769   2.587
 2492TIP3   OH2 7481   6.213   1.202   3.604
 2492TIP3    H1 7482   6.179   1.187   3.692
 2492TIP3    H2 7483   6.304   1.172   3.608
 2493TIP3   OH2 7484   0.601   4.178   0.834
 2493TIP3    H1 7485   0.627   4.125   0.759
 2493TIP3    H2 7486   0.651   4.143   0.907
 2494TIP3   OH2 7487   3.099   2.115   1.280
 2494TIP3    H1 7488   3.029   2.055   1.306
 2494TIP3    H2 7489   3.069   2.154   1.198
 2495TIP3   OH2 7490   4.615   1.687   2.882
 2495TIP3    H1 7491   4.570   1.611   2.918
 2495TIP3    H2 7492   4.545   1.751   2.867
 2496TIP3   OH2 7493   0.624   3.230   3.073
 2496TIP3    H1 7494   0.659   3.153   3.027
 2496TIP3    H2 7495   0.553   3.261   3.017
 2497TIP3   OH2 7496   5.682   2.722   0.685
 2497TIP3    H1 7497   5.601   2.704   0.636
 2497TIP3    H2 7498   5.725   2.792   0.635
 2498TIP3   OH2 7499   4.944   0.417   0.015
 2498TIP3    H1 7500   4.916   0.335   0.055
 2498TIP3    H2 7501   4.933   0.483   0.083
 2499TIP3   OH2 7502   3.717   1.382   3.542
 2499TIP3    H1 7503   3.677   1.419   3.464
 2499TIP3    H2 7504   3.809   1.405   3.535
 2500TIP3   OH2 7505   1.978   3.352   1.957
 2500TIP3    H1 7506   1.994   3.274   2.011
 2500TIP3    H2 7507   2.063   3.371   1.917
 2501TIP3   OH2 7508   4.417   4.443   1.249
 2501TIP3    H1 7509   4.422   4.522   1.302
 2501TIP3    H2 7510   4.499   4.441   1.200
 2502TIP3   OH2 7511   4.890   1.301   2.667
 2502TIP3    H1 7512   4.823   1.241   2.633
 2502TIP3    H2 7513   4.961   1.243   2.694
 2503TIP3   OH2 7514   1.674   2.338   1.935
 2503TIP3    H1 7515   1.654   2.245   1.939
 2503TIP3    H2 7516   1.593   2.381   1.965
 2504TIP3   OH2 7517   2.605   5.200   4.904
 2504TIP3    H1 7518   2.587   5.106   4.910
 2504TIP3    H2 7519   2.611   5.217   4.810
 2505TIP3   OH2 7520   5.451   0.701   0.778
 2505TIP3    H1 7521   5.416   0.788   0.761
 2505TIP3    H2 7522   5.504   0.680   0.700
 2506TIP3   OH2 7523   2.475   3.133   3.864
 2506TIP3    H1 7524   2.498   3.170   3.778
 2506TIP3    H2 7525   2.547   3.074   3.884
 2507TIP3   OH2 7526   1.313   5.000   1.789
 2507TIP3    H1 7527   1.398   5.034   1.817
 2507TIP3    H2 7528   1.266   4.983   1.870
 2508TIP3   OH2 7529   1.593   2.748   0.466
 2508TIP3    H1 7530   1.519   2.748   0.406
 2508TIP3    H2 7531   1.648   2.675   0.437
 2509TIP3   OH2 7532   6.156   2.909   4.072
 2509TIP3    H1 7533   6.238   2.891   4.026
 2509TIP3    H2 7534   6.135   2.999   4.047
 2510TIP3   OH2 7535   5.456   4.438   0.567
 2510TIP3    H1 7536   5.369   4.405   0.590
 2510TIP3    H2 7537   5.516   4.372   0.603
 2511TIP3   OH2 7538   4.209   1.970   0.561
 2511TIP3    H1 7539   4.180   1.928   0.480
 2511TIP3    H2 7540   4.182   1.910   0.630
 2512TIP3   OH2 7541   0.360   4.424   0.324
 2512TIP3    H1 7542   0.356   4.331   0.302
 2512TIP3    H2 7543   0.447   4.452   0.294
 2513TIP3   OH2 7544   5.518   0.681   4.617
 2513TIP3    H1 7545   5.611   0.662   4.601
 2513TIP3    H2 7546   5.478   0.680   4.530
 2514TIP3   OH2 7547   5.080   1.748   0.536
 2514TIP3    H1 7548   5.138   1.679   0.568
 2514TIP3    H2 7549   5.072   1.808   0.611
 2515TIP3   OH2 7550   0.433   3.074   0.787
 2515TIP3    H1 7551   0.342   3.049   0.805
 2515TIP3    H2 7552   0.443   3.061   0.693
 2516TIP3   OH2 7553   0.540   0.776   1.335
 2516TIP3    H1 7554   0.623   0.758   1.291
 2516TIP3    H2 7555   0.496   0.691   1.336
 2517TIP3   OH2 7556   4.550   2.998   3.411
 2517TIP3    H1 7557   4.475   3.013   3.353
 2517TIP3    H2 7558   4.516   3.014   3.499
 2518TIP3   OH2 7559   4.765   3.983   0.910
 2518TIP3    H1 7560   4.842   4.008   0.961
 2518TIP3    H2 7561   4.766   4.042   0.834
 2519TIP3   OH2 7562   1.369   1.193   3.516
 2519TIP3    H1 7563   1.462   1.194   3.490
 2519TIP3    H2 7564   1.329   1.263   3.464
 2520TIP3   OH2 7565   0.070   5.722   3.762
 2520TIP3    H1 7566   0.164   5.741   3.759
 2520TIP3    H2 7567   0.044   5.716   3.671
 2521TIP3   OH2 7568   5.953   4.462   0.794
 2521TIP3    H1 7569   5.882   4.520   0.765
 2521TIP3    H2 7570   6.028   4.520   0.805
 2522TIP3   OH2 7571   1.443   0.883   1.529
 2522TIP3    H1 7572   1.422   0.790   1.533
 2522TIP3    H2 7573   1.402   0.913   1.448
 2523TIP3   OH2 7574   0.744   0.186   4.445
 2523TIP3    H1 7575   0.795   0.106   4.460
 2523TIP3    H2 7576   0.666   0.156   4.399
 2524TIP3   OH2 7577   1.905   1.758   4.797
 2524TIP3    H1 7578   1.997   1.766   4.823
 2524TIP3    H2 7579   1.882   1.667   4.819
 2525TIP3   OH2 7580   0.845   0.806   1.698
 2525TIP3    H1 7581   0.866   0.843   1.783
 2525TIP3    H2 7582   0.762   0.759   1.712
 2526TIP3   OH2 7583   4.553   5.214   3.487
 2526TIP3    H1 7584   4.472   5.179   3.451
 2526TIP3    H2 7585   4.527   5.251   3.572
 2527TIP3   OH2 7586   5.838   4.062   0.409
 2527TIP3    H1 7587   5.751   4.049   0.448
 2527TIP3    H2 7588   5.853   4.157   0.416
 2528TIP3   OH2 7589   0.036   2.218   4.028
 2528TIP3    H1 7590   0.015   2.138   4.077
 2528TIP3    H2 7591   0.022   2.193   3.937
 2529TIP3   OH2 7592   5.665   2.105   3.684
 2529TIP3    H1 7593   5.625   2.043   3.745
 2529TIP3    H2 7594   5.696   2.051   3.611
 2530TIP3   OH2 7595   0.235   3.212   4.401
 2530TIP3    H1 7596   0.330   3.213   4.385
 2530TIP3    H2 7597   0.226   3.174   4.488
 2531TIP3   OH2 7598   4.632   1.292   3.572
 2531TIP3    H1 7599   4.553   1.311   3.522
 2531TIP3    H2 7600   4.683   1.235   3.514
 2532TIP3   OH2 7601   5.344   1.471   2.736
 2532TIP3    H1 7602   5.385   1.552   2.767
 2532TIP3    H2 7603   5.403   1.438   2.669
 2533TIP3   OH2 7604   4.379   3.356   2.767
 2533TIP3    H1 7605   4.462   3.313   2.745
 2533TIP3    H2 7606   4.317   3.284   2.776
 2534TIP3   OH2 7607   0.752   4.556   4.642
 2534TIP3    H1 7608   0.674   4.500   4.649
 2534TIP3    H2 7609   0.719   4.645   4.655
 2535TIP3   OH2 7610   1.291   2.403   4.218
 2535TIP3    H1 7611   1.223   2.393   4.152
 2535TIP3    H2 7612   1.256   2.358   4.295
 2536TIP3   OH2 7613   5.369   3.637   2.383
 2536TIP3    H1 7614   5.307   3.692   2.334
 2536TIP3    H2 7615   5.436   3.698   2.413
 2537TIP3   OH2 7616   2.611   2.528   4.671
 2537TIP3    H1 7617   2.531   2.562   4.631
 2537TIP3    H2 7618   2.599   2.542   4.765
 2538TIP3   OH2 7619   5.589   3.537   5.040
 2538TIP3    H1 7620   5.628   3.623   5.055
 2538TIP3    H2 7621   5.642   3.476   5.092
 2539TIP3   OH2 7622   5.005   2.103   4.061
 2539TIP3    H1 7623   5.053   2.104   3.978
 2539TIP3    H2 7624   4.914   2.087   4.036
 2540TIP3   OH2 7625   0.851   4.220   2.950
 2540TIP3    H1 7626   0.866   4.290   2.887
 2540TIP3    H2 7627   0.844   4.264   3.035
 2541TIP3   OH2 7628   0.696   1.235   4.530
 2541TIP3    H1 7629   0.677   1.328   4.523
 2541TIP3    H2 7630   0.718   1.208   4.441
 2542TIP3   OH2 7631   0.701   0.460   0.481
 2542TIP3    H1 7632   0.625   0.517   0.468
 2542TIP3    H2 7633   0.669   0.373   0.459
 2543TIP3   OH2 7634   5.501   2.821   1.483
 2543TIP3    H1 7635   5.587   2.779   1.479
 2543TIP3    H2 7636   5.518   2.914   1.468
 2544TIP3   OH2 7637   4.442   0.783   0.599
 2544TIP3    H1 7638   4.499   0.858   0.616
 2544TIP3    H2 7639   4.359   0.822   0.569
 2545TIP3   OH2 7640   3.242   0.482   5.089
 2545TIP3    H1 7641   3.324   0.491   5.042
 2545TIP3    H2 7642   3.209   0.396   5.064
 2546TIP3   OH2 7643   0.524   2.186   1.083
 2546TIP3    H1 7644   0.567   2.256   1.131
 2546TIP3    H2 7645   0.461   2.230   1.026
 2547TIP3   OH2 7646   4.668   5.752   3.331
 2547TIP3    H1 7647   4.716   5.670   3.341
 2547TIP3    H2 7648   4.589   5.728   3.282
 2548TIP3   OH2 7649   3.300   4.281   2.604
 2548TIP3    H1 7650   3.349   4.341   2.548
 2548TIP3    H2 7651   3.234   4.335   2.646
 2549TIP3   OH2 7652   1.702   3.189   2.998
 2549TIP3    H1 7653   1.721   3.121   3.062
 2549TIP3    H2 7654   1.683   3.141   2.917
 2550TIP3   OH2 7655   4.279   3.060   2.497
 2550TIP3    H1 7656   4.332   3.061   2.417
 2550TIP3    H2 7657   4.274   3.152   2.524
 2551TIP3   OH2 7658   0.190   4.093   4.277
 2551TIP3    H1 7659   0.153   4.005   4.284
 2551TIP3    H2 7660   0.282   4.083   4.301
 2552TIP3   OH2 7661   4.522   1.982   3.858
 2552TIP3    H1 7662   4.453   2.048   3.862
 2552TIP3    H2 7663   4.476   1.899   3.855
 2553TIP3   OH2 7664   5.207   1.535   3.640
 2553TIP3    H1 7665   5.296   1.502   3.630
 2553TIP3    H2 7666   5.171   1.487   3.714
 2554TIP3   OH2 7667   1.407   5.674   1.609
 2554TIP3    H1 7668   1.396   5.761   1.647
 2554TIP3    H2 7669   1.375   5.682   1.519
 2555TIP3   OH2 7670   0.782   3.801   0.874
 2555TIP3    H1 7671   0.770   3.749   0.795
 2555TIP3    H2 7672   0.693   3.817   0.907
 2556TIP3   OH2 7673   0.561   0.190   0.251
 2556TIP3    H1 7674   0.589   0.180   0.342
 2556TIP3    H2 7675   0.479   0.140   0.245
 2557TIP3   OH2 7676   2.450   0.599   4.233
 2557TIP3    H1 7677   2.441   0.508   4.262
 2557TIP3    H2 7678   2.505   0.594   4.155
 2558TIP3   OH2 7679   4.749   2.969   1.436
 2558TIP3    H1 7680   4.813   2.907   1.402
 2558TIP3    H2 7681   4.678   2.967   1.371
 2559TIP3   OH2 7682   2.194   2.325   0.021
 2559TIP3    H1 7683   2.285   2.315  -0.009
 2559TIP3    H2 7684   2.193   2.409   0.066
 2560TIP3   OH2 7685   2.352   3.316   4.432
 2560TIP3    H1 7686   2.368   3.286   4.343
 2560TIP3    H2 7687   2.257   3.305   4.444
 2561TIP3   OH2 7688   5.689   5.164   2.127
 2561TIP3    H1 7689   5.768   5.187   2.175
 2561TIP3    H2 7690   5.699   5.205   2.041
 2562TIP3   OH2 7691   3.510   3.207   2.939
 2562TIP3    H1 7692   3.578   3.244   2.883
 2562TIP3    H2 7693   3.495   3.119   2.905
 2563TIP3   OH2 7694   4.990   0.191   1.861
 2563TIP3    H1 7695   4.932   0.260   1.893
 2563TIP3    H2 7696   5.064   0.192   1.923
 2564TIP3   OH2 7697   6.070   2.935   2.689
 2564TIP3    H1 7698   6.134   2.870   2.657
 2564TIP3    H2 7699   5.987   2.888   2.689
 2565TIP3   OH2 7700   0.023   2.959   0.127
 2565TIP3    H1 7701  -0.010   3.049   0.126
 2565TIP3    H2 7702  -0.042   2.911   0.178
 2566TIP3   OH2 7703   0.910   5.075   3.878
 2566TIP3    H1 7704   1.001   5.051   3.861
 2566TIP3    H2 7705   0.870   5.078   3.792
 2567TIP3   OH2 7706   4.824   0.650   3.372
 2567TIP3    H1 7707   4.816   0.705   3.294
 2567TIP3    H2 7708   4.741   0.602   3.376
 2568TIP3   OH2 7709   4.964   0.579   2.964
 2568TIP3    H1 7710   4.870   0.584   2.982
 2568TIP3    H2 7711   4.995   0.510   3.022
 2569TIP3   OH2 7712   5.537   4.455   2.380
 2569TIP3    H1 7713   5.514   4.391   2.447
 2569TIP3    H2 7714   5.559   4.534   2.430
 2570TIP3   OH2 7715   1.385   3.393   1.186
 2570TIP3    H1 7716   1.349   3.460   1.127
 2570TIP3    H2 7717   1.331   3.316   1.170
 2571TIP3   OH2 7718   5.137   3.758   2.273
 2571TIP3    H1 7719   5.058   3.754   2.220
 2571TIP3    H2 7720   5.186   3.833   2.239
 2572TIP3   OH2 7721   4.085   5.390   1.024
 2572TIP3    H1 7722   4.056   5.340   0.947
 2572TIP3    H2 7723   4.144   5.457   0.987
 2573TIP3   OH2 7724   4.905   2.906   2.568
 2573TIP3    H1 7725   4.939   2.874   2.652
 2573TIP3    H2 7726   4.852   2.982   2.591
 2574TIP3   OH2 7727   5.660   2.803   2.341
 2574TIP3    H1 7728   5.695   2.858   2.271
 2574TIP3    H2 7729   5.717   2.820   2.416
 2575TIP3   OH2 7730   0.582   0.900   4.899
 2575TIP3    H1 7731   0.571   0.955   4.821
 2575TIP3    H2 7732   0.635   0.953   4.958
 2576TIP3   OH2 7733   0.330   5.311   4.231
 2576TIP3    H1 7734   0.307   5.354   4.149
 2576TIP3    H2 7735   0.421   5.337   4.246
 2577TIP3   OH2 7736   3.287   3.618   2.156
 2577TIP3    H1 7737   3.337   3.594   2.077
 2577TIP3    H2 7738   3.326   3.701   2.183
 2578TIP3   OH2 7739   4.970   5.840   0.573
 2578TIP3    H1 7740   4.968   5.833   0.668
 2578TIP3    H2 7741   5.031   5.911   0.556
 2579TIP3   OH2 7742   3.886   0.845   1.211
 2579TIP3    H1 7743   3.974   0.880   1.226
 2579TIP3    H2 7744   3.877   0.842   1.115
 2580TIP3   OH2 7745   0.656   3.152   4.787
 2580TIP3    H1 7746   0.712   3.109   4.722
 2580TIP3    H2 7747   0.570   3.110   4.776
 2581TIP3   OH2 7748   0.781   5.568   2.192
 2581TIP3    H1 7749   0.827   5.597   2.113
 2581TIP3    H2 7750   0.800   5.475   2.198
 2582TIP3   OH2 7751   2.727   3.670   4.662
 2582TIP3    H1 7752   2.740   3.763   4.643
 2582TIP3    H2 7753   2.758   3.659   4.752
 2583TIP3   OH2 7754   2.114   5.398   4.239
 2583TIP3    H1 7755   2.050   5.327   4.233
 2583TIP3    H2 7756   2.074   5.470   4.189
 2584TIP3   OH2 7757   4.533   0.568   1.564
 2584TIP3    H1 7758   4.564   0.588   1.476
 2584TIP3    H2 7759   4.590   0.497   1.594
 2585TIP3   OH2 7760   3.007   2.481   2.980
 2585TIP3    H1 7761   2.984   2.558   2.928
 2585TIP3    H2 7762   2.924   2.435   2.995
 2586TIP3   OH2 7763   5.560   3.368   2.770
 2586TIP3    H1 7764   5.622   3.301   2.798
 2586TIP3    H2 7765   5.482   3.353   2.823
 2587TIP3   OH2 7766   3.073   5.516   2.838
 2587TIP3    H1 7767   3.058   5.421   2.831
 2587TIP3    H2 7768   3.024   5.542   2.916
 2588TIP3   OH2 7769   4.455   3.462   0.056
 2588TIP3    H1 7770   4.409   3.395   0.005
 2588TIP3    H2 7771   4.389   3.530   0.072
 2589TIP3   OH2 7772   5.643   2.567   4.099
 2589TIP3    H1 7773   5.633   2.496   4.036
 2589TIP3    H2 7774   5.733   2.558   4.131
 2590TIP3   OH2 7775  -0.025   0.403   2.633
 2590TIP3    H1 7776   0.052   0.346   2.627
 2590TIP3    H2 7777   0.008   0.485   2.667
 2591TIP3   OH2 7778   2.406   0.748   1.292
 2591TIP3    H1 7779   2.464   0.819   1.266
 2591TIP3    H2 7780   2.429   0.675   1.234
 2592TIP3   OH2 7781   5.333   4.509   3.960
 2592TIP3    H1 7782   5.403   4.520   3.896
 2592TIP3    H2 7783   5.341   4.418   3.989
 2593TIP3   OH2 7784   4.695   2.072   4.788
 2593TIP3    H1 7785   4.750   2.125   4.845
 2593TIP3    H2 7786   4.606   2.101   4.807
 2594TIP3   OH2 7787   2.783   4.006   4.830
 2594TIP3    H1 7788   2.750   3.963   4.752
 2594TIP3    H2 7789   2.704   4.029   4.880
 2595TIP3   OH2 7790   2.224   3.296   4.162
 2595TIP3    H1 7791   2.275   3.324   4.086
 2595TIP3    H2 7792   2.145   3.256   4.125
 2596TIP3   OH2 7793   5.357   3.697   3.293
 2596TIP3    H1 7794   5.408   3.651   3.226
 2596TIP3    H2 7795   5.341   3.631   3.360
 2597TIP3   OH2 7796   3.676   0.692   4.674
 2597TIP3    H1 7797   3.634   0.608   4.656
 2597TIP3    H2 7798   3.722   0.679   4.757
 2598TIP3   OH2 7799   0.525   1.343   1.664
 2598TIP3    H1 7800   0.488   1.259   1.690
 2598TIP3    H2 7801   0.602   1.355   1.721
 2599TIP3   OH2 7802   2.746   3.718   0.323
 2599TIP3    H1 7803   2.810   3.762   0.267
 2599TIP3    H2 7804   2.661   3.736   0.283
 2600TIP3   OH2 7805   2.616   1.894   4.429
 2600TIP3    H1 7806   2.697   1.942   4.412
 2600TIP3    H2 7807   2.548   1.961   4.431
 2601TIP3   OH2 7808   1.050   0.073   1.973
 2601TIP3    H1 7809   1.116   0.092   2.039
 2601TIP3    H2 7810   1.099   0.070   1.891
 2602TIP3   OH2 7811   1.325   3.510   4.166
 2602TIP3    H1 7812   1.246   3.536   4.213
 2602TIP3    H2 7813   1.303   3.427   4.124
 2603TIP3   OH2 7814   0.008   1.863   1.844
 2603TIP3    H1 7815   0.055   1.858   1.927
 2603TIP3    H2 7816   0.056   1.930   1.794
 2604TIP3   OH2 7817   2.150   3.461   4.574
 2604TIP3    H1 7818   2.079   3.425   4.521
 2604TIP3    H2 7819   2.182   3.388   4.626
 2605TIP3   OH2 7820   0.864   4.671   4.198
 2605TIP3    H1 7821   0.928   4.628   4.141
 2605TIP3    H2 7822   0.817   4.731   4.140
 2606TIP3   OH2 7823   1.380   3.380   3.480
 2606TIP3    H1 7824   1.400   3.439   3.553
 2606TIP3    H2 7825   1.285   3.374   3.480
 2607TIP3   OH2 7826   2.708   1.335   1.494
 2607TIP3    H1 7827   2.769   1.262   1.502
 2607TIP3    H2 7828   2.624   1.301   1.524
 2608TIP3   OH2 7829   2.942   2.218   0.160
 2608TIP3    H1 7830   2.932   2.185   0.070
 2608TIP3    H2 7831   2.966   2.140   0.211
 2609TIP3   OH2 7832   4.708   3.490   1.508
 2609TIP3    H1 7833   4.628   3.486   1.560
 2609TIP3    H2 7834   4.726   3.584   1.500
 2610TIP3   OH2 7835   2.317   0.726   1.718
 2610TIP3    H1 7836   2.393   0.692   1.671
 2610TIP3    H2 7837   2.251   0.657   1.710
 2611TIP3   OH2 7838   0.500   2.897   3.133
 2611TIP3    H1 7839   0.524   2.895   3.040
 2611TIP3    H2 7840   0.511   2.807   3.162
 2612TIP3   OH2 7841   3.292   0.936   2.851
 2612TIP3    H1 7842   3.378   0.975   2.834
 2612TIP3    H2 7843   3.289   0.924   2.946
 2613TIP3   OH2 7844   1.619   3.128   4.488
 2613TIP3    H1 7845   1.578   3.156   4.569
 2613TIP3    H2 7846   1.702   3.177   4.484
 2614TIP3   OH2 7847   4.761   1.710   2.174
 2614TIP3    H1 7848   4.719   1.645   2.231
 2614TIP3    H2 7849   4.814   1.763   2.234
 2615TIP3   OH2 7850   2.580   1.587   3.229
 2615TIP3    H1 7851   2.490   1.600   3.199
 2615TIP3    H2 7852   2.631   1.578   3.149
 2616TIP3   OH2 7853   1.877   1.842   1.101
 2616TIP3    H1 7854   1.940   1.792   1.050
 2616TIP3    H2 7855   1.810   1.777   1.126
 2617TIP3   OH2 7856   5.710   0.138   1.125
 2617TIP3    H1 7857   5.771   0.200   1.165
 2617TIP3    H2 7858   5.656   0.108   1.198
 2618TIP3   OH2 7859   4.516   4.304   2.781
 2618TIP3    H1 7860   4.532   4.341   2.694
 2618TIP3    H2 7861   4.476   4.219   2.764
 2619TIP3   OH2 7862   3.620   0.273   2.025
 2619TIP3    H1 7863   3.530   0.279   1.993
 2619TIP3    H2 7864   3.665   0.221   1.958
 2620TIP3   OH2 7865   2.149   2.839   1.367
 2620TIP3    H1 7866   2.107   2.805   1.446
 2620TIP3    H2 7867   2.148   2.767   1.305
 2621TIP3   OH2 7868   2.205   1.256   4.584
 2621TIP3    H1 7869   2.143   1.211   4.642
 2621TIP3    H2 7870   2.164   1.251   4.497
 2622TIP3   OH2 7871   6.223   2.322   2.845
 2622TIP3    H1 7872   6.300   2.370   2.811
 2622TIP3    H2 7873   6.189   2.379   2.914
 2623TIP3   OH2 7874   3.620   0.511   2.727
 2623TIP3    H1 7875   3.660   0.430   2.696
 2623TIP3    H2 7876   3.626   0.571   2.653
 2624TIP3   OH2 7877   1.310   4.900   4.424
 2624TIP3    H1 7878   1.256   4.900   4.503
 2624TIP3    H2 7879   1.370   4.826   4.436
 2625TIP3   OH2 7880   1.502   4.491   4.505
 2625TIP3    H1 7881   1.408   4.508   4.495
 2625TIP3    H2 7882   1.533   4.471   4.417
 2626TIP3   OH2 7883   0.067   4.714   1.610
 2626TIP3    H1 7884   0.065   4.808   1.626
 2626TIP3    H2 7885   0.131   4.680   1.672
 2627TIP3   OH2 7886   4.743   5.920   2.067
 2627TIP3    H1 7887   4.758   5.825   2.063
 2627TIP3    H2 7888   4.712   5.936   2.156
 2628TIP3   OH2 7889   3.192   1.480   3.119
 2628TIP3    H1 7890   3.232   1.402   3.080
 2628TIP3    H2 7891   3.226   1.483   3.208
 2629TIP3   OH2 7892   3.084   2.638   0.693
 2629TIP3    H1 7893   3.111   2.662   0.605
 2629TIP3    H2 7894   3.142   2.566   0.717
 2630TIP3   OH2 7895   0.769   1.129   0.927
 2630TIP3    H1 7896   0.812   1.052   0.965
 2630TIP3    H2 7897   0.685   1.135   0.971
 2631TIP3   OH2 7898   5.311   3.619   5.173
 2631TIP3    H1 7899   5.399   3.587   5.153
 2631TIP3    H2 7900   5.264   3.613   5.090
 2632TIP3   OH2 7901   2.004   0.756   4.985
 2632TIP3    H1 7902   2.065   0.818   4.944
 2632TIP3    H2 7903   1.922   0.769   4.938
 2633TIP3   OH2 7904   3.657   0.088   0.258
 2633TIP3    H1 7905   3.698   0.079   0.172
 2633TIP3    H2 7906   3.731   0.095   0.319
 2634TIP3   OH2 7907   5.746   1.150   1.226
 2634TIP3    H1 7908   5.698   1.079   1.269
 2634TIP3    H2 7909   5.795   1.193   1.296
 2635TIP3   OH2 7910   2.102   0.176   2.667
 2635TIP3    H1 7911   2.137   0.124   2.739
 2635TIP3    H2 7912   2.174   0.234   2.641
 2636TIP3   OH2 7913   5.204   4.080   0.897
 2636TIP3    H1 7914   5.148   4.007   0.925
 2636TIP3    H2 7915   5.289   4.062   0.938
 2637TIP3   OH2 7916   5.362   3.660   2.839
 2637TIP3    H1 7917   5.424   3.652   2.912
 2637TIP3    H2 7918   5.416   3.676   2.762
 2638TIP3   OH2 7919   6.232   1.690   0.919
 2638TIP3    H1 7920   6.284   1.627   0.970
 2638TIP3    H2 7921   6.286   1.769   0.918
 2639TIP3   OH2 7922   5.241   4.952   3.198
 2639TIP3    H1 7923   5.236   4.881   3.262
 2639TIP3    H2 7924   5.239   4.907   3.113
 2640TIP3   OH2 7925   1.464   0.800   0.464
 2640TIP3    H1 7926   1.540   0.815   0.409
 2640TIP3    H2 7927   1.498   0.755   0.542
 2641TIP3   OH2 7928   1.996   2.891   2.751
 2641TIP3    H1 7929   1.932   2.962   2.751
 2641TIP3    H2 7930   2.020   2.881   2.843
 2642TIP3   OH2 7931   4.572   5.868   0.186
 2642TIP3    H1 7932   4.542   5.917   0.262
 2642TIP3    H2 7933   4.576   5.933   0.116
 2643TIP3   OH2 7934   5.901   0.597   3.803
 2643TIP3    H1 7935   5.844   0.579   3.728
 2643TIP3    H2 7936   5.845   0.582   3.879
 2644TIP3   OH2 7937   1.464   5.058   3.594
 2644TIP3    H1 7938   1.489   5.079   3.504
 2644TIP3    H2 7939   1.420   4.973   3.588
 2645TIP3   OH2 7940   6.165   1.743   2.529
 2645TIP3    H1 7941   6.231   1.776   2.589
 2645TIP3    H2 7942   6.107   1.690   2.584
 2646TIP3   OH2 7943   1.630   3.793   2.827
 2646TIP3    H1 7944   1.716   3.758   2.850
 2646TIP3    H2 7945   1.619   3.869   2.884
 2647TIP3   OH2 7946   1.866   2.154   5.137
 2647TIP3    H1 7947   1.949   2.202   5.145
 2647TIP3    H2 7948   1.886   2.081   5.078
 2648TIP3   OH2 7949   6.324   3.196   3.415
 2648TIP3    H1 7950   6.241   3.153   3.435
 2648TIP3    H2 7951   6.308   3.240   3.331
 2649TIP3   OH2 7952   2.573   2.112   0.910
 2649TIP3    H1 7953   2.573   2.151   0.997
 2649TIP3    H2 7954   2.664   2.118   0.880
 2650TIP3   OH2 7955   4.029   0.624   0.918
 2650TIP3    H1 7956   4.071   0.706   0.890
 2650TIP3    H2 7957   4.081   0.595   0.992
 2651TIP3   OH2 7958   5.051   5.932   4.133
 2651TIP3    H1 7959   4.963   5.940   4.168
 2651TIP3    H2 7960   5.056   6.000   4.065
 2652TIP3   OH2 7961   5.715   4.294   4.614
 2652TIP3    H1 7962   5.754   4.324   4.697
 2652TIP3    H2 7963   5.744   4.203   4.606
 2653TIP3   OH2 7964   0.170   1.835   2.080
 2653TIP3    H1 7965   0.252   1.830   2.031
 2653TIP3    H2 7966   0.197   1.851   2.171
 2654TIP3   OH2 7967   4.522   5.067   4.245
 2654TIP3    H1 7968   4.524   5.024   4.331
 2654TIP3    H2 7969   4.577   5.013   4.189
 2655TIP3   OH2 7970   4.590   4.220   1.356
 2655TIP3    H1 7971   4.570   4.265   1.274
 2655TIP3    H2 7972   4.604   4.291   1.419
 2656TIP3   OH2 7973   0.928   0.128   3.519
 2656TIP3    H1 7974   0.912   0.149   3.611
 2656TIP3    H2 7975   0.903   0.036   3.510
 2657TIP3   OH2 7976   5.728   0.456   5.150
 2657TIP3    H1 7977   5.633   0.468   5.160
 2657TIP3    H2 7978   5.764   0.544   5.147
 2658TIP3   OH2 7979   3.776   3.977   3.567
 2658TIP3    H1 7980   3.769   4.015   3.655
 2658TIP3    H2 7981   3.869   3.979   3.548
 2659TIP3   OH2 7982   4.576   5.685   4.609
 2659TIP3    H1 7983   4.505   5.717   4.665
 2659TIP3    H2 7984   4.532   5.638   4.538
 2660TIP3   OH2 7985   2.842   4.070   3.320
 2660TIP3    H1 7986   2.894   4.014   3.261
 2660TIP3    H2 7987   2.859   4.034   3.407
 2661TIP3   OH2 7988   1.151   5.303   2.428
 2661TIP3    H1 7989   1.083   5.329   2.366
 2661TIP3    H2 7990   1.104   5.292   2.511
 2662TIP3   OH2 7991   5.142   5.214   0.608
 2662TIP3    H1 7992   5.100   5.278   0.665
 2662TIP3    H2 7993   5.235   5.238   0.609
 2663TIP3   OH2 7994   0.955   3.755   4.856
 2663TIP3    H1 7995   0.871   3.743   4.813
 2663TIP3    H2 7996   0.958   3.685   4.922
 2664TIP3   OH2 7997   2.788   3.058   4.225
 2664TIP3    H1 7998   2.777   3.137   4.172
 2664TIP3    H2 7999   2.774   2.986   4.164
 2665TIP3   OH2 8000   2.505   0.966   0.892
 2665TIP3    H1 8001   2.441   1.033   0.870
 2665TIP3    H2 8002   2.458   0.883   0.880
 2666TIP3   OH2 8003   1.356   0.450   0.605
 2666TIP3    H1 8004   1.432   0.408   0.565
 2666TIP3    H2 8005   1.344   0.404   0.688
 2667TIP3   OH2 8006   4.992   5.472   1.862
 2667TIP3    H1 8007   5.027   5.530   1.794
 2667TIP3    H2 8008   4.973   5.390   1.815
 2668TIP3   OH2 8009   1.747   2.521   0.445
 2668TIP3    H1 8010   1.814   2.463   0.479
 2668TIP3    H2 8011   1.678   2.463   0.412
 2669TIP3   OH2 8012   4.692   3.572   0.517
 2669TIP3    H1 8013   4.608   3.526   0.513
 2669TIP3    H2 8014   4.746   3.519   0.576
 2670TIP3   OH2 8015   3.102   5.144   3.988
 2670TIP3    H1 8016   3.156   5.119   4.063
 2670TIP3    H2 8017   3.037   5.203   4.025
 2671TIP3   OH2 8018   1.430   1.200   2.232
 2671TIP3    H1 8019   1.506   1.232   2.281
 2671TIP3    H2 8020   1.416   1.111   2.265
 2672TIP3   OH2 8021   1.241   1.735   3.227
 2672TIP3    H1 8022   1.204   1.823   3.228
 2672TIP3    H2 8023   1.242   1.711   3.134
 2673TIP3   OH2 8024   5.240   4.273   0.701
 2673TIP3    H1 8025   5.198   4.211   0.642
 2673TIP3    H2 8026   5.241   4.228   0.786
 2674TIP3   OH2 8027   1.947   2.735   4.911
 2674TIP3    H1 8028   1.959   2.679   4.988
 2674TIP3    H2 8029   1.919   2.675   4.842
 2675TIP3   OH2 8030   5.366   0.973   0.741
 2675TIP3    H1 8031   5.398   1.013   0.661
 2675TIP3    H2 8032   5.273   0.997   0.745
 2676TIP3   OH2 8033   2.882   3.082   3.654
 2676TIP3    H1 8034   2.881   2.992   3.621
 2676TIP3    H2 8035   2.915   3.134   3.581
 2677TIP3   OH2 8036   1.673   3.788   2.556
 2677TIP3    H1 8037   1.673   3.826   2.643
 2677TIP3    H2 8038   1.596   3.825   2.513
 2678TIP3   OH2 8039   2.686   5.557   1.859
 2678TIP3    H1 8040   2.729   5.564   1.944
 2678TIP3    H2 8041   2.649   5.469   1.857
 2679TIP3   OH2 8042   6.030   0.036   0.716
 2679TIP3    H1 8043   6.040   0.090   0.794
 2679TIP3    H2 8044   5.941   0.054   0.685
 2680TIP3   OH2 8045  -0.003   3.307   1.383
 2680TIP3    H1 8046  -0.050   3.256   1.317
 2680TIP3    H2 8047   0.085   3.317   1.347
 2681TIP3   OH2 8048   1.348   1.654   0.295
 2681TIP3    H1 8049   1.278   1.595   0.268
 2681TIP3    H2 8050   1.382   1.689   0.212
 2682TIP3   OH2 8051   0.838   2.371   0.380
 2682TIP3    H1 8052   0.867   2.329   0.300
 2682TIP3    H2 8053   0.918   2.381   0.433
 2683TIP3   OH2 8054   5.031   3.134   4.786
 2683TIP3    H1 8055   5.115   3.124   4.740
 2683TIP3    H2 8056   5.044   3.089   4.869
 2684TIP3   OH2 8057   3.056   1.374   2.384
 2684TIP3    H1 8058   3.046   1.461   2.422
 2684TIP3    H2 8059   3.081   1.318   2.457
 2685TIP3   OH2 8060   0.133   2.182   4.740
 2685TIP3    H1 8061   0.184   2.263   4.734
 2685TIP3    H2 8062   0.058   2.204   4.795
 2686TIP3   OH2 8063   0.563   0.053   4.916
 2686TIP3    H1 8064   0.546  -0.038   4.941
 2686TIP3    H2 8065   0.581   0.097   4.999
 2687TIP3   OH2 8066   5.086   1.817   4.128
 2687TIP3    H1 8067   5.035   1.755   4.076
 2687TIP3    H2 8068   5.061   1.903   4.095
 2688TIP3   OH2 8069   4.765   1.399   4.596
 2688TIP3    H1 8070   4.701   1.327   4.600
 2688TIP3    H2 8071   4.849   1.354   4.590
 2689TIP3   OH2 8072   3.209   0.627   4.496
 2689TIP3    H1 8073   3.166   0.693   4.550
 2689TIP3    H2 8074   3.138   0.572   4.463
 2690TIP3   OH2 8075   4.706   5.286   1.736
 2690TIP3    H1 8076   4.734   5.205   1.779
 2690TIP3    H2 8077   4.782   5.313   1.684
 2691TIP3   OH2 8078   2.496   4.142   4.412
 2691TIP3    H1 8079   2.487   4.052   4.443
 2691TIP3    H2 8080   2.438   4.192   4.469
 2692TIP3   OH2 8081   2.865   2.074   4.068
 2692TIP3    H1 8082   2.874   2.078   4.163
 2692TIP3    H2 8083   2.817   1.993   4.052
 2693TIP3   OH2 8084   1.975   1.237   0.441
 2693TIP3    H1 8085   2.044   1.172   0.451
 2693TIP3    H2 8086   1.906   1.191   0.392
 2694TIP3   OH2 8087   0.688   4.988   5.014
 2694TIP3    H1 8088   0.628   4.960   5.083
 2694TIP3    H2 8089   0.732   5.065   5.049
 2695TIP3   OH2 8090   4.335   2.060   4.676
 2695TIP3    H1 8091   4.286   1.988   4.636
 2695TIP3    H2 8092   4.279   2.091   4.747
 2696TIP3   OH2 8093   2.138   5.031   2.025
 2696TIP3    H1 8094   2.216   5.073   1.988
 2696TIP3    H2 8095   2.067   5.094   2.009
 2697TIP3   OH2 8096   0.201   4.525   2.122
 2697TIP3    H1 8097   0.203   4.433   2.147
 2697TIP3    H2 8098   0.277   4.536   2.065
 2698TIP3   OH2 8099   1.339   5.231   2.238
 2698TIP3    H1 8100   1.295   5.296   2.183
 2698TIP3    H2 8101   1.283   5.221   2.314
 2699TIP3   OH2 8102   0.042   1.400   0.851
 2699TIP3    H1 8103   0.005   1.320   0.813
 2699TIP3    H2 8104   0.078   1.448   0.776
 2700TIP3   OH2 8105   4.759   3.169   2.983
 2700TIP3    H1 8106   4.731   3.249   3.027
 2700TIP3    H2 8107   4.854   3.169   2.991
 2701TIP3   OH2 8108   5.512   1.634   4.593
 2701TIP3    H1 8109   5.468   1.718   4.596
 2701TIP3    H2 8110   5.605   1.655   4.596
 2702TIP3   OH2 8111   3.760   5.480   3.243
 2702TIP3    H1 8112   3.746   5.575   3.246
 2702TIP3    H2 8113   3.675   5.444   3.220
 2703TIP3   OH2 8114   0.786   0.861   3.488
 2703TIP3    H1 8115   0.770   0.822   3.402
 2703TIP3    H2 8116   0.722   0.819   3.545
 2704TIP3   OH2 8117   3.764   1.299   4.064
 2704TIP3    H1 8118   3.707   1.360   4.109
 2704TIP3    H2 8119   3.717   1.276   3.984
 2705TIP3   OH2 8120   1.554   3.120   2.426
 2705TIP3    H1 8121   1.602   3.152   2.349
 2705TIP3    H2 8122   1.562   3.025   2.421
 2706TIP3   OH2 8123   0.449   2.955   4.626
 2706TIP3    H1 8124   0.479   2.865   4.640
 2706TIP3    H2 8125   0.485   2.980   4.541
 2707TIP3   OH2 8126   1.235   2.757   0.036
 2707TIP3    H1 8127   1.309   2.805   0.073
 2707TIP3    H2 8128   1.264   2.732  -0.052
 2708TIP3   OH2 8129   5.330   2.734   4.888
 2708TIP3    H1 8130   5.293   2.650   4.863
 2708TIP3    H2 8131   5.256   2.795   4.882
 2709TIP3   OH2 8132   0.532   3.205   4.101
 2709TIP3    H1 8133   0.576   3.274   4.053
 2709TIP3    H2 8134   0.599   3.170   4.160
 2710TIP3   OH2 8135   5.813   4.507   4.450
 2710TIP3    H1 8136   5.768   4.516   4.366
 2710TIP3    H2 8137   5.767   4.437   4.495
 2711TIP3   OH2 8138   3.806   5.685   2.635
 2711TIP3    H1 8139   3.757   5.760   2.670
 2711TIP3    H2 8140   3.746   5.646   2.571
 2712TIP3   OH2 8141   1.646   0.538   2.706
 2712TIP3    H1 8142   1.737   0.508   2.699
 2712TIP3    H2 8143   1.613   0.534   2.616
 2713TIP3   OH2 8144   4.000   1.335   0.513
 2713TIP3    H1 8145   3.957   1.327   0.428
 2713TIP3    H2 8146   4.094   1.331   0.492
 2714TIP3   OH2 8147   3.414   3.826   3.737
 2714TIP3    H1 8148   3.387   3.754   3.794
 2714TIP3    H2 8149   3.398   3.904   3.789
 2715TIP3   OH2 8150   5.767   4.949   2.515
 2715TIP3    H1 8151   5.695   4.907   2.467
 2715TIP3    H2 8152   5.843   4.895   2.496
 2716TIP3   OH2 8153   2.845   5.405   4.388
 2716TIP3    H1 8154   2.936   5.411   4.416
 2716TIP3    H2 8155   2.821   5.494   4.365
 2717TIP3   OH2 8156   3.770   5.685   0.561
 2717TIP3    H1 8157   3.855   5.728   0.571
 2717TIP3    H2 8158   3.769   5.617   0.628
 2718TIP3   OH2 8159   2.212   2.344   1.667
 2718TIP3    H1 8160   2.189   2.313   1.755
 2718TIP3    H2 8161   2.303   2.371   1.674
 2719TIP3   OH2 8162   1.080   4.647   2.059
 2719TIP3    H1 8163   1.099   4.735   2.092
 2719TIP3    H2 8164   1.095   4.589   2.134
 2720TIP3   OH2 8165   4.259   5.230   1.996
 2720TIP3    H1 8166   4.352   5.249   1.984
 2720TIP3    H2 8167   4.219   5.252   1.912
 2721TIP3   OH2 8168   3.543   3.740   3.529
 2721TIP3    H1 8169   3.488   3.772   3.600
 2721TIP3    H2 8170   3.616   3.802   3.526
 2722TIP3   OH2 8171   3.572   0.494   3.409
 2722TIP3    H1 8172   3.519   0.431   3.458
 2722TIP3    H2 8173   3.613   0.443   3.339
 2723TIP3   OH2 8174   3.668   2.687   0.864
 2723TIP3    H1 8175   3.638   2.597   0.847
 2723TIP3    H2 8176   3.734   2.678   0.932
 2724TIP3   OH2 8177   2.475   1.900   3.439
 2724TIP3    H1 8178   2.385   1.882   3.412
 2724TIP3    H2 8179   2.469   1.921   3.532
 2725TIP3   OH2 8180   0.553   4.063   4.794
 2725TIP3    H1 8181   0.523   4.018   4.873
 2725TIP3    H2 8182   0.485   4.044   4.729
 2726TIP3   OH2 8183   1.454   0.459   0.321
 2726TIP3    H1 8184   1.370   0.416   0.337
 2726TIP3    H2 8185   1.430   0.545   0.286
 2727TIP3   OH2 8186   1.376   2.305   4.612
 2727TIP3    H1 8187   1.373   2.223   4.661
 2727TIP3    H2 8188   1.298   2.302   4.556
 2728TIP3   OH2 8189   0.667   3.759   0.570
 2728TIP3    H1 8190   0.668   3.852   0.592
 2728TIP3    H2 8191   0.622   3.755   0.486
 2729TIP3   OH2 8192   0.194   3.247   0.294
 2729TIP3    H1 8193   0.211   3.277   0.383
 2729TIP3    H2 8194   0.263   3.182   0.277
 2730TIP3   OH2 8195   4.075   2.519   0.657
 2730TIP3    H1 8196   3.997   2.505   0.711
 2730TIP3    H2 8197   4.085   2.437   0.608
 2731TIP3   OH2 8198   2.511   3.156   4.214
 2731TIP3    H1 8199   2.548   3.199   4.137
 2731TIP3    H2 8200   2.490   3.067   4.183
 2732TIP3   OH2 8201   4.057   0.620   1.960
 2732TIP3    H1 8202   4.114   0.547   1.986
 2732TIP3    H2 8203   4.012   0.645   2.041
 2733TIP3   OH2 8204   2.266   4.932   1.175
 2733TIP3    H1 8205   2.234   4.878   1.248
 2733TIP3    H2 8206   2.358   4.905   1.165
 2734TIP3   OH2 8207   2.288   4.608   2.643
 2734TIP3    H1 8208   2.273   4.514   2.650
 2734TIP3    H2 8209   2.299   4.624   2.549
 2735TIP3   OH2 8210   2.522   4.543   0.389
 2735TIP3    H1 8211   2.479   4.629   0.381
 2735TIP3    H2 8212   2.610   4.564   0.420
 2736TIP3   OH2 8213   4.438   1.870   0.662
 2736TIP3    H1 8214   4.437   1.786   0.617
 2736TIP3    H2 8215   4.379   1.926   0.611
 2737TIP3   OH2 8216   1.457   3.917   4.109
 2737TIP3    H1 8217   1.380   3.948   4.061
 2737TIP3    H2 8218   1.478   3.833   4.069
 2738TIP3   OH2 8219   4.698   2.142   0.581
 2738TIP3    H1 8220   4.614   2.151   0.536
 2738TIP3    H2 8221   4.701   2.217   0.641
 2739TIP3   OH2 8222   4.170   3.985   2.432
 2739TIP3    H1 8223   4.207   4.072   2.415
 2739TIP3    H2 8224   4.240   3.938   2.478
 2740TIP3   OH2 8225   5.457   1.863   4.990
 2740TIP3    H1 8226   5.390   1.821   5.045
 2740TIP3    H2 8227   5.442   1.827   4.903
 2741TIP3   OH2 8228   4.835   3.826   3.700
 2741TIP3    H1 8229   4.846   3.809   3.793
 2741TIP3    H2 8230   4.742   3.845   3.689
 2742TIP3   OH2 8231   3.593   3.860   4.081
 2742TIP3    H1 8232   3.533   3.927   4.114
 2742TIP3    H2 8233   3.551   3.777   4.105
 2743TIP3   OH2 8234   2.719   0.660   0.280
 2743TIP3    H1 8235   2.797   0.609   0.256
 2743TIP3    H2 8236   2.646   0.611   0.242
 2744TIP3   OH2 8237   2.059   4.276   0.518
 2744TIP3    H1 8238   2.152   4.267   0.498
 2744TIP3    H2 8239   2.057   4.324   0.601
 2745TIP3   OH2 8240   1.852   1.199   1.063
 2745TIP3    H1 8241   1.883   1.290   1.070
 2745TIP3    H2 8242   1.757   1.205   1.073
 2746TIP3   OH2 8243   3.037   2.005   0.333
 2746TIP3    H1 8244   3.017   1.941   0.402
 2746TIP3    H2 8245   3.130   2.026   0.347
 2747TIP3   OH2 8246   1.302   0.446   4.398
 2747TIP3    H1 8247   1.387   0.417   4.364
 2747TIP3    H2 8248   1.283   0.386   4.470
 2748TIP3   OH2 8249   0.047   1.414   4.202
 2748TIP3    H1 8250   0.061   1.430   4.295
 2748TIP3    H2 8251   0.129   1.442   4.160
 2749TIP3   OH2 8252   2.983   1.152   3.920
 2749TIP3    H1 8253   3.072   1.167   3.889
 2749TIP3    H2 8254   2.948   1.085   3.861
 2750TIP3   OH2 8255   4.835   2.687   1.648
 2750TIP3    H1 8256   4.754   2.726   1.615
 2750TIP3    H2 8257   4.865   2.748   1.716
 2751TIP3   OH2 8258   2.344   4.275   1.793
 2751TIP3    H1 8259   2.416   4.287   1.854
 2751TIP3    H2 8260   2.334   4.360   1.749
 2752TIP3   OH2 8261   5.960   5.426   2.386
 2752TIP3    H1 8262   5.995   5.456   2.303
 2752TIP3    H2 8263   5.875   5.470   2.394
 2753TIP3   OH2 8264   0.121   1.217   1.557
 2753TIP3    H1 8265   0.210   1.188   1.577
 2753TIP3    H2 8266   0.082   1.235   1.643
 2754TIP3   OH2 8267   0.373   2.497   3.985
 2754TIP3    H1 8268   0.296   2.483   4.040
 2754TIP3    H2 8269   0.447   2.474   4.042
 2755TIP3   OH2 8270   0.877   0.957   1.390
 2755TIP3    H1 8271   0.826   0.897   1.444
 2755TIP3    H2 8272   0.895   1.032   1.447
 2756TIP3   OH2 8273   2.018   0.249   4.531
 2756TIP3    H1 8274   2.010   0.253   4.626
 2756TIP3    H2 8275   1.958   0.179   4.504
 2757TIP3   OH2 8276   0.074   4.725   2.256
 2757TIP3    H1 8277   0.126   4.652   2.220
 2757TIP3    H2 8278  -0.017   4.703   2.234
 2758TIP3   OH2 8279   3.184   3.447   0.832
 2758TIP3    H1 8280   3.147   3.527   0.869
 2758TIP3    H2 8281   3.142   3.376   0.881
 2759TIP3   OH2 8282   1.009   4.062   3.748
 2759TIP3    H1 8283   1.056   4.047   3.666
 2759TIP3    H2 8284   0.923   4.022   3.735
 2760TIP3   OH2 8285   5.254   1.456   2.226
 2760TIP3    H1 8286   5.242   1.450   2.132
 2760TIP3    H2 8287   5.261   1.365   2.256
 2761TIP3   OH2 8288   3.225   2.755   4.055
 2761TIP3    H1 8289   3.249   2.676   4.006
 2761TIP3    H2 8290   3.134   2.771   4.032
 2762TIP3   OH2 8291   0.492   5.030   0.963
 2762TIP3    H1 8292   0.419   5.009   1.022
 2762TIP3    H2 8293   0.559   4.965   0.983
 2763TIP3   OH2 8294   2.780   1.264   0.615
 2763TIP3    H1 8295   2.755   1.171   0.610
 2763TIP3    H2 8296   2.697   1.310   0.625
 2764TIP3   OH2 8297   6.220   4.536   3.953
 2764TIP3    H1 8298   6.284   4.465   3.948
 2764TIP3    H2 8299   6.141   4.495   3.990
 2765TIP3   OH2 8300   2.266   3.571   2.374
 2765TIP3    H1 8301   2.289   3.513   2.301
 2765TIP3    H2 8302   2.205   3.520   2.427
 2766TIP3   OH2 8303   5.816   5.646   1.798
 2766TIP3    H1 8304   5.753   5.578   1.771
 2766TIP3    H2 8305   5.762   5.714   1.837
 2767TIP3   OH2 8306   5.361   2.638   3.247
 2767TIP3    H1 8307   5.396   2.665   3.162
 2767TIP3    H2 8308   5.416   2.564   3.273
 2768TIP3   OH2 8309   5.723   1.041   4.877
 2768TIP3    H1 8310   5.673   1.036   4.959
 2768TIP3    H2 8311   5.679   0.981   4.817
 2769TIP3   OH2 8312   3.493   5.170   5.076
 2769TIP3    H1 8313   3.453   5.105   5.018
 2769TIP3    H2 8314   3.426   5.238   5.087
 2770TIP3   OH2 8315   6.287   5.665   0.543
 2770TIP3    H1 8316   6.207   5.626   0.577
 2770TIP3    H2 8317   6.263   5.754   0.520
 2771TIP3   OH2 8318   2.218   0.465   2.083
 2771TIP3    H1 8319   2.302   0.494   2.118
 2771TIP3    H2 8320   2.232   0.373   2.061
 2772TIP3   OH2 8321   1.529   1.685   1.881
 2772TIP3    H1 8322   1.612   1.656   1.917
 2772TIP3    H2 8323   1.464   1.662   1.947
 2773TIP3   OH2 8324   5.893   5.364   1.533
 2773TIP3    H1 8325   5.827   5.405   1.589
 2773TIP3    H2 8326   5.956   5.434   1.514
 2774TIP3   OH2 8327   3.224   0.966   1.679
 2774TIP3    H1 8328   3.208   0.910   1.755
 2774TIP3    H2 8329   3.140   1.011   1.665
 2775TIP3   OH2 8330   4.110   3.526   1.687
 2775TIP3    H1 8331   4.192   3.555   1.727
 2775TIP3    H2 8332   4.080   3.601   1.635
 2776TIP3   OH2 8333   3.504   0.899   4.074
 2776TIP3    H1 8334   3.462   0.813   4.071
 2776TIP3    H2 8335   3.515   0.917   4.168
 2777TIP3   OH2 8336   3.384   5.627   4.398
 2777TIP3    H1 8337   3.441   5.702   4.413
 2777TIP3    H2 8338   3.414   5.590   4.315
 2778TIP3   OH2 8339   5.749   2.099   0.269
 2778TIP3    H1 8340   5.661   2.099   0.308
 2778TIP3    H2 8341   5.735   2.069   0.179
 2779TIP3   OH2 8342   2.335   1.124   2.781
 2779TIP3    H1 8343   2.251   1.123   2.825
 2779TIP3    H2 8344   2.398   1.149   2.849
 2780TIP3   OH2 8345   2.662   4.281   3.412
 2780TIP3    H1 8346   2.607   4.279   3.334
 2780TIP3    H2 8347   2.714   4.200   3.407
 2781TIP3   OH2 8348   4.996   3.781   0.409
 2781TIP3    H1 8349   4.937   3.781   0.333
 2781TIP3    H2 8350   4.947   3.826   0.477
 2782TIP3   OH2 8351   4.558   5.712   1.826
 2782TIP3    H1 8352   4.491   5.657   1.868
 2782TIP3    H2 8353   4.597   5.761   1.897
 2783TIP3   OH2 8354   1.260   1.210   1.623
 2783TIP3    H1 8355   1.198   1.139   1.640
 2783TIP3    H2 8356   1.213   1.270   1.565
 2784TIP3   OH2 8357   0.947   5.899   3.765
 2784TIP3    H1 8358   0.989   5.822   3.802
 2784TIP3    H2 8359   1.017   5.963   3.757
 2785TIP3   OH2 8360   0.312   0.680   3.174
 2785TIP3    H1 8361   0.276   0.765   3.149
 2785TIP3    H2 8362   0.387   0.667   3.116
 2786TIP3   OH2 8363   2.895   4.555   4.955
 2786TIP3    H1 8364   2.944   4.505   4.889
 2786TIP3    H2 8365   2.813   4.578   4.911
 2787TIP3   OH2 8366   2.720   2.702   1.868
 2787TIP3    H1 8367   2.630   2.712   1.838
 2787TIP3    H2 8368   2.761   2.645   1.803
 2788TIP3   OH2 8369   1.235   2.481   2.665
 2788TIP3    H1 8370   1.317   2.436   2.683
 2788TIP3    H2 8371   1.195   2.430   2.594
 2789TIP3   OH2 8372   6.151   3.702   4.953
 2789TIP3    H1 8373   6.083   3.647   4.993
 2789TIP3    H2 8374   6.220   3.641   4.928
 2790TIP3   OH2 8375   3.204   5.259   2.652
 2790TIP3    H1 8376   3.279   5.317   2.667
 2790TIP3    H2 8377   3.211   5.233   2.561
 2791TIP3   OH2 8378   3.284   2.777   4.325
 2791TIP3    H1 8379   3.275   2.758   4.232
 2791TIP3    H2 8380   3.375   2.759   4.345
 2792TIP3   OH2 8381   6.140   4.777   2.081
 2792TIP3    H1 8382   6.047   4.761   2.068
 2792TIP3    H2 8383   6.184   4.704   2.038
 2793TIP3   OH2 8384   2.970   0.559   0.178
 2793TIP3    H1 8385   3.027   0.602   0.114
 2793TIP3    H2 8386   2.984   0.465   0.164
 2794TIP3   OH2 8387   1.020   5.914   1.734
 2794TIP3    H1 8388   0.986   5.825   1.729
 2794TIP3    H2 8389   1.067   5.927   1.652
 2795TIP3   OH2 8390   4.082   2.895   0.866
 2795TIP3    H1 8391   4.037   2.866   0.787
 2795TIP3    H2 8392   4.087   2.817   0.921
 2796TIP3   OH2 8393   5.958   3.833   0.293
 2796TIP3    H1 8394   5.910   3.903   0.336
 2796TIP3    H2 8395   6.019   3.878   0.234
 2797TIP3   OH2 8396   0.251   2.759   3.992
 2797TIP3    H1 8397   0.293   2.755   3.906
 2797TIP3    H2 8398   0.221   2.670   4.008
 2798TIP3   OH2 8399   0.339   0.469   3.321
 2798TIP3    H1 8400   0.433   0.453   3.316
 2798TIP3    H2 8401   0.326   0.552   3.275
 2799TIP3   OH2 8402   1.128   4.587   3.249
 2799TIP3    H1 8403   1.097   4.521   3.310
 2799TIP3    H2 8404   1.118   4.546   3.163
 2800TIP3   OH2 8405   1.677   1.649   5.024
 2800TIP3    H1 8406   1.618   1.664   4.950
 2800TIP3    H2 8407   1.711   1.561   5.010
 2801TIP3   OH2 8408   5.797   5.190   3.097
 2801TIP3    H1 8409   5.804   5.130   3.171
 2801TIP3    H2 8410   5.843   5.146   3.025
 2802TIP3   OH2 8411   2.410   2.577   4.477
 2802TIP3    H1 8412   2.364   2.583   4.394
 2802TIP3    H2 8413   2.349   2.533   4.536
 2803TIP3   OH2 8414   2.035   2.086   4.519
 2803TIP3    H1 8415   1.943   2.095   4.493
 2803TIP3    H2 8416   2.045   2.145   4.594
 2804TIP3   OH2 8417   4.171   3.725   4.928
 2804TIP3    H1 8418   4.174   3.630   4.934
 2804TIP3    H2 8419   4.082   3.748   4.956
 2805TIP3   OH2 8420   4.402   3.833   1.815
 2805TIP3    H1 8421   4.483   3.858   1.859
 2805TIP3    H2 8422   4.387   3.903   1.752
 2806TIP3   OH2 8423   2.464   0.812   4.941
 2806TIP3    H1 8424   2.469   0.906   4.923
 2806TIP3    H2 8425   2.498   0.770   4.862
 2807TIP3   OH2 8426   6.066   4.560   1.710
 2807TIP3    H1 8427   5.993   4.621   1.727
 2807TIP3    H2 8428   6.058   4.494   1.778
 2808TIP3   OH2 8429   1.613   4.353   2.965
 2808TIP3    H1 8430   1.576   4.283   2.911
 2808TIP3    H2 8431   1.537   4.396   3.004
 2809TIP3   OH2 8432   5.015   1.188   2.276
 2809TIP3    H1 8433   4.982   1.107   2.315
 2809TIP3    H2 8434   5.108   1.190   2.300
 2810TIP3   OH2 8435   6.168   5.282   5.100
 2810TIP3    H1 8436   6.138   5.332   5.024
 2810TIP3    H2 8437   6.102   5.299   5.168
 2811TIP3   OH2 8438   1.426   5.536   0.997
 2811TIP3    H1 8439   1.410   5.443   0.980
 2811TIP3    H2 8440   1.497   5.538   1.061
 2812TIP3   OH2 8441   5.627   2.988   1.288
 2812TIP3    H1 8442   5.701   2.936   1.257
 2812TIP3    H2 8443   5.666   3.052   1.348
 2813TIP3   OH2 8444   0.915   0.198   4.005
 2813TIP3    H1 8445   0.871   0.261   4.062
 2813TIP3    H2 8446   1.006   0.226   4.003
 2814TIP3   OH2 8447   2.304   5.617   1.328
 2814TIP3    H1 8448   2.218   5.574   1.331
 2814TIP3    H2 8449   2.304   5.667   1.247
 2815TIP3   OH2 8450   4.736   1.013   4.482
 2815TIP3    H1 8451   4.831   1.015   4.470
 2815TIP3    H2 8452   4.721   0.937   4.538
 2816TIP3   OH2 8453   3.338   1.675   1.304
 2816TIP3    H1 8454   3.398   1.679   1.379
 2816TIP3    H2 8455   3.261   1.630   1.337
 2817TIP3   OH2 8456   6.034   5.401   1.938
 2817TIP3    H1 8457   6.015   5.472   2.000
 2817TIP3    H2 8458   6.036   5.445   1.853
 2818TIP3   OH2 8459   3.786   1.702   2.136
 2818TIP3    H1 8460   3.696   1.733   2.143
 2818TIP3    H2 8461   3.825   1.757   2.067
 2819TIP3   OH2 8462   3.122   1.839   5.168
 2819TIP3    H1 8463   3.104   1.803   5.081
 2819TIP3    H2 8464   3.098   1.931   5.161
 2820TIP3   OH2 8465   1.921   2.363   3.119
 2820TIP3    H1 8466   1.961   2.279   3.098
 2820TIP3    H2 8467   1.957   2.387   3.204
 2821TIP3   OH2 8468   4.370   4.092   2.733
 2821TIP3    H1 8469   4.400   4.003   2.751
 2821TIP3    H2 8470   4.274   4.085   2.728
 2822TIP3   OH2 8471   3.166   0.299   0.410
 2822TIP3    H1 8472   3.117   0.222   0.439
 2822TIP3    H2 8473   3.104   0.372   0.419
 2823TIP3   OH2 8474   1.624   1.798   0.114
 2823TIP3    H1 8475   1.609   1.801   0.020
 2823TIP3    H2 8476   1.681   1.722   0.127
 2824TIP3   OH2 8477   4.852   1.747   4.329
 2824TIP3    H1 8478   4.942   1.714   4.334
 2824TIP3    H2 8479   4.800   1.670   4.307
 2825TIP3   OH2 8480   3.376   2.115   2.703
 2825TIP3    H1 8481   3.416   2.034   2.734
 2825TIP3    H2 8482   3.413   2.183   2.759
 2826TIP3   OH2 8483   4.739   5.694   1.594
 2826TIP3    H1 8484   4.803   5.759   1.624
 2826TIP3    H2 8485   4.675   5.690   1.665
 2827TIP3   OH2 8486   1.794   0.330   1.582
 2827TIP3    H1 8487   1.800   0.394   1.512
 2827TIP3    H2 8488   1.701   0.309   1.587
 2828TIP3   OH2 8489   1.709   4.148   3.659
 2828TIP3    H1 8490   1.788   4.119   3.613
 2828TIP3    H2 8491   1.659   4.067   3.672
 2829TIP3   OH2 8492   5.544   5.096   0.355
 2829TIP3    H1 8493   5.611   5.053   0.303
 2829TIP3    H2 8494   5.568   5.189   0.354
 2830TIP3   OH2 8495   2.666   3.387   4.650
 2830TIP3    H1 8496   2.666   3.346   4.563
 2830TIP3    H2 8497   2.701   3.474   4.635
 2831TIP3   OH2 8498   2.851   2.054   0.954
 2831TIP3    H1 8499   2.795   1.982   0.925
 2831TIP3    H2 8500   2.927   2.051   0.895
 2832TIP3   OH2 8501   3.452   1.828   2.676
 2832TIP3    H1 8502   3.387   1.792   2.615
 2832TIP3    H2 8503   3.524   1.857   2.620
 2833TIP3   OH2 8504   0.274   2.711   3.020
 2833TIP3    H1 8505   0.317   2.655   2.956
 2833TIP3    H2 8506   0.255   2.652   3.094
 2834TIP3   OH2 8507   2.681   1.475   0.328
 2834TIP3    H1 8508   2.758   1.497   0.381
 2834TIP3    H2 8509   2.710   1.403   0.272
 2835TIP3   OH2 8510   0.399   1.017   2.449
 2835TIP3    H1 8511   0.429   1.106   2.469
 2835TIP3    H2 8512   0.472   0.961   2.476
 2836TIP3   OH2 8513   4.386   5.600   1.139
 2836TIP3    H1 8514   4.313   5.628   1.084
 2836TIP3    H2 8515   4.410   5.514   1.104
 2837TIP3   OH2 8516   2.146   2.325   3.558
 2837TIP3    H1 8517   2.125   2.289   3.644
 2837TIP3    H2 8518   2.126   2.255   3.497
 2838TIP3   OH2 8519   1.793   1.102   5.144
 2838TIP3    H1 8520   1.880   1.086   5.109
 2838TIP3    H2 8521   1.791   1.196   5.162
 2839TIP3   OH2 8522   5.743   4.031   3.672
 2839TIP3    H1 8523   5.727   4.125   3.685
 2839TIP3    H2 8524   5.836   4.026   3.649
 2840TIP3   OH2 8525   4.222   3.861   1.057
 2840TIP3    H1 8526   4.250   3.832   1.143
 2840TIP3    H2 8527   4.284   3.820   0.996
 2841TIP3   OH2 8528   6.309   1.748   0.169
 2841TIP3    H1 8529   6.304   1.843   0.153
 2841TIP3    H2 8530   6.282   1.709   0.086
 2842TIP3   OH2 8531   5.495   2.878   5.015
 2842TIP3    H1 8532   5.438   2.833   4.952
 2842TIP3    H2 8533   5.544   2.807   5.057
 2843TIP3   OH2 8534   0.841   3.108   5.079
 2843TIP3    H1 8535   0.809   3.112   4.989
 2843TIP3    H2 8536   0.767   3.134   5.133
 2844TIP3   OH2 8537   1.100   2.358   2.427
 2844TIP3    H1 8538   1.134   2.385   2.341
 2844TIP3    H2 8539   1.006   2.346   2.413
 2845TIP3   OH2 8540   2.289   4.083   0.170
 2845TIP3    H1 8541   2.375   4.087   0.128
 2845TIP3    H2 8542   2.267   4.174   0.190
 2846TIP3   OH2 8543   5.992   3.177   1.992
 2846TIP3    H1 8544   6.081   3.146   1.979
 2846TIP3    H2 8545   5.987   3.197   2.086
 2847TIP3   OH2 8546   3.281   0.939   0.579
 2847TIP3    H1 8547   3.282   1.030   0.608
 2847TIP3    H2 8548   3.368   0.906   0.602
 2848TIP3   OH2 8549   2.268   2.871   0.011
 2848TIP3    H1 8550   2.209   2.931   0.055
 2848TIP3    H2 8551   2.352   2.883   0.056
 2849TIP3   OH2 8552   5.769   0.618   4.060
 2849TIP3    H1 8553   5.828   0.574   4.121
 2849TIP3    H2 8554   5.683   0.612   4.102
 2850TIP3   OH2 8555   0.200   2.353   1.727
 2850TIP3    H1 8556   0.153   2.363   1.644
 2850TIP3    H2 8557   0.166   2.272   1.765
 2851TIP3   OH2 8558   2.644   5.352   2.202
 2851TIP3    H1 8559   2.691   5.433   2.224
 2851TIP3    H2 8560   2.569   5.381   2.150
 2852TIP3   OH2 8561   6.258   0.734   1.514
 2852TIP3    H1 8562   6.225   0.658   1.468
 2852TIP3    H2 8563   6.217   0.731   1.600
 2853TIP3   OH2 8564   2.126   1.347   2.579
 2853TIP3    H1 8565   2.110   1.351   2.485
 2853TIP3    H2 8566   2.096   1.260   2.606
 2854TIP3   OH2 8567   2.772   3.392   1.604
 2854TIP3    H1 8568   2.733   3.328   1.663
 2854TIP3    H2 8569   2.702   3.415   1.543
 2855TIP3   OH2 8570   3.349   2.356   3.541
 2855TIP3    H1 8571   3.374   2.294   3.610
 2855TIP3    H2 8572   3.364   2.308   3.460
 2856TIP3   OH2 8573   3.742   3.465   3.050
 2856TIP3    H1 8574   3.758   3.517   2.972
 2856TIP3    H2 8575   3.790   3.383   3.035
 2857TIP3   OH2 8576   1.821   2.875   0.736
 2857TIP3    H1 8577   1.851   2.955   0.780
 2857TIP3    H2 8578   1.889   2.856   0.672
 2858TIP3   OH2 8579   0.447   2.238   1.961
 2858TIP3    H1 8580   0.482   2.161   1.917
 2858TIP3    H2 8581   0.508   2.309   1.937
 2859TIP3   OH2 8582   0.220   0.280   2.715
 2859TIP3    H1 8583   0.259   0.362   2.745
 2859TIP3    H2 8584   0.275   0.212   2.754
 2860TIP3   OH2 8585   5.538   2.796   4.644
 2860TIP3    H1 8586   5.474   2.778   4.712
 2860TIP3    H2 8587   5.545   2.714   4.595
 2861TIP3   OH2 8588   1.024   0.574   3.150
 2861TIP3    H1 8589   1.083   0.571   3.075
 2861TIP3    H2 8590   0.938   0.593   3.113
 2862TIP3   OH2 8591   4.053   3.066   1.495
 2862TIP3    H1 8592   4.088   3.149   1.462
 2862TIP3    H2 8593   3.958   3.077   1.490
 2863TIP3   OH2 8594   0.031   3.772   4.373
 2863TIP3    H1 8595   0.119   3.739   4.353
 2863TIP3    H2 8596  -0.021   3.749   4.296
 2864TIP3   OH2 8597   0.368   3.889   2.725
 2864TIP3    H1 8598   0.329   3.901   2.811
 2864TIP3    H2 8599   0.445   3.947   2.725
 2865TIP3   OH2 8600   6.304   2.697   4.194
 2865TIP3    H1 8601   6.210   2.711   4.207
 2865TIP3    H2 8602   6.345   2.777   4.226
 2866TIP3   OH2 8603   4.678   1.924   0.773
 2866TIP3    H1 8604   4.702   2.001   0.723
 2866TIP3    H2 8605   4.591   1.900   0.741
 2867TIP3   OH2 8606   0.971   2.606   4.816
 2867TIP3    H1 8607   1.055   2.560   4.819
 2867TIP3    H2 8608   0.929   2.585   4.900
 2868TIP3   OH2 8609   2.878   5.934   4.966
 2868TIP3    H1 8610   2.816   5.863   4.974
 2868TIP3    H2 8611   2.950   5.911   5.025
 2869TIP3   OH2 8612   4.854   3.166   4.584
 2869TIP3    H1 8613   4.910   3.146   4.659
 2869TIP3    H2 8614   4.902   3.130   4.509
 2870TIP3   OH2 8615   5.880   0.693   5.154
 2870TIP3    H1 8616   5.951   0.642   5.195
 2870TIP3    H2 8617   5.925   0.766   5.111
 2871TIP3   OH2 8618   3.063   4.812   4.077
 2871TIP3    H1 8619   3.098   4.733   4.036
 2871TIP3    H2 8620   3.053   4.789   4.169
 2872TIP3   OH2 8621   5.614   1.851   3.043
 2872TIP3    H1 8622   5.522   1.874   3.030
 2872TIP3    H2 8623   5.614   1.791   3.117
 2873TIP3   OH2 8624   0.835   4.679   4.911
 2873TIP3    H1 8625   0.838   4.614   4.842
 2873TIP3    H2 8626   0.746   4.672   4.946
 2874TIP3   OH2 8627   0.710   3.914   3.354
 2874TIP3    H1 8628   0.654   3.842   3.385
 2874TIP3    H2 8629   0.793   3.871   3.331
 2875TIP3   OH2 8630   5.208   2.439   2.621
 2875TIP3    H1 8631   5.281   2.380   2.600
 2875TIP3    H2 8632   5.187   2.481   2.538
 2876TIP3   OH2 8633   0.631   1.553   3.647
 2876TIP3    H1 8634   0.695   1.621   3.667
 2876TIP3    H2 8635   0.602   1.572   3.558
 2877TIP3   OH2 8636   4.575   0.198   3.884
 2877TIP3    H1 8637   4.515   0.265   3.916
 2877TIP3    H2 8638   4.542   0.174   3.798
 2878TIP3   OH2 8639   0.135   4.177   0.714
 2878TIP3    H1 8640   0.070   4.199   0.782
 2878TIP3    H2 8641   0.154   4.084   0.729
 2879TIP3   OH2 8642   2.704   0.870   3.359
 2879TIP3    H1 8643   2.642   0.896   3.290
 2879TIP3    H2 8644   2.660   0.893   3.441
 2880TIP3   OH2 8645   2.735   2.425   0.908
 2880TIP3    H1 8646   2.797   2.373   0.959
 2880TIP3    H2 8647   2.748   2.396   0.817
 2881TIP3   OH2 8648   3.899   0.031   2.513
 2881TIP3    H1 8649   3.847  -0.026   2.456
 2881TIP3    H2 8650   3.939  -0.029   2.577
 2882TIP3   OH2 8651   0.599   2.465   0.492
 2882TIP3    H1 8652   0.563   2.496   0.409
 2882TIP3    H2 8653   0.694   2.464   0.478
 2883TIP3   OH2 8654   2.051   4.076   3.160
 2883TIP3    H1 8655   2.031   4.073   3.066
 2883TIP3    H2 8656   2.049   3.984   3.187
 2884TIP3   OH2 8657   2.481   2.397   1.698
 2884TIP3    H1 8658   2.532   2.354   1.629
 2884TIP3    H2 8659   2.517   2.361   1.779
 2885TIP3   OH2 8660   2.406   3.045   4.582
 2885TIP3    H1 8661   2.431   3.122   4.531
 2885TIP3    H2 8662   2.378   2.982   4.516
 2886TIP3   OH2 8663   2.957   3.911   0.691
 2886TIP3    H1 8664   2.932   3.982   0.750
 2886TIP3    H2 8665   2.876   3.862   0.676
 2887TIP3   OH2 8666   1.549   4.694   1.208
 2887TIP3    H1 8667   1.585   4.605   1.203
 2887TIP3    H2 8668   1.498   4.704   1.127
 2888TIP3   OH2 8669   1.411   5.345   3.990
 2888TIP3    H1 8670   1.427   5.393   4.072
 2888TIP3    H2 8671   1.348   5.277   4.014
 2889TIP3   OH2 8672   2.193   0.252   3.010
 2889TIP3    H1 8673   2.213   0.256   3.104
 2889TIP3    H2 8674   2.106   0.214   3.006
 2890TIP3   OH2 8675   2.842   4.176   1.636
 2890TIP3    H1 8676   2.864   4.086   1.660
 2890TIP3    H2 8677   2.894   4.193   1.558
 2891TIP3   OH2 8678   3.702   0.661   3.998
 2891TIP3    H1 8679   3.752   0.721   4.054
 2891TIP3    H2 8680   3.723   0.687   3.909
 2892TIP3   OH2 8681   5.902   5.693   0.003
 2892TIP3    H1 8682   5.892   5.774   0.052
 2892TIP3    H2 8683   5.865   5.625   0.060
 2893TIP3   OH2 8684   1.741   1.410   2.179
 2893TIP3    H1 8685   1.781   1.334   2.221
 2893TIP3    H2 8686   1.671   1.436   2.239
 2894TIP3   OH2 8687   6.005   2.296   2.680
 2894TIP3    H1 8688   6.075   2.261   2.736
 2894TIP3    H2 8689   5.998   2.388   2.705
 2895TIP3   OH2 8690   5.397   0.985   3.552
 2895TIP3    H1 8691   5.433   0.934   3.625
 2895TIP3    H2 8692   5.463   0.980   3.484
 2896TIP3   OH2 8693   5.892   2.515   3.611
 2896TIP3    H1 8694   5.801   2.498   3.635
 2896TIP3    H2 8695   5.939   2.518   3.695
 2897TIP3   OH2 8696   5.281   3.753   1.909
 2897TIP3    H1 8697   5.283   3.687   1.839
 2897TIP3    H2 8698   5.187   3.766   1.926
 2898TIP3   OH2 8699   5.944   1.809   0.327
 2898TIP3    H1 8700   5.966   1.874   0.393
 2898TIP3    H2 8701   5.933   1.728   0.376
 2899TIP3   OH2 8702   2.210   4.591   0.042
 2899TIP3    H1 8703   2.216   4.591  -0.054
 2899TIP3    H2 8704   2.253   4.509   0.068
 2900TIP3   OH2 8705   5.822   3.490   0.544
 2900TIP3    H1 8706   5.877   3.417   0.572
 2900TIP3    H2 8707   5.754   3.449   0.490
 2901TIP3   OH2 8708   2.183   5.105   2.845
 2901TIP3    H1 8709   2.220   5.125   2.760
 2901TIP3    H2 8710   2.142   5.187   2.873
 2902TIP3   OH2 8711   1.321   4.390   0.132
 2902TIP3    H1 8712   1.347   4.425   0.047
 2902TIP3    H2 8713   1.263   4.458   0.169
 2903TIP3   OH2 8714   3.898   4.723   1.484
 2903TIP3    H1 8715   3.913   4.643   1.536
 2903TIP3    H2 8716   3.932   4.702   1.398
 2904TIP3   OH2 8717   5.648   0.112   4.448
 2904TIP3    H1 8718   5.699   0.122   4.368
 2904TIP3    H2 8719   5.633   0.202   4.478
 2905TIP3   OH2 8720   1.773   4.034   3.153
 2905TIP3    H1 8721   1.808   3.962   3.100
 2905TIP3    H2 8722   1.824   4.111   3.126
 2906TIP3   OH2 8723   1.205   1.745   4.686
 2906TIP3    H1 8724   1.245   1.829   4.708
 2906TIP3    H2 8725   1.119   1.767   4.651
 2907TIP3   OH2 8726   1.573   1.893   0.957
 2907TIP3    H1 8727   1.593   1.816   1.011
 2907TIP3    H2 8728   1.659   1.930   0.936
 2908TIP3   OH2 8729   1.063   3.861   0.810
 2908TIP3    H1 8730   1.147   3.871   0.856
 2908TIP3    H2 8731   0.999   3.849   0.880
 2909TIP3   OH2 8732   0.623   0.177   0.519
 2909TIP3    H1 8733   0.534   0.186   0.554
 2909TIP3    H2 8734   0.667   0.119   0.580
 2910TIP3   OH2 8735   0.788   5.125   1.539
 2910TIP3    H1 8736   0.879   5.112   1.565
 2910TIP3    H2 8737   0.737   5.085   1.610
 2911TIP3   OH2 8738   4.004   5.830   0.538
 2911TIP3    H1 8739   3.980   5.895   0.471
 2911TIP3    H2 8740   3.983   5.872   0.621
 2912TIP3   OH2 8741   4.696   3.175   0.862
 2912TIP3    H1 8742   4.778   3.215   0.889
 2912TIP3    H2 8743   4.629   3.220   0.913
 2913TIP3   OH2 8744   3.218   4.980   3.588
 2913TIP3    H1 8745   3.148   4.914   3.590
 2913TIP3    H2 8746   3.193   5.037   3.515
 2914TIP3   OH2 8747   3.734   5.433   3.996
 2914TIP3    H1 8748   3.669   5.449   3.928
 2914TIP3    H2 8749   3.748   5.338   3.994
 2915TIP3   OH2 8750   4.412   5.814   4.885
 2915TIP3    H1 8751   4.405   5.897   4.837
 2915TIP3    H2 8752   4.418   5.840   4.977
 2916TIP3   OH2 8753   0.741   1.225   4.202
 2916TIP3    H1 8754   0.675   1.158   4.224
 2916TIP3    H2 8755   0.707   1.268   4.124
 2917TIP3   OH2 8756   2.201   3.664   0.897
 2917TIP3    H1 8757   2.224   3.700   0.983
 2917TIP3    H2 8758   2.270   3.600   0.879
 2918TIP3   OH2 8759   0.262   2.834   0.141
 2918TIP3    H1 8760   0.310   2.885   0.076
 2918TIP3    H2 8761   0.176   2.876   0.146
 2919TIP3   OH2 8762   6.238   3.043   4.613
 2919TIP3    H1 8763   6.188   3.004   4.541
 2919TIP3    H2 8764   6.318   2.991   4.617
 2920TIP3   OH2 8765   3.598   2.921   1.948
 2920TIP3    H1 8766   3.508   2.899   1.925
 2920TIP3    H2 8767   3.637   2.838   1.976
 2921TIP3   OH2 8768   4.114   0.274   2.090
 2921TIP3    H1 8769   4.057   0.338   2.132
 2921TIP3    H2 8770   4.150   0.321   2.015
 2922TIP3   OH2 8771   2.095   3.815   1.139
 2922TIP3    H1 8772   2.186   3.796   1.158
 2922TIP3    H2 8773   2.096   3.899   1.093
 2923TIP3   OH2 8774   1.950   5.569   5.065
 2923TIP3    H1 8775   1.938   5.543   5.156
 2923TIP3    H2 8776   1.913   5.497   5.014
 2924TIP3   OH2 8777   3.601   5.088   0.308
 2924TIP3    H1 8778   3.638   5.168   0.272
 2924TIP3    H2 8779   3.545   5.053   0.239
 2925TIP3   OH2 8780   5.330   2.101   1.617
 2925TIP3    H1 8781   5.322   2.025   1.676
 2925TIP3    H2 8782   5.331   2.063   1.530
 2926TIP3   OH2 8783   0.450   2.660   3.789
 2926TIP3    H1 8784   0.543   2.653   3.808
 2926TIP3    H2 8785   0.409   2.596   3.847
 2927TIP3   OH2 8786   3.792   3.847   0.612
 2927TIP3    H1 8787   3.845   3.838   0.692
 2927TIP3    H2 8788   3.820   3.774   0.556
 2928TIP3   OH2 8789   2.418   1.160   0.388
 2928TIP3    H1 8790   2.379   1.210   0.316
 2928TIP3    H2 8791   2.433   1.073   0.350
 2929TIP3   OH2 8792   1.274   3.017   4.474
 2929TIP3    H1 8793   1.236   2.998   4.388
 2929TIP3    H2 8794   1.349   2.958   4.480
 2930TIP3   OH2 8795   0.762   5.379   1.407
 2930TIP3    H1 8796   0.778   5.292   1.444
 2930TIP3    H2 8797   0.787   5.439   1.478
 2931TIP3   OH2 8798   5.078   2.185   3.275
 2931TIP3    H1 8799   4.988   2.178   3.244
 2931TIP3    H2 8800   5.112   2.095   3.272
 2932TIP3   OH2 8801   5.421   2.664   3.953
 2932TIP3    H1 8802   5.380   2.749   3.968
 2932TIP3    H2 8803   5.487   2.657   4.022
 2933TIP3   OH2 8804   0.582   1.632   3.408
 2933TIP3    H1 8805   0.629   1.661   3.330
 2933TIP3    H2 8806   0.545   1.712   3.445
 2934TIP3   OH2 8807   4.368   5.683   0.706
 2934TIP3    H1 8808   4.335   5.671   0.617
 2934TIP3    H2 8809   4.452   5.635   0.708
 2935TIP3   OH2 8810   2.795   0.836   1.761
 2935TIP3    H1 8811   2.750   0.910   1.800
 2935TIP3    H2 8812   2.821   0.781   1.835
 2936TIP3   OH2 8813   3.951   4.001   0.460
 2936TIP3    H1 8814   3.939   4.026   0.369
 2936TIP3    H2 8815   3.864   3.973   0.489
 2937TIP3   OH2 8816   6.281   4.456   0.130
 2937TIP3    H1 8817   6.220   4.492   0.194
 2937TIP3    H2 8818   6.357   4.513   0.134
 2938TIP3   OH2 8819   0.742   0.742   3.258
 2938TIP3    H1 8820   0.771   0.694   3.180
 2938TIP3    H2 8821   0.670   0.796   3.228
 2939TIP3   OH2 8822   5.490   0.307   4.122
 2939TIP3    H1 8823   5.502   0.251   4.199
 2939TIP3    H2 8824   5.508   0.395   4.154
 2940TIP3   OH2 8825   1.426   5.786   2.318
 2940TIP3    H1 8826   1.391   5.713   2.268
 2940TIP3    H2 8827   1.399   5.769   2.408
 2941TIP3   OH2 8828   1.445   2.870   0.193
 2941TIP3    H1 8829   1.412   2.958   0.209
 2941TIP3    H2 8830   1.496   2.877   0.113
 2942TIP3   OH2 8831   2.312   1.637   3.689
 2942TIP3    H1 8832   2.399   1.636   3.729
 2942TIP3    H2 8833   2.325   1.598   3.603
 2943TIP3   OH2 8834   1.198   0.566   0.956
 2943TIP3    H1 8835   1.280   0.581   0.909
 2943TIP3    H2 8836   1.210   0.482   1.000
 2944TIP3   OH2 8837   6.032   1.181   4.437
 2944TIP3    H1 8838   5.971   1.107   4.431
 2944TIP3    H2 8839   6.119   1.141   4.441
 2945TIP3   OH2 8840   5.690   2.045   1.056
 2945TIP3    H1 8841   5.769   2.064   1.107
 2945TIP3    H2 8842   5.722   2.019   0.970
 2946TIP3   OH2 8843   2.246   0.052   2.855
 2946TIP3    H1 8844   2.332   0.033   2.819
 2946TIP3    H2 8845   2.262   0.108   2.930
 2947TIP3   OH2 8846   5.103   3.574   0.032
 2947TIP3    H1 8847   5.131   3.664   0.049
 2947TIP3    H2 8848   5.183   3.530   0.002
 2948TIP3   OH2 8849   4.922   4.389   4.325
 2948TIP3    H1 8850   4.883   4.476   4.335
 2948TIP3    H2 8851   4.961   4.371   4.411
 2949TIP3   OH2 8852   1.722   5.687   0.419
 2949TIP3    H1 8853   1.634   5.722   0.433
 2949TIP3    H2 8854   1.776   5.765   0.403
 2950TIP3   OH2 8855   3.763   3.042   4.896
 2950TIP3    H1 8856   3.677   3.080   4.913
 2950TIP3    H2 8857   3.810   3.051   4.979
 2951TIP3   OH2 8858   1.362   0.250   1.983
 2951TIP3    H1 8859   1.446   0.247   2.029
 2951TIP3    H2 8860   1.297   0.248   2.053
 2952TIP3   OH2 8861   4.677   2.368   3.704
 2952TIP3    H1 8862   4.756   2.316   3.687
 2952TIP3    H2 8863   4.681   2.439   3.640
 2953TIP3   OH2 8864   3.041   5.186   3.140
 2953TIP3    H1 8865   2.947   5.202   3.133
 2953TIP3    H2 8866   3.070   5.168   3.050
 2954TIP3   OH2 8867   5.711   1.162   3.247
 2954TIP3    H1 8868   5.637   1.104   3.265
 2954TIP3    H2 8869   5.671   1.244   3.219
 2955TIP3   OH2 8870   3.622   5.383   4.850
 2955TIP3    H1 8871   3.588   5.429   4.773
 2955TIP3    H2 8872   3.573   5.301   4.852
 2956TIP3   OH2 8873   3.738   3.433   0.202
 2956TIP3    H1 8874   3.695   3.357   0.241
 2956TIP3    H2 8875   3.668   3.495   0.185
 2957TIP3   OH2 8876   0.086   0.105   1.154
 2957TIP3    H1 8877   0.042   0.041   1.097
 2957TIP3    H2 8878   0.079   0.067   1.241
 2958TIP3   OH2 8879   0.507   3.543   4.379
 2958TIP3    H1 8880   0.586   3.569   4.333
 2958TIP3    H2 8881   0.537   3.516   4.466
 2959TIP3   OH2 8882   0.083   1.449   0.304
 2959TIP3    H1 8883   0.034   1.384   0.355
 2959TIP3    H2 8884   0.168   1.408   0.289
 2960TIP3   OH2 8885   2.696   2.474   4.109
 2960TIP3    H1 8886   2.629   2.506   4.048
 2960TIP3    H2 8887   2.647   2.424   4.174
 2961TIP3   OH2 8888   5.557   2.513   3.467
 2961TIP3    H1 8889   5.614   2.460   3.523
 2961TIP3    H2 8890   5.503   2.563   3.528
 2962TIP3   OH2 8891   2.104   3.700   2.037
 2962TIP3    H1 8892   2.100   3.651   1.955
 2962TIP3    H2 8893   2.036   3.767   2.029
 2963TIP3   OH2 8894   4.029   5.117   1.567
 2963TIP3    H1 8895   3.962   5.074   1.513
 2963TIP3    H2 8896   4.020   5.210   1.546
 2964TIP3   OH2 8897   5.788   5.519   0.193
 2964TIP3    H1 8898   5.743   5.583   0.249
 2964TIP3    H2 8899   5.805   5.445   0.250
 2965TIP3   OH2 8900   3.942   3.384   0.377
 2965TIP3    H1 8901   3.873   3.397   0.311
 2965TIP3    H2 8902   3.969   3.472   0.401
 2966TIP3   OH2 8903   2.245   4.925   4.045
 2966TIP3    H1 8904   2.188   5.001   4.030
 2966TIP3    H2 8905   2.239   4.909   4.139
 2967TIP3   OH2 8906   4.530   1.295   0.513
 2967TIP3    H1 8907   4.482   1.313   0.594
 2967TIP3    H2 8908   4.605   1.355   0.515
 2968TIP3   OH2 8909   1.156   3.091   2.037
 2968TIP3    H1 8910   1.206   3.159   2.082
 2968TIP3    H2 8911   1.146   3.123   1.948
 2969TIP3   OH2 8912   5.743   5.049   4.052
 2969TIP3    H1 8913   5.809   4.985   4.025
 2969TIP3    H2 8914   5.703   5.011   4.130
 2970TIP3   OH2 8915   4.875   3.129   2.013
 2970TIP3    H1 8916   4.952   3.095   1.967
 2970TIP3    H2 8917   4.809   3.139   1.944
 2971TIP3   OH2 8918   0.660   5.070   2.809
 2971TIP3    H1 8919   0.613   4.987   2.807
 2971TIP3    H2 8920   0.681   5.088   2.718
 2972TIP3   OH2 8921   1.658   3.252   1.141
 2972TIP3    H1 8922   1.580   3.304   1.123
 2972TIP3    H2 8923   1.624   3.171   1.179
 2973TIP3   OH2 8924   5.811   0.588   3.551
 2973TIP3    H1 8925   5.869   0.575   3.476
 2973TIP3    H2 8926   5.724   0.568   3.518
 2974TIP3   OH2 8927   5.409   5.728   2.408
 2974TIP3    H1 8928   5.383   5.663   2.343
 2974TIP3    H2 8929   5.369   5.810   2.377
 2975TIP3   OH2 8930   0.759   3.782   4.649
 2975TIP3    H1 8931   0.790   3.861   4.604
 2975TIP3    H2 8932   0.665   3.798   4.663
 2976TIP3   OH2 8933   1.023   5.721   0.965
 2976TIP3    H1 8934   1.080   5.713   0.889
 2976TIP3    H2 8935   1.033   5.813   0.992
 2977TIP3   OH2 8936   3.352   4.145   0.396
 2977TIP3    H1 8937   3.393   4.231   0.410
 2977TIP3    H2 8938   3.425   4.083   0.397
 2978TIP3   OH2 8939   5.211   4.875   2.163
 2978TIP3    H1 8940   5.128   4.913   2.136
 2978TIP3    H2 8941   5.277   4.937   2.133
 2979TIP3   OH2 8942   6.028   0.749   1.719
 2979TIP3    H1 8943   6.024   0.844   1.732
 2979TIP3    H2 8944   5.942   0.717   1.748
 2980TIP3   OH2 8945   4.423   1.316   0.017
 2980TIP3    H1 8946   4.427   1.254  -0.055
 2980TIP3    H2 8947   4.513   1.323   0.048
 2981TIP3   OH2 8948   2.103   4.720   4.376
 2981TIP3    H1 8949   2.120   4.808   4.345
 2981TIP3    H2 8950   2.014   4.700   4.346
 2982TIP3   OH2 8951   0.788   5.484   0.739
 2982TIP3    H1 8952   0.796   5.445   0.826
 2982TIP3    H2 8953   0.879   5.497   0.710
 2983TIP3   OH2 8954   2.553   4.424   2.561
 2983TIP3    H1 8955   2.514   4.502   2.521
 2983TIP3    H2 8956   2.478   4.367   2.579
 2984TIP3   OH2 8957   3.534   4.509   2.091
 2984TIP3    H1 8958   3.522   4.423   2.051
 2984TIP3    H2 8959   3.610   4.546   2.047
 2985TIP3   OH2 8960   0.018   1.174   1.824
 2985TIP3    H1 8961   0.069   1.094   1.838
 2985TIP3    H2 8962   0.033   1.226   1.903
 2986TIP3   OH2 8963   4.156   2.168   1.943
 2986TIP3    H1 8964   4.128   2.081   1.914
 2986TIP3    H2 8965   4.250   2.158   1.959
 2987TIP3   OH2 8966   4.716   2.905   3.076
 2987TIP3    H1 8967   4.722   3.000   3.062
 2987TIP3    H2 8968   4.757   2.891   3.162
 2988TIP3   OH2 8969   6.038   1.383   0.594
 2988TIP3    H1 8970   6.010   1.418   0.678
 2988TIP3    H2 8971   5.958   1.344   0.557
 2989TIP3   OH2 8972   4.616   3.941   1.910
 2989TIP3    H1 8973   4.645   3.974   1.995
 2989TIP3    H2 8974   4.627   4.015   1.850
 2990TIP3   OH2 8975   0.450   5.272   3.077
 2990TIP3    H1 8976   0.387   5.214   3.121
 2990TIP3    H2 8977   0.445   5.247   2.985
 2991TIP3   OH2 8978   5.588   1.280   4.209
 2991TIP3    H1 8979   5.563   1.333   4.285
 2991TIP3    H2 8980   5.590   1.190   4.242
 2992TIP3   OH2 8981   1.881   1.685   2.251
 2992TIP3    H1 8982   1.938   1.707   2.324
 2992TIP3    H2 8983   1.794   1.713   2.279
 2993TIP3   OH2 8984   3.171   2.344   2.313
 2993TIP3    H1 8985   3.162   2.329   2.407
 2993TIP3    H2 8986   3.253   2.392   2.304
 2994TIP3   OH2 8987   1.483   5.008   1.397
 2994TIP3    H1 8988   1.538   4.987   1.321
 2994TIP3    H2 8989   1.509   4.944   1.463
 2995TIP3   OH2 8990   0.581   1.110   1.978
 2995TIP3    H1 8991   0.489   1.132   1.995
 2995TIP3    H2 8992   0.604   1.047   2.045
 2996TIP3   OH2 8993   0.044   2.611   0.784
 2996TIP3    H1 8994   0.099   2.670   0.733
 2996TIP3    H2 8995  -0.013   2.668   0.835
 2997TIP3   OH2 8996   6.339   5.830   3.153
 2997TIP3    H1 8997   6.319   5.744   3.115
 2997TIP3    H2 8998   6.304   5.893   3.091
 2998TIP3   OH2 8999   5.910   1.879   2.555
 2998TIP3    H1 9000   5.846   1.811   2.536
 2998TIP3    H2 9001   5.991   1.848   2.514
 2999TIP3   OH2 9002   3.080   0.772   0.711
 2999TIP3    H1 9003   3.071   0.813   0.625
 2999TIP3    H2 9004   3.165   0.728   0.707
 3000TIP3   OH2 9005   2.979   5.663   4.732
 3000TIP3    H1 9006   3.056   5.718   4.717
 3000TIP3    H2 9007   3.008   5.599   4.797
 3001TIP3   OH2 9008   4.121   0.077  -0.012
 3001TIP3    H1 9009   4.207   0.036  -0.018
 3001TIP3    H2 9010   4.061   0.006   0.008
 3002TIP3   OH2 9011   6.080   2.244   4.025
 3002TIP3    H1 9012   6.115   2.183   4.089
 3002TIP3    H2 9013   6.100   2.204   3.940
 3003TIP3   OH2 9014   0.194   1.890   2.388
 3003TIP3    H1 9015   0.164   1.800   2.394
 3003TIP3    H2 9016   0.184   1.925   2.476
 3004TIP3   OH2 9017   4.751   1.587   0.872
 3004TIP3    H1 9018   4.728   1.603   0.781
 3004TIP3    H2 9019   4.842   1.616   0.880
 3005TIP3   OH2 9020   1.370   2.764   0.899
 3005TIP3    H1 9021   1.400   2.683   0.858
 3005TIP3    H2 9022   1.379   2.831   0.831
 3006TIP3   OH2 9023   5.853   4.726   0.793
 3006TIP3    H1 9024   5.771   4.763   0.826
 3006TIP3    H2 9025   5.915   4.736   0.866
 3007TIP3   OH2 9026   3.395   2.388   1.048
 3007TIP3    H1 9027   3.412   2.373   1.141
 3007TIP3    H2 9028   3.332   2.461   1.046
 3008TIP3   OH2 9029   6.276   3.978   4.962
 3008TIP3    H1 9030   6.249   3.888   4.941
 3008TIP3    H2 9031   6.224   4.001   5.039
 3009TIP3   OH2 9032   3.955   0.778   4.906
 3009TIP3    H1 9033   4.008   0.807   4.980
 3009TIP3    H2 9034   4.017   0.739   4.845
 3010TIP3   OH2 9035   1.249   3.141   2.417
 3010TIP3    H1 9036   1.320   3.148   2.353
 3010TIP3    H2 9037   1.209   3.056   2.399
 3011TIP3   OH2 9038   1.227   5.181   4.089
 3011TIP3    H1 9039   1.138   5.201   4.115
 3011TIP3    H2 9040   1.278   5.189   4.170
 3012TIP3   OH2 9041   0.995   1.635   3.324
 3012TIP3    H1 9042   1.072   1.674   3.284
 3012TIP3    H2 9043   0.963   1.702   3.386
 3013TIP3   OH2 9044   4.234   0.760   1.224
 3013TIP3    H1 9045   4.209   0.668   1.214
 3013TIP3    H2 9046   4.250   0.771   1.318
 3014TIP3   OH2 9047   6.183   0.360   4.881
 3014TIP3    H1 9048   6.221   0.324   4.961
 3014TIP3    H2 9049   6.090   0.340   4.887
 3015TIP3   OH2 9050   5.648   0.675   1.269
 3015TIP3    H1 9051   5.686   0.708   1.187
 3015TIP3    H2 9052   5.724   0.654   1.324
 3016TIP3   OH2 9053   3.184   2.217   0.585
 3016TIP3    H1 9054   3.123   2.267   0.530
 3016TIP3    H2 9055   3.236   2.167   0.522
 3017TIP3   OH2 9056   6.224   4.936   0.738
 3017TIP3    H1 9057   6.168   5.010   0.762
 3017TIP3    H2 9058   6.294   4.936   0.803
 3018TIP3   OH2 9059   5.354   0.240   2.708
 3018TIP3    H1 9060   5.333   0.172   2.644
 3018TIP3    H2 9061   5.433   0.208   2.753
 3019TIP3   OH2 9062   3.710   3.168   4.563
 3019TIP3    H1 9063   3.774   3.217   4.511
 3019TIP3    H2 9064   3.755   3.087   4.585
 3020TIP3   OH2 9065   5.858   4.400   4.811
 3020TIP3    H1 9066   5.862   4.365   4.900
 3020TIP3    H2 9067   5.832   4.492   4.823
 3021TIP3   OH2 9068   2.781   2.981   4.503
 3021TIP3    H1 9069   2.790   3.001   4.409
 3021TIP3    H2 9070   2.702   2.927   4.508
 3022TIP3   OH2 9071   2.806   3.306   4.124
 3022TIP3    H1 9072   2.902   3.314   4.122
 3022TIP3    H2 9073   2.780   3.361   4.199
 3023TIP3   OH2 9074   0.445   2.402   1.605
 3023TIP3    H1 9075   0.379   2.372   1.667
 3023TIP3    H2 9076   0.420   2.362   1.522
 3024TIP3   OH2 9077   1.378   5.437   4.246
 3024TIP3    H1 9078   1.386   5.343   4.263
 3024TIP3    H2 9079   1.307   5.466   4.304
 3025TIP3   OH2 9080   2.122   5.918   3.823
 3025TIP3    H1 9081   2.208   5.876   3.829
 3025TIP3    H2 9082   2.064   5.849   3.791
 3026TIP3   OH2 9083   6.239   4.447   2.175
 3026TIP3    H1 9084   6.268   4.370   2.126
 3026TIP3    H2 9085   6.291   4.519   2.140
 3027TIP3   OH2 9086   4.857   3.524   0.136
 3027TIP3    H1 9087   4.863   3.467   0.213
 3027TIP3    H2 9088   4.947   3.534   0.107
 3028TIP3   OH2 9089   1.057   3.239   4.267
 3028TIP3    H1 9090   0.987   3.262   4.328
 3028TIP3    H2 9091   1.137   3.261   4.314
 3029TIP3   OH2 9092   1.166   1.690   3.622
 3029TIP3    H1 9093   1.147   1.597   3.631
 3029TIP3    H2 9094   1.096   1.723   3.565
 3030TIP3   OH2 9095   0.044   1.579   2.041
 3030TIP3    H1 9096   0.075   1.664   2.073
 3030TIP3    H2 9097   0.122   1.538   2.003
 3031TIP3   OH2 9098   1.620   0.471   3.312
 3031TIP3    H1 9099   1.633   0.385   3.352
 3031TIP3    H2 9100   1.592   0.452   3.222
 3032TIP3   OH2 9101   2.827   0.494   0.782
 3032TIP3    H1 9102   2.819   0.558   0.711
 3032TIP3    H2 9103   2.842   0.547   0.860
 3033TIP3   OH2 9104   2.860   2.904   2.002
 3033TIP3    H1 9105   2.947   2.864   1.999
 3033TIP3    H2 9106   2.800   2.829   2.013
 3034TIP3   OH2 9107   6.022   4.396   4.271
 3034TIP3    H1 9108   5.969   4.416   4.348
 3034TIP3    H2 9109   6.078   4.473   4.260
 3035TIP3   OH2 9110   1.186   5.020   3.822
 3035TIP3    H1 9111   1.225   5.083   3.882
 3035TIP3    H2 9112   1.256   5.000   3.759
 3036TIP3   OH2 9113   1.131   3.873   4.257
 3036TIP3    H1 9114   1.148   3.896   4.165
 3036TIP3    H2 9115   1.200   3.810   4.279
 3037TIP3   OH2 9116   3.290   3.695   4.381
 3037TIP3    H1 9117   3.297   3.628   4.450
 3037TIP3    H2 9118   3.223   3.662   4.322
 3038TIP3   OH2 9119   2.525   2.834   3.485
 3038TIP3    H1 9120   2.475   2.805   3.409
 3038TIP3    H2 9121   2.505   2.928   3.491
 3039TIP3   OH2 9122   4.573   5.026   2.078
 3039TIP3    H1 9123   4.482   5.014   2.107
 3039TIP3    H2 9124   4.570   5.107   2.026
 3040TIP3   OH2 9125   3.674   1.469   1.015
 3040TIP3    H1 9126   3.584   1.468   1.048
 3040TIP3    H2 9127   3.696   1.376   1.005
 3041TIP3   OH2 9128   5.905   1.599   2.958
 3041TIP3    H1 9129   5.826   1.619   2.908
 3041TIP3    H2 9130   5.966   1.669   2.935
 3042TIP3   OH2 9131   1.575   5.257   3.789
 3042TIP3    H1 9132   1.553   5.189   3.725
 3042TIP3    H2 9133   1.490   5.292   3.816
 3043TIP3   OH2 9134   0.284   1.508   3.275
 3043TIP3    H1 9135   0.253   1.598   3.272
 3043TIP3    H2 9136   0.362   1.512   3.331
 3044TIP3   OH2 9137   0.999   4.313   1.729
 3044TIP3    H1 9138   1.017   4.223   1.701
 3044TIP3    H2 9139   0.908   4.312   1.758
 3045TIP3   OH2 9140   5.034   2.701   3.821
 3045TIP3    H1 9141   5.106   2.760   3.843
 3045TIP3    H2 9142   5.060   2.661   3.738
 3046TIP3   OH2 9143   5.479   0.035   4.169
 3046TIP3    H1 9144   5.563   0.077   4.189
 3046TIP3    H2 9145   5.490   0.002   4.080
 3047TIP3   OH2 9146   3.146   2.017   3.170
 3047TIP3    H1 9147   3.089   2.053   3.238
 3047TIP3    H2 9148   3.101   1.938   3.141
 3048TIP3   OH2 9149   2.978   1.111   1.509
 3048TIP3    H1 9150   2.901   1.057   1.493
 3048TIP3    H2 9151   2.978   1.125   1.604
 3049TIP3   OH2 9152   1.283   2.750   3.384
 3049TIP3    H1 9153   1.328   2.679   3.430
 3049TIP3    H2 9154   1.272   2.818   3.451
 3050TIP3   OH2 9155   5.381   0.877   2.979
 3050TIP3    H1 9156   5.380   0.937   3.054
 3050TIP3    H2 9157   5.291   0.879   2.946
 3051TIP3   OH2 9158   1.895   5.816   4.907
 3051TIP3    H1 9159   1.924   5.734   4.948
 3051TIP3    H2 9160   1.799   5.811   4.912
 3052TIP3   OH2 9161   5.568   0.068   1.347
 3052TIP3    H1 9162   5.498   0.006   1.367
 3052TIP3    H2 9163   5.530   0.154   1.366
 3053TIP3   OH2 9164   6.275   5.308   1.709
 3053TIP3    H1 9165   6.203   5.247   1.693
 3053TIP3    H2 9166   6.238   5.394   1.694
 3054TIP3   OH2 9167   0.884   1.404   3.453
 3054TIP3    H1 9168   0.791   1.409   3.432
 3054TIP3    H2 9169   0.920   1.486   3.418
 3055TIP3   OH2 9170   1.969   2.570   5.141
 3055TIP3    H1 9171   2.054   2.565   5.185
 3055TIP3    H2 9172   1.908   2.529   5.202
 3056TIP3   OH2 9173   2.760   5.890   2.138
 3056TIP3    H1 9174   2.722   5.882   2.051
 3056TIP3    H2 9175   2.689   5.923   2.193
 3057TIP3   OH2 9176   5.991   3.711   3.574
 3057TIP3    H1 9177   5.955   3.757   3.498
 3057TIP3    H2 9178   5.983   3.618   3.551
 3058TIP3   OH2 9179   5.966   4.734   4.560
 3058TIP3    H1 9180   5.946   4.701   4.647
 3058TIP3    H2 9181   5.907   4.685   4.502
 3059TIP3   OH2 9182   2.089   5.496   0.245
 3059TIP3    H1 9183   2.123   5.518   0.331
 3059TIP3    H2 9184   2.158   5.521   0.184
 3060TIP3   OH2 9185   5.510   4.769   1.438
 3060TIP3    H1 9186   5.562   4.848   1.451
 3060TIP3    H2 9187   5.506   4.758   1.343
 3061TIP3   OH2 9188   3.350   4.266   1.168
 3061TIP3    H1 9189   3.292   4.215   1.224
 3061TIP3    H2 9190   3.431   4.274   1.218
 3062TIP3   OH2 9191   2.119   2.076   2.374
 3062TIP3    H1 9192   2.038   2.029   2.394
 3062TIP3    H2 9193   2.132   2.063   2.280
 3063TIP3   OH2 9194   5.852   4.470   2.079
 3063TIP3    H1 9195   5.913   4.424   2.020
 3063TIP3    H2 9196   5.831   4.551   2.033
 3064TIP3   OH2 9197   3.971   4.493   3.911
 3064TIP3    H1 9198   3.993   4.567   3.967
 3064TIP3    H2 9199   4.042   4.489   3.847
 3065TIP3   OH2 9200   0.222   3.468   4.482
 3065TIP3    H1 9201   0.208   3.395   4.422
 3065TIP3    H2 9202   0.273   3.532   4.432
 3066TIP3   OH2 9203   3.481   0.527   1.472
 3066TIP3    H1 9204   3.573   0.554   1.478
 3066TIP3    H2 9205   3.432   0.607   1.490
 3067TIP3   OH2 9206   0.129   5.736   4.223
 3067TIP3    H1 9207   0.207   5.793   4.226
 3067TIP3    H2 9208   0.090   5.754   4.138
 3068TIP3   OH2 9209   4.696   4.186   0.710
 3068TIP3    H1 9210   4.690   4.274   0.746
 3068TIP3    H2 9211   4.624   4.181   0.647
 3069TIP3   OH2 9212   0.932   4.403   1.441
 3069TIP3    H1 9213   0.893   4.378   1.524
 3069TIP3    H2 9214   0.863   4.390   1.376
 3070TIP3   OH2 9215   1.732   1.998   4.539
 3070TIP3    H1 9216   1.670   2.028   4.474
 3070TIP3    H2 9217   1.685   1.930   4.588
 3071TIP3   OH2 9218   0.339   5.504   4.645
 3071TIP3    H1 9219   0.332   5.598   4.662
 3071TIP3    H2 9220   0.309   5.493   4.555
 3072TIP3   OH2 9221   5.268   3.117   4.643
 3072TIP3    H1 9222   5.346   3.080   4.685
 3072TIP3    H2 9223   5.230   3.043   4.596
 3073TIP3   OH2 9224   6.277   3.698   4.098
 3073TIP3    H1 9225   6.210   3.641   4.137
 3073TIP3    H2 9226   6.230   3.750   4.033
 3074TIP3   OH2 9227   0.224   4.241   2.993
 3074TIP3    H1 9228   0.221   4.245   2.897
 3074TIP3    H2 9229   0.151   4.185   3.018
 3075TIP3   OH2 9230   3.341   3.605   1.699
 3075TIP3    H1 9231   3.364   3.631   1.610
 3075TIP3    H2 9232   3.400   3.532   1.719
 3076TIP3   OH2 9233   4.430   2.549   0.228
 3076TIP3    H1 9234   4.518   2.586   0.240
 3076TIP3    H2 9235   4.381   2.618   0.182
 3077TIP3   OH2 9236   4.759   2.917   0.738
 3077TIP3    H1 9237   4.828   2.957   0.685
 3077TIP3    H2 9238   4.716   2.990   0.781
 3078TIP3   OH2 9239   2.124   4.333   1.948
 3078TIP3    H1 9240   2.169   4.308   1.867
 3078TIP3    H2 9241   2.115   4.428   1.942
 3079TIP3   OH2 9242   3.851   1.314   0.284
 3079TIP3    H1 9243   3.797   1.235   0.278
 3079TIP3    H2 9244   3.823   1.367   0.209
 3080TIP3   OH2 9245   4.744   0.572   4.503
 3080TIP3    H1 9246   4.774   0.484   4.524
 3080TIP3    H2 9247   4.653   0.560   4.474
 3081TIP3   OH2 9248   3.668   4.981   2.831
 3081TIP3    H1 9249   3.595   4.989   2.770
 3081TIP3    H2 9250   3.666   5.062   2.882
 3082TIP3   OH2 9251   2.452   3.421   1.024
 3082TIP3    H1 9252   2.488   3.486   1.084
 3082TIP3    H2 9253   2.412   3.356   1.081
 3083TIP3   OH2 9254   0.780   2.799   3.235
 3083TIP3    H1 9255   0.863   2.780   3.279
 3083TIP3    H2 9256   0.726   2.838   3.303
 3084TIP3   OH2 9257   5.133   4.163   4.126
 3084TIP3    H1 9258   5.076   4.204   4.061
 3084TIP3    H2 9259   5.074   4.135   4.196
 3085TIP3   OH2 9260   3.673   1.241   3.821
 3085TIP3    H1 9261   3.676   1.162   3.767
 3085TIP3    H2 9262   3.673   1.313   3.759
 3086TIP3   OH2 9263   0.110   4.414   1.598
 3086TIP3    H1 9264   0.097   4.386   1.507
 3086TIP3    H2 9265   0.074   4.503   1.601
 3087TIP3   OH2 9266   2.611   1.972   1.543
 3087TIP3    H1 9267   2.631   1.879   1.548
 3087TIP3    H2 9268   2.526   1.980   1.587
 3088TIP3   OH2 9269   0.284   0.543   2.448
 3088TIP3    H1 9270   0.340   0.602   2.497
 3088TIP3    H2 9271   0.196   0.582   2.454
 3089TIP3   OH2 9272   2.433   0.108   2.400
 3089TIP3    H1 9273   2.399   0.171   2.464
 3089TIP3    H2 9274   2.360   0.048   2.385
 3090TIP3   OH2 9275   6.278   0.207   3.193
 3090TIP3    H1 9276   6.340   0.142   3.159
 3090TIP3    H2 9277   6.303   0.219   3.285
 3091TIP3   OH2 9278   4.057   1.004   0.270
 3091TIP3    H1 9279   3.969   1.019   0.305
 3091TIP3    H2 9280   4.042   0.954   0.189
 3092TIP3   OH2 9281   4.538   3.351   3.390
 3092TIP3    H1 9282   4.467   3.404   3.354
 3092TIP3    H2 9283   4.616   3.405   3.380
 3093TIP3   OH2 9284   4.521   4.489   0.474
 3093TIP3    H1 9285   4.454   4.535   0.525
 3093TIP3    H2 9286   4.479   4.472   0.390
 3094TIP3   OH2 9287   2.659   5.030   3.969
 3094TIP3    H1 9288   2.720   4.980   3.916
 3094TIP3    H2 9289   2.654   4.982   4.052
 3095TIP3   OH2 9290   4.441   2.192   2.225
 3095TIP3    H1 9291   4.424   2.189   2.131
 3095TIP3    H2 9292   4.356   2.210   2.265
 3096TIP3   OH2 9293   4.168   4.452   2.218
 3096TIP3    H1 9294   4.110   4.499   2.278
 3096TIP3    H2 9295   4.109   4.398   2.164
 3097TIP3   OH2 9296   4.148   3.046   3.654
 3097TIP3    H1 9297   4.144   3.135   3.688
 3097TIP3    H2 9298   4.097   2.994   3.716
 3098TIP3   OH2 9299   0.827   0.259   3.741
 3098TIP3    H1 9300   0.822   0.354   3.731
 3098TIP3    H2 9301   0.872   0.246   3.825
 3099TIP3   OH2 9302   2.058   2.614   4.419
 3099TIP3    H1 9303   1.993   2.607   4.489
 3099TIP3    H2 9304   2.088   2.524   4.405
 3100TIP3   OH2 9305   3.272   3.264   1.765
 3100TIP3    H1 9306   3.194   3.218   1.796
 3100TIP3    H2 9307   3.248   3.296   1.679
 3101TIP3   OH2 9308   1.398   0.326   4.119
 3101TIP3    H1 9309   1.423   0.317   4.027
 3101TIP3    H2 9310   1.461   0.388   4.155
 3102TIP3   OH2 9311   3.200   2.578   2.704
 3102TIP3    H1 9312   3.170   2.516   2.637
 3102TIP3    H2 9313   3.121   2.625   2.730
 3103TIP3   OH2 9314   3.358   4.913   1.473
 3103TIP3    H1 9315   3.360   4.977   1.545
 3103TIP3    H2 9316   3.444   4.871   1.477
 3104TIP3   OH2 9317   4.284   5.176   3.102
 3104TIP3    H1 9318   4.370   5.200   3.137
 3104TIP3    H2 9319   4.251   5.256   3.061
 3105TIP3   OH2 9320   3.057   3.276   1.008
 3105TIP3    H1 9321   3.080   3.190   0.973
 3105TIP3    H2 9322   3.002   3.257   1.084
 3106TIP3   OH2 9323   6.253   5.392   0.916
 3106TIP3    H1 9324   6.292   5.400   0.828
 3106TIP3    H2 9325   6.280   5.305   0.946
 3107TIP3   OH2 9326   5.787   4.663   4.836
 3107TIP3    H1 9327   5.810   4.728   4.903
 3107TIP3    H2 9328   5.730   4.711   4.776
 3108TIP3   OH2 9329   0.303   5.504   2.955
 3108TIP3    H1 9330   0.376   5.478   2.899
 3108TIP3    H2 9331   0.225   5.478   2.906
 3109TIP3   OH2 9332   3.928   1.433   3.750
 3109TIP3    H1 9333   3.960   1.409   3.837
 3109TIP3    H2 9334   3.933   1.352   3.699
 3110TIP3   OH2 9335   0.107   5.261   1.445
 3110TIP3    H1 9336   0.111   5.206   1.523
 3110TIP3    H2 9337   0.014   5.266   1.423
 3111TIP3   OH2 9338   4.923   5.081   3.138
 3111TIP3    H1 9339   4.835   5.104   3.167
 3111TIP3    H2 9340   4.924   4.985   3.137
 3112TIP3   OH2 9341   0.238   0.619   4.692
 3112TIP3    H1 9342   0.314   0.599   4.637
 3112TIP3    H2 9343   0.239   0.714   4.701
 3113TIP3   OH2 9344   1.295   0.329   1.165
 3113TIP3    H1 9345   1.285   0.397   1.232
 3113TIP3    H2 9346   1.389   0.318   1.154
 3114TIP3   OH2 9347   1.322   0.374   2.882
 3114TIP3    H1 9348   1.234   0.338   2.895
 3114TIP3    H2 9349   1.338   0.365   2.788
 3115TIP3   OH2 9350   2.872   2.479   4.817
 3115TIP3    H1 9351   2.848   2.430   4.895
 3115TIP3    H2 9352   2.792   2.483   4.764
 3116TIP3   OH2 9353   0.913   3.489   0.831
 3116TIP3    H1 9354   0.916   3.393   0.832
 3116TIP3    H2 9355   0.829   3.511   0.871
 3117TIP3   OH2 9356   1.179   5.028   4.994
 3117TIP3    H1 9357   1.129   5.084   5.053
 3117TIP3    H2 9358   1.113   4.974   4.950
 3118TIP3   OH2 9359   2.738   3.943   1.229
 3118TIP3    H1 9360   2.819   3.995   1.231
 3118TIP3    H2 9361   2.717   3.937   1.136
 3119TIP3   OH2 9362   1.957   3.926   0.826
 3119TIP3    H1 9363   2.024   3.982   0.865
 3119TIP3    H2 9364   1.900   3.986   0.777
 3120TIP3   OH2 9365   5.148   2.772   3.306
 3120TIP3    H1 9366   5.228   2.719   3.303
 3120TIP3    H2 9367   5.162   2.841   3.241
 3121TIP3   OH2 9368   3.434   5.658   2.276
 3121TIP3    H1 9369   3.487   5.611   2.211
 3121TIP3    H2 9370   3.363   5.598   2.297
 3122TIP3   OH2 9371   0.051   3.711   1.930
 3122TIP3    H1 9372  -0.002   3.749   2.001
 3122TIP3    H2 9373  -0.009   3.649   1.887
 3123TIP3   OH2 9374   3.504   1.063   0.751
 3123TIP3    H1 9375   3.512   1.087   0.843
 3123TIP3    H2 9376   3.480   1.144   0.707
 3124TIP3   OH2 9377   5.367   0.649   2.028
 3124TIP3    H1 9378   5.367   0.592   2.105
 3124TIP3    H2 9379   5.280   0.636   1.989
 3125TIP3   OH2 9380   6.249   4.378   2.874
 3125TIP3    H1 9381   6.204   4.372   2.958
 3125TIP3    H2 9382   6.295   4.462   2.878
 3126TIP3   OH2 9383   0.686   4.262   2.369
 3126TIP3    H1 9384   0.625   4.192   2.390
 3126TIP3    H2 9385   0.715   4.243   2.280
 3127TIP3   OH2 9386   4.624   2.076   1.480
 3127TIP3    H1 9387   4.717   2.087   1.497
 3127TIP3    H2 9388   4.587   2.049   1.565
 3128TIP3   OH2 9389   0.955   3.289   2.869
 3128TIP3    H1 9390   0.893   3.332   2.928
 3128TIP3    H2 9391   1.023   3.253   2.926
 3129TIP3   OH2 9392   1.862   5.205   2.767
 3129TIP3    H1 9393   1.932   5.227   2.828
 3129TIP3    H2 9394   1.902   5.212   2.680
 3130TIP3   OH2 9395   4.709   1.504   3.745
 3130TIP3    H1 9396   4.699   1.450   3.667
 3130TIP3    H2 9397   4.770   1.573   3.718
 3131TIP3   OH2 9398   0.186   1.543   0.649
 3131TIP3    H1 9399   0.251   1.610   0.672
 3131TIP3    H2 9400   0.109   1.593   0.623
 3132TIP3   OH2 9401   2.748   5.615   2.217
 3132TIP3    H1 9402   2.742   5.711   2.210
 3132TIP3    H2 9403   2.842   5.597   2.210
 3133TIP3   OH2 9404   0.453   2.756   2.511
 3133TIP3    H1 9405   0.471   2.679   2.457
 3133TIP3    H2 9406   0.530   2.812   2.499
 3134TIP3   OH2 9407   3.607   4.057   3.024
 3134TIP3    H1 9408   3.586   4.151   3.023
 3134TIP3    H2 9409   3.555   4.021   2.952
 3135TIP3   OH2 9410   3.823   3.320   3.304
 3135TIP3    H1 9411   3.771   3.253   3.259
 3135TIP3    H2 9412   3.818   3.397   3.247
 3136TIP3   OH2 9413   3.478   2.539   0.113
 3136TIP3    H1 9414   3.564   2.541   0.071
 3136TIP3    H2 9415   3.483   2.605   0.182
 3137TIP3   OH2 9416   5.208   0.686   2.610
 3137TIP3    H1 9417   5.230   0.595   2.627
 3137TIP3    H2 9418   5.119   0.683   2.575
 3138TIP3   OH2 9419   1.393   1.623   4.075
 3138TIP3    H1 9420   1.330   1.555   4.053
 3138TIP3    H2 9421   1.344   1.684   4.131
 3139TIP3   OH2 9422   0.378   4.186   3.261
 3139TIP3    H1 9423   0.304   4.215   3.208
 3139TIP3    H2 9424   0.453   4.190   3.202
 3140TIP3   OH2 9425   4.652   5.608   0.243
 3140TIP3    H1 9426   4.690   5.610   0.330
 3140TIP3    H2 9427   4.623   5.698   0.227
 3141TIP3   OH2 9428   5.562   3.920   4.822
 3141TIP3    H1 9429   5.494   3.914   4.890
 3141TIP3    H2 9430   5.598   3.832   4.817
 3142TIP3   OH2 9431   0.597   0.456   3.285
 3142TIP3    H1 9432   0.609   0.510   3.207
 3142TIP3    H2 9433   0.663   0.488   3.346
 3143TIP3   OH2 9434   5.062   0.398   3.137
 3143TIP3    H1 9435   5.123   0.391   3.064
 3143TIP3    H2 9436   5.117   0.406   3.214
 3144TIP3   OH2 9437   2.746   4.899   2.517
 3144TIP3    H1 9438   2.774   4.981   2.476
 3144TIP3    H2 9439   2.671   4.923   2.571
 3145TIP3   OH2 9440   1.002   5.647   1.712
 3145TIP3    H1 9441   0.913   5.642   1.678
 3145TIP3    H2 9442   1.055   5.594   1.651
 3146TIP3   OH2 9443   2.092   5.359   1.247
 3146TIP3    H1 9444   2.100   5.395   1.159
 3146TIP3    H2 9445   2.050   5.429   1.298
 3147TIP3   OH2 9446   5.235   4.040   0.264
 3147TIP3    H1 9447   5.172   4.093   0.216
 3147TIP3    H2 9448   5.201   4.038   0.353
 3148TIP3   OH2 9449   5.688   5.853   2.464
 3148TIP3    H1 9450   5.738   5.901   2.530
 3148TIP3    H2 9451   5.597   5.874   2.481
 3149TIP3   OH2 9452   3.073   3.664   5.183
 3149TIP3    H1 9453   3.116   3.716   5.116
 3149TIP3    H2 9454   2.981   3.658   5.155
 3150TIP3   OH2 9455   3.764   5.741   3.544
 3150TIP3    H1 9456   3.780   5.774   3.456
 3150TIP3    H2 9457   3.724   5.815   3.590
 3151TIP3   OH2 9458   5.724   1.586   0.307
 3151TIP3    H1 9459   5.767   1.628   0.381
 3151TIP3    H2 9460   5.749   1.494   0.313
 3152TIP3   OH2 9461   4.402   2.741   1.037
 3152TIP3    H1 9462   4.313   2.778   1.038
 3152TIP3    H2 9463   4.390   2.649   1.060
 3153TIP3   OH2 9464   0.423   1.316   4.327
 3153TIP3    H1 9465   0.397   1.225   4.339
 3153TIP3    H2 9466   0.437   1.326   4.233
 3154TIP3   OH2 9467   3.313   5.110   2.919
 3154TIP3    H1 9468   3.376   5.155   2.862
 3154TIP3    H2 9469   3.334   5.142   3.007
 3155TIP3   OH2 9470   2.779   0.020   0.157
 3155TIP3    H1 9471   2.787  -0.074   0.172
 3155TIP3    H2 9472   2.758   0.056   0.244
 3156TIP3   OH2 9473   1.017   5.043   1.908
 3156TIP3    H1 9474   0.979   5.005   1.828
 3156TIP3    H2 9475   0.943   5.085   1.951
 3157TIP3   OH2 9476   3.856   2.011   0.394
 3157TIP3    H1 9477   3.865   2.084   0.332
 3157TIP3    H2 9478   3.942   1.969   0.394
 3158TIP3   OH2 9479   5.580   4.529   5.056
 3158TIP3    H1 9480   5.581   4.540   4.961
 3158TIP3    H2 9481   5.529   4.604   5.088
 3159TIP3   OH2 9482   3.116   3.224   2.270
 3159TIP3    H1 9483   3.087   3.225   2.361
 3159TIP3    H2 9484   3.048   3.175   2.224
 3160TIP3   OH2 9485   4.333   0.477   0.496
 3160TIP3    H1 9486   4.421   0.479   0.533
 3160TIP3    H2 9487   4.310   0.569   0.484
 3161TIP3   OH2 9488   2.326   3.352   1.446
 3161TIP3    H1 9489   2.263   3.281   1.440
 3161TIP3    H2 9490   2.356   3.350   1.537
 3162TIP3   OH2 9491   4.556   5.794   0.981
 3162TIP3    H1 9492   4.583   5.702   0.988
 3162TIP3    H2 9493   4.483   5.803   1.042
 3163TIP3   OH2 9494   4.635   3.077   2.746
 3163TIP3    H1 9495   4.635   3.167   2.713
 3163TIP3    H2 9496   4.666   3.084   2.837
 3164TIP3   OH2 9497   3.921   5.123   2.784
 3164TIP3    H1 9498   3.913   5.172   2.702
 3164TIP3    H2 9499   3.846   5.064   2.784
 3165TIP3   OH2 9500   0.325   3.420   3.174
 3165TIP3    H1 9501   0.266   3.425   3.249
 3165TIP3    H2 9502   0.411   3.403   3.212
 3166TIP3   OH2 9503   1.071   3.749   3.623
 3166TIP3    H1 9504   1.070   3.688   3.549
 3166TIP3    H2 9505   1.048   3.695   3.699
 3167TIP3   OH2 9506   0.299   0.664   1.586
 3167TIP3    H1 9507   0.329   0.575   1.607
 3167TIP3    H2 9508   0.226   0.679   1.646
 3168TIP3   OH2 9509   3.419   4.438   2.924
 3168TIP3    H1 9510   3.388   4.526   2.948
 3168TIP3    H2 9511   3.340   4.392   2.896
 3169TIP3   OH2 9512   6.130   3.956   4.223
 3169TIP3    H1 9513   6.069   4.030   4.221
 3169TIP3    H2 9514   6.081   3.885   4.265
 3170TIP3   OH2 9515   0.392   0.888   0.004
 3170TIP3    H1 9516   0.482   0.888   0.036
 3170TIP3    H2 9517   0.347   0.952   0.059
 3171TIP3   OH2 9518   4.598   2.183   2.783
 3171TIP3    H1 9519   4.649   2.135   2.718
 3171TIP3    H2 9520   4.661   2.241   2.825
 3172TIP3   OH2 9521   1.112   1.916   0.784
 3172TIP3    H1 9522   1.111   1.890   0.691
 3172TIP3    H2 9523   1.173   1.990   0.787
 3173TIP3   OH2 9524   0.963   1.642   3.031
 3173TIP3    H1 9525   0.897   1.594   2.982
 3173TIP3    H2 9526   0.966   1.599   3.117
 3174TIP3   OH2 9527   5.227   4.746   3.394
 3174TIP3    H1 9528   5.298   4.682   3.382
 3174TIP3    H2 9529   5.262   4.810   3.456
 3175TIP3   OH2 9530   0.841   0.527   3.451
 3175TIP3    H1 9531   0.797   0.610   3.431
 3175TIP3    H2 9532   0.862   0.533   3.544
 3176TIP3   OH2 9533   4.758   5.858   4.462
 3176TIP3    H1 9534   4.800   5.919   4.523
 3176TIP3    H2 9535   4.697   5.809   4.517
 3177TIP3   OH2 9536   0.784   3.446   2.049
 3177TIP3    H1 9537   0.756   3.522   2.101
 3177TIP3    H2 9538   0.868   3.420   2.088
 3178TIP3   OH2 9539   2.314   1.292   3.283
 3178TIP3    H1 9540   2.326   1.311   3.190
 3178TIP3    H2 9541   2.403   1.280   3.316
 3179TIP3   OH2 9542   0.220   1.784   4.986
 3179TIP3    H1 9543   0.285   1.766   5.054
 3179TIP3    H2 9544   0.177   1.700   4.970
 3180TIP3   OH2 9545   3.998   5.051   2.317
 3180TIP3    H1 9546   3.977   5.083   2.230
 3180TIP3    H2 9547   4.080   5.095   2.339
 3181TIP3   OH2 9548   0.439   0.217   2.024
 3181TIP3    H1 9549   0.345   0.207   2.010
 3181TIP3    H2 9550   0.473   0.128   2.024
 3182TIP3   OH2 9551   4.190   0.453   0.244
 3182TIP3    H1 9552   4.212   0.536   0.203
 3182TIP3    H2 9553   4.210   0.466   0.337
 3183TIP3   OH2 9554   0.698   5.297   0.525
 3183TIP3    H1 9555   0.767   5.337   0.578
 3183TIP3    H2 9556   0.646   5.245   0.587
 3184TIP3   OH2 9557   1.448   5.350   4.834
 3184TIP3    H1 9558   1.492   5.277   4.878
 3184TIP3    H2 9559   1.474   5.427   4.884
 3185TIP3   OH2 9560   3.513   0.714   0.324
 3185TIP3    H1 9561   3.468   0.635   0.355
 3185TIP3    H2 9562   3.556   0.750   0.402
 3186TIP3   OH2 9563   0.989   2.683   0.501
 3186TIP3    H1 9564   1.069   2.701   0.452
 3186TIP3    H2 9565   0.996   2.591   0.525
 3187TIP3   OH2 9566   1.310   4.902   0.086
 3187TIP3    H1 9567   1.285   4.905  -0.006
 3187TIP3    H2 9568   1.227   4.892   0.134
 3188TIP3   OH2 9569   0.827   4.575   0.647
 3188TIP3    H1 9570   0.785   4.660   0.655
 3188TIP3    H2 9571   0.761   4.519   0.606
 3189TIP3   OH2 9572   0.081   3.497   0.720
 3189TIP3    H1 9573   0.087   3.593   0.712
 3189TIP3    H2 9574   0.159   3.472   0.769
 3190TIP3   OH2 9575   4.979   0.413   4.301
 3190TIP3    H1 9576   4.946   0.397   4.389
 3190TIP3    H2 9577   5.054   0.471   4.314
 3191TIP3   OH2 9578   4.146   2.481   0.937
 3191TIP3    H1 9579   4.153   2.385   0.944
 3191TIP3    H2 9580   4.153   2.498   0.843
 3192TIP3   OH2 9581   3.240   3.083   2.989
 3192TIP3    H1 9582   3.264   2.997   3.023
 3192TIP3    H2 9583   3.306   3.143   3.022
 3193TIP3   OH2 9584   3.398   5.772   1.792
 3193TIP3    H1 9585   3.395   5.782   1.696
 3193TIP3    H2 9586   3.388   5.862   1.825
 3194TIP3   OH2 9587   4.396   4.987   4.726
 3194TIP3    H1 9588   4.358   4.914   4.776
 3194TIP3    H2 9589   4.445   5.038   4.791
 3195TIP3   OH2 9590   2.167   5.345   2.002
 3195TIP3    H1 9591   2.103   5.284   1.965
 3195TIP3    H2 9592   2.120   5.427   2.011
 3196TIP3   OH2 9593   2.392   4.505   1.643
 3196TIP3    H1 9594   2.428   4.515   1.555
 3196TIP3    H2 9595   2.353   4.590   1.662
 3197TIP3   OH2 9596   5.551   2.363   0.203
 3197TIP3    H1 9597   5.476   2.399   0.156
 3197TIP3    H2 9598   5.557   2.272   0.175
 3198TIP3   OH2 9599   2.713   0.097   2.152
 3198TIP3    H1 9600   2.688   0.009   2.181
 3198TIP3    H2 9601   2.630   0.142   2.138
 3199TIP3   OH2 9602   2.710   2.706   0.883
 3199TIP3    H1 9603   2.734   2.619   0.915
 3199TIP3    H2 9604   2.618   2.698   0.858
 3200TIP3   OH2 9605   2.229   2.663   2.835
 3200TIP3    H1 9606   2.236   2.757   2.817
 3200TIP3    H2 9607   2.142   2.653   2.874
 3201TIP3   OH2 9608   0.175   4.641   0.416
 3201TIP3    H1 9609   0.254   4.601   0.381
 3201TIP3    H2 9610   0.178   4.732   0.386
 3202TIP3   OH2 9611   5.155   1.288   2.794
 3202TIP3    H1 9612   5.226   1.226   2.808
 3202TIP3    H2 9613   5.198   1.368   2.766
 3203TIP3   OH2 9614   0.403   0.726   5.005
 3203TIP3    H1 9615   0.416   0.636   4.978
 3203TIP3    H2 9616   0.474   0.775   4.963
 3204TIP3   OH2 9617   4.264   5.123   4.167
 3204TIP3    H1 9618   4.347   5.087   4.200
 3204TIP3    H2 9619   4.275   5.218   4.172
 3205TIP3   OH2 9620   3.302   5.554   1.369
 3205TIP3    H1 9621   3.215   5.540   1.406
 3205TIP3    H2 9622   3.292   5.532   1.276
 3206TIP3   OH2 9623   4.717   4.627   0.693
 3206TIP3    H1 9624   4.713   4.623   0.598
 3206TIP3    H2 9625   4.783   4.561   0.717
 3207TIP3   OH2 9626   1.647   0.235   1.891
 3207TIP3    H1 9627   1.740   0.211   1.890
 3207TIP3    H2 9628   1.643   0.311   1.949
 3208TIP3   OH2 9629   6.142   4.198   3.962
 3208TIP3    H1 9630   6.236   4.210   3.946
 3208TIP3    H2 9631   6.103   4.191   3.875
 3209TIP3   OH2 9632   5.348   4.922   4.872
 3209TIP3    H1 9633   5.425   4.971   4.899
 3209TIP3    H2 9634   5.288   4.926   4.947
 3210TIP3   OH2 9635   0.295   5.512   2.545
 3210TIP3    H1 9636   0.220   5.506   2.605
 3210TIP3    H2 9637   0.256   5.526   2.459
 3211TIP3   OH2 9638   2.262   0.628   3.453
 3211TIP3    H1 9639   2.275   0.694   3.384
 3211TIP3    H2 9640   2.186   0.659   3.502
 3212TIP3   OH2 9641   2.451   1.502   4.374
 3212TIP3    H1 9642   2.356   1.515   4.367
 3212TIP3    H2 9643   2.461   1.408   4.390
 3213TIP3   OH2 9644   5.401   3.901   2.466
 3213TIP3    H1 9645   5.418   3.981   2.416
 3213TIP3    H2 9646   5.462   3.906   2.540
 3214TIP3   OH2 9647   5.490   1.683   2.839
 3214TIP3    H1 9648   5.515   1.750   2.776
 3214TIP3    H2 9649   5.462   1.732   2.916
 3215TIP3   OH2 9650   2.760   0.071   1.263
 3215TIP3    H1 9651   2.665   0.086   1.262
 3215TIP3    H2 9652   2.798   0.157   1.277
 3216TIP3   OH2 9653   2.834   2.341   3.886
 3216TIP3    H1 9654   2.914   2.300   3.918
 3216TIP3    H2 9655   2.790   2.372   3.966
 3217TIP3   OH2 9656   0.315   5.113   2.193
 3217TIP3    H1 9657   0.269   5.049   2.138
 3217TIP3    H2 9658   0.293   5.198   2.154
 3218TIP3   OH2 9659   5.552   2.203   4.705
 3218TIP3    H1 9660   5.544   2.184   4.612
 3218TIP3    H2 9661   5.629   2.153   4.733
 3219TIP3   OH2 9662   1.964   3.309   4.997
 3219TIP3    H1 9663   1.961   3.232   4.940
 3219TIP3    H2 9664   2.037   3.291   5.056
 3220TIP3   OH2 9665   5.670   2.896   1.757
 3220TIP3    H1 9666   5.613   2.835   1.805
 3220TIP3    H2 9667   5.637   2.894   1.667
 3221TIP3   OH2 9668   6.224   2.738   4.578
 3221TIP3    H1 9669   6.197   2.794   4.505
 3221TIP3    H2 9670   6.162   2.665   4.576
 3222TIP3   OH2 9671   4.407   5.709   3.212
 3222TIP3    H1 9672   4.357   5.660   3.277
 3222TIP3    H2 9673   4.363   5.693   3.129
 3223TIP3   OH2 9674   1.286   4.564   0.869
 3223TIP3    H1 9675   1.331   4.521   0.796
 3223TIP3    H2 9676   1.356   4.607   0.917
 3224TIP3   OH2 9677   0.725   3.640   1.671
 3224TIP3    H1 9678   0.727   3.676   1.583
 3224TIP3    H2 9679   0.751   3.713   1.727
 3225TIP3   OH2 9680   2.518   5.023   2.954
 3225TIP3    H1 9681   2.470   5.096   2.993
 3225TIP3    H2 9682   2.571   4.988   3.026
 3226TIP3   OH2 9683   5.805   1.658   4.540
 3226TIP3    H1 9684   5.839   1.575   4.508
 3226TIP3    H2 9685   5.877   1.720   4.530
 3227TIP3   OH2 9686   5.026   2.495   5.017
 3227TIP3    H1 9687   4.993   2.463   5.101
 3227TIP3    H2 9688   4.967   2.566   4.993
 3228TIP3   OH2 9689   0.952   5.169   4.118
 3228TIP3    H1 9690   0.939   5.128   4.033
 3228TIP3    H2 9691   0.894   5.245   4.118
 3229TIP3   OH2 9692   2.213   3.840   3.168
 3229TIP3    H1 9693   2.256   3.758   3.193
 3229TIP3    H2 9694   2.275   3.909   3.194
 3230TIP3   OH2 9695   0.190   1.657   2.601
 3230TIP3    H1 9696   0.156   1.609   2.677
 3230TIP3    H2 9697   0.285   1.646   2.607
 3231TIP3   OH2 9698   3.960   3.833   1.736
 3231TIP3    H1 9699   4.021   3.809   1.666
 3231TIP3    H2 9700   4.015   3.839   1.815
 3232TIP3   OH2 9701   3.714   1.084   0.209
 3232TIP3    H1 9702   3.623   1.110   0.220
 3232TIP3    H2 9703   3.715   1.034   0.127
 3233TIP3   OH2 9704   0.146   2.620   0.280
 3233TIP3    H1 9705   0.181   2.693   0.228
 3233TIP3    H2 9706   0.149   2.652   0.370
 3234TIP3   OH2 9707   2.813   4.822   4.327
 3234TIP3    H1 9708   2.781   4.761   4.261
 3234TIP3    H2 9709   2.785   4.908   4.297
 3235TIP3   OH2 9710   2.628   0.243   4.874
 3235TIP3    H1 9711   2.619   0.277   4.963
 3235TIP3    H2 9712   2.587   0.310   4.819
 3236TIP3   OH2 9713   2.630   3.404   3.442
 3236TIP3    H1 9714   2.715   3.441   3.465
 3236TIP3    H2 9715   2.625   3.414   3.346
 3237TIP3   OH2 9716   2.522   2.569   3.907
 3237TIP3    H1 9717   2.563   2.655   3.897
 3237TIP3    H2 9718   2.539   2.525   3.823
 3238TIP3   OH2 9719   4.117   2.844   2.371
 3238TIP3    H1 9720   4.194   2.893   2.399
 3238TIP3    H2 9721   4.100   2.874   2.282
 3239TIP3   OH2 9722   2.036   1.309   5.051
 3239TIP3    H1 9723   2.096   1.355   5.110
 3239TIP3    H2 9724   1.949   1.333   5.083
 3240TIP3   OH2 9725   5.815   1.544   1.314
 3240TIP3    H1 9726   5.842   1.475   1.253
 3240TIP3    H2 9727   5.891   1.603   1.318
 3241TIP3   OH2 9728   3.128   0.949   3.542
 3241TIP3    H1 9729   3.195   0.889   3.511
 3241TIP3    H2 9730   3.063   0.951   3.471
 3242TIP3   OH2 9731   0.375   4.308   1.060
 3242TIP3    H1 9732   0.428   4.351   0.993
 3242TIP3    H2 9733   0.288   4.348   1.051
 3243TIP3   OH2 9734   0.234   2.015   2.703
 3243TIP3    H1 9735   0.275   1.972   2.778
 3243TIP3    H2 9736   0.294   2.085   2.679
 3244TIP3   OH2 9737   5.884   4.131   1.885
 3244TIP3    H1 9738   5.867   4.101   1.974
 3244TIP3    H2 9739   5.818   4.198   1.870
 3245TIP3   OH2 9740   1.934   4.053   0.573
 3245TIP3    H1 9741   1.985   4.132   0.555
 3245TIP3    H2 9742   1.954   3.995   0.499
 3246TIP3   OH2 9743   0.985   5.211   4.732
 3246TIP3    H1 9744   0.926   5.200   4.657
 3246TIP3    H2 9745   0.970   5.134   4.787
 3247TIP3   OH2 9746   0.810   2.657   1.108
 3247TIP3    H1 9747   0.727   2.697   1.135
 3247TIP3    H2 9748   0.867   2.665   1.185
 3248TIP3   OH2 9749   3.173   0.154   2.451
 3248TIP3    H1 9750   3.159   0.079   2.508
 3248TIP3    H2 9751   3.227   0.215   2.502
 3249TIP3   OH2 9752   3.412   3.446   1.944
 3249TIP3    H1 9753   3.348   3.399   1.890
 3249TIP3    H2 9754   3.469   3.377   1.978
 3250TIP3   OH2 9755   3.932   2.274   3.133
 3250TIP3    H1 9756   3.857   2.231   3.092
 3250TIP3    H2 9757   3.960   2.214   3.202
 3251TIP3   OH2 9758   4.622   5.590   2.985
 3251TIP3    H1 9759   4.601   5.498   2.975
 3251TIP3    H2 9760   4.537   5.633   2.997
 3252TIP3   OH2 9761   1.350   5.922   3.751
 3252TIP3    H1 9762   1.304   5.844   3.719
 3252TIP3    H2 9763   1.398   5.955   3.675
 3253TIP3   OH2 9764   5.065   5.797   2.462
 3253TIP3    H1 9765   5.117   5.858   2.515
 3253TIP3    H2 9766   5.093   5.815   2.372
 3254TIP3   OH2 9767   3.392   2.055   1.267
 3254TIP3    H1 9768   3.306   2.020   1.244
 3254TIP3    H2 9769   3.417   2.007   1.347
 3255TIP3   OH2 9770   1.764   5.224   0.979
 3255TIP3    H1 9771   1.775   5.270   1.063
 3255TIP3    H2 9772   1.832   5.157   0.980
 3256TIP3   OH2 9773   1.803   5.327   1.223
 3256TIP3    H1 9774   1.785   5.301   1.313
 3256TIP3    H2 9775   1.899   5.338   1.220
 3257TIP3   OH2 9776   4.895   4.647   4.402
 3257TIP3    H1 9777   4.852   4.733   4.401
 3257TIP3    H2 9778   4.937   4.643   4.489
 3258TIP3   OH2 9779   0.301   3.140   4.747
 3258TIP3    H1 9780   0.248   3.078   4.798
 3258TIP3    H2 9781   0.344   3.085   4.681
 3259TIP3   OH2 9782   5.353   2.349   0.011
 3259TIP3    H1 9783   5.335   2.436  -0.024
 3259TIP3    H2 9784   5.273   2.325   0.058
 3260TIP3   OH2 9785   3.979   0.026   3.404
 3260TIP3    H1 9786   3.897   0.028   3.453
 3260TIP3    H2 9787   4.024  -0.052   3.436
 3261TIP3   OH2 9788   1.325   4.235   4.746
 3261TIP3    H1 9789   1.384   4.160   4.740
 3261TIP3    H2 9790   1.379   4.309   4.717
 3262TIP3   OH2 9791   1.902   1.426   4.431
 3262TIP3    H1 9792   1.833   1.455   4.491
 3262TIP3    H2 9793   1.980   1.474   4.457
 3263TIP3   OH2 9794   2.673   0.027   1.744
 3263TIP3    H1 9795   2.659   0.016   1.838
 3263TIP3    H2 9796   2.766   0.049   1.737
 3264TIP3   OH2 9797   2.635   3.876   3.423
 3264TIP3    H1 9798   2.547   3.871   3.462
 3264TIP3    H2 9799   2.624   3.841   3.334
 3265TIP3   OH2 9800   3.669   4.624   3.059
 3265TIP3    H1 9801   3.646   4.564   3.130
 3265TIP3    H2 9802   3.599   4.689   3.059
 3266TIP3   OH2 9803   3.777   2.249   3.939
 3266TIP3    H1 9804   3.842   2.181   3.954
 3266TIP3    H2 9805   3.765   2.290   4.025
 3267TIP3   OH2 9806   5.577   4.707   1.167
 3267TIP3    H1 9807   5.587   4.652   1.089
 3267TIP3    H2 9808   5.501   4.762   1.147
 3268TIP3   OH2 9809   1.456   5.106   0.647
 3268TIP3    H1 9810   1.505   5.024   0.652
 3268TIP3    H2 9811   1.434   5.115   0.554
 3269TIP3   OH2 9812   5.936   4.791   0.285
 3269TIP3    H1 9813   5.874   4.853   0.247
 3269TIP3    H2 9814   5.904   4.777   0.374
 3270TIP3   OH2 9815   2.499   4.419   3.869
 3270TIP3    H1 9816   2.480   4.358   3.797
 3270TIP3    H2 9817   2.415   4.460   3.888
 3271TIP3   OH2 9818   1.617   1.968   4.803
 3271TIP3    H1 9819   1.595   1.939   4.892
 3271TIP3    H2 9820   1.539   2.015   4.774
 3272TIP3   OH2 9821   1.876   5.210   2.492
 3272TIP3    H1 9822   1.921   5.204   2.408
 3272TIP3    H2 9823   1.836   5.297   2.492
 3273TIP3   OH2 9824   0.738   0.972   3.998
 3273TIP3    H1 9825   0.665   0.986   3.938
 3273TIP3    H2 9826   0.708   0.904   4.058
 3274TIP3   OH2 9827   0.279   5.875   3.767
 3274TIP3    H1 9828   0.201   5.924   3.791
 3274TIP3    H2 9829   0.350   5.916   3.816
 3275TIP3   OH2 9830   5.922   0.264   4.525
 3275TIP3    H1 9831   5.904   0.176   4.558
 3275TIP3    H2 9832   6.003   0.290   4.569
 3276TIP3   OH2 9833   2.451   4.006   0.767
 3276TIP3    H1 9834   2.415   3.928   0.725
 3276TIP3    H2 9835   2.394   4.021   0.842
 3277TIP3   OH2 9836   1.494   1.991   3.788
 3277TIP3    H1 9837   1.443   2.055   3.839
 3277TIP3    H2 9838   1.450   1.988   3.703
 3278TIP3   OH2 9839   5.927   3.561   5.092
 3278TIP3    H1 9840   5.854   3.555   5.154
 3278TIP3    H2 9841   5.980   3.483   5.110
 3279TIP3   OH2 9842   3.353   3.981   2.664
 3279TIP3    H1 9843   3.358   4.070   2.700
 3279TIP3    H2 9844   3.412   3.929   2.718
 3280TIP3   OH2 9845   1.613   1.006   2.070
 3280TIP3    H1 9846   1.529   1.049   2.051
 3280TIP3    H2 9847   1.621   1.012   2.166
 3281TIP3   OH2 9848   0.513   3.941   1.379
 3281TIP3    H1 9849   0.431   3.909   1.415
 3281TIP3    H2 9850   0.490   4.021   1.333
 3282TIP3   OH2 9851   2.148   2.358   2.246
 3282TIP3    H1 9852   2.232   2.316   2.266
 3282TIP3    H2 9853   2.096   2.345   2.326
 3283TIP3   OH2 9854   0.977   3.570   4.111
 3283TIP3    H1 9855   1.025   3.565   4.194
 3283TIP3    H2 9856   0.917   3.644   4.122
 3284TIP3   OH2 9857   3.448   2.086   5.093
 3284TIP3    H1 9858   3.506   2.146   5.138
 3284TIP3    H2 9859   3.371   2.078   5.150
 3285TIP3   OH2 9860   4.499   4.515   2.023
 3285TIP3    H1 9861   4.533   4.512   1.934
 3285TIP3    H2 9862   4.445   4.595   2.025
 3286TIP3   OH2 9863   2.657   0.121   2.539
 3286TIP3    H1 9864   2.736   0.148   2.492
 3286TIP3    H2 9865   2.588   0.121   2.473
 3287TIP3   OH2 9866   4.008   2.901   4.229
 3287TIP3    H1 9867   4.069   2.939   4.166
 3287TIP3    H2 9868   3.922   2.936   4.202
 3288TIP3   OH2 9869   5.720   2.770   2.814
 3288TIP3    H1 9870   5.763   2.714   2.879
 3288TIP3    H2 9871   5.648   2.717   2.781
 3289TIP3   OH2 9872   1.321   4.145   3.339
 3289TIP3    H1 9873   1.406   4.101   3.333
 3289TIP3    H2 9874   1.263   4.080   3.378
 3290TIP3   OH2 9875   4.933   1.497   2.882
 3290TIP3    H1 9876   4.949   1.436   2.811
 3290TIP3    H2 9877   4.905   1.578   2.838
 3291TIP3   OH2 9878   0.622   5.574   5.032
 3291TIP3    H1 9879   0.559   5.627   5.081
 3291TIP3    H2 9880   0.635   5.623   4.951
 3292TIP3   OH2 9881   0.249   5.908   3.285
 3292TIP3    H1 9882   0.289   5.835   3.238
 3292TIP3    H2 9883   0.175   5.935   3.230
 3293TIP3   OH2 9884   1.330   4.857   2.038
 3293TIP3    H1 9885   1.423   4.878   2.042
 3293TIP3    H2 9886   1.324   4.784   1.978
 3294TIP3   OH2 9887   5.869   3.518   2.772
 3294TIP3    H1 9888   5.959   3.488   2.780
 3294TIP3    H2 9889   5.832   3.465   2.702
 3295TIP3   OH2 9890   2.097   0.282   0.208
 3295TIP3    H1 9891   2.132   0.210   0.155
 3295TIP3    H2 9892   2.008   0.254   0.230
 3296TIP3   OH2 9893   6.144   2.564   4.874
 3296TIP3    H1 9894   6.185   2.487   4.914
 3296TIP3    H2 9895   6.217   2.622   4.853
 3297TIP3   OH2 9896   4.571   1.934   4.177
 3297TIP3    H1 9897   4.607   1.871   4.115
 3297TIP3    H2 9898   4.640   1.944   4.243
 3298TIP3   OH2 9899   3.800   4.092   1.593
 3298TIP3    H1 9900   3.871   4.104   1.531
 3298TIP3    H2 9901   3.811   4.003   1.625
 3299TIP3   OH2 9902   5.404   0.075   1.087
 3299TIP3    H1 9903   5.465   0.114   1.024
 3299TIP3    H2 9904   5.426   0.116   1.170
 3300TIP3   OH2 9905   2.144   1.333   3.561
 3300TIP3    H1 9906   2.174   1.242   3.559
 3300TIP3    H2 9907   2.219   1.384   3.531
 3301TIP3   OH2 9908   4.785   5.643   0.490
 3301TIP3    H1 9909   4.814   5.735   0.492
 3301TIP3    H2 9910   4.750   5.627   0.577
 3302TIP3   OH2 9911   3.434   0.879   3.265
 3302TIP3    H1 9912   3.399   0.968   3.263
 3302TIP3    H2 9913   3.368   0.827   3.219
 3303TIP3   OH2 9914   4.379   2.126   4.171
 3303TIP3    H1 9915   4.372   2.152   4.263
 3303TIP3    H2 9916   4.443   2.055   4.171
 3304TIP3   OH2 9917   0.089   0.036   1.425
 3304TIP3    H1 9918   0.076  -0.059   1.435
 3304TIP3    H2 9919   0.042   0.074   1.499
 3305TIP3   OH2 9920   1.908   1.974   3.210
 3305TIP3    H1 9921   1.824   1.995   3.169
 3305TIP3    H2 9922   1.900   1.882   3.235
 3306TIP3   OH2 9923   4.625   4.569   0.151
 3306TIP3    H1 9924   4.693   4.512   0.116
 3306TIP3    H2 9925   4.544   4.521   0.135
 3307TIP3   OH2 9926   2.936   3.275   4.574
 3307TIP3    H1 9927   2.883   3.266   4.652
 3307TIP3    H2 9928   3.015   3.321   4.603
 3308TIP3   OH2 9929   5.583   5.663   1.518
 3308TIP3    H1 9930   5.669   5.704   1.505
 3308TIP3    H2 9931   5.548   5.652   1.429
 3309TIP3   OH2 9932   4.445   3.577   2.014
 3309TIP3    H1 9933   4.415   3.646   2.073
 3309TIP3    H2 9934   4.421   3.496   2.060
 3310TIP3   OH2 9935   5.371   0.587   0.384
 3310TIP3    H1 9936   5.372   0.656   0.450
 3310TIP3    H2 9937   5.453   0.598   0.337
 3311TIP3   OH2 9938   0.286   3.581   1.894
 3311TIP3    H1 9939   0.255   3.491   1.899
 3311TIP3    H2 9940   0.208   3.635   1.907
 3312TIP3   OH2 9941   0.604   1.028   1.113
 3312TIP3    H1 9942   0.512   1.001   1.108
 3312TIP3    H2 9943   0.612   1.068   1.200
 3313TIP3   OH2 9944   1.130   0.071   0.624
 3313TIP3    H1 9945   1.084   0.132   0.681
 3313TIP3    H2 9946   1.097  -0.015   0.649
 3314TIP3   OH2 9947   1.706   2.770   3.011
 3314TIP3    H1 9948   1.694   2.860   3.041
 3314TIP3    H2 9949   1.687   2.716   3.088
 3315TIP3   OH2 9950   5.818   1.676   1.728
 3315TIP3    H1 9951   5.870   1.692   1.650
 3315TIP3    H2 9952   5.824   1.758   1.778
 3316TIP3   OH2 9953   2.249   4.393   0.966
 3316TIP3    H1 9954   2.227   4.400   0.873
 3316TIP3    H2 9955   2.337   4.356   0.968
 3317TIP3   OH2 9956   4.881   1.883   0.937
 3317TIP3    H1 9957   4.925   1.968   0.932
 3317TIP3    H2 9958   4.802   1.893   0.884
 3318TIP3   OH2 9959   1.458   3.891   3.723
 3318TIP3    H1 9960   1.518   3.818   3.737
 3318TIP3    H2 9961   1.414   3.871   3.640
 3319TIP3   OH2 9962   2.148   4.768   2.155
 3319TIP3    H1 9963   2.192   4.694   2.112
 3319TIP3    H2 9964   2.161   4.841   2.095
 3320TIP3   OH2 9965   0.747   3.951   4.133
 3320TIP3    H1 9966   0.751   4.021   4.067
 3320TIP3    H2 9967   0.824   3.965   4.188
 3321TIP3   OH2 9968   3.229   0.761   1.147
 3321TIP3    H1 9969   3.183   0.832   1.192
 3321TIP3    H2 9970   3.277   0.805   1.076
 3322TIP3   OH2 9971   3.012   2.970   0.890
 3322TIP3    H1 9972   3.101   2.994   0.862
 3322TIP3    H2 9973   2.955   3.002   0.821
 3323TIP3   OH2 9974   5.121   1.985   1.292
 3323TIP3    H1 9975   5.117   2.081   1.284
 3323TIP3    H2 9976   5.215   1.966   1.299
 3324TIP3   OH2 9977   0.153   2.910   4.583
 3324TIP3    H1 9978   0.165   2.838   4.520
 3324TIP3    H2 9979   0.209   2.886   4.657
 3325TIP3   OH2 9980   1.922   1.710   4.521
 3325TIP3    H1 9981   1.907   1.749   4.607
 3325TIP3    H2 9982   2.005   1.747   4.492
 3326TIP3   OH2 9983   4.632   1.218   0.203
 3326TIP3    H1 9984   4.663   1.301   0.239
 3326TIP3    H2 9985   4.633   1.158   0.277
 3327TIP3   OH2 9986   3.172   0.438   2.845
 3327TIP3    H1 9987   3.189   0.529   2.821
 3327TIP3    H2 9988   3.078   0.426   2.827
 3328TIP3   OH2 9989   5.751   3.681   1.338
 3328TIP3    H1 9990   5.757   3.761   1.391
 3328TIP3    H2 9991   5.784   3.706   1.252
 3329TIP3   OH2 9992   5.225   3.111   1.466
 3329TIP3    H1 9993   5.198   3.086   1.378
 3329TIP3    H2 9994   5.187   3.044   1.523
 3330TIP3   OH2 9995   4.667   3.840   0.505
 3330TIP3    H1 9996   4.692   3.845   0.413
 3330TIP3    H2 9997   4.664   3.746   0.525
 3331TIP3   OH2 9998   2.498   4.935   2.621
 3331TIP3    H1 9999   2.419   4.983   2.595
 3331TIP3    H210000   2.468   4.877   2.691
 3332TIP3   OH210001   1.051   3.533   1.072
 3332TIP3    H110002   0.998   3.480   1.012
 3332TIP3    H210003   0.997   3.611   1.088
 3333TIP3   OH210004   2.914   5.408   4.852
 3333TIP3    H110005   2.882   5.326   4.890
 3333TIP3    H210006   2.933   5.464   4.927
 3334TIP3   OH210007   5.467   5.536   2.689
 3334TIP3    H110008   5.455   5.442   2.677
 3334TIP3    H210009   5.492   5.568   2.603
 3335TIP3   OH210010   1.861   2.463   0.163
 3335TIP3    H110011   1.773   2.498   0.174
 3335TIP3    H210012   1.916   2.518   0.218
 3336TIP3   OH210013   1.108   4.654   0.671
 3336TIP3    H110014   1.160   4.649   0.751
 3336TIP3    H210015   1.029   4.604   0.690
 3337TIP3   OH210016   3.710   2.883   4.685
 3337TIP3    H110017   3.750   2.798   4.703
 3337TIP3    H210018   3.700   2.924   4.771
 3338TIP3   OH210019   4.698   0.967   2.089
 3338TIP3    H110020   4.655   1.050   2.110
 3338TIP3    H210021   4.769   0.959   2.152
 3339TIP3   OH210022   4.039   0.398   3.268
 3339TIP3    H110023   4.106   0.368   3.206
 3339TIP3    H210024   4.068   0.485   3.294
 3340TIP3   OH210025   2.380   3.443   0.518
 3340TIP3    H110026   2.365   3.432   0.611
 3340TIP3    H210027   2.336   3.368   0.478
 3341TIP3   OH210028   2.869   3.568   0.632
 3341TIP3    H110029   2.798   3.526   0.584
 3341TIP3    H210030   2.832   3.586   0.718
 3342TIP3   OH210031   0.444  -0.036   2.327
 3342TIP3    H110032   0.447   0.035   2.392
 3342TIP3    H210033   0.370  -0.090   2.354
 3343TIP3   OH210034   1.847   2.773   0.264
 3343TIP3    H110035   1.785   2.700   0.271
 3343TIP3    H210036   1.892   2.774   0.348
 3344TIP3   OH210037   3.790   2.541   1.077
 3344TIP3    H110038   3.834   2.570   1.157
 3344TIP3    H210039   3.824   2.453   1.062
 3345TIP3   OH210040   1.768   0.366   3.696
 3345TIP3    H110041   1.800   0.312   3.624
 3345TIP3    H210042   1.814   0.450   3.686
 3346TIP3   OH210043   2.243   2.935   0.343
 3346TIP3    H110044   2.296   2.855   0.344
 3346TIP3    H210045   2.168   2.914   0.288
 3347TIP3   OH210046   0.272   2.052   3.084
 3347TIP3    H110047   0.190   2.032   3.040
 3347TIP3    H210048   0.257   2.137   3.126
 3348TIP3   OH210049   5.199   2.610   1.883
 3348TIP3    H110050   5.289   2.579   1.889
 3348TIP3    H210051   5.203   2.687   1.826
 3349TIP3   OH210052   6.124   2.074   4.245
 3349TIP3    H110053   6.218   2.058   4.254
 3349TIP3    H210054   6.084   1.988   4.259
 3350TIP3   OH210055   4.012   4.729   2.005
 3350TIP3    H110056   4.036   4.775   1.925
 3350TIP3    H210057   4.039   4.788   2.076
 3351TIP3   OH210058   2.688   2.648   2.770
 3351TIP3    H110059   2.611   2.651   2.828
 3351TIP3    H210060   2.677   2.723   2.711
 3352TIP3   OH210061   1.249   2.221   3.184
 3352TIP3    H110062   1.199   2.300   3.164
 3352TIP3    H210063   1.340   2.250   3.184
 3353TIP3   OH210064   4.158   4.704   0.412
 3353TIP3    H110065   4.080   4.731   0.461
 3353TIP3    H210066   4.219   4.673   0.479
 3354TIP3   OH210067   6.051   1.374   2.794
 3354TIP3    H110068   5.987   1.357   2.863
 3354TIP3    H210069   6.061   1.290   2.750
 3355TIP3   OH210070   4.958   5.885   1.618
 3355TIP3    H110071   4.971   5.896   1.524
 3355TIP3    H210072   5.028   5.937   1.658
 3356TIP3   OH210073   2.401   5.642   3.614
 3356TIP3    H110074   2.417   5.708   3.547
 3356TIP3    H210075   2.486   5.599   3.626
 3357TIP3   OH210076   0.922   4.015   5.007
 3357TIP3    H110077   0.904   3.961   4.930
 3357TIP3    H210078   0.873   3.972   5.078
 3358TIP3   OH210079   5.303   4.930   2.422
 3358TIP3    H110080   5.246   4.901   2.351
 3358TIP3    H210081   5.391   4.905   2.394
 3359TIP3   OH210082   1.299   1.018   2.409
 3359TIP3    H110083   1.308   1.057   2.496
 3359TIP3    H210084   1.294   0.924   2.426
 3360TIP3   OH210085   2.238   2.604   0.132
 3360TIP3    H110086   2.155   2.592   0.177
 3360TIP3    H210087   2.221   2.675   0.070
 3361TIP3   OH210088   2.100   4.192   3.759
 3361TIP3    H110089   2.013   4.206   3.797
 3361TIP3    H210090   2.156   4.174   3.834
 3362TIP3   OH210091   2.215   4.840   0.169
 3362TIP3    H110092   2.290   4.815   0.224
 3362TIP3    H210093   2.194   4.760   0.121
 3363TIP3   OH210094   1.790   5.451   1.922
 3363TIP3    H110095   1.789   5.444   2.018
 3363TIP3    H210096   1.792   5.545   1.905
 3364TIP3   OH210097   3.216   4.944   3.274
 3364TIP3    H110098   3.308   4.937   3.298
 3364TIP3    H210099   3.203   5.037   3.255
 3365TIP3   OH210100   4.325   2.737   3.755
 3365TIP3    H110101   4.258   2.715   3.819
 3365TIP3    H210102   4.372   2.655   3.739
 3366TIP3   OH210103   0.706   4.314   1.281
 3366TIP3    H110104   0.637   4.248   1.287
 3366TIP3    H210105   0.683   4.366   1.204
 3367TIP3   OH210106   5.036   5.517   0.493
 3367TIP3    H110107   5.021   5.495   0.401
 3367TIP3    H210108   4.962   5.573   0.516
 3368TIP3   OH210109   4.695   4.125   1.703
 3368TIP3    H110110   4.776   4.120   1.653
 3368TIP3    H210111   4.708   4.200   1.762
 3369TIP3   OH210112   1.905   5.224   5.023
 3369TIP3    H110113   1.818   5.253   5.051
 3369TIP3    H210114   1.894   5.131   5.002
 3370TIP3   OH210115   0.467   1.703   0.517
 3370TIP3    H110116   0.438   1.724   0.428
 3370TIP3    H210117   0.523   1.626   0.507
 3371TIP3   OH210118   0.014   3.097   2.455
 3371TIP3    H110119   0.109   3.096   2.464
 3371TIP3    H210120  -0.006   3.019   2.403
 3372TIP3   OH210121   0.884   4.436   2.810
 3372TIP3    H110122   0.855   4.517   2.852
 3372TIP3    H210123   0.848   4.441   2.721
 3373TIP3   OH210124   6.027   0.942   2.690
 3373TIP3    H110125   6.090   0.895   2.635
 3373TIP3    H210126   6.080   1.006   2.737
 3374TIP3   OH210127   2.311   5.734   4.683
 3374TIP3    H110128   2.340   5.644   4.698
 3374TIP3    H210129   2.216   5.731   4.698
 3375TIP3   OH210130   4.890   3.306   0.578
 3375TIP3    H110131   4.903   3.354   0.659
 3375TIP3    H210132   4.932   3.221   0.592
 3376TIP3   OH210133   4.192   2.655   1.444
 3376TIP3    H110134   4.210   2.740   1.484
 3376TIP3    H210135   4.129   2.614   1.502
 3377TIP3   OH210136   1.834   5.816   0.060
 3377TIP3    H110137   1.827   5.724   0.084
 3377TIP3    H210138   1.812   5.818  -0.034
 3378TIP3   OH210139   5.487   1.675   0.403
 3378TIP3    H110140   5.459   1.598   0.353
 3378TIP3    H210141   5.561   1.710   0.353
 3379TIP3   OH210142   3.976   5.689   3.213
 3379TIP3    H110143   4.002   5.723   3.128
 3379TIP3    H210144   3.896   5.737   3.235
 3380TIP3   OH210145   5.136   1.095   1.327
 3380TIP3    H110146   5.224   1.122   1.354
 3380TIP3    H210147   5.145   1.079   1.233
 3381TIP3   OH210148   3.701   3.764   1.155
 3381TIP3    H110149   3.786   3.744   1.117
 3381TIP3    H210150   3.720   3.779   1.248
 3382TIP3   OH210151   1.226   0.302   0.283
 3382TIP3    H110152   1.146   0.294   0.334
 3382TIP3    H210153   1.204   0.367   0.215
 3383TIP3   OH210154   0.233   4.840   4.318
 3383TIP3    H110155   0.153   4.877   4.355
 3383TIP3    H210156   0.277   4.915   4.279
 3384TIP3   OH210157   0.906   1.902   1.175
 3384TIP3    H110158   0.927   1.810   1.192
 3384TIP3    H210159   0.827   1.919   1.227
 3385TIP3   OH210160   4.418   2.564   0.743
 3385TIP3    H110161   4.505   2.602   0.739
 3385TIP3    H210162   4.364   2.620   0.687
 3386TIP3   OH210163   5.805   4.119   0.014
 3386TIP3    H110164   5.892   4.117   0.055
 3386TIP3    H210165   5.768   4.033   0.031
 3387TIP3   OH210166   4.742   4.684   1.235
 3387TIP3    H110167   4.793   4.648   1.163
 3387TIP3    H210168   4.654   4.696   1.198
 3388TIP3   OH210169   4.619   4.990   2.922
 3388TIP3    H110170   4.626   5.034   3.007
 3388TIP3    H210171   4.696   4.932   2.918
 3389TIP3   OH210172   0.990   1.147   1.212
 3389TIP3    H110173   0.932   1.085   1.255
 3389TIP3    H210174   1.043   1.094   1.153
 3390TIP3   OH210175   1.648   4.424   1.217
 3390TIP3    H110176   1.566   4.376   1.200
 3390TIP3    H210177   1.670   4.402   1.308
 3391TIP3   OH210178   0.925   3.899   1.309
 3391TIP3    H110179   1.012   3.865   1.289
 3391TIP3    H210180   0.865   3.848   1.254
 3392TIP3   OH210181   1.115   5.772   1.465
 3392TIP3    H110182   1.142   5.692   1.510
 3392TIP3    H210183   1.020   5.768   1.463
 3393TIP3   OH210184   2.848   0.097   4.713
 3393TIP3    H110185   2.896   0.017   4.695
 3393TIP3    H210186   2.803   0.080   4.796
 3394TIP3   OH210187   1.476   3.455   5.077
 3394TIP3    H110188   1.555   3.428   5.031
 3394TIP3    H210189   1.412   3.387   5.057
 3395TIP3   OH210190   2.756   2.097   4.344
 3395TIP3    H110191   2.830   2.137   4.390
 3395TIP3    H210192   2.699   2.171   4.320
 3396TIP3   OH210193   0.345   1.816   2.853
 3396TIP3    H110194   0.336   1.780   2.765
 3396TIP3    H210195   0.287   1.761   2.907
 3397TIP3   OH210196   5.466   2.757   2.052
 3397TIP3    H110197   5.560   2.745   2.067
 3397TIP3    H210198   5.446   2.702   1.976
 3398TIP3   OH210199   4.594   3.035   3.889
 3398TIP3    H110200   4.544   3.018   3.809
 3398TIP3    H210201   4.575   2.959   3.945
 3399TIP3   OH210202   2.758   5.677   0.270
 3399TIP3    H110203   2.789   5.628   0.193
 3399TIP3    H210204   2.684   5.728   0.238
 3400TIP3   OH210205   3.591   4.180   2.072
 3400TIP3    H110206   3.658   4.137   2.019
 3400TIP3    H210207   3.508   4.160   2.028
 3401TIP3   OH210208   4.337   5.105   0.842
 3401TIP3    H110209   4.281   5.106   0.764
 3401TIP3    H210210   4.304   5.032   0.894
 3402TIP3   OH210211   2.451   3.883   4.467
 3402TIP3    H110212   2.503   3.860   4.390
 3402TIP3    H210213   2.383   3.815   4.471
 3403TIP3   OH210214   5.140   3.591   1.374
 3403TIP3    H110215   5.121   3.515   1.430
 3403TIP3    H210216   5.066   3.650   1.389
 3404TIP3   OH210217   1.119   3.531   4.344
 3404TIP3    H110218   1.195   3.489   4.384
 3404TIP3    H210219   1.094   3.600   4.406
 3405TIP3   OH210220   3.965   3.559   4.092
 3405TIP3    H110221   4.033   3.529   4.152
 3405TIP3    H210222   4.003   3.547   4.005
 3406TIP3   OH210223   5.375   2.736   1.205
 3406TIP3    H110224   5.399   2.770   1.291
 3406TIP3    H210225   5.430   2.659   1.194
 3407TIP3   OH210226   1.639   0.379   0.633
 3407TIP3    H110227   1.659   0.366   0.540
 3407TIP3    H210228   1.622   0.473   0.641
 3408TIP3   OH210229   5.926   2.325   1.255
 3408TIP3    H110230   5.891   2.268   1.324
 3408TIP3    H210231   5.904   2.280   1.174
 3409TIP3   OH210232   0.484   3.805   0.301
 3409TIP3    H110233   0.461   3.894   0.328
 3409TIP3    H210234   0.403   3.755   0.308
 3410TIP3   OH210235   3.063   2.927   2.259
 3410TIP3    H110236   3.103   2.910   2.345
 3410TIP3    H210237   2.991   2.987   2.277
 3411TIP3   OH210238   5.374   1.975   3.037
 3411TIP3    H110239   5.371   2.060   2.994
 3411TIP3    H210240   5.317   1.984   3.113
 3412TIP3   OH210241   2.979   1.473   2.941
 3412TIP3    H110242   2.980   1.569   2.939
 3412TIP3    H210243   3.058   1.449   2.990
 3413TIP3   OH210244   3.939   0.385   4.942
 3413TIP3    H110245   3.861   0.336   4.969
 3413TIP3    H210246   3.987   0.325   4.885
 3414TIP3   OH210247   1.601   3.336   2.204
 3414TIP3    H110248   1.633   3.313   2.117
 3414TIP3    H210249   1.638   3.423   2.221
 3415TIP3   OH210250   3.481   4.346   1.825
 3415TIP3    H110251   3.517   4.299   1.749
 3415TIP3    H210252   3.451   4.277   1.884
 3416TIP3   OH210253   0.973   3.888   3.261
 3416TIP3    H110254   1.011   3.801   3.248
 3416TIP3    H210255   0.988   3.933   3.178
 3417TIP3   OH210256   1.021   5.900   1.229
 3417TIP3    H110257   0.989   5.956   1.301
 3417TIP3    H210258   0.944   5.884   1.175
 3418TIP3   OH210259   5.813   0.387   2.916
 3418TIP3    H110260   5.902   0.413   2.892
 3418TIP3    H210261   5.823   0.299   2.952
 3419TIP3   OH210262   5.117   3.284   2.187
 3419TIP3    H110263   5.071   3.201   2.170
 3419TIP3    H210264   5.145   3.277   2.278
 3420TIP3   OH210265   2.925   1.357   1.808
 3420TIP3    H110266   2.837   1.372   1.843
 3420TIP3    H210267   2.950   1.271   1.843
 3421TIP3   OH210268   0.037   4.198   3.360
 3421TIP3    H110269   0.040   4.277   3.307
 3421TIP3    H210270   0.049   4.127   3.298
 3422TIP3   OH210271   5.690   2.658   1.228
 3422TIP3    H110272   5.659   2.570   1.252
 3422TIP3    H210273   5.658   2.671   1.139
 3423TIP3   OH210274   2.497   0.585   0.725
 3423TIP3    H110275   2.511   0.601   0.631
 3423TIP3    H210276   2.586   0.579   0.761
 3424TIP3   OH210277   6.124   5.819   1.213
 3424TIP3    H110278   6.182   5.823   1.289
 3424TIP3    H210279   6.179   5.788   1.141
 3425TIP3   OH210280   4.645   0.735   4.994
 3425TIP3    H110281   4.717   0.749   4.931
 3425TIP3    H210282   4.689   0.731   5.079
 3426TIP3   OH210283   1.420   5.353   1.458
 3426TIP3    H110284   1.397   5.274   1.409
 3426TIP3    H210285   1.467   5.321   1.535
 3427TIP3   OH210286   5.566   1.426   1.369
 3427TIP3    H110287   5.642   1.475   1.340
 3427TIP3    H210288   5.498   1.492   1.383
 3428TIP3   OH210289   1.417   0.045   4.236
 3428TIP3    H110290   1.430   0.128   4.191
 3428TIP3    H210291   1.503   0.023   4.272
 3429TIP3   OH210292   2.303   5.370   3.326
 3429TIP3    H110293   2.280   5.463   3.316
 3429TIP3    H210294   2.220   5.326   3.345
 3430TIP3   OH210295   3.155   1.058   5.010
 3430TIP3    H110296   3.169   1.131   4.951
 3430TIP3    H210297   3.243   1.022   5.026
 3431TIP3   OH210298   2.053   2.410   3.983
 3431TIP3    H110299   2.133   2.391   3.933
 3431TIP3    H210300   1.984   2.363   3.936
 3432TIP3   OH210301   2.627   4.128   2.863
 3432TIP3    H110302   2.704   4.180   2.840
 3432TIP3    H210303   2.662   4.052   2.910
 3433TIP3   OH210304   3.349   5.470   1.690
 3433TIP3    H110305   3.353   5.519   1.772
 3433TIP3    H210306   3.272   5.505   1.645
 3434TIP3   OH210307   2.901   5.368   2.412
 3434TIP3    H110308   2.836   5.435   2.430
 3434TIP3    H210309   2.978   5.416   2.382
 3435TIP3   OH210310   4.818   1.600   3.097
 3435TIP3    H110311   4.761   1.677   3.087
 3435TIP3    H210312   4.838   1.574   3.007
 3436TIP3   OH210313   2.625   5.277   3.889
 3436TIP3    H110314   2.533   5.299   3.881
 3436TIP3    H210315   2.626   5.184   3.910
 3437TIP3   OH210316   0.078   3.975   3.214
 3437TIP3    H110317   0.111   3.989   3.126
 3437TIP3    H210318   0.009   3.910   3.204
 3438TIP3   OH210319   0.360   5.229   1.339
 3438TIP3    H110320   0.265   5.219   1.350
 3438TIP3    H210321   0.387   5.287   1.410
 3439TIP3   OH210322   3.165   0.560   1.370
 3439TIP3    H110323   3.216   0.632   1.334
 3439TIP3    H210324   3.171   0.491   1.304
 3440TIP3   OH210325   5.876   1.280   3.928
 3440TIP3    H110326   5.902   1.270   4.020
 3440TIP3    H210327   5.820   1.204   3.910
 3441TIP3   OH210328   0.913   2.547   1.680
 3441TIP3    H110329   1.000   2.556   1.641
 3441TIP3    H210330   0.859   2.509   1.611
 3442TIP3   OH210331   6.149   0.539   1.896
 3442TIP3    H110332   6.162   0.597   1.821
 3442TIP3    H210333   6.066   0.494   1.877
 3443TIP3   OH210334   2.987   1.177   5.181
 3443TIP3    H110335   3.051   1.125   5.133
 3443TIP3    H210336   3.006   1.268   5.156
 3444TIP3   OH210337   0.762   3.004   3.969
 3444TIP3    H110338   0.830   3.068   3.947
 3444TIP3    H210339   0.766   2.997   4.064
 3445TIP3   OH210340   4.263   1.470   4.203
 3445TIP3    H110341   4.320   1.502   4.273
 3445TIP3    H210342   4.312   1.398   4.163
 3446TIP3   OH210343   3.579   2.394   0.848
 3446TIP3    H110344   3.514   2.380   0.779
 3446TIP3    H210345   3.527   2.410   0.927
 3447TIP3   OH210346   3.711   5.207   0.633
 3447TIP3    H110347   3.620   5.212   0.605
 3447TIP3    H210348   3.717   5.125   0.683
 3448TIP3   OH210349   1.350   2.832   2.474
 3448TIP3    H110350   1.295   2.823   2.396
 3448TIP3    H210351   1.439   2.818   2.442
 3449TIP3   OH210352   2.582   2.561   2.069
 3449TIP3    H110353   2.624   2.577   1.985
 3449TIP3    H210354   2.605   2.638   2.122
 3450TIP3   OH210355   3.121   5.426   0.928
 3450TIP3    H110356   3.172   5.364   0.876
 3450TIP3    H210357   3.053   5.457   0.867
 3451TIP3   OH210358   5.771   5.174   3.673
 3451TIP3    H110359   5.834   5.155   3.743
 3451TIP3    H210360   5.689   5.191   3.719
 3452TIP3   OH210361   5.775   3.342   1.025
 3452TIP3    H110362   5.820   3.421   1.056
 3452TIP3    H210363   5.846   3.284   0.997
 3453TIP3   OH210364   0.924   0.466   4.547
 3453TIP3    H110365   0.860   0.513   4.493
 3453TIP3    H210366   0.977   0.534   4.587
 3454TIP3   OH210367   3.282   0.639   2.296
 3454TIP3    H110368   3.284   0.702   2.368
 3454TIP3    H210369   3.362   0.655   2.247
 3455TIP3   OH210370   2.244   3.205   0.420
 3455TIP3    H110371   2.175   3.190   0.486
 3455TIP3    H210372   2.253   3.121   0.375
 3456TIP3   OH210373   3.658   2.940   0.608
 3456TIP3    H110374   3.586   2.968   0.664
 3456TIP3    H210375   3.615   2.903   0.531
 3457TIP3   OH210376   4.748   2.122   3.959
 3457TIP3    H110377   4.693   2.046   3.980
 3457TIP3    H210378   4.720   2.149   3.872
 3458TIP3   OH210379   3.213   1.243   0.983
 3458TIP3    H110380   3.205   1.227   1.077
 3458TIP3    H210381   3.175   1.166   0.942
 3459TIP3   OH210382   2.492   4.118   2.396
 3459TIP3    H110383   2.430   4.103   2.325
 3459TIP3    H210384   2.558   4.176   2.359
 3460TIP3   OH210385   1.860   0.601   4.148
 3460TIP3    H110386   1.952   0.620   4.130
 3460TIP3    H210387   1.837   0.534   4.083
 3461TIP3   OH210388   5.851   5.820   0.281
 3461TIP3    H110389   5.785   5.861   0.225
 3461TIP3    H210390   5.820   5.834   0.370
 3462TIP3   OH210391   5.112   1.391   3.873
 3462TIP3    H110392   5.075   1.312   3.833
 3462TIP3    H210393   5.060   1.405   3.952
 3463TIP3   OH210394   4.201   0.055   1.915
 3463TIP3    H110395   4.232   0.144   1.901
 3463TIP3    H210396   4.263   0.000   1.865
 3464TIP3   OH210397   0.548   3.771   3.011
 3464TIP3    H110398   0.592   3.768   3.096
 3464TIP3    H210399   0.525   3.863   2.999
 3465TIP3   OH210400   4.830   2.217   4.983
 3465TIP3    H110401   4.916   2.199   5.021
 3465TIP3    H210402   4.776   2.243   5.058
 3466TIP3   OH210403   0.757   3.197   0.320
 3466TIP3    H110404   0.839   3.235   0.288
 3466TIP3    H210405   0.752   3.112   0.277
 3467TIP3   OH210406   1.463   3.659   3.983
 3467TIP3    H110407   1.524   3.588   3.965
 3467TIP3    H210408   1.396   3.620   4.039
 3468TIP3   OH210409   4.018   3.199   0.561
 3468TIP3    H110410   4.025   3.258   0.486
 3468TIP3    H210411   4.059   3.246   0.633
 3469TIP3   OH210412   2.338   3.772   2.559
 3469TIP3    H110413   2.328   3.713   2.483
 3469TIP3    H210414   2.283   3.847   2.538
 3470TIP3   OH210415   5.672   5.590   4.958
 3470TIP3    H110416   5.756   5.546   4.967
 3470TIP3    H210417   5.649   5.581   4.866
 3471TIP3   OH210418   5.066   3.417   5.072
 3471TIP3    H110419   5.139   3.373   5.030
 3471TIP3    H210420   5.051   3.367   5.153
 3472TIP3   OH210421   0.081   4.080   1.198
 3472TIP3    H110422   0.108   4.066   1.289
 3472TIP3    H210423   0.002   4.132   1.204
 3473TIP3   OH210424   5.537   2.991   2.777
 3473TIP3    H110425   5.595   2.916   2.772
 3473TIP3    H210426   5.509   2.994   2.869
 3474TIP3   OH210427   1.334   1.932   3.512
 3474TIP3    H110428   1.286   1.852   3.531
 3474TIP3    H210429   1.396   1.908   3.444
 3475TIP3   OH210430   1.820   5.741   3.067
 3475TIP3    H110431   1.751   5.729   3.002
 3475TIP3    H210432   1.779   5.721   3.151
 3476TIP3   OH210433   3.529   4.865   3.149
 3476TIP3    H110434   3.624   4.883   3.152
 3476TIP3    H210435   3.492   4.926   3.213
 3477TIP3   OH210436   0.999   5.162   1.262
 3477TIP3    H110437   0.939   5.123   1.199
 3477TIP3    H210438   1.028   5.243   1.221
 3478TIP3   OH210439   4.809   0.031   2.456
 3478TIP3    H110440   4.735   0.065   2.507
 3478TIP3    H210441   4.818   0.092   2.383
 3479TIP3   OH210442   1.618   0.986   3.736
 3479TIP3    H110443   1.590   1.077   3.749
 3479TIP3    H210444   1.575   0.961   3.653
 3480TIP3   OH210445   3.046   4.653   4.338
 3480TIP3    H110446   2.964   4.698   4.360
 3480TIP3    H210447   3.023   4.560   4.337
 3481TIP3   OH210448   4.073   1.805   0.375
 3481TIP3    H110449   4.133   1.751   0.324
 3481TIP3    H210450   3.995   1.750   0.387
 3482TIP3   OH210451   3.522   1.604   0.369
 3482TIP3    H110452   3.578   1.536   0.406
 3482TIP3    H210453   3.570   1.685   0.385
 3483TIP3   OH210454   5.595   3.117   2.535
 3483TIP3    H110455   5.574   3.058   2.607
 3483TIP3    H210456   5.567   3.203   2.565
 3484TIP3   OH210457   3.199   0.361   1.188
 3484TIP3    H110458   3.272   0.322   1.235
 3484TIP3    H210459   3.228   0.366   1.097
 3485TIP3   OH210460   6.144   5.478   2.846
 3485TIP3    H110461   6.065   5.434   2.878
 3485TIP3    H210462   6.128   5.491   2.752
 3486TIP3   OH210463   5.443   0.414   5.134
 3486TIP3    H110464   5.463   0.320   5.132
 3486TIP3    H210465   5.354   0.420   5.101
 3487TIP3   OH210466   3.429   4.796   4.686
 3487TIP3    H110467   3.342   4.789   4.646
 3487TIP3    H210468   3.473   4.865   4.636
 3488TIP3   OH210469   0.611   2.185   4.029
 3488TIP3    H110470   0.677   2.160   4.094
 3488TIP3    H210471   0.586   2.274   4.054
 3489TIP3   OH210472   0.722   4.098   1.534
 3489TIP3    H110473   0.678   4.050   1.463
 3489TIP3    H210474   0.653   4.151   1.573
 3490TIP3   OH210475   0.601   3.080   1.956
 3490TIP3    H110476   0.596   3.166   1.997
 3490TIP3    H210477   0.592   3.098   1.863
 3491TIP3   OH210478   0.388   0.857   3.881
 3491TIP3    H110479   0.442   0.786   3.846
 3491TIP3    H210480   0.420   0.935   3.837
 3492TIP3   OH210481   0.417   2.766   0.349
 3492TIP3    H110482   0.381   2.803   0.268
 3492TIP3    H210483   0.462   2.687   0.321
 3493TIP3   OH210484   3.616   5.071   1.332
 3493TIP3    H110485   3.597   4.995   1.386
 3493TIP3    H210486   3.710   5.085   1.341
 3494TIP3   OH210487   1.661   1.725   2.708
 3494TIP3    H110488   1.676   1.749   2.799
 3494TIP3    H210489   1.749   1.714   2.671
 3495TIP3   OH210490   1.587   3.587   1.934
 3495TIP3    H110491   1.627   3.502   1.950
 3495TIP3    H210492   1.568   3.589   1.840
 3496TIP3   OH210493   5.779   0.229   0.857
 3496TIP3    H110494   5.765   0.195   0.945
 3496TIP3    H210495   5.873   0.249   0.853
 3497TIP3   OH210496   2.460   0.498   2.231
 3497TIP3    H110497   2.449   0.503   2.326
 3497TIP3    H210498   2.474   0.405   2.213
 3498TIP3   OH210499   0.429   0.203   2.478
 3498TIP3    H110500   0.361   0.270   2.485
 3498TIP3    H210501   0.467   0.198   2.566
 3499TIP3   OH210502   4.071   4.121   4.929
 3499TIP3    H110503   3.997   4.062   4.941
 3499TIP3    H210504   4.079   4.131   4.835
 3500TIP3   OH210505   0.692   5.532   3.378
 3500TIP3    H110506   0.665   5.602   3.437
 3500TIP3    H210507   0.627   5.533   3.308
 3501TIP3   OH210508   5.721   0.457   4.620
 3501TIP3    H110509   5.799   0.401   4.616
 3501TIP3    H210510   5.676   0.430   4.700
 3502TIP3   OH210511   3.974   0.514   2.646
 3502TIP3    H110512   3.928   0.431   2.654
 3502TIP3    H210513   4.000   0.535   2.736
 3503TIP3   OH210514   0.488   4.996   3.054
 3503TIP3    H110515   0.439   4.943   2.991
 3503TIP3    H210516   0.539   5.056   3.000
 3504TIP3   OH210517   6.166   2.076   3.775
 3504TIP3    H110518   6.225   2.056   3.703
 3504TIP3    H210519   6.085   2.106   3.733
 3505TIP3   OH210520   6.234   0.934   1.930
 3505TIP3    H110521   6.314   0.900   1.971
 3505TIP3    H210522   6.181   0.966   2.002
 3506TIP3   OH210523   1.949   5.217   0.600
 3506TIP3    H110524   1.892   5.278   0.645
 3506TIP3    H210525   2.023   5.204   0.659
 3507TIP3   OH210526   2.206   3.734   4.511
 3507TIP3    H110527   2.192   3.646   4.544
 3507TIP3    H210528   2.158   3.790   4.572
 3508TIP3   OH210529   4.959   2.158   0.567
 3508TIP3    H110530   4.863   2.157   0.577
 3508TIP3    H210531   4.990   2.093   0.630
 3509TIP3   OH210532   5.173   3.789   4.918
 3509TIP3    H110533   5.104   3.770   4.854
 3509TIP3    H210534   5.139   3.862   4.969
 3510TIP3   OH210535   4.673   2.664   0.720
 3510TIP3    H110536   4.766   2.643   0.712
 3510TIP3    H210537   4.670   2.759   0.719
 3511TIP3   OH210538   5.488   3.368   2.196
 3511TIP3    H110539   5.561   3.390   2.254
 3511TIP3    H210540   5.472   3.275   2.210
 3512TIP3   OH210541   3.977   2.496   4.486
 3512TIP3    H110542   4.005   2.414   4.526
 3512TIP3    H210543   3.891   2.477   4.448
 3513TIP3   OH210544   2.902   4.660   0.126
 3513TIP3    H110545   2.882   4.657   0.220
 3513TIP3    H210546   2.819   4.642   0.083
 3514TIP3   OH210547   0.672   2.740   1.770
 3514TIP3    H110548   0.620   2.808   1.725
 3514TIP3    H210549   0.761   2.755   1.740
 3515TIP3   OH210550   3.282   5.742   2.948
 3515TIP3    H110551   3.218   5.694   2.896
 3515TIP3    H210552   3.257   5.725   3.039
 3516TIP3   OH210553   4.119   5.716   3.452
 3516TIP3    H110554   4.193   5.658   3.468
 3516TIP3    H210555   4.083   5.687   3.368
 3517TIP3   OH210556   1.551   1.011   0.810
 3517TIP3    H110557   1.485   1.040   0.874
 3517TIP3    H210558   1.613   0.960   0.862
 3518TIP3   OH210559   1.022   2.379   1.347
 3518TIP3    H110560   1.065   2.293   1.350
 3518TIP3    H210561   0.962   2.373   1.273
 3519TIP3   OH210562   1.485   1.635   0.685
 3519TIP3    H110563   1.574   1.668   0.696
 3519TIP3    H210564   1.432   1.713   0.670
 3520TIP3   OH210565   1.233   0.169   1.762
 3520TIP3    H110566   1.269   0.082   1.741
 3520TIP3    H210567   1.284   0.198   1.838
 3521TIP3   OH210568   0.801   2.773   2.561
 3521TIP3    H110569   0.880   2.774   2.616
 3521TIP3    H210570   0.799   2.860   2.522
 3522TIP3   OH210571   3.490   3.099   4.939
 3522TIP3    H110572   3.452   3.029   4.992
 3522TIP3    H210573   3.488   3.175   4.997
 3523TIP3   OH210574   4.956   1.228   0.659
 3523TIP3    H110575   4.960   1.252   0.752
 3523TIP3    H210576   5.020   1.285   0.617
 3524TIP3   OH210577   4.741   4.628   3.491
 3524TIP3    H110578   4.809   4.620   3.424
 3524TIP3    H210579   4.771   4.571   3.562
 3525TIP3   OH210580   3.114   2.492   1.220
 3525TIP3    H110581   3.031   2.449   1.238
 3525TIP3    H210582   3.091   2.570   1.171
 3526TIP3   OH210583   2.928   3.921   1.666
 3526TIP3    H110584   2.890   3.840   1.633
 3526TIP3    H210585   2.910   3.919   1.760
 3527TIP3   OH210586   2.412   1.627   2.980
 3527TIP3    H110587   2.401   1.568   2.905
 3527TIP3    H210588   2.438   1.710   2.941
 3528TIP3   OH210589   2.380   2.325   2.403
 3528TIP3    H110590   2.319   2.298   2.472
 3528TIP3    H210591   2.452   2.366   2.451
 3529TIP3   OH210592   5.901   1.785   0.863
 3529TIP3    H110593   5.875   1.840   0.937
 3529TIP3    H210594   5.843   1.810   0.792
 3530TIP3   OH210595   4.850   0.013   1.692
 3530TIP3    H110596   4.788   0.047   1.628
 3530TIP3    H210597   4.887   0.091   1.734
 3531TIP3   OH210598   1.410   4.466   3.072
 3531TIP3    H110599   1.432   4.542   3.126
 3531TIP3    H210600   1.315   4.468   3.063
 3532TIP3   OH210601   1.114   1.267   0.463
 3532TIP3    H110602   1.044   1.311   0.512
 3532TIP3    H210603   1.193   1.315   0.486
 3533TIP3   OH210604   4.671   5.424   2.204
 3533TIP3    H110605   4.657   5.469   2.287
 3533TIP3    H210606   4.731   5.352   2.226
 3534TIP3   OH210607   3.125   5.568   1.566
 3534TIP3    H110608   3.045   5.518   1.548
 3534TIP3    H210609   3.094   5.653   1.597
 3535TIP3   OH210610   2.386   5.163   0.945
 3535TIP3    H110611   2.368   5.188   1.036
 3535TIP3    H210612   2.402   5.068   0.950
 3536TIP3   OH210613   3.808   2.890   3.422
 3536TIP3    H110614   3.790   2.800   3.450
 3536TIP3    H210615   3.891   2.884   3.375
 3537TIP3   OH210616   2.803   4.471   3.700
 3537TIP3    H110617   2.723   4.502   3.660
 3537TIP3    H210618   2.804   4.511   3.787
 3538TIP3   OH210619   4.615   2.029   3.557
 3538TIP3    H110620   4.685   1.965   3.568
 3538TIP3    H210621   4.567   2.027   3.641
 3539TIP3   OH210622   2.800   3.609   5.141
 3539TIP3    H110623   2.770   3.550   5.209
 3539TIP3    H210624   2.767   3.571   5.060
 3540TIP3   OH210625   2.141   3.993   1.430
 3540TIP3    H110626   2.143   3.916   1.487
 3540TIP3    H210627   2.114   4.065   1.488
 3541TIP3   OH210628   2.582   5.297   1.826
 3541TIP3    H110629   2.616   5.299   1.737
 3541TIP3    H210630   2.603   5.209   1.858
 3542TIP3   OH210631   5.121   5.164   3.367
 3542TIP3    H110632   5.052   5.167   3.300
 3542TIP3    H210633   5.176   5.090   3.341
 3543TIP3   OH210634   1.240   3.537   1.762
 3543TIP3    H110635   1.278   3.554   1.675
 3543TIP3    H210636   1.146   3.549   1.750
 3544TIP3   OH210637   4.709   4.101   3.361
 3544TIP3    H110638   4.795   4.121   3.396
 3544TIP3    H210639   4.662   4.185   3.361
 3545TIP3   OH210640   4.824   1.221   3.285
 3545TIP3    H110641   4.840   1.186   3.197
 3545TIP3    H210642   4.857   1.154   3.344
 3546TIP3   OH210643   0.233   1.052   0.832
 3546TIP3    H110644   0.273   0.967   0.811
 3546TIP3    H210645   0.307   1.110   0.850
 3547TIP3   OH210646   2.367   2.338   5.076
 3547TIP3    H110647   2.459   2.320   5.094
 3547TIP3    H210648   2.344   2.282   5.002
 3548TIP3   OH210649   1.967   0.498   0.103
 3548TIP3    H110650   1.993   0.584   0.136
 3548TIP3    H210651   2.019   0.436   0.154
 3549TIP3   OH210652   1.247   4.277   2.657
 3549TIP3    H110653   1.211   4.365   2.642
 3549TIP3    H210654   1.259   4.242   2.568
 3550TIP3   OH210655   2.796   1.067   2.591
 3550TIP3    H110656   2.755   1.139   2.639
 3550TIP3    H210657   2.783   0.991   2.646
 3551TIP3   OH210658   1.727   1.977   2.130
 3551TIP3    H110659   1.776   2.014   2.204
 3551TIP3    H210660   1.726   1.883   2.147
 3552TIP3   OH210661   5.767   1.419   4.720
 3552TIP3    H110662   5.786   1.497   4.772
 3552TIP3    H210663   5.813   1.434   4.637
 3553TIP3   OH210664   1.704   3.589   2.240
 3553TIP3    H110665   1.797   3.580   2.259
 3553TIP3    H210666   1.700   3.648   2.165
 3554TIP3   OH210667   5.182   3.894   3.387
 3554TIP3    H110668   5.193   3.829   3.456
 3554TIP3    H210669   5.254   3.877   3.326
 3555TIP3   OH210670   0.387   3.636   0.917
 3555TIP3    H110671   0.387   3.634   0.821
 3555TIP3    H210672   0.321   3.572   0.942
 3556TIP3   OH210673   5.908   2.315   5.185
 3556TIP3    H110674   5.856   2.242   5.219
 3556TIP3    H210675   5.864   2.340   5.104
 3557TIP3   OH210676   2.230   5.818   2.138
 3557TIP3    H110677   2.141   5.855   2.142
 3557TIP3    H210678   2.286   5.893   2.121
 3558TIP3   OH210679   4.312   2.678   4.282
 3558TIP3    H110680   4.336   2.589   4.307
 3558TIP3    H210681   4.248   2.705   4.348
 3559TIP3   OH210682   1.973   3.064   3.395
 3559TIP3    H110683   2.000   3.047   3.304
 3559TIP3    H210684   1.978   3.159   3.403
 3560TIP3   OH210685   4.502   2.784   4.001
 3560TIP3    H110686   4.415   2.759   3.969
 3560TIP3    H210687   4.545   2.701   4.022
 3561TIP3   OH210688   4.584   1.000   4.897
 3561TIP3    H110689   4.632   0.918   4.903
 3561TIP3    H210690   4.512   0.991   4.959
 3562TIP3   OH210691   5.623   5.748   2.172
 3562TIP3    H110692   5.639   5.769   2.080
 3562TIP3    H210693   5.586   5.828   2.210
 3563TIP3   OH210694   1.295   5.801   1.104
 3563TIP3    H110695   1.335   5.732   1.052
 3563TIP3    H210696   1.331   5.882   1.068
 3564TIP3   OH210697   5.737   0.140   1.758
 3564TIP3    H110698   5.700   0.107   1.676
 3564TIP3    H210699   5.670   0.122   1.823
 3565TIP3   OH210700   4.397   2.878   1.857
 3565TIP3    H110701   4.399   2.869   1.952
 3565TIP3    H210702   4.419   2.970   1.841
 3566TIP3   OH210703   0.645   4.004   2.741
 3566TIP3    H110704   0.612   4.060   2.811
 3566TIP3    H210705   0.713   3.951   2.782
 3567TIP3   OH210706   5.835   4.877   4.995
 3567TIP3    H110707   5.864   4.872   5.087
 3567TIP3    H210708   5.896   4.939   4.954
 3568TIP3   OH210709   0.061   4.713   1.004
 3568TIP3    H110710   0.149   4.730   1.038
 3568TIP3    H210711   0.011   4.685   1.081
 3569TIP3   OH210712   4.265   5.108   5.016
 3569TIP3    H110713   4.243   5.173   5.083
 3569TIP3    H210714   4.185   5.099   4.964
 3570TIP3   OH210715   3.992   5.495   4.295
 3570TIP3    H110716   4.002   5.589   4.276
 3570TIP3    H210717   4.042   5.451   4.226
 3571TIP3   OH210718   1.017   3.329   0.359
 3571TIP3    H110719   1.069   3.357   0.435
 3571TIP3    H210720   0.982   3.410   0.323
 3572TIP3   OH210721   5.544   4.236   0.010
 3572TIP3    H110722   5.519   4.186   0.087
 3572TIP3    H210723   5.627   4.197  -0.019
 3573TIP3   OH210724   4.838   5.885   1.048
 3573TIP3    H110725   4.747   5.897   1.021
 3573TIP3    H210726   4.865   5.972   1.078
 3574TIP3   OH210727   1.680   5.840   2.299
 3574TIP3    H110728   1.663   5.931   2.273
 3574TIP3    H210729   1.594   5.805   2.321
 3575TIP3   OH210730   3.655   0.431   4.662
 3575TIP3    H110731   3.620   0.351   4.702
 3575TIP3    H210732   3.696   0.401   4.581
 3576TIP3   OH210733   6.159   1.550   4.086
 3576TIP3    H110734   6.096   1.490   4.126
 3576TIP3    H210735   6.244   1.512   4.106
 3577TIP3   OH210736   0.327   1.115   2.214
 3577TIP3    H110737   0.337   1.072   2.298
 3577TIP3    H210738   0.246   1.166   2.223
 3578TIP3   OH210739   3.132   1.473   0.849
 3578TIP3    H110740   3.172   1.400   0.895
 3578TIP3    H210741   3.039   1.452   0.846
 3579TIP3   OH210742   2.248   5.517   0.766
 3579TIP3    H110743   2.336   5.496   0.797
 3579TIP3    H210744   2.232   5.606   0.796
 3580TIP3   OH210745   3.885   4.814   2.902
 3580TIP3    H110746   3.914   4.869   2.975
 3580TIP3    H210747   3.809   4.860   2.867
 3581TIP3   OH210748   4.870   2.738   5.045
 3581TIP3    H110749   4.947   2.760   5.098
 3581TIP3    H210750   4.822   2.820   5.037
 3582TIP3   OH210751   0.860   4.863   0.406
 3582TIP3    H110752   0.900   4.876   0.492
 3582TIP3    H210753   0.766   4.874   0.421
 3583TIP3   OH210754   0.629   4.858   1.110
 3583TIP3    H110755   0.595   4.917   1.177
 3583TIP3    H210756   0.625   4.771   1.150
 3584TIP3   OH210757   4.855   0.059   0.844
 3584TIP3    H110758   4.830  -0.015   0.787
 3584TIP3    H210759   4.820   0.136   0.799
 3585TIP3   OH210760   4.999   1.056   3.765
 3585TIP3    H110761   4.975   1.033   3.675
 3585TIP3    H210762   5.091   1.082   3.759
 3586TIP3   OH210763   6.051   5.605   2.127
 3586TIP3    H110764   5.960   5.602   2.156
 3586TIP3    H210765   6.060   5.689   2.083
 3587TIP3   OH210766   1.071   1.620   0.450
 3587TIP3    H110767   1.100   1.710   0.437
 3587TIP3    H210768   1.052   1.588   0.362
 3588TIP3   OH210769   4.444   3.329   2.401
 3588TIP3    H110770   4.355   3.364   2.398
 3588TIP3    H210771   4.437   3.241   2.364
 3589TIP3   OH210772   2.812   4.725   4.594
 3589TIP3    H110773   2.819   4.799   4.654
 3589TIP3    H210774   2.802   4.765   4.508
 3590TIP3   OH210775   0.893   0.635   0.348
 3590TIP3    H110776   0.898   0.686   0.429
 3590TIP3    H210777   0.825   0.570   0.365
 3591TIP3   OH210778   0.249   5.046   1.095
 3591TIP3    H110779   0.282   5.131   1.124
 3591TIP3    H210780   0.203   5.011   1.171
 3592TIP3   OH210781   1.219   1.687   2.950
 3592TIP3    H110782   1.131   1.653   2.965
 3592TIP3    H210783   1.206   1.757   2.885
 3593TIP3   OH210784   1.470   1.713   3.789
 3593TIP3    H110785   1.469   1.678   3.700
 3593TIP3    H210786   1.486   1.807   3.779
 3594TIP3   OH210787   0.125   0.791   3.869
 3594TIP3    H110788   0.212   0.830   3.855
 3594TIP3    H210789   0.123   0.770   3.962
 3595TIP3   OH210790   4.983   3.229   3.403
 3595TIP3    H110791   4.933   3.256   3.325
 3595TIP3    H210792   4.955   3.140   3.420
 3596TIP3   OH210793   3.537   2.643   3.047
 3596TIP3    H110794   3.630   2.630   3.067
 3596TIP3    H210795   3.506   2.701   3.116
 3597TIP3   OH210796   1.152   1.994   3.084
 3597TIP3    H110797   1.194   1.998   2.998
 3597TIP3    H210798   1.171   2.078   3.124
 3598TIP3   OH210799   3.147   4.297   3.098
 3598TIP3    H110800   3.093   4.350   3.157
 3598TIP3    H210801   3.223   4.272   3.151
 3599TIP3   OH210802   5.576   4.799   5.031
 3599TIP3    H110803   5.661   4.842   5.022
 3599TIP3    H210804   5.560   4.759   4.946
 3600TIP3   OH210805   5.410   4.515   1.932
 3600TIP3    H110806   5.391   4.542   2.022
 3600TIP3    H210807   5.327   4.479   1.900
 3601TIP3   OH210808   0.472   3.754   4.707
 3601TIP3    H110809   0.407   3.689   4.733
 3601TIP3    H210810   0.516   3.779   4.789
 3602TIP3   OH210811   0.791   3.451   3.049
 3602TIP3    H110812   0.717   3.392   3.063
 3602TIP3    H210813   0.765   3.504   2.974
 3603TIP3   OH210814   3.309   0.240   4.977
 3603TIP3    H110815   3.274   0.210   4.893
 3603TIP3    H210816   3.401   0.261   4.958
 3604TIP3   OH210817   4.798   1.298   2.142
 3604TIP3    H110818   4.830   1.348   2.067
 3604TIP3    H210819   4.875   1.257   2.180
 3605TIP3   OH210820   4.128   4.857   3.332
 3605TIP3    H110821   4.033   4.842   3.327
 3605TIP3    H210822   4.153   4.883   3.243
 3606TIP3   OH210823   5.645   4.948   0.586
 3606TIP3    H110824   5.615   4.974   0.499
 3606TIP3    H210825   5.689   4.864   0.571
 3607TIP3   OH210826   5.495   2.052   0.324
 3607TIP3    H110827   5.436   1.983   0.296
 3607TIP3    H210828   5.508   2.036   0.418
 3608TIP3   OH210829   2.678   4.695   4.120
 3608TIP3    H110830   2.665   4.685   4.026
 3608TIP3    H210831   2.590   4.689   4.157
 3609TIP3   OH210832   2.601   4.264   1.319
 3609TIP3    H110833   2.544   4.213   1.377
 3609TIP3    H210834   2.568   4.354   1.326
 3610TIP3   OH210835   6.067   3.430   0.079
 3610TIP3    H110836   5.985   3.479   0.087
 3610TIP3    H210837   6.084   3.428  -0.016
 3611TIP3   OH210838   6.087   4.006   0.110
 3611TIP3    H110839   6.113   4.002   0.018
 3611TIP3    H210840   6.143   4.074   0.148
 3612TIP3   OH210841   0.941   0.959   4.770
 3612TIP3    H110842   0.965   0.894   4.836
 3612TIP3    H210843   0.972   0.921   4.687
 3613TIP3   OH210844   5.282   4.958   4.583
 3613TIP3    H110845   5.289   5.051   4.563
 3613TIP3    H210846   5.277   4.954   4.679
 3614TIP3   OH210847   0.822   2.961   0.198
 3614TIP3    H110848   0.860   2.930   0.116
 3614TIP3    H210849   0.775   2.886   0.233
 3615TIP3   OH210850   4.782   4.179   4.265
 3615TIP3    H110851   4.705   4.214   4.219
 3615TIP3    H210852   4.838   4.256   4.280
 3616TIP3   OH210853   1.772   5.332   4.781
 3616TIP3    H110854   1.733   5.244   4.790
 3616TIP3    H210855   1.864   5.315   4.759
 3617TIP3   OH210856   1.067   5.740   0.397
 3617TIP3    H110857   1.031   5.819   0.356
 3617TIP3    H210858   1.042   5.669   0.338
 3618TIP3   OH210859   4.741   4.210   4.739
 3618TIP3    H110860   4.758   4.274   4.807
 3618TIP3    H210861   4.700   4.137   4.785
 3619TIP3   OH210862   3.002   2.651   1.649
 3619TIP3    H110863   3.004   2.681   1.559
 3619TIP3    H210864   2.931   2.587   1.652
 3620TIP3   OH210865   2.106   0.858   0.865
 3620TIP3    H110866   2.099   0.778   0.814
 3620TIP3    H210867   2.114   0.829   0.955
 3621TIP3   OH210868   0.248   5.662   0.734
 3621TIP3    H110869   0.260   5.656   0.828
 3621TIP3    H210870   0.337   5.656   0.698
 3622TIP3   OH210871   5.723   5.267   0.848
 3622TIP3    H110872   5.638   5.273   0.803
 3622TIP3    H210873   5.723   5.180   0.888
 3623TIP3   OH210874   0.157   1.478   3.743
 3623TIP3    H110875   0.169   1.439   3.656
 3623TIP3    H210876   0.158   1.572   3.727
 3624TIP3   OH210877   4.435   2.096   1.006
 3624TIP3    H110878   4.502   2.077   1.072
 3624TIP3    H210879   4.459   2.182   0.971
 3625TIP3   OH210880   0.377   4.259   0.604
 3625TIP3    H110881   0.290   4.230   0.632
 3625TIP3    H210882   0.360   4.307   0.522
 3626TIP3   OH210883   0.995   2.169   0.651
 3626TIP3    H110884   0.987   2.150   0.745
 3626TIP3    H210885   0.908   2.153   0.616
 3627TIP3   OH210886   5.302   4.024   3.810
 3627TIP3    H110887   5.233   3.958   3.821
 3627TIP3    H210888   5.293   4.053   3.719
 3628TIP3   OH210889   5.553   1.000   2.803
 3628TIP3    H110890   5.497   0.958   2.869
 3628TIP3    H210891   5.629   0.943   2.796
 3629TIP3   OH210892   4.163   5.563   3.753
 3629TIP3    H110893   4.244   5.567   3.703
 3629TIP3    H210894   4.118   5.485   3.721
 3630TIP3   OH210895   0.825   1.501   4.255
 3630TIP3    H110896   0.894   1.477   4.317
 3630TIP3    H210897   0.800   1.419   4.213
 3631TIP3   OH210898   1.503   3.306   2.610
 3631TIP3    H110899   1.510   3.234   2.547
 3631TIP3    H210900   1.528   3.384   2.560
 3632TIP3   OH210901   5.021   1.308   4.829
 3632TIP3    H110902   4.934   1.280   4.857
 3632TIP3    H210903   5.022   1.293   4.734
 3633TIP3   OH210904   6.089   3.509   3.904
 3633TIP3    H110905   6.009   3.562   3.905
 3633TIP3    H210906   6.144   3.550   3.836
 3634TIP3   OH210907   5.419   2.157   4.455
 3634TIP3    H110908   5.405   2.204   4.372
 3634TIP3    H210909   5.336   2.167   4.502
 3635TIP3   OH210910   2.131   4.814   2.677
 3635TIP3    H110911   2.193   4.868   2.726
 3635TIP3    H210912   2.185   4.745   2.638
 3636TIP3   OH210913   0.935   5.809   0.706
 3636TIP3    H110914   1.018   5.852   0.726
 3636TIP3    H210915   0.954   5.715   0.712
 3637TIP3   OH210916   2.028   1.097   4.759
 3637TIP3    H110917   2.024   1.134   4.847
 3637TIP3    H210918   1.943   1.117   4.720
 3638TIP3   OH210919   1.196   3.427   2.420
 3638TIP3    H110920   1.283   3.409   2.455
 3638TIP3    H210921   1.171   3.347   2.375
 3639TIP3   OH210922   3.184   1.224   4.766
 3639TIP3    H110923   3.260   1.263   4.810
 3639TIP3    H210924   3.219   1.193   4.682
 3640TIP3   OH210925   4.940   0.671   4.168
 3640TIP3    H110926   4.902   0.590   4.133
 3640TIP3    H210927   4.981   0.712   4.092
 3641TIP3   OH210928   2.559   5.697   4.848
 3641TIP3    H110929   2.496   5.763   4.818
 3641TIP3    H210930   2.519   5.613   4.825
 3642TIP3   OH210931   4.606   4.387   3.336
 3642TIP3    H110932   4.547   4.455   3.368
 3642TIP3    H210933   4.693   4.415   3.364
 3643TIP3   OH210934   3.624   5.838   1.560
 3643TIP3    H110935   3.672   5.909   1.519
 3643TIP3    H210936   3.549   5.823   1.502
 3644TIP3   OH210937   1.255   5.789   3.179
 3644TIP3    H110938   1.246   5.883   3.163
 3644TIP3    H210939   1.263   5.751   3.092
 3645TIP3   OH210940   3.562   2.036   0.549
 3645TIP3    H110941   3.634   2.095   0.571
 3645TIP3    H210942   3.599   1.977   0.483
 3646TIP3   OH210943   2.595   2.429   2.523
 3646TIP3    H110944   2.560   2.510   2.560
 3646TIP3    H210945   2.690   2.435   2.536
 3647TIP3   OH210946   5.794   0.859   2.454
 3647TIP3    H110947   5.798   0.954   2.441
 3647TIP3    H210948   5.701   0.842   2.473
 3648TIP3   OH210949   3.911   4.379   0.050
 3648TIP3    H110950   3.937   4.433   0.125
 3648TIP3    H210951   3.816   4.377   0.054
 3649TIP3   OH210952   1.229   1.713   1.239
 3649TIP3    H110953   1.178   1.673   1.168
 3649TIP3    H210954   1.307   1.748   1.195
 3650TIP3   OH210955   2.256   2.181   1.244
 3650TIP3    H110956   2.196   2.123   1.290
 3650TIP3    H210957   2.207   2.263   1.236
 3651TIP3   OH210958   3.017   1.811   0.544
 3651TIP3    H110959   3.046   1.838   0.631
 3651TIP3    H210960   3.096   1.776   0.502
 3652TIP3   OH210961   0.740   0.637   4.485
 3652TIP3    H110962   0.754   0.686   4.405
 3652TIP3    H210963   0.723   0.703   4.552
 3653TIP3   OH210964   3.464   2.586   4.772
 3653TIP3    H110965   3.495   2.594   4.862
 3653TIP3    H210966   3.486   2.496   4.748
 3654TIP3   OH210967   4.186   4.845   4.198
 3654TIP3    H110968   4.211   4.860   4.289
 3654TIP3    H210969   4.214   4.924   4.152
 3655TIP3   OH210970   4.508   4.644   3.891
 3655TIP3    H110971   4.495   4.554   3.858
 3655TIP3    H210972   4.480   4.700   3.819
 3656TIP3   OH210973   5.405   4.289   4.923
 3656TIP3    H110974   5.347   4.357   4.957
 3656TIP3    H210975   5.441   4.247   5.000
 3657TIP3   OH210976   5.695   2.053   4.398
 3657TIP3    H110977   5.616   2.000   4.412
 3657TIP3    H210978   5.761   1.990   4.368
 3658TIP3   OH210979   1.229   2.417   2.196
 3658TIP3    H110980   1.235   2.368   2.114
 3658TIP3    H210981   1.257   2.506   2.174
 3659TIP3   OH210982   0.849   5.060   1.067
 3659TIP3    H110983   0.789   4.987   1.055
 3659TIP3    H210984   0.887   5.074   0.980
 3660TIP3   OH210985   1.803   0.807   1.917
 3660TIP3    H110986   1.888   0.836   1.950
 3660TIP3    H210987   1.740   0.866   1.959
 3661TIP3   OH210988   4.956   3.296   3.926
 3661TIP3    H110989   5.048   3.305   3.950
 3661TIP3    H210990   4.957   3.260   3.838
 3662TIP3   OH210991   3.865   4.799   4.805
 3662TIP3    H110992   3.830   4.761   4.725
 3662TIP3    H210993   3.880   4.724   4.863
 3663TIP3   OH210994   3.354   0.206   4.252
 3663TIP3    H110995   3.366   0.301   4.254
 3663TIP3    H210996   3.441   0.171   4.236
 3664TIP3   OH210997   4.327   1.308   4.681
 3664TIP3    H110998   4.305   1.280   4.592
 3664TIP3    H210999   4.423   1.299   4.685
 3665TIP3   OH211000   5.694   3.662   0.900
 3665TIP3    H111001   5.779   3.630   0.869
 3665TIP3    H211002   5.671   3.732   0.839
 3666TIP3   OH211003   5.835   0.930   3.153
 3666TIP3    H111004   5.802   1.008   3.197
 3666TIP3    H211005   5.765   0.866   3.162
 3667TIP3   OH211006   2.993   1.069   1.799
 3667TIP3    H111007   2.906   1.034   1.817
 3667TIP3    H211008   3.033   1.080   1.885
 3668TIP3   OH211009   1.040   1.832   0.210
 3668TIP3    H111010   1.104   1.896   0.242
 3668TIP3    H211011   1.079   1.796   0.130
 3669TIP3   OH211012   5.098   3.750   0.658
 3669TIP3    H111013   5.059   3.834   0.682
 3669TIP3    H211014   5.063   3.732   0.571
 3670TIP3   OH211015   1.809   2.192   0.070
 3670TIP3    H111016   1.793   2.195  -0.024
 3670TIP3    H211017   1.866   2.268   0.087
 3671TIP3   OH211018   3.140   5.560   1.950
 3671TIP3    H111019   3.228   5.529   1.967
 3671TIP3    H211020   3.099   5.491   1.899
 3672TIP3   OH211021   2.248   3.375   1.920
 3672TIP3    H111022   2.233   3.284   1.897
 3672TIP3    H211023   2.282   3.415   1.840
 3673TIP3   OH211024   3.474   1.737   2.211
 3673TIP3    H111025   3.462   1.781   2.295
 3673TIP3    H211026   3.462   1.806   2.146
 3674TIP3   OH211027   5.206   1.325   1.939
 3674TIP3    H111028   5.219   1.383   1.865
 3674TIP3    H211029   5.293   1.318   1.980
 3675TIP3   OH211030   3.381   0.630   4.700
 3675TIP3    H111031   3.458   0.678   4.669
 3675TIP3    H211032   3.324   0.625   4.623
 3676TIP3   OH211033   2.454   3.636   3.555
 3676TIP3    H111034   2.518   3.583   3.506
 3676TIP3    H211035   2.499   3.659   3.636
 3677TIP3   OH211036   3.866   4.786   3.308
 3677TIP3    H111037   3.851   4.872   3.269
 3677TIP3    H211038   3.802   4.729   3.267
 3678TIP3   OH211039   1.024   4.852   0.201
 3678TIP3    H111040   0.963   4.857   0.274
 3678TIP3    H211041   0.969   4.832   0.125
 3679TIP3   OH211042   3.387   1.587   3.501
 3679TIP3    H111043   3.301   1.628   3.493
 3679TIP3    H211044   3.430   1.636   3.572
 3680TIP3   OH211045   2.580   5.480   1.314
 3680TIP3    H111046   2.487   5.502   1.307
 3680TIP3    H211047   2.625   5.560   1.286
 3681TIP3   OH211048   1.510   3.659   0.591
 3681TIP3    H111049   1.596   3.700   0.585
 3681TIP3    H211050   1.493   3.625   0.503
 3682TIP3   OH211051   4.513   2.378   1.636
 3682TIP3    H111052   4.596   2.343   1.668
 3682TIP3    H211053   4.535   2.422   1.554
 3683TIP3   OH211054   3.472   5.602   0.809
 3683TIP3    H111055   3.404   5.632   0.749
 3683TIP3    H211056   3.485   5.676   0.870
 3684TIP3   OH211057   5.079   2.815   4.814
 3684TIP3    H111058   5.085   2.842   4.723
 3684TIP3    H211059   4.994   2.771   4.820
 3685TIP3   OH211060   5.403   5.619   1.738
 3685TIP3    H111061   5.352   5.547   1.702
 3685TIP3    H211062   5.464   5.642   1.667
 3686TIP3   OH211063   6.089   3.541   4.289
 3686TIP3    H111064   6.027   3.485   4.242
 3686TIP3    H211065   6.123   3.485   4.359
 3687TIP3   OH211066   1.763   5.380   2.209
 3687TIP3    H111067   1.854   5.353   2.220
 3687TIP3    H211068   1.730   5.391   2.298
 3688TIP3   OH211069   0.302   1.754   3.687
 3688TIP3    H111070   0.264   1.785   3.604
 3688TIP3    H211071   0.262   1.810   3.754
 3689TIP3   OH211072   6.224   2.564   0.186
 3689TIP3    H111073   6.204   2.476   0.218
 3689TIP3    H211074   6.311   2.584   0.220
 3690TIP3   OH211075   1.854   3.114   2.561
 3690TIP3    H111076   1.843   3.168   2.482
 3690TIP3    H211077   1.815   3.030   2.538
 3691TIP3   OH211078   2.719   1.994   1.279
 3691TIP3    H111079   2.712   1.992   1.374
 3691TIP3    H211080   2.780   1.923   1.257
 3692TIP3   OH211081   4.824   5.629   2.515
 3692TIP3    H111082   4.908   5.663   2.484
 3692TIP3    H211083   4.812   5.669   2.601
 3693TIP3   OH211084   3.022   5.596   2.206
 3693TIP3    H111085   3.077   5.523   2.235
 3693TIP3    H211086   3.050   5.613   2.117
 3694TIP3   OH211087   4.770   2.118   0.077
 3694TIP3    H111088   4.730   2.161   0.153
 3694TIP3    H211089   4.753   2.178   0.004
 3695TIP3   OH211090   0.163   2.832   3.614
 3695TIP3    H111091   0.158   2.924   3.592
 3695TIP3    H211092   0.250   2.805   3.585
 3696TIP3   OH211093   4.448   3.713   0.323
 3696TIP3    H111094   4.464   3.673   0.408
 3696TIP3    H211095   4.526   3.693   0.272
 3697TIP3   OH211096   5.171   2.553   3.622
 3697TIP3    H111097   5.171   2.505   3.540
 3697TIP3    H211098   5.260   2.586   3.631
 3698TIP3   OH211099   3.778   0.304   2.614
 3698TIP3    H111100   3.773   0.209   2.621
 3698TIP3    H211101   3.813   0.320   2.526
 3699TIP3   OH211102   3.581   0.875   0.556
 3699TIP3    H111103   3.597   0.951   0.611
 3699TIP3    H211104   3.642   0.809   0.588
 3700TIP3   OH211105   0.294   4.893   4.967
 3700TIP3    H111106   0.291   4.798   4.960
 3700TIP3    H211107   0.278   4.924   4.878
 3701TIP3   OH211108   1.862   0.639   3.634
 3701TIP3    H111109   1.934   0.701   3.626
 3701TIP3    H211110   1.817   0.666   3.714
 3702TIP3   OH211111   0.029   5.000   1.601
 3702TIP3    H111112  -0.055   5.044   1.585
 3702TIP3    H211113   0.028   4.983   1.696
 3703TIP3   OH211114   4.684   0.126   1.504
 3703TIP3    H111115   4.589   0.127   1.506
 3703TIP3    H211116   4.706   0.129   1.411
 3704TIP3   OH211117   4.034   3.737   2.245
 3704TIP3    H111118   4.104   3.720   2.308
 3704TIP3    H211119   4.027   3.655   2.195
 3705TIP3   OH211120   0.101   1.082   3.670
 3705TIP3    H111121   0.070   1.078   3.760
 3705TIP3    H211122   0.196   1.097   3.678
 3706TIP3   OH211123   5.032   3.970   1.880
 3706TIP3    H111124   4.988   4.031   1.940
 3706TIP3    H211125   5.125   3.986   1.894
 3707TIP3   OH211126   1.702   4.129   0.325
 3707TIP3    H111127   1.743   4.210   0.356
 3707TIP3    H211128   1.608   4.147   0.330
 3708TIP3   OH211129   5.323   5.422   0.226
 3708TIP3    H111130   5.231   5.439   0.250
 3708TIP3    H211131   5.370   5.422   0.309
 3709TIP3   OH211132   6.276   1.815   3.974
 3709TIP3    H111133   6.235   1.750   3.918
 3709TIP3    H211134   6.340   1.859   3.918
 3710TIP3   OH211135   3.848   4.901   3.561
 3710TIP3    H111136   3.853   4.875   3.469
 3710TIP3    H211137   3.765   4.866   3.592
 3711TIP3   OH211138   4.407   5.493   4.326
 3711TIP3    H111139   4.431   5.446   4.406
 3711TIP3    H211140   4.321   5.457   4.302
 3712TIP3   OH211141   4.100   4.112   2.825
 3712TIP3    H111142   4.143   4.145   2.905
 3712TIP3    H211143   4.069   4.191   2.781
 3713TIP3   OH211144   2.038   5.075   1.033
 3713TIP3    H111145   2.124   5.046   1.066
 3713TIP3    H211146   2.057   5.110   0.946
 3714TIP3   OH211147   4.534   4.432   2.542
 3714TIP3    H111148   4.523   4.521   2.577
 3714TIP3    H211149   4.498   4.436   2.454
 3715TIP3   OH211150   6.148   4.642   4.259
 3715TIP3    H111151   6.209   4.634   4.187
 3715TIP3    H211152   6.127   4.735   4.264
 3716TIP3   OH211153   6.100   4.344   0.412
 3716TIP3    H111154   6.147   4.396   0.478
 3716TIP3    H211155   6.151   4.263   0.404
 3717TIP3   OH211156   2.427   0.889   0.547
 3717TIP3    H111157   2.376   0.810   0.529
 3717TIP3    H211158   2.487   0.896   0.473
 3718TIP3   OH211159   3.169   5.122   5.107
 3718TIP3    H111160   3.136   5.033   5.097
 3718TIP3    H211161   3.181   5.154   5.018
 3719TIP3   OH211162   0.192   4.574   0.126
 3719TIP3    H111163   0.221   4.546   0.039
 3719TIP3    H211164   0.242   4.519   0.186
 3720TIP3   OH211165   6.193   0.181   4.581
 3720TIP3    H111166   6.239   0.162   4.662
 3720TIP3    H211167   6.223   0.115   4.519
 3721TIP3   OH211168   6.068   5.798   3.722
 3721TIP3    H111169   6.015   5.728   3.683
 3721TIP3    H211170   6.151   5.755   3.744
 3722TIP3   OH211171   2.411   5.098   1.552
 3722TIP3    H111172   2.441   5.013   1.518
 3722TIP3    H211173   2.333   5.118   1.501
 3723TIP3   OH211174   6.350   2.105   2.992
 3723TIP3    H111175   6.367   2.143   3.078
 3723TIP3    H211176   6.306   2.175   2.943
 3724TIP3   OH211177   0.653   0.878   0.091
 3724TIP3    H111178   0.684   0.803   0.040
 3724TIP3    H211179   0.728   0.937   0.094
 3725TIP3   OH211180   5.278   1.577   0.622
 3725TIP3    H111181   5.310   1.549   0.708
 3725TIP3    H211182   5.354   1.618   0.581
 3726TIP3   OH211183   0.819   0.731   0.940
 3726TIP3    H111184   0.868   0.661   0.898
 3726TIP3    H211185   0.747   0.751   0.880
 3727TIP3   OH211186   4.557   3.231   4.361
 3727TIP3    H111187   4.597   3.190   4.284
 3727TIP3    H211188   4.548   3.323   4.337
 3728TIP3   OH211189   5.562   0.897   2.100
 3728TIP3    H111190   5.523   0.810   2.091
 3728TIP3    H211191   5.655   0.880   2.114
 3729TIP3   OH211192   3.461   1.638   3.108
 3729TIP3    H111193   3.414   1.629   3.025
 3729TIP3    H211194   3.492   1.728   3.109
 3730TIP3   OH211195   1.881   5.258   4.134
 3730TIP3    H111196   1.853   5.331   4.080
 3730TIP3    H211197   1.800   5.215   4.161
 3731TIP3   OH211198   2.407   4.823   4.421
 3731TIP3    H111199   2.318   4.819   4.457
 3731TIP3    H211200   2.404   4.769   4.342
 3732TIP3   OH211201   3.404   4.610   4.210
 3732TIP3    H111202   3.425   4.675   4.142
 3732TIP3    H211203   3.342   4.551   4.168
 3733TIP3   OH211204   3.830   2.950   2.376
 3733TIP3    H111205   3.900   2.885   2.385
 3733TIP3    H211206   3.840   2.984   2.287
 3734TIP3   OH211207   4.441   4.362   1.627
 3734TIP3    H111208   4.535   4.376   1.621
 3734TIP3    H211209   4.427   4.335   1.718
 3735TIP3   OH211210   2.466   3.000   2.492
 3735TIP3    H111211   2.451   3.094   2.504
 3735TIP3    H211212   2.558   2.987   2.516
 3736TIP3   OH211213   5.476   3.681   2.108
 3736TIP3    H111214   5.456   3.612   2.171
 3736TIP3    H211215   5.404   3.676   2.045
 3737TIP3   OH211216   4.541   1.748   0.196
 3737TIP3    H111217   4.615   1.758   0.136
 3737TIP3    H211218   4.578   1.705   0.273
 3738TIP3   OH211219   0.760   0.153   1.434
 3738TIP3    H111220   0.804   0.082   1.387
 3738TIP3    H211221   0.812   0.164   1.514
 3739TIP3   OH211222   5.189   1.805   3.682
 3739TIP3    H111223   5.213   1.713   3.667
 3739TIP3    H211224   5.262   1.855   3.647
 3740TIP3   OH211225   3.335   1.405   4.197
 3740TIP3    H111226   3.256   1.355   4.180
 3740TIP3    H211227   3.346   1.461   4.120
 3741TIP3   OH211228   4.439   4.462   3.528
 3741TIP3    H111229   4.449   4.557   3.520
 3741TIP3    H211230   4.345   4.447   3.522
 3742TIP3   OH211231   3.351   2.128   2.253
 3742TIP3    H111232   3.337   2.220   2.228
 3742TIP3    H211233   3.442   2.111   2.227
 3743TIP3   OH211234   5.982   1.582   2.643
 3743TIP3    H111235   5.892   1.603   2.619
 3743TIP3    H211236   5.975   1.506   2.701
 3744TIP3   OH211237   0.069   2.604   3.797
 3744TIP3    H111238   0.130   2.677   3.782
 3744TIP3    H211239   0.119   2.526   3.773
 3745TIP3   OH211240   4.980   2.780   2.347
 3745TIP3    H111241   4.909   2.781   2.283
 3745TIP3    H211242   4.936   2.791   2.432
 3746TIP3   OH211243   3.493   1.760   5.160
 3746TIP3    H111244   3.588   1.752   5.159
 3746TIP3    H211245   3.471   1.794   5.074
 3747TIP3   OH211246   2.167   3.091   2.964
 3747TIP3    H111247   2.225   3.136   2.901
 3747TIP3    H211248   2.152   3.156   3.033
 3748TIP3   OH211249   6.011   1.270   3.168
 3748TIP3    H111250   5.987   1.203   3.231
 3748TIP3    H211251   5.943   1.266   3.100
 3749TIP3   OH211252   4.706   4.315   5.116
 3749TIP3    H111253   4.702   4.223   5.140
 3749TIP3    H211254   4.615   4.345   5.120
 3750TIP3   OH211255   3.827   1.914   0.805
 3750TIP3    H111256   3.808   1.829   0.844
 3750TIP3    H211257   3.801   1.978   0.871
 3751TIP3   OH211258   0.447   4.187   1.284
 3751TIP3    H111259   0.367   4.155   1.324
 3751TIP3    H211260   0.421   4.217   1.197
 3752TIP3   OH211261   0.984   4.713   2.692
 3752TIP3    H111262   0.943   4.683   2.773
 3752TIP3    H211263   1.067   4.752   2.719
 3753TIP3   OH211264   4.010   3.178   4.563
 3753TIP3    H111265   4.035   3.172   4.471
 3753TIP3    H211266   4.059   3.253   4.596
 3754TIP3   OH211267   3.063   3.952   2.696
 3754TIP3    H111268   3.053   3.983   2.786
 3754TIP3    H211269   3.129   4.010   2.657
 3755TIP3   OH211270   4.306   1.837   4.090
 3755TIP3    H111271   4.383   1.894   4.096
 3755TIP3    H211272   4.247   1.882   4.029
 3756TIP3   OH211273   0.955   4.755   1.824
 3756TIP3    H111274   1.044   4.732   1.852
 3756TIP3    H211275   0.967   4.803   1.742
 3757TIP3   OH211276   5.047   3.877   1.014
 3757TIP3    H111277   4.967   3.824   1.009
 3757TIP3    H211278   5.113   3.816   1.048
 3758TIP3   OH211279   4.461   4.632   1.486
 3758TIP3    H111280   4.466   4.727   1.473
 3758TIP3    H211281   4.370   4.616   1.512
 3759TIP3   OH211282   3.908   0.049   4.734
 3759TIP3    H111283   3.983  -0.010   4.746
 3759TIP3    H211284   3.840  -0.006   4.696
 3760TIP3   OH211285   0.369   1.378   3.034
 3760TIP3    H111286   0.447   1.426   3.008
 3760TIP3    H211287   0.333   1.429   3.107
 3761TIP3   OH211288   5.973   4.760   2.462
 3761TIP3    H111289   5.918   4.714   2.398
 3761TIP3    H211290   6.063   4.738   2.437
 3762TIP3   OH211291   5.261   3.207   0.780
 3762TIP3    H111292   5.192   3.156   0.740
 3762TIP3    H211293   5.332   3.144   0.795
 3763TIP3   OH211294   5.645   1.681   3.696
 3763TIP3    H111295   5.733   1.649   3.714
 3763TIP3    H211296   5.611   1.710   3.781
 3764TIP3   OH211297   4.256   3.950   0.422
 3764TIP3    H111298   4.336   3.994   0.393
 3764TIP3    H211299   4.227   3.900   0.346
 3765TIP3   OH211300   5.831   5.935   2.067
 3765TIP3    H111301   5.765   5.959   2.131
 3765TIP3    H211302   5.821   5.999   1.996
 3766TIP3   OH211303   4.002   3.853   5.191
 3766TIP3    H111304   3.959   3.939   5.188
 3766TIP3    H211305   3.945   3.796   5.139
 3767TIP3   OH211306   3.396   0.180   1.908
 3767TIP3    H111307   3.315   0.228   1.924
 3767TIP3    H211308   3.395   0.109   1.973
 3768TIP3   OH211309   2.707   1.888   2.284
 3768TIP3    H111310   2.723   1.842   2.366
 3768TIP3    H211311   2.614   1.872   2.265
 3769TIP3   OH211312   2.532   3.306   5.073
 3769TIP3    H111313   2.464   3.343   5.017
 3769TIP3    H211314   2.612   3.352   5.048
 3770TIP3   OH211315   1.116   3.253   1.821
 3770TIP3    H111316   1.081   3.314   1.756
 3770TIP3    H211317   1.210   3.249   1.802
 3771TIP3   OH211318   4.854   5.450   2.975
 3771TIP3    H111319   4.891   5.439   3.063
 3771TIP3    H211320   4.792   5.523   2.984
 3772TIP3   OH211321   1.698   4.394   3.225
 3772TIP3    H111322   1.777   4.343   3.207
 3772TIP3    H211323   1.641   4.380   3.149
 3773TIP3   OH211324   4.973   3.069   5.076
 3773TIP3    H111325   4.894   3.039   5.031
 3773TIP3    H211326   4.958   3.048   5.168
 3774TIP3   OH211327   1.515   2.678   1.437
 3774TIP3    H111328   1.509   2.621   1.360
 3774TIP3    H211329   1.595   2.728   1.423
 3775TIP3   OH211330   2.500   1.361   0.537
 3775TIP3    H111331   2.467   1.278   0.504
 3775TIP3    H211332   2.535   1.406   0.460
 3776TIP3   OH211333   3.797   2.492   2.671
 3776TIP3    H111334   3.867   2.522   2.612
 3776TIP3    H211335   3.838   2.491   2.757
 3777TIP3   OH211336   3.448   2.802   5.021
 3777TIP3    H111337   3.414   2.810   5.110
 3777TIP3    H211338   3.506   2.726   5.026
 3778TIP3   OH211339   4.002   2.352   2.883
 3778TIP3    H111340   4.057   2.292   2.832
 3778TIP3    H211341   3.969   2.300   2.955
 3779TIP3   OH211342   1.990   4.377   3.505
 3779TIP3    H111343   1.920   4.426   3.549
 3779TIP3    H211344   1.959   4.367   3.415
 3780TIP3   OH211345   4.935   5.025   4.294
 3780TIP3    H111346   4.987   4.980   4.360
 3780TIP3    H211347   4.860   4.968   4.278
 3781TIP3   OH211348   1.184   2.801   3.117
 3781TIP3    H111349   1.252   2.863   3.091
 3781TIP3    H211350   1.223   2.751   3.189
 3782TIP3   OH211351   5.683   1.226   2.724
 3782TIP3    H111352   5.622   1.259   2.659
 3782TIP3    H211353   5.652   1.137   2.743
 3783TIP3   OH211354   3.753   0.614   1.528
 3783TIP3    H111355   3.773   0.621   1.621
 3783TIP3    H211356   3.837   0.594   1.487
 3784TIP3   OH211357   0.570   4.608   4.346
 3784TIP3    H111358   0.558   4.658   4.266
 3784TIP3    H211359   0.591   4.673   4.413
 3785TIP3   OH211360   3.024   4.958   2.431
 3785TIP3    H111361   2.946   4.917   2.393
 3785TIP3    H211362   3.009   4.954   2.525
 3786TIP3   OH211363   1.364   0.154   3.702
 3786TIP3    H111364   1.397   0.066   3.683
 3786TIP3    H211365   1.324   0.182   3.620
 3787TIP3   OH211366   0.255   2.385   0.711
 3787TIP3    H111367   0.217   2.472   0.694
 3787TIP3    H211368   0.181   2.325   0.702
 3788TIP3   OH211369   1.745   4.099   1.319
 3788TIP3    H111370   1.675   4.050   1.277
 3788TIP3    H211371   1.819   4.090   1.259
 3789TIP3   OH211372   3.658   1.832   2.472
 3789TIP3    H111373   3.751   1.847   2.457
 3789TIP3    H211374   3.642   1.743   2.441
 3790TIP3   OH211375   1.577   1.983   4.239
 3790TIP3    H111376   1.628   1.913   4.280
 3790TIP3    H211377   1.631   2.014   4.167
 3791TIP3   OH211378   0.557   2.704   4.629
 3791TIP3    H111379   0.650   2.682   4.622
 3791TIP3    H211380   0.512   2.634   4.581
 3792TIP3   OH211381   3.039   4.946   2.761
 3792TIP3    H111382   3.087   4.986   2.834
 3792TIP3    H211383   3.009   5.021   2.709
 3793TIP3   OH211384   3.542   5.573   4.177
 3793TIP3    H111385   3.562   5.546   4.088
 3793TIP3    H211386   3.618   5.547   4.229
 3794TIP3   OH211387   3.767   5.803   1.114
 3794TIP3    H111388   3.718   5.788   1.195
 3794TIP3    H211389   3.823   5.726   1.106
 3795TIP3   OH211390   3.091   0.853   0.141
 3795TIP3    H111391   3.125   0.779   0.091
 3795TIP3    H211392   3.163   0.880   0.198
 3796TIP3   OH211393   4.688   5.338   0.115
 3796TIP3    H111394   4.661   5.417   0.162
 3796TIP3    H211395   4.655   5.266   0.169
 3797TIP3   OH211396   1.447   4.662   4.015
 3797TIP3    H111397   1.383   4.596   3.990
 3797TIP3    H211398   1.413   4.700   4.095
 3798TIP3   OH211399   1.817   3.503   1.698
 3798TIP3    H111400   1.785   3.414   1.709
 3798TIP3    H211401   1.741   3.558   1.712
 3799TIP3   OH211402   3.879   3.628   3.230
 3799TIP3    H111403   3.811   3.590   3.175
 3799TIP3    H211404   3.892   3.716   3.194
 3800TIP3   OH211405   0.741   5.358   1.049
 3800TIP3    H111406   0.769   5.268   1.064
 3800TIP3    H211407   0.745   5.399   1.136
 3801TIP3   OH211408   0.251   3.563   4.760
 3801TIP3    H111409   0.263   3.561   4.665
 3801TIP3    H211410   0.157   3.574   4.773
 3802TIP3   OH211411   0.585   3.436   1.483
 3802TIP3    H111412   0.505   3.449   1.534
 3802TIP3    H211413   0.635   3.517   1.497
 3803TIP3   OH211414   2.435   0.836   1.949
 3803TIP3    H111415   2.420   0.927   1.973
 3803TIP3    H211416   2.398   0.828   1.861
 3804TIP3   OH211417   4.752   5.345   3.836
 3804TIP3    H111418   4.795   5.343   3.922
 3804TIP3    H211419   4.660   5.363   3.856
 3805TIP3   OH211420   3.143   0.470   0.810
 3805TIP3    H111421   3.086   0.533   0.766
 3805TIP3    H211422   3.193   0.429   0.740
 3806TIP3   OH211423   1.119   0.416   4.191
 3806TIP3    H111424   1.145   0.453   4.275
 3806TIP3    H211425   1.201   0.383   4.153
 3807TIP3   OH211426   6.088   1.043   2.123
 3807TIP3    H111427   6.085   1.122   2.176
 3807TIP3    H211428   6.059   0.973   2.181
 3808TIP3   OH211429   2.252   2.565   5.181
 3808TIP3    H111430   2.308   2.495   5.148
 3808TIP3    H211431   2.258   2.635   5.116
 3809TIP3   OH211432   3.098   0.583   2.081
 3809TIP3    H111433   3.187   0.548   2.085
 3809TIP3    H211434   3.107   0.674   2.110
 3810TIP3   OH211435   5.136   0.865   3.550
 3810TIP3    H111436   5.197   0.938   3.542
 3810TIP3    H211437   5.184   0.799   3.600
 3811TIP3   OH211438   1.756   5.262   3.506
 3811TIP3    H111439   1.804   5.332   3.550
 3811TIP3    H211440   1.740   5.296   3.418
 3812TIP3   OH211441   2.079   0.814   3.596
 3812TIP3    H111442   2.024   0.857   3.530
 3812TIP3    H211443   2.083   0.876   3.669
 3813TIP3   OH211444   2.711   1.006   5.048
 3813TIP3    H111445   2.745   1.048   5.127
 3813TIP3    H211446   2.639   0.952   5.078
 3814TIP3   OH211447   5.896   1.803   4.067
 3814TIP3    H111448   5.950   1.724   4.056
 3814TIP3    H211449   5.946   1.873   4.026
 3815TIP3   OH211450   0.239   0.979   1.895
 3815TIP3    H111451   0.286   0.896   1.887
 3815TIP3    H211452   0.182   0.966   1.970
 3816TIP3   OH211453   3.358   2.069   3.005
 3816TIP3    H111454   3.337   2.160   2.986
 3816TIP3    H211455   3.280   2.036   3.051
 3817TIP3   OH211456   3.958   0.315   1.140
 3817TIP3    H111457   3.864   0.305   1.129
 3817TIP3    H211458   3.997   0.267   1.067
 3818TIP3   OH211459   0.603   0.502   2.157
 3818TIP3    H111460   0.614   0.424   2.211
 3818TIP3    H211461   0.571   0.569   2.218
 3819TIP3   OH211462   1.660   4.806   2.635
 3819TIP3    H111463   1.674   4.719   2.596
 3819TIP3    H211464   1.740   4.854   2.614
 3820TIP3   OH211465   4.245   0.530   1.567
 3820TIP3    H111466   4.193   0.609   1.559
 3820TIP3    H211467   4.334   0.561   1.586
 3821TIP3   OH211468   1.579   1.386   1.847
 3821TIP3    H111469   1.541   1.298   1.847
 3821TIP3    H211470   1.522   1.437   1.906
 3822TIP3   OH211471   3.991   3.431   0.782
 3822TIP3    H111472   4.030   3.462   0.700
 3822TIP3    H211473   3.914   3.487   0.795
 3823TIP3   OH211474   3.361   4.813   2.589
 3823TIP3    H111475   3.308   4.843   2.516
 3823TIP3    H211476   3.320   4.731   2.617
 3824TIP3   OH211477   2.875   3.620   1.700
 3824TIP3    H111478   2.834   3.546   1.657
 3824TIP3    H211479   2.807   3.655   1.758
 3825TIP3   OH211480   4.890   2.253   1.983
 3825TIP3    H111481   4.846   2.270   1.900
 3825TIP3    H211482   4.979   2.227   1.957
 3826TIP3   OH211483   4.669   2.688   4.412
 3826TIP3    H111484   4.641   2.778   4.430
 3826TIP3    H211485   4.676   2.684   4.316
 3827TIP3   OH211486   0.560   1.237   0.085
 3827TIP3    H111487   0.466   1.226   0.073
 3827TIP3    H211488   0.600   1.179   0.021
 3828TIP3   OH211489   1.970   1.775   4.091
 3828TIP3    H111490   2.014   1.759   4.008
 3828TIP3    H211491   1.959   1.689   4.130
 3829TIP3   OH211492   0.815   5.449   2.517
 3829TIP3    H111493   0.726   5.453   2.551
 3829TIP3    H211494   0.817   5.513   2.446
 3830TIP3   OH211495   3.139   4.147   1.299
 3830TIP3    H111496   3.185   4.177   1.378
 3830TIP3    H211497   3.050   4.179   1.310
 3831TIP3   OH211498   3.224   4.004   1.601
 3831TIP3    H111499   3.159   3.980   1.667
 3831TIP3    H211500   3.306   3.968   1.633
 3832TIP3   OH211501   5.404   0.582   2.840
 3832TIP3    H111502   5.489   0.584   2.882
 3832TIP3    H211503   5.342   0.603   2.909
 3833TIP3   OH211504   2.773   2.365   2.780
 3833TIP3    H111505   2.736   2.453   2.790
 3833TIP3    H211506   2.843   2.376   2.716
 3834TIP3   OH211507   2.950   5.536   3.595
 3834TIP3    H111508   3.030   5.583   3.620
 3834TIP3    H211509   2.965   5.446   3.625
 3835TIP3   OH211510   2.452   2.002   2.068
 3835TIP3    H111511   2.528   2.061   2.072
 3835TIP3    H211512   2.437   1.989   1.975
 3836TIP3   OH211513   2.113   4.340   4.466
 3836TIP3    H111514   2.140   4.250   4.451
 3836TIP3    H211515   2.194   4.387   4.488
 3837TIP3   OH211516   5.710   1.246   3.591
 3837TIP3    H111517   5.711   1.202   3.676
 3837TIP3    H211518   5.790   1.216   3.548
 3838TIP3   OH211519   3.877   1.684   1.506
 3838TIP3    H111520   3.933   1.627   1.559
 3838TIP3    H211521   3.928   1.699   1.426
 3839TIP3   OH211522   0.720   1.351   2.003
 3839TIP3    H111523   0.670   1.276   1.970
 3839TIP3    H211524   0.802   1.348   1.954
 3840TIP3   OH211525   4.201   2.936   1.184
 3840TIP3    H111526   4.154   2.869   1.134
 3840TIP3    H211527   4.171   3.019   1.146
 3841TIP3   OH211528   5.878   0.288   1.261
 3841TIP3    H111529   5.878   0.375   1.300
 3841TIP3    H211530   5.971   0.267   1.248
 3842TIP3   OH211531   2.474   2.676   1.707
 3842TIP3    H111532   2.433   2.700   1.624
 3842TIP3    H211533   2.445   2.586   1.723
 3843TIP3   OH211534   2.545   0.105   4.584
 3843TIP3    H111535   2.568   0.162   4.510
 3843TIP3    H211536   2.625   0.057   4.603
 3844TIP3   OH211537   1.990   5.752   1.106
 3844TIP3    H111538   1.911   5.742   1.053
 3844TIP3    H211539   1.959   5.776   1.193
 3845TIP3   OH211540   0.026   0.758   0.759
 3845TIP3    H111541   0.021   0.737   0.852
 3845TIP3    H211542   0.109   0.805   0.749
 3846TIP3   OH211543   1.739   3.088   3.557
 3846TIP3    H111544   1.813   3.082   3.497
 3846TIP3    H211545   1.768   3.041   3.635
 3847TIP3   OH211546   1.087   2.332   2.862
 3847TIP3    H111547   1.160   2.275   2.838
 3847TIP3    H211548   1.098   2.410   2.807
 3848TIP3   OH211549   1.933   3.472   3.863
 3848TIP3    H111550   1.908   3.473   3.955
 3848TIP3    H211551   2.026   3.495   3.863
 3849TIP3   OH211552   2.280   5.220   4.337
 3849TIP3    H111553   2.365   5.263   4.325
 3849TIP3    H211554   2.216   5.292   4.330
 3850TIP3   OH211555   3.789   0.849   4.210
 3850TIP3    H111556   3.753   0.869   4.296
 3850TIP3    H211557   3.867   0.797   4.228
 3851TIP3   OH211558   0.113   0.875   4.739
 3851TIP3    H111559   0.044   0.875   4.673
 3851TIP3    H211560   0.173   0.945   4.712
 3852TIP3   OH211561   1.016   2.706   1.910
 3852TIP3    H111562   1.031   2.649   1.985
 3852TIP3    H211563   0.962   2.653   1.850
 3853TIP3   OH211564   5.180   2.620   0.134
 3853TIP3    H111565   5.197   2.550   0.197
 3853TIP3    H211566   5.163   2.575   0.052
 3854TIP3   OH211567   5.324   5.894   3.773
 3854TIP3    H111568   5.241   5.850   3.788
 3854TIP3    H211569   5.352   5.864   3.686
 3855TIP3   OH211570   2.016   5.671   2.892
 3855TIP3    H111571   1.947   5.690   2.956
 3855TIP3    H211572   2.096   5.704   2.932
 3856TIP3   OH211573   5.995   1.776   0.064
 3856TIP3    H111574   5.978   1.809   0.153
 3856TIP3    H211575   5.908   1.753   0.030
 3857TIP3   OH211576   3.522   4.902   2.296
 3857TIP3    H111577   3.466   4.827   2.315
 3857TIP3    H211578   3.569   4.877   2.215
 3858TIP3   OH211579   6.163   0.468   4.400
 3858TIP3    H111580   6.130   0.380   4.418
 3858TIP3    H211581   6.195   0.500   4.485
 3859TIP3   OH211582   4.382   3.792   2.157
 3859TIP3    H111583   4.369   3.747   2.240
 3859TIP3    H211584   4.435   3.869   2.180
 3860TIP3   OH211585   2.924   0.909   1.067
 3860TIP3    H111586   2.867   0.984   1.050
 3860TIP3    H211587   2.969   0.932   1.148
 3861TIP3   OH211588   1.911   3.784   2.411
 3861TIP3    H111589   1.829   3.780   2.459
 3861TIP3    H211590   1.952   3.699   2.425
 3862TIP3   OH211591   2.777   0.684   2.392
 3862TIP3    H111592   2.693   0.695   2.436
 3862TIP3    H211593   2.805   0.773   2.370
 3863TIP3   OH211594   3.621   2.655   4.026
 3863TIP3    H111595   3.570   2.587   4.070
 3863TIP3    H211596   3.697   2.668   4.082
 3864TIP3   OH211597   1.870   3.685   3.483
 3864TIP3    H111598   1.846   3.744   3.554
 3864TIP3    H211599   1.787   3.654   3.448
 3865TIP3   OH211600   2.632   5.665   1.602
 3865TIP3    H111601   2.654   5.604   1.672
 3865TIP3    H211602   2.539   5.683   1.613
 3866TIP3   OH211603   1.907   0.442   3.038
 3866TIP3    H111604   1.926   0.394   3.119
 3866TIP3    H211605   1.948   0.527   3.049
 3867TIP3   OH211606   1.249   2.834   1.846
 3867TIP3    H111607   1.171   2.790   1.880
 3867TIP3    H211608   1.238   2.926   1.872
 3868TIP3   OH211609   6.031   4.125   4.594
 3868TIP3    H111610   5.950   4.078   4.616
 3868TIP3    H211611   6.088   4.058   4.557
 3869TIP3   OH211612   5.760   5.031   0.976
 3869TIP3    H111613   5.679   4.999   1.016
 3869TIP3    H211614   5.820   4.957   0.979
 3870TIP3   OH211615   3.284   2.785   0.061
 3870TIP3    H111616   3.244   2.870   0.080
 3870TIP3    H211617   3.343   2.769   0.136
 3871TIP3   OH211618   1.771   3.525   2.840
 3871TIP3    H111619   1.854   3.567   2.861
 3871TIP3    H211620   1.792   3.467   2.766
 3872TIP3   OH211621   3.102   3.720   0.816
 3872TIP3    H111622   3.022   3.705   0.866
 3872TIP3    H211623   3.072   3.758   0.734
 3873TIP3   OH211624   3.786   3.295   5.051
 3873TIP3    H111625   3.802   3.295   4.957
 3873TIP3    H211626   3.863   3.252   5.089
 3874TIP3   OH211627   4.828   4.462   4.856
 3874TIP3    H111628   4.799   4.464   4.947
 3874TIP3    H211629   4.913   4.417   4.859
 3875TIP3   OH211630   5.801   3.000   4.847
 3875TIP3    H111631   5.867   3.062   4.816
 3875TIP3    H211632   5.815   2.922   4.793
 3876TIP3   OH211633   6.324   3.319   3.181
 3876TIP3    H111634   6.312   3.410   3.153
 3876TIP3    H211635   6.332   3.269   3.100
 3877TIP3   OH211636   3.981   4.311   3.649
 3877TIP3    H111637   3.973   4.398   3.688
 3877TIP3    H211638   3.913   4.308   3.582
 3878TIP3   OH211639   3.356   5.782   1.512
 3878TIP3    H111640   3.268   5.814   1.492
 3878TIP3    H211641   3.363   5.699   1.466
 3879TIP3   OH211642   1.343   5.294   0.813
 3879TIP3    H111643   1.358   5.241   0.735
 3879TIP3    H211644   1.344   5.385   0.782
 3880TIP3   OH211645   1.723   3.690   1.254
 3880TIP3    H111646   1.735   3.687   1.159
 3880TIP3    H211647   1.812   3.698   1.289
 3881TIP3   OH211648   2.824   3.446   4.373
 3881TIP3    H111649   2.893   3.505   4.401
 3881TIP3    H211650   2.850   3.360   4.407
 3882TIP3   OH211651   0.299   3.531   3.431
 3882TIP3    H111652   0.229   3.595   3.441
 3882TIP3    H211653   0.327   3.511   3.520
 3883TIP3   OH211654   1.697   2.761   1.851
 3883TIP3    H111655   1.612   2.739   1.813
 3883TIP3    H211656   1.718   2.847   1.813
 3884TIP3   OH211657   1.826   2.043   2.422
 3884TIP3    H111658   1.786   2.102   2.486
 3884TIP3    H211659   1.762   1.974   2.409
 3885TIP3   OH211660   0.000   3.607   1.097
 3885TIP3    H111661  -0.036   3.653   1.173
 3885TIP3    H211662   0.066   3.667   1.062
 3886TIP3   OH211663   0.123   1.277   4.707
 3886TIP3    H111664   0.169   1.193   4.698
 3886TIP3    H211665   0.094   1.278   4.798
 3887TIP3   OH211666   6.219   3.387   0.566
 3887TIP3    H111667   6.289   3.431   0.613
 3887TIP3    H211668   6.171   3.457   0.523
 3888TIP3   OH211669   1.170   4.266   4.517
 3888TIP3    H111670   1.183   4.361   4.513
 3888TIP3    H211671   1.199   4.242   4.605
 3889TIP3   OH211672   3.039   4.129   4.975
 3889TIP3    H111673   2.998   4.079   4.904
 3889TIP3    H211674   3.050   4.066   5.046
 3890TIP3   OH211675   5.051   3.157   0.146
 3890TIP3    H111676   5.011   3.070   0.140
 3890TIP3    H211677   5.134   3.150   0.099
 3891TIP3   OH211678   5.175   2.375   3.427
 3891TIP3    H111679   5.138   2.293   3.393
 3891TIP3    H211680   5.264   2.352   3.455
 3892TIP3   OH211681   4.968   3.774   1.702
 3892TIP3    H111682   4.961   3.720   1.781
 3892TIP3    H211683   5.019   3.850   1.729
 3893TIP3   OH211684   5.023   2.014   3.750
 3893TIP3    H111685   5.083   1.943   3.728
 3893TIP3    H211686   5.078   2.084   3.782
 3894TIP3   OH211687   5.065   3.710   4.163
 3894TIP3    H111688   5.137   3.757   4.122
 3894TIP3    H211689   5.088   3.705   4.255
 3895TIP3   OH211690   5.998   2.502   3.859
 3895TIP3    H111691   5.962   2.575   3.909
 3895TIP3    H211692   6.027   2.440   3.926
 3896TIP3   OH211693   0.654   4.760   1.610
 3896TIP3    H111694   0.724   4.790   1.552
 3896TIP3    H211695   0.642   4.667   1.587
 3897TIP3   OH211696   0.431   5.310   4.829
 3897TIP3    H111697   0.394   5.382   4.779
 3897TIP3    H211698   0.365   5.241   4.825
 3898TIP3   OH211699   0.852   3.167   3.314
 3898TIP3    H111700   0.763   3.192   3.290
 3898TIP3    H211701   0.902   3.249   3.311
 3899TIP3   OH211702   2.444   3.809   2.837
 3899TIP3    H111703   2.517   3.782   2.892
 3899TIP3    H211704   2.370   3.756   2.866
 3900TIP3   OH211705   2.869   1.243  -0.022
 3900TIP3    H111706   2.782   1.230  -0.060
 3900TIP3    H211707   2.853   1.266   0.069
 3901TIP3   OH211708   3.646   3.108   3.274
 3901TIP3    H111709   3.593   3.048   3.221
 3901TIP3    H211710   3.718   3.055   3.306
 3902TIP3   OH211711   0.428   4.276   3.530
 3902TIP3    H111712   0.412   4.227   3.449
 3902TIP3    H211713   0.349   4.262   3.582
 3903TIP3   OH211714   5.014   0.101   3.199
 3903TIP3    H111715   5.099   0.093   3.158
 3903TIP3    H211716   4.969   0.170   3.150
 3904TIP3   OH211717   3.240   4.868   3.839
 3904TIP3    H111718   3.235   4.933   3.769
 3904TIP3    H211719   3.206   4.913   3.916
 3905TIP3   OH211720   2.695   4.396   3.122
 3905TIP3    H111721   2.635   4.468   3.101
 3905TIP3    H211722   2.765   4.437   3.173
 3906TIP3   OH211723   4.487   1.216   3.204
 3906TIP3    H111724   4.429   1.261   3.142
 3906TIP3    H211725   4.543   1.285   3.239
 3907TIP3   OH211726   0.069   2.890   2.263
 3907TIP3    H111727  -0.006   2.846   2.223
 3907TIP3    H211728   0.141   2.874   2.202
 3908TIP3   OH211729   6.066   2.904   3.605
 3908TIP3    H111730   6.091   2.838   3.670
 3908TIP3    H211731   6.014   2.856   3.541
 3909TIP3   OH211732   1.068   3.012   3.731
 3909TIP3    H111733   1.009   3.024   3.656
 3909TIP3    H211734   1.150   2.981   3.692
 3910TIP3   OH211735   0.870   0.518   5.113
 3910TIP3    H111736   0.959   0.483   5.119
 3910TIP3    H211737   0.820   0.448   5.069
 3911TIP3   OH211738   5.317   1.002   4.451
 3911TIP3    H111739   5.378   1.072   4.475
 3911TIP3    H211740   5.373   0.926   4.436
 3912TIP3   OH211741   5.834   2.787   2.540
 3912TIP3    H111742   5.796   2.740   2.615
 3912TIP3    H211743   5.880   2.719   2.491
 3913TIP3   OH211744   1.420   1.594   2.607
 3913TIP3    H111745   1.420   1.506   2.644
 3913TIP3    H211746   1.499   1.635   2.641
 3914TIP3   OH211747   4.751   1.297   2.923
 3914TIP3    H111748   4.811   1.274   2.994
 3914TIP3    H211749   4.794   1.370   2.878
 3915TIP3   OH211750   6.279   2.970   3.815
 3915TIP3    H111751   6.362   2.930   3.788
 3915TIP3    H211752   6.217   2.944   3.747
 3916TIP3   OH211753   6.078   1.684   3.199
 3916TIP3    H111754   5.995   1.693   3.152
 3916TIP3    H211755   6.053   1.681   3.291
 3917TIP3   OH211756   4.343   0.064   2.879
 3917TIP3    H111757   4.349   0.119   2.957
 3917TIP3    H211758   4.252   0.073   2.851
 3918TIP3   OH211759   0.403   3.369   4.870
 3918TIP3    H111760   0.363   3.287   4.839
 3918TIP3    H211761   0.353   3.438   4.828
 3919TIP3   OH211762   2.923   0.590   1.050
 3919TIP3    H111763   3.001   0.633   1.085
 3919TIP3    H211764   2.850   0.640   1.086
 3920TIP3   OH211765   5.001   2.411   0.496
 3920TIP3    H111766   4.963   2.326   0.519
 3920TIP3    H211767   4.928   2.472   0.502
 3921TIP3   OH211768   3.371   2.889   3.491
 3921TIP3    H111769   3.351   2.977   3.461
 3921TIP3    H211770   3.386   2.899   3.585
 3922TIP3   OH211771   5.989   3.427   4.680
 3922TIP3    H111772   6.023   3.490   4.616
 3922TIP3    H211773   5.926   3.375   4.632
 3923TIP3   OH211774   5.933   1.241   4.815
 3923TIP3    H111775   5.874   1.304   4.774
 3923TIP3    H211776   5.874   1.175   4.852
 3924TIP3   OH211777   4.298   3.577   3.377
 3924TIP3    H111778   4.205   3.568   3.401
 3924TIP3    H211779   4.298   3.644   3.309
 3925TIP3   OH211780   4.310   1.187   3.710
 3925TIP3    H111781   4.247   1.124   3.745
 3925TIP3    H211782   4.395   1.146   3.726
 3926TIP3   OH211783   4.879   3.892   4.257
 3926TIP3    H111784   4.921   3.823   4.205
 3926TIP3    H211785   4.952   3.942   4.293
 3927TIP3   OH211786   3.651   0.371   3.853
 3927TIP3    H111787   3.618   0.295   3.900
 3927TIP3    H211788   3.728   0.399   3.902
 3928TIP3   OH211789   5.078   2.187   0.925
 3928TIP3    H111790   5.018   2.239   0.979
 3928TIP3    H211791   5.164   2.224   0.943
 3929TIP3   OH211792   1.609   4.398   2.123
 3929TIP3    H111793   1.571   4.343   2.191
 3929TIP3    H211794   1.632   4.336   2.053
 3930TIP3   OH211795   3.243   3.283   4.317
 3930TIP3    H111796   3.322   3.306   4.366
 3930TIP3    H211797   3.185   3.242   4.382
 3931TIP3   OH211798   4.011   4.781   0.026
 3931TIP3    H111799   3.935   4.722   0.022
 3931TIP3    H211800   4.011   4.826  -0.059
 3932TIP3   OH211801   2.332   4.240   0.599
 3932TIP3    H111802   2.350   4.209   0.687
 3932TIP3    H211803   2.357   4.168   0.542
 3933TIP3   OH211804   2.158   5.229   0.804
 3933TIP3    H111805   2.239   5.200   0.845
 3933TIP3    H211806   2.179   5.316   0.768
 3934TIP3   OH211807   4.593   2.423   1.188
 3934TIP3    H111808   4.503   2.425   1.155
 3934TIP3    H211809   4.642   2.479   1.128
 3935TIP3   OH211810   4.751   3.039   1.709
 3935TIP3    H111811   4.744   3.017   1.616
 3935TIP3    H211812   4.732   3.132   1.714
 3936TIP3   OH211813   0.634   0.436   0.147
 3936TIP3    H111814   0.561   0.491   0.174
 3936TIP3    H211815   0.621   0.353   0.193
 3937TIP3   OH211816   3.251   2.047   1.630
 3937TIP3    H111817   3.308   1.982   1.590
 3937TIP3    H211818   3.294   2.070   1.713
 3938TIP3   OH211819   3.144   1.964   2.106
 3938TIP3    H111820   3.119   2.056   2.094
 3938TIP3    H211821   3.239   1.967   2.119
 3939TIP3   OH211822   1.493   4.341   1.674
 3939TIP3    H111823   1.405   4.375   1.688
 3939TIP3    H211824   1.552   4.411   1.703
 3940TIP3   OH211825   5.355   1.086   3.183
 3940TIP3    H111826   5.345   1.141   3.106
 3940TIP3    H211827   5.319   1.138   3.255
 3941TIP3   OH211828   5.594   1.022   0.898
 3941TIP3    H111829   5.540   0.963   0.844
 3941TIP3    H211830   5.663   0.965   0.933
 3942TIP3   OH211831   3.366   4.128   1.923
 3942TIP3    H111832   3.271   4.131   1.923
 3942TIP3    H211833   3.388   4.064   1.855
 3943TIP3   OH211834   6.086   1.788   0.669
 3943TIP3    H111835   6.027   1.779   0.744
 3943TIP3    H211836   6.163   1.833   0.704
 3944TIP3   OH211837   2.396   3.635   3.268
 3944TIP3    H111838   2.358   3.625   3.355
 3944TIP3    H211839   2.352   3.569   3.215
 3945TIP3   OH211840   4.671   0.159   1.191
 3945TIP3    H111841   4.592   0.130   1.147
 3945TIP3    H211842   4.682   0.250   1.164
 3946TIP3   OH211843   3.260   1.111   3.245
 3946TIP3    H111844   3.168   1.088   3.231
 3946TIP3    H211845   3.258   1.189   3.300
 3947TIP3   OH211846   2.281   0.826   4.157
 3947TIP3    H111847   2.333   0.749   4.178
 3947TIP3    H211848   2.217   0.833   4.228
 3948TIP3   OH211849   5.905   1.172   0.387
 3948TIP3    H111850   5.914   1.118   0.308
 3948TIP3    H211851   5.891   1.261   0.354
 3949TIP3   OH211852   0.545   0.692   3.595
 3949TIP3    H111853   0.451   0.683   3.579
 3949TIP3    H211854   0.561   0.644   3.676
 3950TIP3   OH211855   3.733   2.182   2.972
 3950TIP3    H111856   3.653   2.217   3.011
 3950TIP3    H211857   3.756   2.244   2.903
 3951TIP3   OH211858   4.094   2.804   0.263
 3951TIP3    H111859   4.055   2.720   0.289
 3951TIP3    H211860   4.106   2.850   0.346
 3952TIP3   OH211861   4.891   0.754   1.531
 3952TIP3    H111862   4.924   0.688   1.592
 3952TIP3    H211863   4.964   0.770   1.471
 3953TIP3   OH211864   1.334   5.847   0.186
 3953TIP3    H111865   1.251   5.889   0.211
 3953TIP3    H211866   1.393   5.920   0.167
 3954TIP3   OH211867   4.351   3.723   3.600
 3954TIP3    H111868   4.324   3.673   3.524
 3954TIP3    H211869   4.272   3.730   3.654
 3955TIP3   OH211870   3.332   4.677   3.608
 3955TIP3    H111871   3.320   4.762   3.566
 3955TIP3    H211872   3.244   4.641   3.615
 3956TIP3   OH211873   6.135   3.446   2.567
 3956TIP3    H111874   6.201   3.407   2.624
 3956TIP3    H211875   6.065   3.380   2.564
 3957TIP3   OH211876   4.247   1.030   2.301
 3957TIP3    H111877   4.209   1.112   2.270
 3957TIP3    H211878   4.237   0.970   2.227
 3958TIP3   OH211879   3.395   0.776   3.584
 3958TIP3    H111880   3.458   0.783   3.513
 3958TIP3    H211881   3.448   0.772   3.663
 3959TIP3   OH211882   4.326   5.824   1.730
 3959TIP3    H111883   4.278   5.749   1.692
 3959TIP3    H211884   4.401   5.784   1.774
 3960TIP3   OH211885   2.545   0.601   1.073
 3960TIP3    H111886   2.596   0.653   1.011
 3960TIP3    H211887   2.606   0.581   1.144
 3961TIP3   OH211888   0.897   2.841   5.174
 3961TIP3    H111889   0.956   2.844   5.099
 3961TIP3    H211890   0.876   2.932   5.192
 3962TIP3   OH211891   2.962   5.195   4.656
 3962TIP3    H111892   2.871   5.221   4.642
 3962TIP3    H211893   2.967   5.174   4.750
 3963TIP3   OH211894   3.788   5.932   3.844
 3963TIP3    H111895   3.882   5.929   3.830
 3963TIP3    H211896   3.765   5.843   3.871
 3964TIP3   OH211897   4.815   4.059   2.094
 3964TIP3    H111898   4.901   4.086   2.125
 3964TIP3    H211899   4.777   4.009   2.167
 3965TIP3   OH211900   3.649   4.401   0.076
 3965TIP3    H111901   3.563   4.429   0.047
 3965TIP3    H211902   3.653   4.424   0.168
 3966TIP3   OH211903   5.634   3.728   0.587
 3966TIP3    H111904   5.542   3.703   0.595
 3966TIP3    H211905   5.679   3.647   0.564
 3967TIP3   OH211906   5.861   3.333   2.579
 3967TIP3    H111907   5.823   3.355   2.495
 3967TIP3    H211908   5.882   3.239   2.572
 3968TIP3   OH211909   0.978   5.440   1.260
 3968TIP3    H111910   0.962   5.519   1.208
 3968TIP3    H211911   0.897   5.426   1.308
 3969TIP3   OH211912   4.245   0.648   3.253
 3969TIP3    H111913   4.188   0.648   3.330
 3969TIP3    H211914   4.219   0.725   3.203
 3970TIP3   OH211915   3.978   2.603   4.982
 3970TIP3    H111916   4.004   2.518   5.018
 3970TIP3    H211917   3.916   2.638   5.047
 3971TIP3   OH211918   0.210   4.611   5.028
 3971TIP3    H111919   0.196   4.549   5.100
 3971TIP3    H211920   0.122   4.634   4.999
 3972TIP3   OH211921   2.315   1.312   3.020
 3972TIP3    H111922   2.245   1.318   2.955
 3972TIP3    H211923   2.396   1.323   2.970
 3973TIP3   OH211924   0.560   5.473   4.245
 3973TIP3    H111925   0.577   5.449   4.337
 3973TIP3    H211926   0.618   5.548   4.229
 3974TIP3   OH211927   3.145   2.905   4.600
 3974TIP3    H111928   3.091   2.968   4.649
 3974TIP3    H211929   3.217   2.884   4.659
 3975TIP3   OH211930   1.729   0.034   0.976
 3975TIP3    H111931   1.748   0.085   0.898
 3975TIP3    H211932   1.811  -0.013   0.994
 3976TIP3   OH211933   4.582   1.147   2.761
 3976TIP3    H111934   4.544   1.234   2.749
 3976TIP3    H211935   4.639   1.157   2.838
 3977TIP3   OH211936   0.299   0.462   1.789
 3977TIP3    H111937   0.231   0.518   1.825
 3977TIP3    H211938   0.274   0.373   1.812
 3978TIP3   OH211939   5.833   3.466   1.477
 3978TIP3    H111940   5.773   3.511   1.417
 3978TIP3    H211941   5.910   3.448   1.423
 3979TIP3   OH211942   5.175   1.296   0.093
 3979TIP3    H111943   5.213   1.209   0.083
 3979TIP3    H211944   5.121   1.308   0.014
 3980TIP3   OH211945   2.220   4.119   4.001
 3980TIP3    H111946   2.216   4.028   4.030
 3980TIP3    H211947   2.285   4.159   4.058
 3981TIP3   OH211948   6.043   2.638   4.259
 3981TIP3    H111949   5.952   2.627   4.290
 3981TIP3    H211950   6.091   2.567   4.303
 3982TIP3   OH211951   4.797   0.171   4.025
 3982TIP3    H111952   4.802   0.082   4.059
 3982TIP3    H211953   4.717   0.172   3.972
 3983TIP3   OH211954   1.422   5.560   4.623
 3983TIP3    H111955   1.481   5.518   4.686
 3983TIP3    H211956   1.340   5.511   4.630
 3984TIP3   OH211957   1.906   2.121   1.987
 3984TIP3    H111958   1.872   2.201   2.028
 3984TIP3    H211959   1.844   2.053   2.011
 3985TIP3   OH211960   4.267   2.260   0.690
 3985TIP3    H111961   4.248   2.247   0.598
 3985TIP3    H211962   4.333   2.194   0.710
 3986TIP3   OH211963   0.419   5.659   4.010
 3986TIP3    H111964   0.390   5.749   4.026
 3986TIP3    H211965   0.338   5.610   3.998
 3987TIP3   OH211966   6.073   5.467   4.447
 3987TIP3    H111967   5.993   5.449   4.497
 3987TIP3    H211968   6.113   5.540   4.494
 3988TIP3   OH211969   5.871   1.550   3.822
 3988TIP3    H111970   5.953   1.523   3.782
 3988TIP3    H211971   5.857   1.487   3.893
 3989TIP3   OH211972   0.556   4.521   0.144
 3989TIP3    H111973   0.568   4.556   0.056
 3989TIP3    H211974   0.611   4.575   0.199
 3990TIP3   OH211975   2.792   2.835   3.558
 3990TIP3    H111976   2.703   2.849   3.526
 3990TIP3    H211977   2.787   2.755   3.610
 3991TIP3   OH211978   2.304   5.471   2.829
 3991TIP3    H111979   2.344   5.550   2.792
 3991TIP3    H211980   2.340   5.465   2.917
 3992TIP3   OH211981   0.147   0.237   1.992
 3992TIP3    H111982   0.113   0.207   2.076
 3992TIP3    H211983   0.073   0.232   1.932
 3993TIP3   OH211984   0.206   4.254   2.186
 3993TIP3    H111985   0.290   4.216   2.159
 3993TIP3    H211986   0.141   4.210   2.131
 3994TIP3   OH211987   0.405   2.386   3.484
 3994TIP3    H111988   0.385   2.349   3.570
 3994TIP3    H211989   0.481   2.443   3.500
 3995TIP3   OH211990   5.162   5.375   3.554
 3995TIP3    H111991   5.205   5.306   3.504
 3995TIP3    H211992   5.075   5.339   3.574
 3996TIP3   OH211993   1.389   1.487   1.122
 3996TIP3    H111994   1.314   1.504   1.064
 3996TIP3    H211995   1.351   1.443   1.198
 3997TIP3   OH211996   0.153   5.155   1.813
 3997TIP3    H111997   0.078   5.194   1.770
 3997TIP3    H211998   0.159   5.199   1.898
 3998TIP3   OH211999   1.575   1.068   4.736
 3998TIP3    H112000   1.505   1.064   4.671
 3998TIP3    H212001   1.606   0.977   4.743
 3999TIP3   OH212002   5.247   3.982   2.157
 3999TIP3    H112003   5.264   4.025   2.073
 3999TIP3    H212004   5.312   4.019   2.217
 4000TIP3   OH212005   2.506   2.268   4.587
 4000TIP3    H112006   2.511   2.351   4.635
 4000TIP3    H212007   2.555   2.206   4.641
 4001TIP3   OH212008   4.185   4.164   0.173
 4001TIP3    H112009   4.185   4.185   0.267
 4001TIP3    H212010   4.273   4.187   0.144
 4002TIP3   OH212011   1.210   3.724   1.532
 4002TIP3    H112012   1.201   3.647   1.475
 4002TIP3    H212013   1.135   3.719   1.591
 4003TIP3   OH212014   5.914   4.166   4.144
 4003TIP3    H112015   5.988   4.172   4.085
 4003TIP3    H212016   5.915   4.249   4.193
 4004TIP3   OH212017   1.743   4.579   4.916
 4004TIP3    H112018   1.801   4.561   4.842
 4004TIP3    H212019   1.661   4.606   4.876
 4005TIP3   OH212020   5.792   5.849   1.403
 4005TIP3    H112021   5.794   5.937   1.440
 4005TIP3    H212022   5.805   5.862   1.309
 4006TIP3   OH212023   1.839   5.174   3.774
 4006TIP3    H112024   1.817   5.184   3.682
 4006TIP3    H212025   1.760   5.201   3.821
 4007TIP3   OH212026   2.133   0.878   4.390
 4007TIP3    H112027   2.188   0.918   4.457
 4007TIP3    H212028   2.110   0.792   4.426
 4008TIP3   OH212029   1.423   5.408   3.295
 4008TIP3    H112030   1.503   5.447   3.261
 4008TIP3    H212031   1.452   5.334   3.348
 4009TIP3   OH212032   3.198   5.929   0.281
 4009TIP3    H112033   3.148   5.869   0.336
 4009TIP3    H212034   3.285   5.891   0.276
 4010TIP3   OH212035   6.026   3.078   2.904
 4010TIP3    H112036   6.110   3.066   2.947
 4010TIP3    H212037   6.032   3.024   2.824
 4011TIP3   OH212038   2.065   1.129   4.263
 4011TIP3    H112039   2.098   1.049   4.303
 4011TIP3    H212040   2.143   1.169   4.223
 4012TIP3   OH212041   1.431   3.260   0.547
 4012TIP3    H112042   1.418   3.304   0.463
 4012TIP3    H212043   1.511   3.208   0.534
 4013TIP3   OH212044   0.330   5.782   4.634
 4013TIP3    H112045   0.350   5.864   4.679
 4013TIP3    H212046   0.365   5.794   4.546
 4014TIP3   OH212047   5.261   1.415   4.513
 4014TIP3    H112048   5.308   1.332   4.511
 4014TIP3    H212049   5.314   1.471   4.571
 4015TIP3   OH212050   4.708   3.997   4.039
 4015TIP3    H112051   4.731   3.904   4.038
 4015TIP3    H212052   4.746   4.030   4.121
 4016TIP3   OH212053   5.630   2.189   4.175
 4016TIP3    H112054   5.653   2.134   4.250
 4016TIP3    H212055   5.701   2.252   4.169
 4017TIP3   OH212056   4.183   4.429   2.586
 4017TIP3    H112057   4.188   4.522   2.607
 4017TIP3    H212058   4.118   4.394   2.646
 4018TIP3   OH212059   5.113   2.898   3.532
 4018TIP3    H112060   5.201   2.917   3.566
 4018TIP3    H212061   5.130   2.848   3.452
 4019TIP3   OH212062   0.157   3.703   2.677
 4019TIP3    H112063   0.209   3.783   2.674
 4019TIP3    H212064   0.069   3.731   2.650
 4020TIP3   OH212065   0.873   1.944   3.107
 4020TIP3    H112066   0.968   1.934   3.104
 4020TIP3    H212067   0.840   1.856   3.123
 4021TIP3   OH212068   3.617   1.991   3.551
 4021TIP3    H112069   3.685   1.996   3.484
 4021TIP3    H212070   3.646   2.053   3.619
 4022TIP3   OH212071   3.783   1.326   2.395
 4022TIP3    H112072   3.741   1.314   2.480
 4022TIP3    H212073   3.786   1.238   2.357
 4023TIP3   OH212074   3.726   3.802   2.346
 4023TIP3    H112075   3.797   3.792   2.283
 4023TIP3    H212076   3.757   3.755   2.424
 4024TIP3   OH212077   2.088   2.956   0.661
 4024TIP3    H112078   2.145   2.908   0.601
 4024TIP3    H212079   2.148   3.000   0.721
 4025TIP3   OH212080   0.546   4.771   3.825
 4025TIP3    H112081   0.488   4.727   3.763
 4025TIP3    H212082   0.520   4.863   3.822
 4026TIP3   OH212083   4.347   5.925   2.855
 4026TIP3    H112084   4.358   5.943   2.948
 4026TIP3    H212085   4.422   5.967   2.813
 4027TIP3   OH212086   5.582   3.363   3.413
 4027TIP3    H112087   5.596   3.390   3.322
 4027TIP3    H212088   5.605   3.270   3.415
 4028TIP3   OH212089   0.150   2.965   0.517
 4028TIP3    H112090   0.147   3.045   0.570
 4028TIP3    H212091   0.238   2.964   0.479
 4029TIP3   OH212092   0.217   2.102   1.832
 4029TIP3    H112093   0.300   2.147   1.845
 4029TIP3    H212094   0.240   2.016   1.798
 4030TIP3   OH212095   1.218   3.480   4.735
 4030TIP3    H112096   1.173   3.397   4.716
 4030TIP3    H212097   1.156   3.548   4.709
 4031TIP3   OH212098   1.528   4.182   1.923
 4031TIP3    H112099   1.558   4.094   1.901
 4031TIP3    H212100   1.522   4.227   1.839
 4032TIP3   OH212101   3.083   5.018   1.906
 4032TIP3    H112102   3.059   5.006   1.998
 4032TIP3    H212103   3.047   4.941   1.862
 4033TIP3   OH212104   1.631   0.673   0.668
 4033TIP3    H112105   1.611   0.716   0.751
 4033TIP3    H212106   1.726   0.687   0.657
 4034TIP3   OH212107   2.840   0.739   2.035
 4034TIP3    H112108   2.801   0.661   2.075
 4034TIP3    H212109   2.792   0.812   2.074
 4035TIP3   OH212110   1.754   5.467   2.492
 4035TIP3    H112111   1.841   5.474   2.529
 4035TIP3    H212112   1.706   5.541   2.528
 4036TIP3   OH212113   3.683   5.596   2.408
 4036TIP3    H112114   3.616   5.651   2.367
 4036TIP3    H212115   3.677   5.512   2.362
 4037TIP3   OH212116   2.792   2.500   4.419
 4037TIP3    H112117   2.761   2.430   4.362
 4037TIP3    H212118   2.717   2.523   4.473
 4038TIP3   OH212119   1.434   3.691   2.698
 4038TIP3    H112120   1.486   3.649   2.630
 4038TIP3    H212121   1.498   3.721   2.763
 4039TIP3   OH212122   1.906   3.800   4.868
 4039TIP3    H112123   1.953   3.759   4.941
 4039TIP3    H212124   1.840   3.855   4.911
 4040TIP3   OH212125   1.676   5.033   2.873
 4040TIP3    H112126   1.728   5.106   2.839
 4040TIP3    H212127   1.596   5.034   2.819
 4041TIP3   OH212128   4.112   0.789   4.613
 4041TIP3    H112129   4.200   0.756   4.630
 4041TIP3    H212130   4.057   0.710   4.610
 4042TIP3   OH212131   1.041   5.529   0.679
 4042TIP3    H112132   1.023   5.490   0.593
 4042TIP3    H212133   1.136   5.540   0.681
 4043TIP3   OH212134   2.340   0.971   4.572
 4043TIP3    H112135   2.419   0.929   4.538
 4043TIP3    H212136   2.366   1.006   4.657
 4044TIP3   OH212137   3.944   1.253   1.550
 4044TIP3    H112138   3.982   1.339   1.568
 4044TIP3    H212139   3.961   1.237   1.458
 4045TIP3   OH212140   2.304   2.837   4.392
 4045TIP3    H112141   2.254   2.864   4.315
 4045TIP3    H212142   2.240   2.795   4.449
 4046TIP3   OH212143   3.319   1.761   2.914
 4046TIP3    H112144   3.299   1.847   2.950
 4046TIP3    H212145   3.389   1.777   2.851
 4047TIP3   OH212146   4.786   5.650   2.021
 4047TIP3    H112147   4.740   5.581   2.070
 4047TIP3    H212148   4.842   5.602   1.960
 4048TIP3   OH212149   5.715   3.945   2.436
 4048TIP3    H112150   5.793   3.993   2.463
 4048TIP3    H212151   5.642   3.990   2.478
 4049TIP3   OH212152   2.761   4.438   4.001
 4049TIP3    H112153   2.674   4.427   3.963
 4049TIP3    H212154   2.754   4.516   4.054
 4050TIP3   OH212155   6.204   4.862   5.138
 4050TIP3    H112156   6.294   4.895   5.136
 4050TIP3    H212157   6.204   4.789   5.076
 4051TIP3   OH212158   1.243   3.994   2.548
 4051TIP3    H112159   1.270   4.070   2.496
 4051TIP3    H212160   1.158   3.969   2.512
 4052TIP3   OH212161   4.120   5.346   0.575
 4052TIP3    H112162   4.146   5.268   0.525
 4052TIP3    H212163   4.185   5.412   0.553
 4053TIP3   OH212164   3.478   2.486   4.191
 4053TIP3    H112165   3.385   2.489   4.169
 4053TIP3    H212166   3.480   2.480   4.287
 4054TIP3   OH212167   2.245   3.919   4.246
 4054TIP3    H112168   2.223   3.855   4.314
 4054TIP3    H212169   2.246   3.868   4.165
 4055TIP3   OH212170   4.315   2.446   2.699
 4055TIP3    H112171   4.301   2.440   2.605
 4055TIP3    H212172   4.298   2.538   2.720
 4056TIP3   OH212173   4.267   1.675   0.250
 4056TIP3    H112174   4.215   1.622   0.190
 4056TIP3    H212175   4.350   1.689   0.205
 4057TIP3   OH212176   6.314   4.245   0.921
 4057TIP3    H112177   6.290   4.214   1.009
 4057TIP3    H212178   6.368   4.322   0.936
 4058TIP3   OH212179   1.404   4.819   2.992
 4058TIP3    H112180   1.490   4.846   3.024
 4058TIP3    H212181   1.362   4.776   3.067
 4059TIP3   OH212182   1.845   4.358   0.371
 4059TIP3    H112183   1.786   4.377   0.444
 4059TIP3    H212184   1.917   4.310   0.411
 4060TIP3   OH212185   3.870   1.205   3.220
 4060TIP3    H112186   3.914   1.276   3.266
 4060TIP3    H212187   3.834   1.246   3.141
 4061TIP3   OH212188   5.471   1.624   3.466
 4061TIP3    H112189   5.421   1.555   3.422
 4061TIP3    H212190   5.499   1.584   3.548
 4062TIP3   OH212191   0.063   3.427   4.113
 4062TIP3    H112192   0.020   3.508   4.141
 4062TIP3    H212193   0.153   3.436   4.143
 4063TIP3   OH212194   0.579   0.415   1.886
 4063TIP3    H112195   0.572   0.437   1.979
 4063TIP3    H212196   0.496   0.373   1.865
 4064TIP3   OH212197   2.299   2.546   2.602
 4064TIP3    H112198   2.260   2.465   2.568
 4064TIP3    H212199   2.253   2.561   2.685
 4065TIP3   OH212200   5.126   1.421   2.487
 4065TIP3    H112201   5.187   1.349   2.471
 4065TIP3    H212202   5.040   1.380   2.489
 4066TIP3   OH212203   1.391   2.117   4.057
 4066TIP3    H112204   1.437   2.050   4.108
 4066TIP3    H212205   1.361   2.180   4.123
 4067TIP3   OH212206   2.196   4.026   2.267
 4067TIP3    H112207   2.189   4.075   2.185
 4067TIP3    H212208   2.261   3.958   2.250
 4068TIP3   OH212209   4.611   2.768   2.869
 4068TIP3    H112210   4.684   2.805   2.918
 4068TIP3    H212211   4.605   2.677   2.899
 4069TIP3   OH212212   1.107   5.923   4.503
 4069TIP3    H112213   1.162   5.989   4.544
 4069TIP3    H212214   1.048   5.893   4.572
 4070TIP3   OH212215   0.883   1.338   0.021
 4070TIP3    H112216   0.917   1.279  -0.047
 4070TIP3    H212217   0.791   1.313   0.031
 4071TIP3   OH212218   5.845   1.455   2.319
 4071TIP3    H112219   5.913   1.389   2.308
 4071TIP3    H212220   5.776   1.428   2.258
 4072TIP3   OH212221   5.886   1.854   4.951
 4072TIP3    H112222   5.862   1.875   5.041
 4072TIP3    H212223   5.980   1.873   4.946
 4073TIP3   OH212224   5.781   1.970   2.783
 4073TIP3    H112225   5.827   1.942   2.704
 4073TIP3    H212226   5.698   1.922   2.780
 4074TIP3   OH212227   6.183   5.346   2.502
 4074TIP3    H112228   6.095   5.371   2.475
 4074TIP3    H212229   6.232   5.336   2.420
 4075TIP3   OH212230   2.679   4.051   2.149
 4075TIP3    H112231   2.704   4.108   2.222
 4075TIP3    H212232   2.594   4.085   2.120
 4076TIP3   OH212233   4.864   0.624   0.184
 4076TIP3    H112234   4.916   0.590   0.257
 4076TIP3    H212235   4.774   0.601   0.206
 4077TIP3   OH212236   4.299   3.042   4.829
 4077TIP3    H112237   4.337   3.064   4.744
 4077TIP3    H212238   4.206   3.032   4.812
 4078TIP3   OH212239   1.790   1.663   1.539
 4078TIP3    H112240   1.809   1.718   1.614
 4078TIP3    H212241   1.694   1.664   1.531
 4079TIP3   OH212242   5.178   5.724   1.895
 4079TIP3    H112243   5.257   5.689   1.854
 4079TIP3    H212244   5.166   5.809   1.853
 4080TIP3   OH212245   2.048   1.312   1.930
 4080TIP3    H112246   2.077   1.342   1.844
 4080TIP3    H212247   1.962   1.274   1.914
 4081TIP3   OH212248   4.200   4.496   1.586
 4081TIP3    H112249   4.292   4.469   1.574
 4081TIP3    H212250   4.193   4.517   1.679
 4082TIP3   OH212251   1.408   0.623   1.590
 4082TIP3    H112252   1.490   0.628   1.640
 4082TIP3    H212253   1.355   0.559   1.637
 4083TIP3   OH212254   4.439   3.083   2.278
 4083TIP3    H112255   4.402   3.027   2.211
 4083TIP3    H212256   4.533   3.063   2.278
 4084TIP3   OH212257   5.715   2.855   0.928
 4084TIP3    H112258   5.722   2.820   0.839
 4084TIP3    H212259   5.805   2.863   0.958
 4085TIP3   OH212260   4.447   2.429   3.492
 4085TIP3    H112261   4.427   2.435   3.585
 4085TIP3    H212262   4.444   2.519   3.461
 4086TIP3   OH212263   2.596   1.605   4.907
 4086TIP3    H112264   2.567   1.638   4.822
 4086TIP3    H212265   2.650   1.529   4.887
 4087TIP3   OH212266   1.448   3.853   2.433
 4087TIP3    H112267   1.414   3.886   2.516
 4087TIP3    H212268   1.373   3.813   2.390
 4088TIP3   OH212269   3.390   3.370   0.512
 4088TIP3    H112270   3.324   3.430   0.547
 4088TIP3    H212271   3.470   3.391   0.559
 4089TIP3   OH212272   5.905   1.878   4.326
 4089TIP3    H112273   5.980   1.820   4.340
 4089TIP3    H212274   5.879   1.862   4.235
 4090TIP3   OH212275   4.817   4.753   2.384
 4090TIP3    H112276   4.904   4.746   2.423
 4090TIP3    H212277   4.824   4.706   2.300
 4091TIP3   OH212278   5.716   1.656   0.017
 4091TIP3    H112279   5.769   1.578  -0.001
 4091TIP3    H212280   5.716   1.663   0.112
 4092TIP3   OH212281   5.639   2.487   2.266
 4092TIP3    H112282   5.689   2.564   2.240
 4092TIP3    H212283   5.573   2.476   2.198
 4093TIP3   OH212284   0.317   2.040   5.032
 4093TIP3    H112285   0.296   1.958   4.987
 4093TIP3    H212286   0.232   2.081   5.048
 4094TIP3   OH212287   2.201   0.208   2.013
 4094TIP3    H112288   2.159   0.225   1.929
 4094TIP3    H212289   2.177   0.118   2.034
 4095TIP3   OH212290   3.731   3.216   3.885
 4095TIP3    H112291   3.824   3.233   3.870
 4095TIP3    H212292   3.708   3.148   3.821
 4096TIP3   OH212293   3.688   2.924   1.171
 4096TIP3    H112294   3.758   2.918   1.236
 4096TIP3    H212295   3.625   2.857   1.199
 4097TIP3   OH212296   1.040   3.581   3.832
 4097TIP3    H112297   0.974   3.524   3.793
 4097TIP3    H212298   1.010   3.594   3.922
 4098TIP3   OH212299   5.365   4.212   4.003
 4098TIP3    H112300   5.351   4.142   3.938
 4098TIP3    H212301   5.287   4.209   4.058
 4099TIP3   OH212302   4.042   1.868   1.072
 4099TIP3    H112303   4.028   1.917   1.154
 4099TIP3    H212304   3.957   1.830   1.052
 4100TIP3   OH212305   1.039   5.845   2.432
 4100TIP3    H112306   1.134   5.858   2.433
 4100TIP3    H212307   1.023   5.784   2.360
 4101TIP3   OH212308   1.188   5.404   4.718
 4101TIP3    H112309   1.124   5.339   4.748
 4101TIP3    H212310   1.202   5.460   4.794
 4102TIP3   OH212311   1.060   2.094   1.317
 4102TIP3    H112312   1.086   2.034   1.247
 4102TIP3    H212313   0.982   2.053   1.356
 4103TIP3   OH212314   4.107   2.980   2.141
 4103TIP3    H112315   4.188   3.025   2.117
 4103TIP3    H212316   4.052   2.989   2.064
 4104TIP3   OH212317   6.303   0.604   3.489
 4104TIP3    H112318   6.335   0.602   3.399
 4104TIP3    H212319   6.209   0.587   3.481
 4105TIP3   OH212320   2.359   2.930   3.087
 4105TIP3    H112321   2.385   2.933   2.995
 4105TIP3    H212322   2.280   2.983   3.091
 4106TIP3   OH212323   4.598   4.748   0.382
 4106TIP3    H112324   4.631   4.711   0.300
 4106TIP3    H212325   4.580   4.671   0.437
 4107TIP3   OH212326   2.654   1.345   1.911
 4107TIP3    H112327   2.576   1.372   1.862
 4107TIP3    H212328   2.667   1.413   1.976
 4108TIP3   OH212329   4.407   2.692   3.413
 4108TIP3    H112330   4.492   2.718   3.378
 4108TIP3    H212331   4.347   2.760   3.381
 4109TIP3   OH212332   0.513   5.168   0.072
 4109TIP3    H112333   0.459   5.089   0.063
 4109TIP3    H212334   0.560   5.155   0.154
 4110TIP3   OH212335   0.725   5.708   4.264
 4110TIP3    H112336   0.690   5.741   4.346
 4110TIP3    H212337   0.815   5.683   4.284
 4111TIP3   OH212338   5.780   0.900   3.908
 4111TIP3    H112339   5.805   0.867   3.822
 4111TIP3    H212340   5.764   0.822   3.961
 4112TIP3   OH212341   3.966   3.057   0.187
 4112TIP3    H112342   4.037   3.113   0.219
 4112TIP3    H212343   3.988   2.970   0.220
 4113TIP3   OH212344   1.165   4.349   1.273
 4113TIP3    H112345   1.134   4.263   1.245
 4113TIP3    H212346   1.100   4.379   1.336
 4114TIP3   OH212347   1.661   2.200   2.588
 4114TIP3    H112348   1.596   2.266   2.610
 4114TIP3    H212349   1.703   2.178   2.671
 4115TIP3   OH212350   5.461   2.927   1.034
 4115TIP3    H112351   5.555   2.909   1.029
 4115TIP3    H212352   5.440   2.916   1.126
 4116TIP3   OH212353   4.960   0.806   0.016
 4116TIP3    H112354   5.055   0.795   0.017
 4116TIP3    H212355   4.926   0.728   0.060
 4117TIP3   OH212356   5.039   3.403   2.684
 4117TIP3    H112357   5.092   3.385   2.606
 4117TIP3    H212358   5.067   3.490   2.713
 4118TIP3   OH212359   0.181   3.656   2.194
 4118TIP3    H112360   0.254   3.718   2.205
 4118TIP3    H212361   0.123   3.674   2.267
 4119TIP3   OH212362   0.833   5.863   4.077
 4119TIP3    H112363   0.893   5.796   4.046
 4119TIP3    H212364   0.779   5.818   4.142
 4120TIP3   OH212365   2.393   4.473   4.509
 4120TIP3    H112366   2.328   4.528   4.552
 4120TIP3    H212367   2.383   4.493   4.416
 4121TIP3   OH212368   1.423   1.427   0.831
 4121TIP3    H112369   1.517   1.407   0.839
 4121TIP3    H212370   1.420   1.504   0.774
 4122TIP3   OH212371   4.429   5.471   2.707
 4122TIP3    H112372   4.399   5.393   2.660
 4122TIP3    H212373   4.486   5.436   2.776
 4123TIP3   OH212374   5.496   2.040   0.626
 4123TIP3    H112375   5.528   2.092   0.700
 4123TIP3    H212376   5.401   2.047   0.631
 4124TIP3   OH212377   6.266   0.925   2.345
 4124TIP3    H112378   6.192   0.870   2.320
 4124TIP3    H212379   6.306   0.879   2.418
 4125TIP3   OH212380   4.496   1.487   4.356
 4125TIP3    H112381   4.568   1.428   4.375
 4125TIP3    H212382   4.482   1.537   4.437
 4126TIP3   OH212383   5.687   0.993   4.276
 4126TIP3    H112384   5.776   0.992   4.240
 4126TIP3    H212385   5.694   0.949   4.360
 4127TIP3   OH212386   1.756   4.227   0.640
 4127TIP3    H112387   1.691   4.167   0.679
 4127TIP3    H212388   1.824   4.169   0.607
 4128TIP3   OH212389   3.538   0.727   2.884
 4128TIP3    H112390   3.577   0.715   2.970
 4128TIP3    H212391   3.546   0.641   2.842
 4129TIP3   OH212392   1.127   1.796   2.234
 4129TIP3    H112393   1.175   1.879   2.239
 4129TIP3    H212394   1.163   1.743   2.305
 4130TIP3   OH212395   2.412   2.873   4.806
 4130TIP3    H112396   2.370   2.932   4.743
 4130TIP3    H212397   2.495   2.916   4.827
 4131TIP3   OH212398   3.991   0.079   4.337
 4131TIP3    H112399   4.002   0.078   4.242
 4131TIP3    H212400   3.954  -0.007   4.357
 4132TIP3   OH212401   2.305   2.291   3.877
 4132TIP3    H112402   2.305   2.313   3.784
 4132TIP3    H212403   2.390   2.250   3.892
 4133TIP3   OH212404   1.231   3.510   2.885
 4133TIP3    H112405   1.254   3.435   2.831
 4133TIP3    H212406   1.308   3.526   2.939
 4134TIP3   OH212407   5.884   1.256   5.098
 4134TIP3    H112408   5.901   1.256   5.004
 4134TIP3    H212409   5.809   1.197   5.109
 4135TIP3   OH212410   4.719   5.732   4.224
 4135TIP3    H112411   4.718   5.801   4.291
 4135TIP3    H212412   4.739   5.652   4.273
 4136TIP3   OH212413   3.103   4.116   1.878
 4136TIP3    H112414   3.029   4.061   1.902
 4136TIP3    H212415   3.064   4.201   1.858
 4137TIP3   OH212416   1.203   3.200   1.149
 4137TIP3    H112417   1.201   3.109   1.118
 4137TIP3    H212418   1.113   3.231   1.137
 4138TIP3   OH212419   3.074   0.136   1.413
 4138TIP3    H112420   3.140   0.164   1.476
 4138TIP3    H212421   3.002   0.199   1.424
 4139TIP3   OH212422   4.262   2.415   2.433
 4139TIP3    H112423   4.258   2.320   2.432
 4139TIP3    H212424   4.207   2.442   2.359
 4140TIP3   OH212425   6.023   3.745   4.692
 4140TIP3    H112426   6.067   3.793   4.622
 4140TIP3    H212427   6.092   3.724   4.754
 4141TIP3   OH212428   1.529   5.546   5.003
 4141TIP3    H112429   1.595   5.614   4.991
 4141TIP3    H212430   1.454   5.592   5.040
 4142TIP3   OH212431   3.876   4.115   3.825
 4142TIP3    H112432   3.926   4.170   3.765
 4142TIP3    H212433   3.928   4.035   3.835
 4143TIP3   OH212434   6.019   5.186   0.820
 4143TIP3    H112435   5.929   5.184   0.789
 4143TIP3    H212436   6.070   5.212   0.743
 4144TIP3   OH212437   2.670   2.038   5.147
 4144TIP3    H112438   2.622   2.071   5.223
 4144TIP3    H212439   2.630   1.952   5.129
 4145TIP3   OH212440   4.886   5.482   4.171
 4145TIP3    H112441   4.944   5.410   4.146
 4145TIP3    H212442   4.799   5.453   4.142
 4146TIP3   OH212443   2.825   2.074   2.443
 4146TIP3    H112444   2.819   2.151   2.387
 4146TIP3    H212445   2.806   2.000   2.386
 4147TIP3   OH212446   2.333   2.826   0.629
 4147TIP3    H112447   2.316   2.742   0.586
 4147TIP3    H212448   2.416   2.856   0.592
 4148TIP3   OH212449   5.850   5.678   3.369
 4148TIP3    H112450   5.782   5.740   3.342
 4148TIP3    H212451   5.829   5.597   3.324
 4149TIP3   OH212452   6.117   4.701   2.931
 4149TIP3    H112453   6.212   4.690   2.928
 4149TIP3    H212454   6.098   4.765   2.862
 4150TIP3   OH212455   1.078   2.174   5.186
 4150TIP3    H112456   0.983   2.180   5.183
 4150TIP3    H212457   1.105   2.166   5.094
 4151TIP3   OH212458   1.318   3.969   4.556
 4151TIP3    H112459   1.374   3.968   4.634
 4151TIP3    H212460   1.230   3.956   4.590
 4152TIP3   OH212461   0.908   2.877   0.959
 4152TIP3    H112462   0.825   2.916   0.932
 4152TIP3    H212463   0.886   2.827   1.038
 4153TIP3   OH212464   4.989   3.858   3.180
 4153TIP3    H112465   4.959   3.768   3.192
 4153TIP3    H212466   5.072   3.862   3.227
 4154TIP3   OH212467   6.243   4.426   4.988
 4154TIP3    H112468   6.170   4.419   4.927
 4154TIP3    H212469   6.315   4.379   4.946
 4155TIP3   OH212470   1.811   0.413   2.218
 4155TIP3    H112471   1.849   0.381   2.299
 4155TIP3    H212472   1.886   0.442   2.166
 4156TIP3   OH212473   0.995   1.042   1.895
 4156TIP3    H112474   1.001   1.115   1.956
 4156TIP3    H212475   0.925   0.986   1.931
 4157TIP3   OH212476   1.086   4.546   4.104
 4157TIP3    H112477   1.131   4.488   4.043
 4157TIP3    H212478   1.157   4.585   4.156
 4158TIP3   OH212479   1.044   5.406   0.964
 4158TIP3    H112480   1.084   5.492   0.954
 4158TIP3    H212481   0.995   5.412   1.046
 4159TIP3   OH212482   3.554   0.141   3.951
 4159TIP3    H112483   3.582   0.072   4.012
 4159TIP3    H212484   3.485   0.101   3.899
 4160TIP3   OH212485   6.224   3.736   3.693
 4160TIP3    H112486   6.211   3.790   3.770
 4160TIP3    H212487   6.150   3.756   3.636
 4161TIP3   OH212488   3.037   4.386   1.806
 4161TIP3    H112489   3.013   4.428   1.889
 4161TIP3    H212490   3.015   4.451   1.740
 4162TIP3   OH212491   3.261   5.032   4.189
 4162TIP3    H112492   3.255   5.030   4.285
 4162TIP3    H212493   3.314   4.956   4.167
 4163TIP3   OH212494   5.340   1.027   1.594
 4163TIP3    H112495   5.326   1.082   1.671
 4163TIP3    H212496   5.390   1.083   1.534
 4164TIP3   OH212497   3.854   0.047   3.012
 4164TIP3    H112498   3.854  -0.005   3.092
 4164TIP3    H212499   3.768   0.089   3.010
 4165TIP3   OH212500   3.482   2.452   4.460
 4165TIP3    H112501   3.565   2.496   4.447
 4165TIP3    H212502   3.492   2.406   4.544
 4166TIP3   OH212503   4.872   2.813   0.388
 4166TIP3    H112504   4.796   2.853   0.431
 4166TIP3    H212505   4.934   2.798   0.460
 4167TIP3   OH212506   4.187   5.555   1.686
 4167TIP3    H112507   4.183   5.460   1.674
 4167TIP3    H212508   4.203   5.566   1.779
 4168TIP3   OH212509   0.265   5.477   0.053
 4168TIP3    H112510   0.323   5.508  -0.016
 4168TIP3    H212511   0.316   5.411   0.100
 4169TIP3   OH212512   0.783   3.955   3.677
 4169TIP3    H112513   0.792   3.895   3.603
 4169TIP3    H212514   0.738   3.904   3.744
 4170TIP3   OH212515   0.682   4.298   3.714
 4170TIP3    H112516   0.746   4.368   3.700
 4170TIP3    H212517   0.625   4.301   3.637
 4171TIP3   OH212518   3.909   4.962   1.334
 4171TIP3    H112519   3.975   4.994   1.273
 4171TIP3    H212520   3.941   4.875   1.360
 4172TIP3   OH212521   2.959   4.373   2.591
 4172TIP3    H112522   3.003   4.295   2.557
 4172TIP3    H212523   2.973   4.440   2.524
 4173TIP3   OH212524   2.275   5.938   1.336
 4173TIP3    H112525   2.210   5.887   1.384
 4173TIP3    H212526   2.298   5.884   1.261
 4174TIP3   OH212527   0.622   0.172   3.288
 4174TIP3    H112528   0.629   0.168   3.383
 4174TIP3    H212529   0.641   0.264   3.267
 4175TIP3   OH212530   3.447   4.630   2.333
 4175TIP3    H112531   3.354   4.610   2.341
 4175TIP3    H212532   3.477   4.575   2.261
 4176TIP3   OH212533   2.592   2.793   4.415
 4176TIP3    H112534   2.507   2.832   4.395
 4176TIP3    H212535   2.571   2.713   4.462
 4177TIP3   OH212536   4.264   4.245   3.906
 4177TIP3    H112537   4.331   4.199   3.956
 4177TIP3    H212538   4.291   4.337   3.909
 4178TIP3   OH212539   4.943   3.515   2.201
 4178TIP3    H112540   4.948   3.419   2.207
 4178TIP3    H212541   4.877   3.539   2.267
 4179TIP3   OH212542   3.312   3.290   3.247
 4179TIP3    H112543   3.401   3.269   3.276
 4179TIP3    H212544   3.264   3.207   3.256
 4180TIP3   OH212545   0.763   3.392   3.804
 4180TIP3    H112546   0.808   3.313   3.833
 4180TIP3    H212547   0.729   3.371   3.717
 4181TIP3   OH212548   3.466   3.804   3.188
 4181TIP3    H112549   3.491   3.712   3.185
 4181TIP3    H212550   3.535   3.847   3.238
 4182TIP3   OH212551   4.218   4.746   0.803
 4182TIP3    H112552   4.300   4.780   0.765
 4182TIP3    H212553   4.187   4.816   0.859
 4183TIP3   OH212554   0.719   0.391   4.695
 4183TIP3    H112555   0.742   0.302   4.668
 4183TIP3    H212556   0.785   0.446   4.653
 4184TIP3   OH212557   0.833   4.571   2.271
 4184TIP3    H112558   0.821   4.600   2.181
 4184TIP3    H212559   0.921   4.534   2.274
 4185TIP3   OH212560   5.497   1.875   2.644
 4185TIP3    H112561   5.410   1.906   2.670
 4185TIP3    H212562   5.515   1.919   2.562
 4186TIP3   OH212563   3.857   2.678   4.177
 4186TIP3    H112564   3.922   2.742   4.206
 4186TIP3    H212565   3.898   2.634   4.103
 4187TIP3   OH212566   5.278   0.780   3.764
 4187TIP3    H112567   5.358   0.832   3.778
 4187TIP3    H212568   5.307   0.689   3.772
 4188TIP3   OH212569   3.986   1.207   2.872
 4188TIP3    H112570   4.052   1.181   2.808
 4188TIP3    H212571   3.927   1.132   2.879
 4189TIP3   OH212572   3.008   3.569   1.085
 4189TIP3    H112573   2.937   3.552   1.147
 4189TIP3    H212574   3.037   3.483   1.056
 4190TIP3   OH212575   3.840   4.054   3.196
 4190TIP3    H112576   3.860   4.113   3.123
 4190TIP3    H212577   3.745   4.047   3.196
 4191TIP3   OH212578   6.035   0.079   1.013
 4191TIP3    H112579   5.973   0.018   1.053
 4191TIP3    H212580   6.073   0.127   1.086
 4192TIP3   OH212581   1.896   4.359   1.727
 4192TIP3    H112582   1.861   4.302   1.795
 4192TIP3    H212583   1.930   4.435   1.774
 4193TIP3   OH212584   3.718   5.152   2.006
 4193TIP3    H112585   3.629   5.175   2.033
 4193TIP3    H212586   3.775   5.205   2.062
 4194TIP3   OH212587   2.574   0.981   3.585
 4194TIP3    H112588   2.652   1.003   3.635
 4194TIP3    H212589   2.519   0.933   3.647
 4195TIP3   OH212590   0.505   2.578   2.154
 4195TIP3    H112591   0.501   2.533   2.070
 4195TIP3    H212592   0.490   2.670   2.132
 4196TIP3   OH212593   1.648   3.488   0.780
 4196TIP3    H112594   1.650   3.550   0.853
 4196TIP3    H212595   1.614   3.539   0.706
 4197TIP3   OH212596   5.265   3.392   2.870
 4197TIP3    H112597   5.253   3.486   2.866
 4197TIP3    H212598   5.188   3.355   2.825
 4198TIP3   OH212599   4.399   2.829   2.139
 4198TIP3    H112600   4.327   2.771   2.164
 4198TIP3    H212601   4.476   2.792   2.181
 4199TIP3   OH212602   0.749   5.405   0.119
 4199TIP3    H112603   0.673   5.393   0.176
 4199TIP3    H212604   0.780   5.316   0.101
 4200TIP3   OH212605   0.243   2.737   0.637
 4200TIP3    H112606   0.237   2.818   0.586
 4200TIP3    H212607   0.334   2.708   0.626
 4201TIP3   OH212608   2.926   0.101   1.803
 4201TIP3    H112609   3.013   0.065   1.784
 4201TIP3    H212610   2.937   0.150   1.884
 4202TIP3   OH212611   1.757   2.044   0.821
 4202TIP3    H112612   1.715   2.094   0.750
 4202TIP3    H212613   1.824   1.991   0.776
 4203TIP3   OH212614   3.798   5.103   2.541
 4203TIP3    H112615   3.871   5.087   2.481
 4203TIP3    H212616   3.752   5.019   2.545
 4204TIP3   OH212617   0.009   1.307   3.234
 4204TIP3    H112618   0.088   1.281   3.281
 4204TIP3    H212619  -0.048   1.345   3.300
 4205TIP3   OH212620   1.472   1.326   4.165
 4205TIP3    H112621   1.565   1.339   4.148
 4205TIP3    H212622   1.430   1.334   4.079
 4206TIP3   OH212623   1.373   0.340   4.665
 4206TIP3    H112624   1.463   0.339   4.634
 4206TIP3    H212625   1.381   0.350   4.760
 4207TIP3   OH212626   1.306   2.540   3.580
 4207TIP3    H112627   1.319   2.584   3.665
 4207TIP3    H212628   1.217   2.505   3.584
 4208TIP3   OH212629   5.084   5.052   3.659
 4208TIP3    H112630   5.021   4.988   3.624
 4208TIP3    H212631   5.050   5.137   3.630
 4209TIP3   OH212632   0.815   2.322   1.824
 4209TIP3    H112633   0.848   2.245   1.776
 4209TIP3    H212634   0.855   2.397   1.780
 4210TIP3   OH212635   2.310   5.646   1.591
 4210TIP3    H112636   2.335   5.638   1.499
 4210TIP3    H212637   2.318   5.558   1.627
 4211TIP3   OH212638   3.745   4.349   3.508
 4211TIP3    H112639   3.688   4.418   3.542
 4211TIP3    H212640   3.698   4.268   3.525
 4212TIP3   OH212641   3.712   5.443   4.331
 4212TIP3    H112642   3.700   5.364   4.384
 4212TIP3    H212643   3.802   5.439   4.301
 4213TIP3   OH212644   0.546   4.750   2.240
 4213TIP3    H112645   0.525   4.657   2.246
 4213TIP3    H212646   0.634   4.752   2.202
 4214TIP3   OH212647   3.051   4.384   3.395
 4214TIP3    H112648   2.985   4.430   3.343
 4214TIP3    H212649   3.000   4.324   3.450
 4215TIP3   OH212650   1.250   5.969   2.140
 4215TIP3    H112651   1.176   5.909   2.154
 4215TIP3    H212652   1.326   5.922   2.173
 4216TIP3   OH212653   4.184   5.929   0.963
 4216TIP3    H112654   4.170   5.834   0.953
 4216TIP3    H212655   4.098   5.967   0.943
 4217TIP3   OH212656   2.993   5.920   4.033
 4217TIP3    H112657   3.008   5.995   4.091
 4217TIP3    H212658   3.022   5.951   3.947
 4218TIP3   OH212659   3.338   3.397   2.331
 4218TIP3    H112660   3.347   3.323   2.392
 4218TIP3    H212661   3.398   3.463   2.364
 4219TIP3   OH212662   3.150   2.745   0.451
 4219TIP3    H112663   3.086   2.816   0.460
 4219TIP3    H212664   3.113   2.688   0.383
 4220TIP3   OH212665   5.971   3.923   1.754
 4220TIP3    H112666   5.933   3.984   1.818
 4220TIP3    H212667   5.926   3.840   1.769
 4221TIP3   OH212668   4.391   1.821   0.926
 4221TIP3    H112669   4.404   1.840   0.833
 4221TIP3    H212670   4.391   1.907   0.967
 4222TIP3   OH212671   1.948   4.894   2.880
 4222TIP3    H112672   1.864   4.924   2.845
 4222TIP3    H212673   1.997   4.864   2.803
 4223TIP3   OH212674   3.191   0.610   4.103
 4223TIP3    H112675   3.264   0.605   4.041
 4223TIP3    H212676   3.204   0.694   4.148
 4224TIP3   OH212677   2.574   4.155   4.980
 4224TIP3    H112678   2.484   4.121   4.984
 4224TIP3    H212679   2.579   4.202   4.897
 4225TIP3   OH212680   1.643   5.795   4.986
 4225TIP3    H112681   1.552   5.809   4.959
 4225TIP3    H212682   1.663   5.871   5.042
 4226TIP3   OH212683   4.092   1.841   0.754
 4226TIP3    H112684   4.101   1.826   0.848
 4226TIP3    H212685   4.005   1.881   0.744
 4227TIP3   OH212686   4.779   3.764   2.243
 4227TIP3    H112687   4.848   3.759   2.309
 4227TIP3    H212688   4.716   3.697   2.269
 4228TIP3   OH212689   0.911   3.293   1.146
 4228TIP3    H112690   0.892   3.261   1.058
 4228TIP3    H212691   0.839   3.353   1.166
 4229TIP3   OH212692   3.763   0.393   0.350
 4229TIP3    H112693   3.859   0.399   0.353
 4229TIP3    H212694   3.738   0.452   0.279
 4230TIP3   OH212695   3.698   4.892   2.077
 4230TIP3    H112696   3.791   4.867   2.082
 4230TIP3    H212697   3.700   4.988   2.068
 4231TIP3   OH212698   5.587   1.514   3.959
 4231TIP3    H112699   5.597   1.501   4.053
 4231TIP3    H212700   5.619   1.603   3.944
 4232TIP3   OH212701   2.597   5.310   1.571
 4232TIP3    H112702   2.547   5.228   1.567
 4232TIP3    H212703   2.573   5.357   1.492
 4233TIP3   OH212704   5.897   1.969   3.239
 4233TIP3    H112705   5.845   2.014   3.172
 4233TIP3    H212706   5.880   1.876   3.225
 4234TIP3   OH212707   5.627   2.008  -0.014
 4234TIP3    H112708   5.548   2.012  -0.069
 4234TIP3    H212709   5.605   1.945   0.054
 4235TIP3   OH212710   5.926   0.377   3.297
 4235TIP3    H112711   5.951   0.304   3.353
 4235TIP3    H212712   5.834   0.359   3.275
 4236TIP3   OH212713   3.123   3.065   3.256
 4236TIP3    H112714   3.192   3.000   3.245
 4236TIP3    H212715   3.085   3.074   3.168
 4237TIP3   OH212716   2.419   1.033   4.059
 4237TIP3    H112717   2.360   0.967   4.095
 4237TIP3    H212718   2.499   1.023   4.109
 4238TIP3   OH212719   3.169   0.307   1.896
 4238TIP3    H112720   3.082   0.292   1.933
 4238TIP3    H212721   3.154   0.370   1.826
 4239TIP3   OH212722   4.408   0.436   3.333
 4239TIP3    H112723   4.352   0.511   3.312
 4239TIP3    H212724   4.432   0.400   3.247
 4240TIP3   OH212725   6.185   2.667   1.220
 4240TIP3    H112726   6.186   2.709   1.306
 4240TIP3    H212727   6.210   2.576   1.238
 4241TIP3   OH212728   5.196   4.714   1.691
 4241TIP3    H112729   5.271   4.662   1.665
 4241TIP3    H212730   5.160   4.748   1.609
 4242TIP3   OH212731   2.867   0.544   4.891
 4242TIP3    H112732   2.783   0.497   4.894
 4242TIP3    H212733   2.874   0.586   4.976
 4243TIP3   OH212734   2.598   0.029   3.874
 4243TIP3    H112735   2.676   0.068   3.835
 4243TIP3    H212736   2.607   0.046   3.968
 4244TIP3   OH212737   0.225   0.408   1.462
 4244TIP3    H112738   0.246   0.484   1.409
 4244TIP3    H212739   0.288   0.341   1.434
 4245TIP3   OH212740   3.412   4.026   3.918
 4245TIP3    H112741   3.492   3.999   3.963
 4245TIP3    H212742   3.431   4.114   3.886
 4246TIP3   OH212743   5.504   0.203   0.861
 4246TIP3    H112744   5.598   0.214   0.850
 4246TIP3    H212745   5.477   0.154   0.783
 4247TIP3   OH212746   1.301   1.995   0.298
 4247TIP3    H112747   1.301   2.081   0.255
 4247TIP3    H212748   1.389   1.988   0.336
 4248TIP3   OH212749   2.906   4.989   1.620
 4248TIP3    H112750   2.846   4.987   1.545
 4248TIP3    H212751   2.923   4.897   1.640
 4249TIP3   OH212752   0.100   0.142   2.275
 4249TIP3    H112753   0.094   0.143   2.371
 4249TIP3    H212754   0.121   0.052   2.253
 4250TIP3   OH212755   0.894   2.244   3.067
 4250TIP3    H112756   0.880   2.151   3.048
 4250TIP3    H212757   0.953   2.274   2.998
 4251TIP3   OH212758   1.334   4.460   2.148
 4251TIP3    H112759   1.412   4.499   2.187
 4251TIP3    H212760   1.266   4.470   2.214
 4252TIP3   OH212761   4.795   4.755   1.968
 4252TIP3    H112762   4.754   4.703   2.038
 4252TIP3    H212763   4.879   4.712   1.953
 4253TIP3   OH212764   3.773   0.689   0.611
 4253TIP3    H112765   3.778   0.601   0.574
 4253TIP3    H212766   3.860   0.706   0.647
 4254TIP3   OH212767   4.923   2.497   3.479
 4254TIP3    H112768   4.916   2.420   3.536
 4254TIP3    H212769   4.988   2.472   3.414
 4255TIP3   OH212770   0.591   2.468   1.902
 4255TIP3    H112771   0.669   2.430   1.862
 4255TIP3    H212772   0.578   2.551   1.855
 4256TIP3   OH212773   2.737   4.381   0.897
 4256TIP3    H112774   2.823   4.424   0.888
 4256TIP3    H212775   2.677   4.453   0.918
 4257TIP3   OH212776   2.227   3.843   0.307
 4257TIP3    H112777   2.231   3.939   0.304
 4257TIP3    H212778   2.135   3.823   0.326
 4258TIP3   OH212779   0.506   2.461   2.419
 4258TIP3    H112780   0.416   2.495   2.415
 4258TIP3    H212781   0.528   2.442   2.328
 4259TIP3   OH212782   0.070   0.406   3.008
 4259TIP3    H112783   0.140   0.342   3.000
 4259TIP3    H212784   0.002   0.361   3.059
 4260TIP3   OH212785   1.010   4.918   0.650
 4260TIP3    H112786   1.037   4.833   0.683
 4260TIP3    H212787   1.085   4.949   0.599
 4261TIP3   OH212788   1.260   4.969   1.531
 4261TIP3    H112789   1.300   4.992   1.614
 4261TIP3    H212790   1.332   4.968   1.468
 4262TIP3   OH212791   5.354   1.271   2.987
 4262TIP3    H112792   5.432   1.323   2.972
 4262TIP3    H212793   5.285   1.335   3.003
 4263TIP3   OH212794   0.275   1.488   1.933
 4263TIP3    H112795   0.351   1.434   1.955
 4263TIP3    H212796   0.302   1.578   1.954
 4264TIP3   OH212797   0.440   4.572   4.903
 4264TIP3    H112798   0.436   4.645   4.841
 4264TIP3    H212799   0.355   4.573   4.946
 4265TIP3   OH212800   1.303   0.226   3.444
 4265TIP3    H112801   1.398   0.231   3.450
 4265TIP3    H212802   1.283   0.252   3.354
 4266TIP3   OH212803   2.824   3.598   3.963
 4266TIP3    H112804   2.881   3.674   3.974
 4266TIP3    H212805   2.871   3.542   3.900
 4267TIP3   OH212806   1.595   5.697   4.088
 4267TIP3    H112807   1.544   5.776   4.074
 4267TIP3    H212808   1.589   5.681   4.183
 4268TIP3   OH212809   0.938   3.922   1.577
 4268TIP3    H112810   0.934   3.919   1.482
 4268TIP3    H212811   0.848   3.940   1.604
 4269TIP3   OH212812   1.348   0.027   0.796
 4269TIP3    H112813   1.294   0.037   0.718
 4269TIP3    H212814   1.438   0.026   0.763
 4270TIP3   OH212815   3.522   3.474   3.847
 4270TIP3    H112816   3.527   3.473   3.752
 4270TIP3    H212817   3.566   3.393   3.875
 4271TIP3   OH212818   2.014   2.336   2.797
 4271TIP3    H112819   2.037   2.349   2.889
 4271TIP3    H212820   1.922   2.360   2.792
 4272TIP3   OH212821   3.418   1.421   2.590
 4272TIP3    H112822   3.369   1.434   2.671
 4272TIP3    H212823   3.410   1.504   2.543
 4273TIP3   OH212824   0.862   2.415   3.885
 4273TIP3    H112825   0.870   2.332   3.838
 4273TIP3    H212826   0.806   2.469   3.829
 4274TIP3   OH212827   3.506   2.315   4.686
 4274TIP3    H112828   3.431   2.256   4.699
 4274TIP3    H212829   3.576   2.276   4.738
 4275TIP3   OH212830   3.504   4.909   1.079
 4275TIP3    H112831   3.509   4.827   1.029
 4275TIP3    H212832   3.571   4.901   1.146
 4276TIP3   OH212833   3.606   4.527   3.641
 4276TIP3    H112834   3.518   4.561   3.660
 4276TIP3    H212835   3.654   4.604   3.610
 4277TIP3   OH212836   4.868   1.717   2.495
 4277TIP3    H112837   4.859   1.731   2.589
 4277TIP3    H212838   4.796   1.659   2.472
 4278TIP3   OH212839   3.947   2.033   4.008
 4278TIP3    H112840   4.020   2.058   4.065
 4278TIP3    H212841   3.885   1.989   4.066
 4279TIP3   OH212842   1.039   2.571   3.606
 4279TIP3    H112843   1.010   2.493   3.653
 4279TIP3    H212844   1.039   2.640   3.672
 4280TIP3   OH212845   1.566   4.544   0.613
 4280TIP3    H112846   1.520   4.629   0.619
 4280TIP3    H212847   1.607   4.545   0.526
 4281TIP3   OH212848   4.986   5.684   2.826
 4281TIP3    H112849   5.020   5.648   2.908
 4281TIP3    H212850   5.063   5.691   2.769
 4282TIP3   OH212851   6.031   2.180   4.774
 4282TIP3    H112852   6.027   2.088   4.750
 4282TIP3    H212853   5.940   2.204   4.795
 4283TIP3   OH212854   3.445   0.392   3.662
 4283TIP3    H112855   3.462   0.311   3.614
 4283TIP3    H212856   3.501   0.386   3.740
 4284TIP3   OH212857   3.587   3.209   1.191
 4284TIP3    H112858   3.611   3.118   1.178
 4284TIP3    H212859   3.545   3.211   1.277
 4285TIP3   OH212860   1.335   3.749   4.379
 4285TIP3    H112861   1.341   3.835   4.420
 4285TIP3    H212862   1.368   3.689   4.446
 4286TIP3   OH212863   5.511   1.849   2.080
 4286TIP3    H112864   5.489   1.763   2.043
 4286TIP3    H212865   5.435   1.903   2.060
 4287TIP3   OH212866   4.895   4.731   0.213
 4287TIP3    H112867   4.934   4.814   0.243
 4287TIP3    H212868   4.874   4.684   0.293
 4288TIP3   OH212869   4.138   3.384   4.689
 4288TIP3    H112870   4.224   3.420   4.708
 4288TIP3    H212871   4.092   3.387   4.773
 4289TIP3   OH212872   3.822   4.363   1.864
 4289TIP3    H112873   3.793   4.271   1.857
 4289TIP3    H212874   3.851   4.385   1.776
 4290TIP3   OH212875   0.145   0.013   3.114
 4290TIP3    H112876   0.211   0.078   3.137
 4290TIP3    H212877   0.162  -0.061   3.173
 4291TIP3   OH212878   5.138   0.600   1.877
 4291TIP3    H112879   5.103   0.669   1.821
 4291TIP3    H212880   5.061   0.552   1.907
 4292TIP3   OH212881   5.480   4.897   3.822
 4292TIP3    H112882   5.437   4.893   3.908
 4292TIP3    H212883   5.555   4.838   3.831
 4293TIP3   OH212884   1.885   2.424   0.815
 4293TIP3    H112885   1.792   2.440   0.831
 4293TIP3    H212886   1.917   2.384   0.896
 4294TIP3   OH212887   1.550   4.225   2.345
 4294TIP3    H112888   1.576   4.194   2.432
 4294TIP3    H212889   1.553   4.146   2.290
 4295TIP3   OH212890   1.176   3.901   0.515
 4295TIP3    H112891   1.085   3.901   0.545
 4295TIP3    H212892   1.173   3.945   0.430
 4296TIP3   OH212893   1.266   1.317   3.101
 4296TIP3    H112894   1.326   1.392   3.098
 4296TIP3    H212895   1.200   1.337   3.035
 4297TIP3   OH212896   5.796   0.167   3.729
 4297TIP3    H112897   5.719   0.186   3.783
 4297TIP3    H212898   5.838   0.092   3.771
 4298TIP3   OH212899   5.657   5.887   3.328
 4298TIP3    H112900   5.604   5.894   3.249
 4298TIP3    H212901   5.718   5.961   3.322
 4299TIP3   OH212902   2.021   4.017   0.103
 4299TIP3    H112903   2.114   4.039   0.110
 4299TIP3    H212904   1.978   4.100   0.083
 4300TIP3   OH212905   2.513   3.228   3.012
 4300TIP3    H112906   2.522   3.175   3.091
 4300TIP3    H212907   2.603   3.248   2.986
 4301TIP3   OH212908   3.860   4.985   0.376
 4301TIP3    H112909   3.911   5.007   0.299
 4301TIP3    H212910   3.786   5.045   0.374
 4302TIP3   OH212911   2.315   3.459   3.072
 4302TIP3    H112912   2.378   3.402   3.116
 4302TIP3    H212913   2.232   3.412   3.078
 4303TIP3   OH212914   6.006   0.281   1.626
 4303TIP3    H112915   6.010   0.316   1.715
 4303TIP3    H212916   5.927   0.320   1.589
 4304TIP3   OH212917   2.795   1.562   1.171
 4304TIP3    H112918   2.849   1.623   1.121
 4304TIP3    H212919   2.712   1.561   1.125
 4305TIP3   OH212920   2.542   1.221   3.406
 4305TIP3    H112921   2.570   1.275   3.480
 4305TIP3    H212922   2.520   1.137   3.445
 4306TIP3   OH212923   5.807   3.511   0.096
 4306TIP3    H112924   5.750   3.482   0.025
 4306TIP3    H212925   5.761   3.586   0.135
 4307TIP3   OH212926   5.685   1.938   2.262
 4307TIP3    H112927   5.741   1.867   2.292
 4307TIP3    H212928   5.621   1.896   2.204
 4308TIP3   OH212929   0.087   5.432   0.679
 4308TIP3    H112930   0.091   5.527   0.676
 4308TIP3    H212931   0.177   5.403   0.664
 4309TIP3   OH212932   1.769   0.045   3.596
 4309TIP3    H112933   1.847   0.099   3.608
 4309TIP3    H212934   1.796  -0.043   3.622
 4310TIP3   OH212935   1.516   3.255   0.833
 4310TIP3    H112936   1.580   3.326   0.837
 4310TIP3    H212937   1.448   3.287   0.773
 4311TIP3   OH212938   0.561   1.616   1.546
 4311TIP3    H112939   0.597   1.610   1.457
 4311TIP3    H212940   0.560   1.526   1.577
 4312TIP3   OH212941   2.636   3.137   4.752
 4312TIP3    H112942   2.632   3.126   4.657
 4312TIP3    H212943   2.620   3.230   4.766
 4313TIP3   OH212944   2.879   4.549   2.911
 4313TIP3    H112945   2.876   4.595   2.828
 4313TIP3    H212946   2.788   4.525   2.928
 4314TIP3   OH212947   4.908   3.248   3.648
 4314TIP3    H112948   4.920   3.153   3.659
 4314TIP3    H212949   4.942   3.265   3.560
 4315TIP3   OH212950   3.460   5.548   0.075
 4315TIP3    H112951   3.448   5.600  -0.004
 4315TIP3    H212952   3.378   5.499   0.085
 4316TIP3   OH212953   3.763   0.066   0.018
 4316TIP3    H112954   3.776   0.057  -0.076
 4316TIP3    H212955   3.821   0.000   0.057
 4317TIP3   OH212956   0.144   2.493   4.694
 4317TIP3    H112957   0.129   2.539   4.611
 4317TIP3    H212958   0.129   2.559   4.761
 4318TIP3   OH212959   0.575   2.455   5.082
 4318TIP3    H112960   0.615   2.535   5.116
 4318TIP3    H212961   0.531   2.416   5.158
 4319TIP3   OH212962   1.026   2.657   2.956
 4319TIP3    H112963   1.067   2.715   3.021
 4319TIP3    H212964   1.042   2.700   2.872
 4320TIP3   OH212965   4.213   1.665   4.992
 4320TIP3    H112966   4.173   1.711   5.066
 4320TIP3    H212967   4.286   1.721   4.966
 4321TIP3   OH212968   4.725   4.835   4.312
 4321TIP3    H112969   4.669   4.864   4.384
 4321TIP3    H212970   4.664   4.801   4.246
 4322TIP3   OH212971   5.015   2.793   2.811
 4322TIP3    H112972   5.101   2.834   2.802
 4322TIP3    H212973   5.032   2.710   2.856
 4323TIP3   OH212974   1.621   5.671   2.894
 4323TIP3    H112975   1.528   5.679   2.917
 4323TIP3    H212976   1.637   5.577   2.889
 4324TIP3   OH212977   5.963   0.139   0.320
 4324TIP3    H112978   5.925   0.067   0.269
 4324TIP3    H212979   6.056   0.117   0.326
 4325TIP3   OH212980   3.819   1.492   1.796
 4325TIP3    H112981   3.782   1.404   1.796
 4325TIP3    H212982   3.913   1.479   1.806
 4326TIP3   OH212983   0.232   4.034  -0.032
 4326TIP3    H112984   0.153   4.072  -0.070
 4326TIP3    H212985   0.244   4.079   0.051
 4327TIP3   OH212986   4.536   1.559   5.056
 4327TIP3    H112987   4.508   1.482   5.008
 4327TIP3    H212988   4.585   1.611   4.992
 4328TIP3   OH212989   0.091   0.717   4.401
 4328TIP3    H112990   0.059   0.802   4.433
 4328TIP3    H212991   0.073   0.656   4.472
 4329TIP3   OH212992   3.426   4.256   4.345
 4329TIP3    H112993   3.365   4.182   4.346
 4329TIP3    H212994   3.371   4.333   4.348
 4330TIP3   OH212995   5.053   3.899   3.883
 4330TIP3    H112996   4.998   3.953   3.826
 4330TIP3    H212997   4.991   3.858   3.943
 4331TIP3   OH212998   3.620   2.606   4.982
 4331TIP3    H112999   3.654   2.641   4.899
 4331TIP3    H213000   3.668   2.654   5.049
 4332TIP3   OH213001   5.178   5.570   3.014
 4332TIP3    H113002   5.153   5.479   3.004
 4332TIP3    H213003   5.273   5.570   3.004
 4333TIP3   OH213004   3.859   4.305   0.401
 4333TIP3    H113005   3.842   4.230   0.344
 4333TIP3    H213006   3.954   4.304   0.415
 4334TIP3   OH213007   0.507   3.959   0.023
 4334TIP3    H113008   0.422   3.954  -0.020
 4334TIP3    H213009   0.488   3.991   0.111
 4335TIP3   OH213010   1.291   4.867   3.518
 4335TIP3    H113011   1.225   4.936   3.519
 4335TIP3    H213012   1.242   4.788   3.541
 4336TIP3   OH213013   0.233   2.216   0.231
 4336TIP3    H113014   0.250   2.276   0.304
 4336TIP3    H213015   0.283   2.252   0.158
 4337TIP3   OH213016   1.941   3.919   1.966
 4337TIP3    H113017   1.965   3.999   2.012
 4337TIP3    H213018   1.846   3.911   1.977
 4338TIP3   OH213019   5.340   4.980   3.547
 4338TIP3    H113020   5.268   5.023   3.593
 4338TIP3    H213021   5.371   4.913   3.608
 4339TIP3   OH213022   5.282   1.192   2.425
 4339TIP3    H113023   5.369   1.203   2.388
 4339TIP3    H213024   5.283   1.105   2.464
 4340TIP3   OH213025   3.075   0.937   1.323
 4340TIP3    H113026   3.084   0.868   1.388
 4340TIP3    H213027   3.055   1.016   1.373
 4341TIP3   OH213028   2.957   3.620   4.534
 4341TIP3    H113029   3.041   3.632   4.578
 4341TIP3    H213030   2.892   3.628   4.604
 4342TIP3   OH213031   0.925   3.528   3.493
 4342TIP3    H113032   0.898   3.470   3.422
 4342TIP3    H213033   0.843   3.563   3.528
 4343TIP3   OH213034   5.964   2.542   2.538
 4343TIP3    H113035   6.050   2.503   2.521
 4343TIP3    H213036   5.901   2.476   2.507
 4344TIP3   OH213037   5.611   5.440   1.098
 4344TIP3    H113038   5.582   5.398   1.017
 4344TIP3    H213039   5.655   5.370   1.147
 4345TIP3   OH213040   0.431   4.435   1.978
 4345TIP3    H113041   0.483   4.493   1.922
 4345TIP3    H213042   0.381   4.381   1.917
 4346TIP3   OH213043   2.064   5.065   4.816
 4346TIP3    H113044   2.155   5.045   4.795
 4346TIP3    H213045   2.042   5.140   4.762
 4347TIP3   OH213046   5.725   5.903   3.592
 4347TIP3    H113047   5.813   5.937   3.576
 4347TIP3    H213048   5.696   5.870   3.507
 4348TIP3   OH213049   5.570   0.054   2.534
 4348TIP3    H113050   5.503   0.123   2.543
 4348TIP3    H213051   5.554   0.017   2.447
 4349TIP3   OH213052   5.551   5.303   2.974
 4349TIP3    H113053   5.510   5.258   3.048
 4349TIP3    H213054   5.644   5.307   2.997
 4350TIP3   OH213055   1.749   1.606   2.988
 4350TIP3    H113056   1.833   1.581   3.026
 4350TIP3    H213057   1.740   1.699   3.012
 4351TIP3   OH213058   2.204   5.467   4.540
 4351TIP3    H113059   2.161   5.543   4.579
 4351TIP3    H213060   2.156   5.452   4.458
 4352TIP3   OH213061   2.933   1.520   0.131
 4352TIP3    H113062   2.978   1.475   0.203
 4352TIP3    H213063   2.960   1.611   0.139
 4353TIP3   OH213064   0.041   2.812   3.237
 4353TIP3    H113065   0.021   2.754   3.311
 4353TIP3    H213066   0.136   2.804   3.225
 4354TIP3   OH213067   1.620   1.345   0.102
 4354TIP3    H113068   1.574   1.414   0.055
 4354TIP3    H213069   1.570   1.335   0.183
 4355TIP3   OH213070   4.067   5.383   4.560
 4355TIP3    H113071   4.038   5.437   4.487
 4355TIP3    H213072   4.154   5.352   4.533
 4356TIP3   OH213073   1.529   5.163   2.456
 4356TIP3    H113074   1.619   5.185   2.431
 4356TIP3    H213075   1.482   5.156   2.374
 4357TIP3   OH213076   2.404   0.006   5.057
 4357TIP3    H113077   2.348   0.033   5.130
 4357TIP3    H213078   2.439   0.088   5.022
 4358TIP3   OH213079   5.138   5.107   1.127
 4358TIP3    H113080   5.178   5.182   1.083
 4358TIP3    H213081   5.085   5.066   1.059
 4359TIP3   OH213082   1.533   2.227   3.195
 4359TIP3    H113083   1.589   2.153   3.172
 4359TIP3    H213084   1.535   2.230   3.291
 4360TIP3   OH213085   0.458   1.664   2.609
 4360TIP3    H113086   0.488   1.711   2.532
 4360TIP3    H213087   0.535   1.658   2.666
 4361TIP3   OH213088   0.673   3.713   1.415
 4361TIP3    H113089   0.612   3.782   1.389
 4361TIP3    H213090   0.711   3.682   1.334
 4362TIP3   OH213091   5.129   3.430   4.716
 4362TIP3    H113092   5.077   3.456   4.792
 4362TIP3    H213093   5.177   3.353   4.746
 4363TIP3   OH213094   1.703   1.502   4.595
 4363TIP3    H113095   1.685   1.586   4.638
 4363TIP3    H213096   1.642   1.440   4.636
 4364TIP3   OH213097   3.850   2.240   4.516
 4364TIP3    H113098   3.808   2.155   4.500
 4364TIP3    H213099   3.904   2.226   4.594
 4365TIP3   OH213100   1.879   5.050   1.683
 4365TIP3    H113101   1.964   5.059   1.639
 4365TIP3    H213102   1.817   5.094   1.625
 4366TIP3   OH213103   5.002   4.119   3.706
 4366TIP3    H113104   5.023   4.212   3.715
 4366TIP3    H213105   5.023   4.098   3.615
 4367TIP3   OH213106   0.846   1.077   0.665
 4367TIP3    H113107   0.805   1.089   0.751
 4367TIP3    H213108   0.838   1.162   0.623
 4368TIP3   OH213109   2.683   3.463   3.167
 4368TIP3    H113110   2.705   3.429   3.080
 4368TIP3    H213111   2.768   3.483   3.207
 4369TIP3   OH213112   5.984   4.517   0.204
 4369TIP3    H113113   5.956   4.600   0.242
 4369TIP3    H213114   6.029   4.472   0.276
 4370TIP3   OH213115   2.737   0.348   3.854
 4370TIP3    H113116   2.797   0.273   3.858
 4370TIP3    H213117   2.764   0.396   3.776
 4371TIP3   OH213118   0.980   2.034   1.974
 4371TIP3    H113119   1.030   2.074   1.902
 4371TIP3    H213120   1.043   2.027   2.046
 4372TIP3   OH213121   5.625   1.115   2.321
 4372TIP3    H113122   5.670   1.176   2.380
 4372TIP3    H213123   5.633   1.155   2.234
 4373TIP3   OH213124   3.689   2.261   4.224
 4373TIP3    H113125   3.618   2.198   4.233
 4373TIP3    H213126   3.679   2.320   4.298
 4374TIP3   OH213127   2.747   0.530   4.105
 4374TIP3    H113128   2.700   0.499   4.028
 4374TIP3    H213129   2.839   0.513   4.086
 4375TIP3   OH213130   0.462   4.693   4.109
 4375TIP3    H113131   0.506   4.751   4.047
 4375TIP3    H213132   0.390   4.655   4.059
 4376TIP3   OH213133   3.984   3.940   4.037
 4376TIP3    H113134   4.053   3.903   4.092
 4376TIP3    H213135   3.904   3.928   4.088
 4377TIP3   OH213136   2.711   0.774   0.898
 4377TIP3    H113137   2.663   0.854   0.877
 4377TIP3    H213138   2.797   0.805   0.927
 4378TIP3   OH213139   0.766   5.678   0.423
 4378TIP3    H113140   0.857   5.684   0.452
 4378TIP3    H213141   0.772   5.655   0.330
 4379TIP3   OH213142   2.283   2.736   3.901
 4379TIP3    H113143   2.245   2.726   3.988
 4379TIP3    H213144   2.354   2.672   3.898
 4380TIP3   OH213145   5.802   3.925   5.152
 4380TIP3    H113146   5.865   3.904   5.082
 4380TIP3    H213147   5.740   3.985   5.110
 4381TIP3   OH213148   4.837   5.952   2.548
 4381TIP3    H113149   4.849   5.904   2.466
 4381TIP3    H213150   4.811   5.884   2.611
 4382TIP3   OH213151   1.665   1.028   3.995
 4382TIP3    H113152   1.752   1.066   3.985
 4382TIP3    H213153   1.638   1.007   3.906
 4383TIP3   OH213154   2.398   1.369   1.801
 4383TIP3    H113155   2.428   1.298   1.744
 4383TIP3    H213156   2.344   1.424   1.745
 4384TIP3   OH213157   2.508   0.100   2.762
 4384TIP3    H113158   2.547   0.050   2.833
 4384TIP3    H213159   2.554   0.071   2.683
 4385TIP3   OH213160   1.187   4.923   0.405
 4385TIP3    H113161   1.207   5.017   0.405
 4385TIP3    H213162   1.119   4.914   0.337
 4386TIP3   OH213163   0.114   3.969   3.767
 4386TIP3    H113164   0.131   3.877   3.747
 4386TIP3    H213165   0.113   3.973   3.863
 4387TIP3   OH213166   1.974   5.391  -0.047
 4387TIP3    H113167   1.905   5.347   0.003
 4387TIP3    H213168   2.019   5.446   0.018
 4388TIP3   OH213169   0.865   0.528   3.768
 4388TIP3    H113170   0.844   0.550   3.859
 4388TIP3    H213171   0.959   0.541   3.761
 4389TIP3   OH213172   2.632   3.869   0.922
 4389TIP3    H113173   2.546   3.882   0.882
 4389TIP3    H213174   2.685   3.942   0.888
 4390TIP3   OH213175   5.020   5.682   4.338
 4390TIP3    H113176   4.950   5.746   4.353
 4390TIP3    H213177   4.984   5.620   4.275
 4391TIP3   OH213178   1.276   0.774   3.256
 4391TIP3    H113179   1.227   0.696   3.231
 4391TIP3    H213180   1.225   0.814   3.327
 4392TIP3   OH213181   2.867   0.346   3.177
 4392TIP3    H113182   2.830   0.431   3.202
 4392TIP3    H213183   2.950   0.341   3.224
 4393TIP3   OH213184  -0.016   2.780   1.832
 4393TIP3    H113185  -0.023   2.857   1.777
 4393TIP3    H213186  -0.038   2.706   1.774
 4394TIP3   OH213187   3.033   3.200   1.879
 4394TIP3    H113188   2.984   3.210   1.961
 4394TIP3    H213189   2.969   3.165   1.817
 4395TIP3   OH213190   0.859   1.559   4.705
 4395TIP3    H113191   0.784   1.536   4.649
 4395TIP3    H213192   0.893   1.640   4.667
 4396TIP3   OH213193   0.919   1.395   1.176
 4396TIP3    H113194   0.919   1.372   1.083
 4396TIP3    H213195   0.960   1.320   1.219
 4397TIP3   OH213196   0.908   2.297   1.123
 4397TIP3    H113197   0.974   2.238   1.088
 4397TIP3    H213198   0.851   2.316   1.048
 4398TIP3   OH213199   5.127   4.362   3.668
 4398TIP3    H113200   5.188   4.288   3.656
 4398TIP3    H213201   5.181   4.440   3.654
 4399TIP3   OH213202   4.626   0.887   0.144
 4399TIP3    H113203   4.627   0.850   0.232
 4399TIP3    H213204   4.534   0.906   0.127
 4400TIP3   OH213205   4.286   1.003   3.928
 4400TIP3    H113206   4.306   0.937   3.862
 4400TIP3    H213207   4.211   1.050   3.892
 4401TIP3   OH213208   4.308   2.416   4.765
 4401TIP3    H113209   4.393   2.394   4.802
 4401TIP3    H213210   4.328   2.484   4.700
 4402TIP3   OH213211   6.314   0.551   1.219
 4402TIP3    H113212   6.310   0.457   1.202
 4402TIP3    H213213   6.231   0.585   1.184
 4403TIP3   OH213214   4.344   3.555   4.742
 4403TIP3    H113215   4.355   3.591   4.830
 4403TIP3    H213216   4.302   3.625   4.692
 4404TIP3   OH213217   3.093   5.622   1.123
 4404TIP3    H113218   3.052   5.548   1.167
 4404TIP3    H213219   3.135   5.585   1.046
 4405TIP3   OH213220   4.789   0.975   1.193
 4405TIP3    H113221   4.698   1.005   1.203
 4405TIP3    H213222   4.837   1.025   1.259
 4406TIP3   OH213223   2.793   1.901   2.738
 4406TIP3    H113224   2.799   1.940   2.825
 4406TIP3    H213225   2.747   1.967   2.686
 4407TIP3   OH213226   5.396   5.668   3.290
 4407TIP3    H113227   5.347   5.731   3.343
 4407TIP3    H213228   5.328   5.622   3.239
 4408TIP3   OH213229   6.103   2.109   3.342
 4408TIP3    H113230   6.064   2.153   3.418
 4408TIP3    H213231   6.029   2.092   3.284
 4409TIP3   OH213232   3.062   4.159   0.727
 4409TIP3    H113233   3.120   4.113   0.788
 4409TIP3    H213234   3.118   4.225   0.686
 4410TIP3   OH213235   2.018   2.086   1.372
 4410TIP3    H113236   2.033   2.061   1.463
 4410TIP3    H213237   1.930   2.122   1.371
 4411TIP3   OH213238   3.565   5.574   0.402
 4411TIP3    H113239   3.635   5.595   0.464
 4411TIP3    H213240   3.550   5.656   0.355
 4412TIP3   OH213241   1.569   0.866   3.327
 4412TIP3    H113242   1.648   0.816   3.304
 4412TIP3    H213243   1.561   0.855   3.422
 4413TIP3   OH213244   3.978   0.725   3.892
 4413TIP3    H113245   4.057   0.712   3.839
 4413TIP3    H213246   3.922   0.780   3.837
 4414TIP3   OH213247   5.014   1.795   4.769
 4414TIP3    H113248   4.938   1.756   4.726
 4414TIP3    H213249   4.977   1.839   4.846
 4415TIP3   OH213250   6.092   2.251   2.005
 4415TIP3    H113251   6.143   2.308   1.947
 4415TIP3    H213252   6.007   2.293   2.011
 4416TIP3   OH213253   4.168   3.492   0.584
 4416TIP3    H113254   4.152   3.517   0.493
 4416TIP3    H213255   4.236   3.424   0.578
 4417TIP3   OH213256   5.109   4.315   2.766
 4417TIP3    H113257   5.044   4.353   2.708
 4417TIP3    H213258   5.062   4.300   2.849
 4418TIP3   OH213259   1.404   0.552   3.520
 4418TIP3    H113260   1.316   0.538   3.483
 4418TIP3    H213261   1.463   0.535   3.447
 4419TIP3   OH213262   3.603   0.157   4.734
 4419TIP3    H113263   3.559   0.082   4.774
 4419TIP3    H213264   3.592   0.144   4.640
 4420TIP3   OH213265   2.375   1.437   0.979
 4420TIP3    H113266   2.297   1.468   0.934
 4420TIP3    H213267   2.354   1.443   1.072
 4421TIP3   OH213268   3.158   4.375   0.589
 4421TIP3    H113269   3.163   4.442   0.520
 4421TIP3    H213270   3.247   4.340   0.593
 4422TIP3   OH213271   3.007   1.416   3.413
 4422TIP3    H113272   3.008   1.353   3.486
 4422TIP3    H213273   3.057   1.491   3.446
 4423TIP3   OH213274   0.541   2.814   2.005
 4423TIP3    H113275   0.558   2.906   1.985
 4423TIP3    H213276   0.567   2.767   1.926
 4424TIP3   OH213277   1.874   0.053   1.923
 4424TIP3    H113278   1.865  -0.042   1.920
 4424TIP3    H213279   1.865   0.075   2.016
 4425TIP3   OH213280   5.558   1.014   0.552
 4425TIP3    H113281   5.574   1.012   0.457
 4425TIP3    H213282   5.560   0.921   0.577
 4426TIP3   OH213283   1.659   2.588   4.392
 4426TIP3    H113284   1.684   2.534   4.468
 4426TIP3    H213285   1.707   2.549   4.319
 4427TIP3   OH213286   5.683   2.291   3.289
 4427TIP3    H113287   5.656   2.200   3.292
 4427TIP3    H213288   5.601   2.340   3.281
 4428TIP3   OH213289   5.178   1.193   3.382
 4428TIP3    H113290   5.087   1.165   3.375
 4428TIP3    H213291   5.204   1.166   3.471
 4429TIP3   OH213292   3.447   2.295   3.963
 4429TIP3    H113293   3.499   2.287   4.043
 4429TIP3    H213294   3.378   2.357   3.985
 4430TIP3   OH213295   6.063   5.371   4.850
 4430TIP3    H113296   5.978   5.327   4.849
 4430TIP3    H213297   6.052   5.445   4.791
 4431TIP3   OH213298   4.115   1.267   2.273
 4431TIP3    H113299   4.045   1.267   2.207
 4431TIP3    H213300   4.075   1.307   2.350
 4432TIP3   OH213301   2.039   1.964   2.649
 4432TIP3    H113302   2.070   1.942   2.737
 4432TIP3    H213303   1.958   2.013   2.664
 4433TIP3   OH213304   3.333   4.537   1.156
 4433TIP3    H113305   3.261   4.535   1.219
 4433TIP3    H213306   3.330   4.452   1.113
 4434TIP3   OH213307   2.594   4.274   0.342
 4434TIP3    H113308   2.627   4.260   0.253
 4434TIP3    H213309   2.574   4.367   0.347
 4435TIP3   OH213310   1.623   2.993   1.660
 4435TIP3    H113311   1.686   2.994   1.588
 4435TIP3    H213312   1.541   3.022   1.621
 4436TIP3   OH213313   4.787   4.699   2.955
 4436TIP3    H113314   4.742   4.617   2.977
 4436TIP3    H213315   4.759   4.718   2.865
 4437TIP3   OH213316   3.932   5.255   3.328
 4437TIP3    H113317   3.883   5.326   3.287
 4437TIP3    H213318   3.865   5.200   3.368
 4438TIP3   OH213319   3.910   0.615   4.310
 4438TIP3    H113320   3.909   0.614   4.406
 4438TIP3    H213321   4.001   0.597   4.287
 4439TIP3   OH213322   0.619   5.688   3.611
 4439TIP3    H113323   0.564   5.624   3.656
 4439TIP3    H213324   0.563   5.764   3.599
 4440TIP3   OH213325   5.798   5.491   2.173
 4440TIP3    H113326   5.760   5.439   2.101
 4440TIP3    H213327   5.726   5.546   2.204
 4441TIP3   OH213328   5.016   1.126   0.299
 4441TIP3    H113329   5.024   1.218   0.322
 4441TIP3    H213330   4.959   1.126   0.222
 4442TIP3   OH213331   0.886   3.218   0.852
 4442TIP3    H113332   0.800   3.187   0.880
 4442TIP3    H213333   0.908   3.163   0.777
 4443TIP3   OH213334   0.313   0.109   1.595
 4443TIP3    H113335   0.274   0.126   1.509
 4443TIP3    H213336   0.264   0.034   1.629
 4444TIP3   OH213337   0.651   1.279   1.277
 4444TIP3    H113338   0.563   1.286   1.315
 4444TIP3    H213339   0.671   1.367   1.246
 4445TIP3   OH213340   3.781   1.055   2.346
 4445TIP3    H113341   3.714   1.001   2.304
 4445TIP3    H213342   3.809   1.004   2.421
 4446TIP3   OH213343   1.656   1.578   3.402
 4446TIP3    H113344   1.567   1.614   3.399
 4446TIP3    H213345   1.651   1.497   3.351
 4447TIP3   OH213346   5.119   1.662   2.080
 4447TIP3    H113347   5.119   1.635   2.172
 4447TIP3    H213348   5.056   1.734   2.076
 4448TIP3   OH213349   2.178   3.614   4.250
 4448TIP3    H113350   2.253   3.575   4.204
 4448TIP3    H213351   2.207   3.622   4.341
 4449TIP3   OH213352   0.872   3.179   1.942
 4449TIP3    H113353   0.810   3.230   1.890
 4449TIP3    H213354   0.957   3.197   1.903
 4450TIP3   OH213355   3.400   5.418   2.606
 4450TIP3    H113356   3.489   5.388   2.620
 4450TIP3    H213357   3.400   5.508   2.638
 4451TIP3   OH213358   0.392   1.900   0.113
 4451TIP3    H113359   0.342   1.954   0.174
 4451TIP3    H213360   0.388   1.812   0.149
 4452TIP3   OH213361   2.927   4.781   1.816
 4452TIP3    H113362   2.946   4.734   1.897
 4452TIP3    H213363   2.839   4.817   1.829
 4453TIP3   OH213364   4.482   3.616   1.182
 4453TIP3    H113365   4.483   3.662   1.098
 4453TIP3    H213366   4.543   3.665   1.237
 4454TIP3   OH213367   4.598   3.194   1.254
 4454TIP3    H113368   4.508   3.183   1.220
 4454TIP3    H213369   4.591   3.171   1.346
 4455TIP3   OH213370   1.168   2.498   0.841
 4455TIP3    H113371   1.083   2.541   0.852
 4455TIP3    H213372   1.205   2.539   0.762
 4456TIP3   OH213373   1.893   1.909   0.119
 4456TIP3    H113374   1.863   2.000   0.109
 4456TIP3    H213375   1.814   1.860   0.139
 4457TIP3   OH213376   1.197   5.171   1.046
 4457TIP3    H113377   1.168   5.244   0.992
 4457TIP3    H213378   1.282   5.198   1.080
 4458TIP3   OH213379   1.328   0.100   0.423
 4458TIP3    H113380   1.246   0.090   0.471
 4458TIP3    H213381   1.309   0.166   0.356
 4459TIP3   OH213382   2.956   1.211   2.876
 4459TIP3    H113383   2.959   1.189   2.969
 4459TIP3    H213384   2.942   1.306   2.874
 4460TIP3   OH213385   5.147   2.704   0.602
 4460TIP3    H113386   5.223   2.694   0.545
 4460TIP3    H213387   5.123   2.796   0.595
 4461TIP3   OH213388   6.350   3.448   2.374
 4461TIP3    H113389   6.356   3.445   2.279
 4461TIP3    H213390   6.258   3.466   2.392
 4462TIP3   OH213391   0.649   4.408   0.503
 4462TIP3    H113392   0.702   4.339   0.463
 4462TIP3    H213393   0.576   4.361   0.544
 4463TIP3   OH213394   0.414   5.033   3.316
 4463TIP3    H113395   0.320   5.034   3.300
 4463TIP3    H213396   0.453   5.019   3.229
 4464TIP3   OH213397   4.888   4.711   4.119
 4464TIP3    H113398   4.881   4.693   4.213
 4464TIP3    H213399   4.881   4.806   4.113
 4465TIP3   OH213400   4.594   0.444   1.051
 4465TIP3    H113401   4.667   0.473   0.996
 4465TIP3    H213402   4.603   0.496   1.131
 4466TIP3   OH213403   3.327   3.379   0.193
 4466TIP3    H113404   3.389   3.452   0.189
 4466TIP3    H213405   3.288   3.376   0.106
 4467TIP3   OH213406   2.433   3.641   4.701
 4467TIP3    H113407   2.476   3.649   4.616
 4467TIP3    H213408   2.503   3.621   4.763
 4468TIP3   OH213409   4.344   0.356   3.961
 4468TIP3    H113410   4.267   0.380   3.909
 4468TIP3    H213411   4.323   0.270   3.997
 4469TIP3   OH213412   3.015   5.844   3.340
 4469TIP3    H113413   2.941   5.815   3.393
 4469TIP3    H213414   2.990   5.930   3.308
 4470TIP3   OH213415   4.115   0.364   3.831
 4470TIP3    H113416   4.035   0.391   3.876
 4470TIP3    H213417   4.084   0.306   3.761
 4471TIP3   OH213418   4.436   0.986   1.835
 4471TIP3    H113419   4.444   1.081   1.840
 4471TIP3    H213420   4.341   0.970   1.832
 4472TIP3   OH213421   5.388   4.342   1.436
 4472TIP3    H113422   5.470   4.325   1.390
 4472TIP3    H213423   5.408   4.416   1.493
 4473TIP3   OH213424   6.147   4.383   3.448
 4473TIP3    H113425   6.243   4.377   3.444
 4473TIP3    H213426   6.129   4.419   3.535
 4474TIP3   OH213427   5.160   2.828   5.097
 4474TIP3    H113428   5.115   2.837   5.013
 4474TIP3    H213429   5.252   2.811   5.074
 4475TIP3   OH213430   2.261   1.652   3.205
 4475TIP3    H113431   2.198   1.722   3.191
 4475TIP3    H213432   2.306   1.644   3.120
 4476TIP3   OH213433   5.651   4.739   4.622
 4476TIP3    H113434   5.576   4.716   4.567
 4476TIP3    H213435   5.685   4.820   4.584
 4477TIP3   OH213436   4.961   5.384   0.808
 4477TIP3    H113437   4.889   5.428   0.852
 4477TIP3    H213438   4.964   5.425   0.721
 4478TIP3   OH213439   1.806   1.597   0.141
 4478TIP3    H113440   1.893   1.561   0.123
 4478TIP3    H213441   1.784   1.566   0.229
 4479TIP3   OH213442   3.371   3.527   4.581
 4479TIP3    H113443   3.307   3.523   4.652
 4479TIP3    H213444   3.438   3.463   4.606
 4480TIP3   OH213445   2.538   2.198   1.161
 4480TIP3    H113446   2.453   2.178   1.201
 4480TIP3    H213447   2.601   2.149   1.214
 4481TIP3   OH213448   0.622   5.012   1.718
 4481TIP3    H113449   0.622   4.919   1.695
 4481TIP3    H213450   0.532   5.041   1.702
 4482TIP3   OH213451   5.497   5.416   4.298
 4482TIP3    H113452   5.551   5.459   4.233
 4482TIP3    H213453   5.413   5.461   4.294
 4483TIP3   OH213454   5.912   2.032   2.145
 4483TIP3    H113455   5.937   1.940   2.139
 4483TIP3    H213456   5.826   2.032   2.186
 4484TIP3   OH213457   3.670   1.717   2.813
 4484TIP3    H113458   3.606   1.775   2.853
 4484TIP3    H213459   3.665   1.735   2.719
 4485TIP3   OH213460   1.245   2.177   1.529
 4485TIP3    H113461   1.273   2.265   1.506
 4485TIP3    H213462   1.181   2.153   1.463
 4486TIP3   OH213463   4.854   3.589   5.049
 4486TIP3    H113464   4.940   3.548   5.050
 4486TIP3    H213465   4.860   3.657   4.982
 4487TIP3   OH213466   1.966   1.547   3.516
 4487TIP3    H113467   2.027   1.474   3.527
 4487TIP3    H213468   1.983   1.604   3.591
 4488TIP3   OH213469   5.092   3.011   2.245
 4488TIP3    H113470   5.183   2.995   2.267
 4488TIP3    H213471   5.047   2.929   2.268
 4489TIP3   OH213472   3.088   2.193   3.925
 4489TIP3    H113473   3.020   2.153   3.979
 4489TIP3    H213474   3.123   2.121   3.872
 4490TIP3   OH213475   3.812   2.931   2.846
 4490TIP3    H113476   3.736   2.909   2.792
 4490TIP3    H213477   3.860   2.995   2.794
 4491TIP3   OH213478   5.808   1.061   1.851
 4491TIP3    H113479   5.826   0.979   1.898
 4491TIP3    H213480   5.895   1.093   1.825
 4492TIP3   OH213481   1.699   4.457   3.957
 4492TIP3    H113482   1.653   4.495   4.032
 4492TIP3    H213483   1.630   4.429   3.897
 4493TIP3   OH213484   5.203   2.471   4.812
 4493TIP3    H113485   5.177   2.427   4.731
 4493TIP3    H213486   5.138   2.445   4.876
 4494TIP3   OH213487   3.295   5.705   4.064
 4494TIP3    H113488   3.231   5.717   4.134
 4494TIP3    H213489   3.369   5.661   4.105
 4495TIP3   OH213490   0.560   4.617   1.240
 4495TIP3    H113491   0.611   4.588   1.316
 4495TIP3    H213492   0.598   4.569   1.166
 4496TIP3   OH213493   5.291   3.130   2.021
 4496TIP3    H113494   5.228   3.178   2.075
 4496TIP3    H213495   5.367   3.118   2.078
 4497TIP3   OH213496   5.370   5.151   0.123
 4497TIP3    H113497   5.383   5.126   0.215
 4497TIP3    H213498   5.331   5.239   0.128
 4498TIP3   OH213499   4.177   5.544   2.495
 4498TIP3    H113500   4.247   5.547   2.560
 4498TIP3    H213501   4.122   5.619   2.517
 4499TIP3   OH213502   4.055   5.776   4.636
 4499TIP3    H113503   4.003   5.827   4.573
 4499TIP3    H213504   4.146   5.796   4.613
 4500TIP3   OH213505   5.611   3.365   3.125
 4500TIP3    H113506   5.679   3.326   3.071
 4500TIP3    H213507   5.529   3.330   3.089
 4501TIP3   OH213508   1.098   0.338   4.858
 4501TIP3    H113509   1.126   0.402   4.792
 4501TIP3    H213510   1.077   0.259   4.808
 4502TIP3   OH213511   5.642   5.566   4.118
 4502TIP3    H113512   5.686   5.487   4.088
 4502TIP3    H213513   5.575   5.583   4.052
 4503TIP3   OH213514   5.625   4.322   2.163
 4503TIP3    H113515   5.562   4.373   2.214
 4503TIP3    H213516   5.686   4.388   2.128
 4504TIP3   OH213517   3.494   0.789   0.063
 4504TIP3    H113518   3.513   0.771   0.156
 4504TIP3    H213519   3.562   0.850   0.036
 4505TIP3   OH213520   2.801   5.581   2.540
 4505TIP3    H113521   2.739   5.626   2.483
 4505TIP3    H213522   2.745   5.537   2.606
 4506TIP3   OH213523   4.577   2.317   2.436
 4506TIP3    H113524   4.603   2.388   2.495
 4506TIP3    H213525   4.522   2.260   2.490
 4507TIP3   OH213526   3.571   2.477   3.646
 4507TIP3    H113527   3.498   2.423   3.615
 4507TIP3    H213528   3.533   2.530   3.717
 4508TIP3   OH213529   3.734   2.509  -0.007
 4508TIP3    H113530   3.782   2.587   0.020
 4508TIP3    H213531   3.750   2.445   0.063
 4509TIP3   OH213532   4.040   3.821   3.082
 4509TIP3    H113533   3.956   3.867   3.087
 4509TIP3    H213534   4.072   3.839   2.993
 4510TIP3   OH213535   1.758   2.246   1.400
 4510TIP3    H113536   1.833   2.303   1.420
 4510TIP3    H213537   1.700   2.255   1.476
 4511TIP3   OH213538   5.620   0.732   0.556
 4511TIP3    H113539   5.710   0.716   0.585
 4511TIP3    H213540   5.609   0.674   0.480
 4512TIP3   OH213541   1.028   4.516   0.183
 4512TIP3    H113542   1.083   4.562   0.247
 4512TIP3    H213543   0.941   4.518   0.221
 4513TIP3   OH213544   2.312   5.381   1.708
 4513TIP3    H113545   2.289   5.364   1.799
 4513TIP3    H213546   2.404   5.353   1.700
 4514TIP3   OH213547   2.689   5.535   3.202
 4514TIP3    H113548   2.706   5.626   3.228
 4514TIP3    H213549   2.594   5.529   3.197
 4515TIP3   OH213550   2.604   3.378   3.968
 4515TIP3    H113551   2.649   3.394   3.886
 4515TIP3    H213552   2.672   3.343   4.026
 4516TIP3   OH213553   2.703   0.946   0.534
 4516TIP3    H113554   2.616   0.935   0.572
 4516TIP3    H213555   2.690   0.938   0.440
 4517TIP3   OH213556   3.566   3.442   1.679
 4517TIP3    H113557   3.660   3.456   1.666
 4517TIP3    H213558   3.529   3.446   1.591
 4518TIP3   OH213559   0.513   4.042   3.731
 4518TIP3    H113560   0.591   4.089   3.702
 4518TIP3    H213561   0.515   4.050   3.827
 4519TIP3   OH213562   6.129   1.955   4.987
 4519TIP3    H113563   6.202   2.011   4.957
 4519TIP3    H213564   6.125   1.970   5.081
 4520TIP3   OH213565   2.528   0.573   3.432
 4520TIP3    H113566   2.441   0.595   3.463
 4520TIP3    H213567   2.514   0.531   3.347
 4521TIP3   OH213568   1.076   0.023   2.604
 4521TIP3    H113569   1.046   0.112   2.623
 4521TIP3    H213570   1.068   0.015   2.509
 4522TIP3   OH213571   3.766   0.606   4.952
 4522TIP3    H113572   3.826   0.680   4.945
 4522TIP3    H213573   3.821   0.529   4.940
 4523TIP3   OH213574   1.803   4.291   2.614
 4523TIP3    H113575   1.862   4.366   2.615
 4523TIP3    H213576   1.822   4.247   2.530
 4524TIP3   OH213577   2.547   4.689   2.792
 4524TIP3    H113578   2.597   4.608   2.790
 4524TIP3    H213579   2.474   4.671   2.852
 4525TIP3   OH213580   2.599   0.250   1.598
 4525TIP3    H113581   2.617   0.176   1.656
 4525TIP3    H213582   2.683   0.268   1.555
 4526TIP3   OH213583   1.042   0.129   4.707
 4526TIP3    H113584   1.056   0.036   4.689
 4526TIP3    H213585   1.035   0.169   4.620
 4527TIP3   OH213586   2.339   2.011   0.098
 4527TIP3    H113587   2.315   1.996   0.006
 4527TIP3    H213588   2.428   2.046   0.094
 4528TIP3   OH213589   5.089   3.026   4.158
 4528TIP3    H113590   5.071   3.089   4.228
 4528TIP3    H213591   5.013   3.032   4.100
 4529TIP3   OH213592   2.020   1.363   1.408
 4529TIP3    H113593   1.929   1.333   1.411
 4529TIP3    H213594   2.014   1.457   1.396
 4530TIP3   OH213595   5.553   0.940   3.285
 4530TIP3    H113596   5.468   0.967   3.250
 4530TIP3    H213597   5.557   0.846   3.268
 4531TIP3   OH213598   3.782   1.720   0.989
 4531TIP3    H113599   3.747   1.632   1.000
 4531TIP3    H213600   3.729   1.773   1.050
 4532TIP3   OH213601   5.219   5.721   2.684
 4532TIP3    H113602   5.222   5.816   2.677
 4532TIP3    H213603   5.299   5.697   2.731
 4533TIP3   OH213604   5.128   0.822   1.400
 4533TIP3    H113605   5.137   0.916   1.386
 4533TIP3    H213606   5.160   0.782   1.319
 4534TIP3   OH213607   5.020   2.955   0.945
 4534TIP3    H113608   5.085   2.886   0.953
 4534TIP3    H213609   5.005   2.963   0.850
 4535TIP3   OH213610   2.792   5.700   4.305
 4535TIP3    H113611   2.834   5.778   4.340
 4535TIP3    H213612   2.851   5.670   4.235
 4536TIP3   OH213613   1.664   1.496   2.477
 4536TIP3    H113614   1.590   1.488   2.536
 4536TIP3    H213615   1.736   1.526   2.532
 4537TIP3   OH213616  -0.026   0.878   3.003
 4537TIP3    H113617  -0.006   0.971   2.991
 4537TIP3    H213618  -0.012   0.862   3.097
 4538TIP3   OH213619   1.750   0.447   1.001
 4538TIP3    H113620   1.741   0.368   0.948
 4538TIP3    H213621   1.845   0.457   1.012
 4539TIP3   OH213622   5.929   0.614   2.660
 4539TIP3    H113623   5.843   0.594   2.624
 4539TIP3    H213624   5.912   0.676   2.730
 4540TIP3   OH213625   1.785   3.926   1.552
 4540TIP3    H113626   1.829   3.841   1.547
 4540TIP3    H213627   1.788   3.960   1.462
 4541TIP3   OH213628   6.322   1.172   4.987
 4541TIP3    H113629   6.286   1.163   4.899
 4541TIP3    H213630   6.301   1.261   5.014
 4542TIP3   OH213631   2.347   2.087   4.443
 4542TIP3    H113632   2.417   2.131   4.490
 4542TIP3    H213633   2.268   2.136   4.466
 4543TIP3   OH213634   2.860   0.282   1.551
 4543TIP3    H113635   2.862   0.378   1.560
 4543TIP3    H213636   2.917   0.250   1.620
 4544TIP3   OH213637   2.807   1.856   4.929
 4544TIP3    H113638   2.774   1.899   4.851
 4544TIP3    H213639   2.771   1.906   5.002
 4545TIP3   OH213640   4.441   3.189   4.612
 4545TIP3    H113641   4.475   3.267   4.656
 4545TIP3    H213642   4.483   3.188   4.527
 4546TIP3   OH213643   1.464   0.937   0.083
 4546TIP3    H113644   1.431   0.982   0.005
 4546TIP3    H213645   1.534   0.881   0.050
 4547TIP3   OH213646   5.357   4.962   1.226
 4547TIP3    H113647   5.298   4.919   1.288
 4547TIP3    H213648   5.299   5.004   1.162
 4548TIP3   OH213649   5.168   0.960   1.016
 4548TIP3    H113650   5.155   0.877   1.061
 4548TIP3    H213651   5.128   0.947   0.930
 4549TIP3   OH213652   2.727   2.904   2.611
 4549TIP3    H113653   2.816   2.925   2.580
 4549TIP3    H213654   2.725   2.938   2.701
 4550TIP3   OH213655   3.801   4.077   0.874
 4550TIP3    H113656   3.774   4.132   0.802
 4550TIP3    H213657   3.799   3.988   0.839
 4551TIP3   OH213658   1.070   1.589   0.722
 4551TIP3    H113659   1.091   1.498   0.702
 4551TIP3    H213660   1.124   1.640   0.661
 4552TIP3   OH213661   2.732   0.521   1.803
 4552TIP3    H113662   2.727   0.425   1.804
 4552TIP3    H213663   2.684   0.548   1.882
 4553TIP3   OH213664   4.692   0.380   1.675
 4553TIP3    H113665   4.706   0.308   1.613
 4553TIP3    H213666   4.777   0.424   1.679
 4554TIP3   OH213667   4.130   2.066   0.277
 4554TIP3    H113668   4.207   2.117   0.251
 4554TIP3    H213669   4.125   1.995   0.213
 4555TIP3   OH213670   4.373   1.880   2.517
 4555TIP3    H113671   4.446   1.899   2.458
 4555TIP3    H213672   4.295   1.908   2.468
 4556TIP3   OH213673   5.231   5.538   1.329
 4556TIP3    H113674   5.240   5.531   1.424
 4556TIP3    H213675   5.263   5.455   1.295
 4557TIP3   OH213676   2.414   5.239   3.095
 4557TIP3    H113677   2.420   5.333   3.077
 4557TIP3    H213678   2.349   5.232   3.165
 4558TIP3   OH213679   0.611   1.866   3.531
 4558TIP3    H113680   0.600   1.870   3.626
 4558TIP3    H213681   0.527   1.896   3.496
 4559TIP3   OH213682   3.445   5.282   4.246
 4559TIP3    H113683   3.350   5.291   4.239
 4559TIP3    H213684   3.480   5.336   4.175
 4560TIP3   OH213685   2.251   0.326   0.417
 4560TIP3    H113686   2.324   0.312   0.357
 4560TIP3    H213687   2.173   0.303   0.366
 4561TIP3   OH213688   3.342   2.844   4.772
 4561TIP3    H113689   3.391   2.855   4.853
 4561TIP3    H213690   3.382   2.768   4.729
 4562TIP3   OH213691   3.762   2.162   1.278
 4562TIP3    H113692   3.836   2.104   1.300
 4562TIP3    H213693   3.752   2.153   1.184
 4563TIP3   OH213694   4.465   5.345   3.215
 4563TIP3    H113695   4.521   5.399   3.272
 4563TIP3    H213696   4.427   5.408   3.153
 4564TIP3   OH213697   2.654   5.478   2.739
 4564TIP3    H113698   2.610   5.397   2.711
 4564TIP3    H213699   2.687   5.458   2.826
 4565TIP3   OH213700   3.019   3.345   4.907
 4565TIP3    H113701   3.070   3.264   4.905
 4565TIP3    H213702   3.009   3.365   5.000
 4566TIP3   OH213703   2.753   2.336   0.640
 4566TIP3    H113704   2.715   2.296   0.562
 4566TIP3    H213705   2.843   2.357   0.615
 4567TIP3   OH213706   5.495   5.750   4.364
 4567TIP3    H113707   5.443   5.676   4.395
 4567TIP3    H213708   5.545   5.778   4.440
 4568TIP3   OH213709   3.098   3.377   0.350
 4568TIP3    H113710   3.176   3.376   0.293
 4568TIP3    H213711   3.120   3.441   0.418
 4569TIP3   OH213712   2.591   4.634   1.197
 4569TIP3    H113713   2.607   4.718   1.241
 4569TIP3    H213714   2.567   4.574   1.267
 4570TIP3   OH213715   4.313   4.566   4.467
 4570TIP3    H113716   4.246   4.631   4.444
 4570TIP3    H213717   4.327   4.580   4.561
 4571TIP3   OH213718   4.754   5.924   1.423
 4571TIP3    H113719   4.789   5.952   1.508
 4571TIP3    H213720   4.695   5.852   1.443
 4572TIP3   OH213721   5.102   0.162   4.215
 4572TIP3    H113722   5.055   0.244   4.230
 4572TIP3    H213723   5.160   0.154   4.291
 4573TIP3   OH213724   3.684   5.561   2.069
 4573TIP3    H113725   3.742   5.629   2.104
 4573TIP3    H213726   3.686   5.492   2.135
 4574TIP3   OH213727   3.263   2.167   4.269
 4574TIP3    H113728   3.182   2.122   4.296
 4574TIP3    H213729   3.236   2.258   4.256
 4575TIP3   OH213730   3.941   0.596   1.324
 4575TIP3    H113731   3.893   0.655   1.265
 4575TIP3    H213732   3.922   0.508   1.290
 4576TIP3   OH213733   4.662   3.279   3.784
 4576TIP3    H113734   4.740   3.278   3.730
 4576TIP3    H213735   4.644   3.186   3.802
 4577TIP3   OH213736   3.286   1.203   0.017
 4577TIP3    H113737   3.328   1.282   0.051
 4577TIP3    H213738   3.196   1.230  -0.002
 4578TIP3   OH213739   1.838   3.189   0.095
 4578TIP3    H113740   1.759   3.195   0.149
 4578TIP3    H213741   1.822   3.114   0.038
 4579TIP3   OH213742   5.347   2.828   0.146
 4579TIP3    H113743   5.293   2.879   0.085
 4579TIP3    H213744   5.307   2.741   0.145
 4580TIP3   OH213745   4.010   1.837   3.824
 4580TIP3    H113746   4.003   1.928   3.854
 4580TIP3    H213747   4.067   1.841   3.748
 4581TIP3   OH213748   1.968   4.769   3.996
 4581TIP3    H113749   2.017   4.779   3.914
 4581TIP3    H213750   2.012   4.828   4.057
 4582TIP3   OH213751   2.596   5.927   4.414
 4582TIP3    H113752   2.615   5.834   4.423
 4582TIP3    H213753   2.647   5.969   4.483
 4583TIP3   OH213754   2.299   5.804   1.097
 4583TIP3    H113755   2.385   5.773   1.067
 4583TIP3    H213756   2.237   5.766   1.034
 4584TIP3   OH213757   5.588   1.413   0.727
 4584TIP3    H113758   5.569   1.381   0.815
 4584TIP3    H213759   5.640   1.343   0.687
 4585TIP3   OH213760   4.326   1.647   2.836
 4585TIP3    H113761   4.323   1.731   2.883
 4585TIP3    H213762   4.260   1.593   2.879
 4586TIP3   OH213763   1.816   2.947   1.151
 4586TIP3    H113764   1.865   2.879   1.106
 4586TIP3    H213765   1.767   2.992   1.081
 4587TIP3   OH213766   5.658   2.934   3.422
 4587TIP3    H113767   5.689   2.857   3.374
 4587TIP3    H213768   5.595   2.976   3.364
 4588TIP3   OH213769   1.866   5.049   0.072
 4588TIP3    H113770   1.820   5.122   0.115
 4588TIP3    H213771   1.881   4.986   0.142
 4589TIP3   OH213772   3.350   5.450   1.097
 4589TIP3    H113773   3.279   5.435   1.035
 4589TIP3    H213774   3.415   5.382   1.076
 4590TIP3   OH213775   4.263   1.314   0.361
 4590TIP3    H113776   4.344   1.350   0.397
 4590TIP3    H213777   4.254   1.357   0.275
 4591TIP3   OH213778   5.829   3.362   3.747
 4591TIP3    H113779   5.900   3.298   3.754
 4591TIP3    H213780   5.872   3.443   3.721
 4592TIP3   OH213781   2.165   0.017   0.192
 4592TIP3    H113782   2.148  -0.008   0.283
 4592TIP3    H213783   2.258   0.038   0.190
 4593TIP3   OH213784   2.674   5.544   3.549
 4593TIP3    H113785   2.653   5.464   3.501
 4593TIP3    H213786   2.764   5.532   3.578
 4594TIP3   OH213787   2.763   0.278   4.289
 4594TIP3    H113788   2.782   0.293   4.381
 4594TIP3    H213789   2.696   0.342   4.267
 4595TIP3   OH213790   1.524   2.949   2.146
 4595TIP3    H113791   1.434   2.915   2.153
 4595TIP3    H213792   1.568   2.916   2.224
 4596TIP3   OH213793   2.339   5.097   4.818
 4596TIP3    H113794   2.372   5.157   4.752
 4596TIP3    H213795   2.417   5.071   4.868
 4597TIP3   OH213796   0.290   1.848   4.191
 4597TIP3    H113797   0.347   1.802   4.253
 4597TIP3    H213798   0.336   1.930   4.173
 4598TIP3   OH213799   4.190   1.314   0.948
 4598TIP3    H113800   4.191   1.299   1.043
 4598TIP3    H213801   4.132   1.389   0.935
 4599TIP3   OH213802   5.830   4.545   3.364
 4599TIP3    H113803   5.751   4.601   3.363
 4599TIP3    H213804   5.888   4.586   3.300
 4600TIP3   OH213805   5.418   2.339   2.441
 4600TIP3    H113806   5.481   2.270   2.422
 4600TIP3    H213807   5.376   2.358   2.357
 4601TIP3   OH213808   3.525   4.136   1.642
 4601TIP3    H113809   3.605   4.123   1.591
 4601TIP3    H213810   3.454   4.133   1.577
 4602TIP3   OH213811   0.061   2.647   5.142
 4602TIP3    H113812   0.020   2.644   5.056
 4602TIP3    H213813   0.149   2.681   5.125
 4603TIP3   OH213814   1.255   4.537   4.750
 4603TIP3    H113815   1.187   4.474   4.772
 4603TIP3    H213816   1.280   4.576   4.834
 4604TIP3   OH213817   1.631   3.305   1.607
 4604TIP3    H113818   1.708   3.253   1.583
 4604TIP3    H213819   1.620   3.366   1.534
 4605TIP3   OH213820   0.914   3.467   2.630
 4605TIP3    H113821   0.910   3.394   2.692
 4605TIP3    H213822   0.892   3.428   2.546
 4606TIP3   OH213823   2.963   0.519   4.425
 4606TIP3    H113824   2.896   0.529   4.492
 4606TIP3    H213825   2.978   0.425   4.418
 4607TIP3   OH213826   5.684   5.847   4.629
 4607TIP3    H113827   5.630   5.920   4.599
 4607TIP3    H213828   5.720   5.877   4.713
 4608TIP3   OH213829   1.784   2.517   1.770
 4608TIP3    H113830   1.760   2.453   1.837
 4608TIP3    H213831   1.794   2.600   1.817
 4609TIP3   OH213832   4.698   1.471   0.272
 4609TIP3    H113833   4.722   1.491   0.182
 4609TIP3    H213834   4.767   1.510   0.325
 4610TIP3   OH213835   2.514   5.302   0.085
 4610TIP3    H113836   2.500   5.227   0.144
 4610TIP3    H213837   2.429   5.314   0.042
 4611TIP3   OH213838   3.678   4.171   4.241
 4611TIP3    H113839   3.666   4.178   4.146
 4611TIP3    H213840   3.597   4.206   4.278
 4612TIP3   OH213841   4.275   3.056   3.385
 4612TIP3    H113842   4.248   3.045   3.477
 4612TIP3    H213843   4.223   3.129   3.353
 4613TIP3   OH213844   0.305   4.709   2.440
 4613TIP3    H113845   0.362   4.728   2.366
 4613TIP3    H213846   0.216   4.718   2.405
 4614TIP3   OH213847   6.079   0.905   0.590
 4614TIP3    H113848   6.101   0.892   0.498
 4614TIP3    H213849   6.155   0.874   0.638
 4615TIP3   OH213850   2.499   0.235   1.247
 4615TIP3    H113851   2.428   0.171   1.242
 4615TIP3    H213852   2.515   0.261   1.156
 4616TIP3   OH213853   4.325   2.766   0.107
 4616TIP3    H113854   4.244   2.782   0.155
 4616TIP3    H213855   4.365   2.853   0.098
 4617TIP3   OH213856   4.393   4.074   1.666
 4617TIP3    H113857   4.471   4.081   1.611
 4617TIP3    H213858   4.386   4.159   1.709
 4618TIP3   OH213859   2.945   4.690   1.216
 4618TIP3    H113860   2.907   4.662   1.299
 4618TIP3    H213861   3.036   4.712   1.237
 4619TIP3   OH213862   2.630   4.756   3.425
 4619TIP3    H113863   2.598   4.803   3.502
 4619TIP3    H213864   2.607   4.664   3.441
 4620TIP3   OH213865   0.656   1.722   3.151
 4620TIP3    H113866   0.654   1.656   3.081
 4620TIP3    H213867   0.584   1.781   3.130
 4621TIP3   OH213868   1.078   1.613   4.938
 4621TIP3    H113869   1.150   1.670   4.909
 4621TIP3    H213870   1.003   1.639   4.885
 4622TIP3   OH213871   1.646   1.060   1.416
 4622TIP3    H113872   1.584   1.020   1.476
 4622TIP3    H213873   1.709   1.105   1.472
 4623TIP3   OH213874   3.583   2.109   1.636
 4623TIP3    H113875   3.668   2.131   1.673
 4623TIP3    H213876   3.532   2.190   1.642
 4624TIP3   OH213877   2.526   5.490   0.807
 4624TIP3    H113878   2.558   5.418   0.753
 4624TIP3    H213879   2.590   5.497   0.878
 4625TIP3   OH213880   4.164   0.848   3.083
 4625TIP3    H113881   4.141   0.863   2.992
 4625TIP3    H213882   4.178   0.936   3.119
 4626TIP3   OH213883   2.906   2.245   4.519
 4626TIP3    H113884   2.885   2.337   4.533
 4626TIP3    H213885   2.983   2.229   4.574
 4627TIP3   OH213886   5.267   0.426   1.616
 4627TIP3    H113887   5.336   0.467   1.563
 4627TIP3    H213888   5.312   0.354   1.661
 4628TIP3   OH213889   1.580   5.087   3.349
 4628TIP3    H113890   1.597   5.062   3.258
 4628TIP3    H213891   1.655   5.052   3.398
 4629TIP3   OH213892   5.517   2.592   2.699
 4629TIP3    H113893   5.492   2.631   2.615
 4629TIP3    H213894   5.507   2.498   2.685
 4630TIP3   OH213895   4.253   2.341   0.222
 4630TIP3    H113896   4.318   2.411   0.227
 4630TIP3    H213897   4.262   2.306   0.133
 4631TIP3   OH213898   0.325   0.979   1.120
 4631TIP3    H113899   0.251   0.972   1.060
 4631TIP3    H213900   0.312   0.906   1.181
 4632TIP3   OH213901   2.793   4.597   0.419
 4632TIP3    H113902   2.838   4.650   0.485
 4632TIP3    H213903   2.811   4.507   0.445
 4633TIP3   OH213904   0.247   3.613   3.776
 4633TIP3    H113905   0.333   3.589   3.809
 4633TIP3    H213906   0.264   3.672   3.703
 4634TIP3   OH213907   5.949   2.389   0.032
 4634TIP3    H113908   5.908   2.399   0.118
 4634TIP3    H213909   5.894   2.440  -0.027
 4635TIP3   OH213910   5.653   4.318   1.895
 4635TIP3    H113911   5.592   4.387   1.869
 4635TIP3    H213912   5.625   4.295   1.984
 4636TIP3   OH213913   0.283   5.019   4.699
 4636TIP3    H113914   0.279   5.075   4.621
 4636TIP3    H213915   0.215   4.953   4.684
 4637TIP3   OH213916   1.763   0.503   1.277
 4637TIP3    H113917   1.834   0.567   1.274
 4637TIP3    H213918   1.747   0.480   1.185
 4638TIP3   OH213919   5.599   1.358   4.941
 4638TIP3    H113920   5.651   1.416   4.997
 4638TIP3    H213921   5.659   1.334   4.869
 4639TIP3   OH213922   3.299   1.931   3.370
 4639TIP3    H113923   3.367   1.997   3.356
 4639TIP3    H213924   3.230   1.956   3.309
 4640TIP3   OH213925   3.946   4.008   2.288
 4640TIP3    H113926   3.933   4.073   2.357
 4640TIP3    H213927   4.027   3.963   2.313
 4641TIP3   OH213928   0.185   4.447   4.596
 4641TIP3    H113929   0.249   4.504   4.553
 4641TIP3    H213930   0.139   4.405   4.524
 4642TIP3   OH213931   4.770   5.159   2.738
 4642TIP3    H113932   4.712   5.089   2.768
 4642TIP3    H213933   4.852   5.143   2.783
 4643TIP3   OH213934   6.042   4.072   3.164
 4643TIP3    H113935   6.059   3.987   3.204
 4643TIP3    H213936   5.980   4.115   3.223
 4644TIP3   OH213937   4.473   0.862   2.614
 4644TIP3    H113938   4.504   0.930   2.554
 4644TIP3    H213939   4.462   0.785   2.559
 4645TIP3   OH213940   1.536   5.052   0.923
 4645TIP3    H113941   1.494   5.087   0.844
 4645TIP3    H213942   1.608   5.112   0.942
 4646TIP3   OH213943   1.710   1.375   0.771
 4646TIP3    H113944   1.675   1.325   0.697
 4646TIP3    H213945   1.804   1.356   0.770
 4647TIP3   OH213946   3.499   5.153   2.184
 4647TIP3    H113947   3.498   5.076   2.241
 4647TIP3    H213948   3.429   5.137   2.121
 4648TIP3   OH213949   4.533   3.473   4.246
 4648TIP3    H113950   4.561   3.557   4.283
 4648TIP3    H213951   4.590   3.460   4.170
 4649TIP3   OH213952   2.861   0.838   1.503
 4649TIP3    H113953   2.798   0.897   1.462
 4649TIP3    H213954   2.835   0.836   1.595
 4650TIP3   OH213955   5.761   2.695   2.030
 4650TIP3    H113956   5.835   2.755   2.037
 4650TIP3    H213957   5.767   2.660   1.941
 4651TIP3   OH213958   4.638   3.390   4.750
 4651TIP3    H113959   4.715   3.414   4.801
 4651TIP3    H213960   4.668   3.393   4.659
 4652TIP3   OH213961   1.610   4.491   0.152
 4652TIP3    H113962   1.548   4.421   0.133
 4652TIP3    H213963   1.619   4.538   0.069
 4653TIP3   OH213964   5.364   4.642   4.213
 4653TIP3    H113965   5.352   4.647   4.118
 4653TIP3    H213966   5.335   4.554   4.236
 4654TIP3   OH213967   1.966   4.494   2.554
 4654TIP3    H113968   2.057   4.464   2.548
 4654TIP3    H213969   1.950   4.539   2.471
 4655TIP3   OH213970   6.303   1.301   2.100
 4655TIP3    H113971   6.317   1.395   2.104
 4655TIP3    H213972   6.345   1.266   2.178
 4656TIP3   OH213973   2.411   2.347   0.876
 4656TIP3    H113974   2.450   2.261   0.857
 4656TIP3    H213975   2.318   2.328   0.887
 4657TIP3   OH213976   3.338   4.129   2.930
 4657TIP3    H113977   3.368   4.181   3.005
 4657TIP3    H213978   3.291   4.191   2.874
 4658TIP3   OH213979   2.992   5.400   1.777
 4658TIP3    H113980   2.931   5.464   1.739
 4658TIP3    H213981   3.069   5.404   1.720
 4659TIP3   OH213982   2.632   3.013   2.245
 4659TIP3    H113983   2.628   3.048   2.156
 4659TIP3    H213984   2.540   3.000   2.270
 4660TIP3   OH213985   2.897   5.171   2.605
 4660TIP3    H113986   2.807   5.186   2.635
 4660TIP3    H213987   2.913   5.242   2.543
 4661TIP3   OH213988   5.451   5.245   3.513
 4661TIP3    H113989   5.431   5.152   3.507
 4661TIP3    H213990   5.431   5.268   3.603
 4662TIP3   OH213991   3.912   1.446   0.765
 4662TIP3    H113992   3.821   1.471   0.751
 4662TIP3    H213993   3.937   1.399   0.685
 4663TIP3   OH213994   5.527   2.141   4.995
 4663TIP3    H113995   5.582   2.183   4.928
 4663TIP3    H213996   5.519   2.050   4.965
 4664TIP3   OH213997   6.223   0.007   4.064
 4664TIP3    H113998   6.184   0.070   4.003
 4664TIP3    H213999   6.317   0.011   4.045
 4665TIP3   OH214000   4.331   4.721   2.069
 4665TIP3    H114001   4.327   4.816   2.058
 4665TIP3    H214002   4.272   4.703   2.143
 4666TIP3   OH214003   5.923   5.885   3.966
 4666TIP3    H114004   5.993   5.861   3.905
 4666TIP3    H214005   5.844   5.848   3.926
 4667TIP3   OH214006   3.474   4.390   3.875
 4667TIP3    H114007   3.493   4.352   3.789
 4667TIP3    H214008   3.543   4.455   3.888
 4668TIP3   OH214009   6.011   5.542   0.647
 4668TIP3    H114010   5.928   5.524   0.692
 4668TIP3    H214011   6.007   5.636   0.627
 4669TIP3   OH214012   5.517   3.639   3.075
 4669TIP3    H114013   5.570   3.565   3.105
 4669TIP3    H214014   5.579   3.698   3.032
 4670TIP3   OH214015   1.148   3.922   3.965
 4670TIP3    H114016   1.183   3.836   3.940
 4670TIP3    H214017   1.067   3.931   3.915
 4671TIP3   OH214018   4.646   0.440   0.274
 4671TIP3    H114019   4.562   0.402   0.248
 4671TIP3    H214020   4.690   0.370   0.323
 4672TIP3   OH214021   5.410   1.182   1.348
 4672TIP3    H114022   5.477   1.248   1.337
 4672TIP3    H214023   5.456   1.099   1.340
 4673TIP3   OH214024   2.560   4.369   1.969
 4673TIP3    H114025   2.632   4.341   1.913
 4673TIP3    H214026   2.582   4.459   1.994
 4674TIP3   OH214027   3.851   1.568   4.271
 4674TIP3    H114028   3.776   1.537   4.221
 4674TIP3    H214029   3.911   1.494   4.272
 4675TIP3   OH214030   4.462   0.533   4.459
 4675TIP3    H114031   4.457   0.529   4.364
 4675TIP3    H214032   4.435   0.622   4.481
 4676TIP3   OH214033   6.179   3.247   1.144
 4676TIP3    H114034   6.226   3.265   1.062
 4676TIP3    H214035   6.139   3.330   1.167
 4677TIP3   OH214036   6.134   0.646   4.987
 4677TIP3    H114037   6.208   0.701   4.959
 4677TIP3    H214038   6.127   0.579   4.918
 4678TIP3   OH214039   5.814   4.349   0.468
 4678TIP3    H114040   5.905   4.375   0.453
 4678TIP3    H214041   5.773   4.356   0.382
 4679TIP3   OH214042   0.841   2.057   0.188
 4679TIP3    H114043   0.760   2.055   0.136
 4679TIP3    H214044   0.865   1.965   0.198
 4680TIP3   OH214045   0.071   1.166   2.335
 4680TIP3    H114046   0.087   1.202   2.422
 4680TIP3    H214047   0.019   1.087   2.350
 4681TIP3   OH214048   1.134   4.631   3.602
 4681TIP3    H114049   1.080   4.631   3.681
 4681TIP3    H214050   1.138   4.538   3.576
 4682TIP3   OH214051   5.457   3.060   3.263
 4682TIP3    H114052   5.432   3.138   3.213
 4682TIP3    H214053   5.483   2.997   3.197
 4683TIP3   OH214054   1.931   1.000   3.425
 4683TIP3    H114055   1.857   1.032   3.374
 4683TIP3    H214056   2.008   1.026   3.375
 4684TIP3   OH214057   3.116   2.844   2.531
 4684TIP3    H114058   3.093   2.803   2.615
 4684TIP3    H214059   3.196   2.800   2.504
 4685TIP3   OH214060   4.632   2.603   5.013
 4685TIP3    H114061   4.579   2.679   4.989
 4685TIP3    H214062   4.722   2.635   5.015
 4686TIP3   OH214063   4.909   5.936   4.706
 4686TIP3    H114064   4.884   5.961   4.795
 4686TIP3    H214065   5.005   5.932   4.709
 4687TIP3   OH214066   1.345   1.645   4.475
 4687TIP3    H114067   1.306   1.599   4.401
 4687TIP3    H214068   1.274   1.653   4.539
 4688TIP3   OH214069   3.678   3.344   0.900
 4688TIP3    H114070   3.632   3.309   0.977
 4688TIP3    H214071   3.727   3.270   0.866
 4689TIP3   OH214072   2.417   2.738   3.258
 4689TIP3    H114073   2.402   2.821   3.214
 4689TIP3    H214074   2.330   2.704   3.278
 4690TIP3   OH214075   0.191   3.231   2.249
 4690TIP3    H114076   0.195   3.155   2.190
 4690TIP3    H214077   0.110   3.218   2.298
 4691TIP3   OH214078   3.753   4.598   1.949
 4691TIP3    H114079   3.775   4.515   1.906
 4691TIP3    H214080   3.835   4.627   1.988
 4692TIP3   OH214081   2.193   1.560   4.320
 4692TIP3    H114082   2.112   1.551   4.268
 4692TIP3    H214083   2.193   1.651   4.347
 4693TIP3   OH214084   0.944   3.170   3.906
 4693TIP3    H114085   0.996   3.103   3.862
 4693TIP3    H214086   1.009   3.221   3.956
 4694TIP3   OH214087   5.754   4.039   4.612
 4694TIP3    H114088   5.701   3.963   4.637
 4694TIP3    H214089   5.765   4.031   4.517
 4695TIP3   OH214090   1.181   0.980   3.469
 4695TIP3    H114091   1.245   1.050   3.477
 4695TIP3    H214092   1.096   1.023   3.475
 4696TIP3   OH214093   2.158   1.040   3.284
 4696TIP3    H114094   2.238   0.986   3.285
 4696TIP3    H214095   2.186   1.124   3.320
 4697TIP3   OH214096   0.511   3.054   2.240
 4697TIP3    H114097   0.501   3.140   2.200
 4697TIP3    H214098   0.516   2.993   2.166
 4698TIP3   OH214099   3.904   0.362   2.388
 4698TIP3    H114100   3.988   0.406   2.397
 4698TIP3    H214101   3.870   0.392   2.304
 4699TIP3   OH214102   5.584   5.754   1.895
 4699TIP3    H114103   5.509   5.694   1.902
 4699TIP3    H214104   5.568   5.804   1.815
 4700TIP3   OH214105   0.285   0.366   4.921
 4700TIP3    H114106   0.289   0.389   5.014
 4700TIP3    H214107   0.368   0.395   4.885
 4701TIP3   OH214108   1.531   1.702   1.584
 4701TIP3    H114109   1.491   1.704   1.671
 4701TIP3    H214110   1.511   1.787   1.546
 4702TIP3   OH214111   6.230   2.239   1.644
 4702TIP3    H114112   6.148   2.190   1.641
 4702TIP3    H214113   6.298   2.172   1.637
 4703TIP3   OH214114   0.920   0.075   2.903
 4703TIP3    H114115   0.839   0.062   2.853
 4703TIP3    H214116   0.894   0.133   2.975
 4704TIP3   OH214117   4.441   3.476   3.039
 4704TIP3    H114118   4.429   3.439   2.951
 4704TIP3    H214119   4.432   3.571   3.026
 4705TIP3   OH214120   1.018   3.965   2.393
 4705TIP3    H114121   0.998   3.930   2.306
 4705TIP3    H214122   0.935   3.959   2.441
 4706TIP3   OH214123   5.749   0.393   0.197
 4706TIP3    H114124   5.842   0.375   0.214
 4706TIP3    H214125   5.746   0.422   0.106
 4707TIP3   OH214126   6.248   3.550   3.317
 4707TIP3    H114127   6.293   3.616   3.369
 4707TIP3    H214128   6.265   3.468   3.363
 4708TIP3   OH214129   5.090   3.438   4.235
 4708TIP3    H114130   5.065   3.530   4.248
 4708TIP3    H214131   5.146   3.418   4.309
 4709TIP3   OH214132   4.643   2.967   4.757
 4709TIP3    H114133   4.586   2.938   4.686
 4709TIP3    H214134   4.702   3.030   4.716
 4710TIP3   OH214135   1.492   0.864   1.091
 4710TIP3    H114136   1.431   0.931   1.121
 4710TIP3    H214137   1.575   0.886   1.135
 4711TIP3   OH214138   2.878   4.981   3.639
 4711TIP3    H114139   2.936   4.909   3.613
 4711TIP3    H214140   2.892   4.990   3.733
 4712TIP3   OH214141   5.500   5.649   3.600
 4712TIP3    H114142   5.457   5.729   3.570
 4712TIP3    H214143   5.507   5.595   3.521
 4713TIP3   OH214144   5.117   1.999   2.336
 4713TIP3    H114145   5.193   2.039   2.297
 4713TIP3    H214146   5.106   1.916   2.289
 4714TIP3   OH214147   5.292   5.117   1.515
 4714TIP3    H114148   5.363   5.074   1.466
 4714TIP3    H214149   5.278   5.061   1.591
 4715TIP3   OH214150   5.546   3.408   4.120
 4715TIP3    H114151   5.605   3.371   4.054
 4715TIP3    H214152   5.483   3.460   4.070
 4716TIP3   OH214153   4.254   1.995   1.323
 4716TIP3    H114154   4.282   1.937   1.252
 4716TIP3    H214155   4.315   2.069   1.318
 4717TIP3   OH214156   3.254   3.054   0.130
 4717TIP3    H114157   3.292   3.117   0.191
 4717TIP3    H214158   3.246   3.102   0.047
 4718TIP3   OH214159   1.416   1.459   2.060
 4718TIP3    H114160   1.406   1.366   2.077
 4718TIP3    H214161   1.332   1.487   2.024
 4719TIP3   OH214162   0.937   3.914   2.140
 4719TIP3    H114163   0.875   3.854   2.098
 4719TIP3    H214164   1.002   3.931   2.072
 4720TIP3   OH214165   2.330   1.243   4.984
 4720TIP3    H114166   2.368   1.263   5.070
 4720TIP3    H214167   2.239   1.223   5.002
 4721TIP3   OH214168   2.647   1.271   2.708
 4721TIP3    H114169   2.605   1.254   2.623
 4721TIP3    H214170   2.677   1.361   2.702
 4722TIP3   OH214171   0.659   1.611   1.293
 4722TIP3    H114172   0.754   1.620   1.286
 4722TIP3    H214173   0.625   1.635   1.207
 4723TIP3   OH214174   4.193   5.296   3.381
 4723TIP3    H114175   4.103   5.272   3.363
 4723TIP3    H214176   4.240   5.212   3.385
 4724TIP3   OH214177   6.303   1.773   1.254
 4724TIP3    H114178   6.341   1.717   1.186
 4724TIP3    H214179   6.341   1.740   1.335
 4725TIP3   OH214180   3.713   4.773   0.241
 4725TIP3    H114181   3.784   4.710   0.226
 4725TIP3    H214182   3.753   4.842   0.295
 4726TIP3   OH214183   1.235   4.470   1.689
 4726TIP3    H114184   1.146   4.440   1.704
 4726TIP3    H214185   1.227   4.533   1.617
 4727TIP3   OH214186   4.745   4.776   2.681
 4727TIP3    H114187   4.655   4.746   2.692
 4727TIP3    H214188   4.754   4.793   2.587
 4728TIP3   OH214189   4.184   4.356   4.333
 4728TIP3    H114190   4.231   4.435   4.358
 4728TIP3    H214191   4.092   4.375   4.351
 4729TIP3   OH214192   0.150   2.474   1.961
 4729TIP3    H114193   0.194   2.436   1.885
 4729TIP3    H214194   0.057   2.463   1.942
 4730TIP3   OH214195   5.024   5.842   3.490
 4730TIP3    H114196   4.971   5.769   3.522
 4730TIP3    H214197   5.040   5.821   3.399
 4731TIP3   OH214198   0.959   4.154   1.208
 4731TIP3    H114199   0.935   4.066   1.235
 4731TIP3    H214200   0.897   4.211   1.254
 4732TIP3   OH214201   2.407   1.350   2.284
 4732TIP3    H114202   2.328   1.296   2.281
 4732TIP3    H214203   2.375   1.437   2.308
 4733TIP3   OH214204   0.059   3.178   0.698
 4733TIP3    H114205  -0.029   3.211   0.680
 4733TIP3    H214206   0.052   3.142   0.787
 4734TIP3   OH214207   4.158   4.146   4.555
 4734TIP3    H114208   4.238   4.121   4.601
 4734TIP3    H214209   4.184   4.220   4.500
 4735TIP3   OH214210   4.268   5.036   2.748
 4735TIP3    H114211   4.211   5.111   2.766
 4735TIP3    H214212   4.244   4.971   2.814
 4736TIP3   OH214213   3.573   3.234   0.294
 4736TIP3    H114214   3.479   3.245   0.282
 4736TIP3    H214215   3.587   3.242   0.388
 4737TIP3   OH214216   3.282   3.099   1.140
 4737TIP3    H114217   3.207   3.154   1.115
 4737TIP3    H214218   3.333   3.090   1.059
 4738TIP3   OH214219   5.386   3.264   0.274
 4738TIP3    H114220   5.465   3.310   0.303
 4738TIP3    H214221   5.329   3.265   0.351
 4739TIP3   OH214222   5.259   5.529   4.342
 4739TIP3    H114223   5.190   5.463   4.342
 4739TIP3    H214224   5.217   5.608   4.308
 4740TIP3   OH214225   4.298   0.584   4.764
 4740TIP3    H114226   4.324   0.498   4.730
 4740TIP3    H214227   4.275   0.567   4.856
 4741TIP3   OH214228   0.055   4.631   3.583
 4741TIP3    H114229   0.032   4.723   3.566
 4741TIP3    H214230   0.135   4.617   3.534
 4742TIP3   OH214231   1.653   4.505   2.544
 4742TIP3    H114232   1.741   4.518   2.508
 4742TIP3    H214233   1.656   4.418   2.583
 4743TIP3   OH214234   1.047   3.054   0.322
 4743TIP3    H114235   0.969   3.040   0.268
 4743TIP3    H214236   1.027   3.133   0.373
 4744TIP3   OH214237   0.801   5.220   2.965
 4744TIP3    H114238   0.874   5.158   2.974
 4744TIP3    H214239   0.729   5.167   2.931
 4745TIP3   OH214240   3.488   1.797   0.773
 4745TIP3    H114241   3.476   1.891   0.762
 4745TIP3    H214242   3.547   1.771   0.703
 4746TIP3   OH214243   6.183   2.904   4.356
 4746TIP3    H114244   6.159   2.909   4.264
 4746TIP3    H214245   6.275   2.929   4.358
 4747TIP3   OH214246   5.853   3.704   1.865
 4747TIP3    H114247   5.895   3.624   1.836
 4747TIP3    H214248   5.848   3.696   1.960
 4748TIP3   OH214249   0.002   3.835   0.256
 4748TIP3    H114250  -0.042   3.759   0.218
 4748TIP3    H214251   0.063   3.864   0.189
 4749TIP3   OH214252   3.624   5.192   3.011
 4749TIP3    H114253   3.572   5.241   3.075
 4749TIP3    H214254   3.691   5.253   2.982
 4750TIP3   OH214255   0.745   5.798   2.315
 4750TIP3    H114256   0.839   5.819   2.312
 4750TIP3    H214257   0.736   5.721   2.259
 4751TIP3   OH214258   4.920   1.486   3.331
 4751TIP3    H114259   4.885   1.399   3.309
 4751TIP3    H214260   4.891   1.542   3.259
 4752TIP3   OH214261   4.055   5.933   2.102
 4752TIP3    H114262   4.061   5.949   2.008
 4752TIP3    H214263   4.144   5.909   2.128
 4753TIP3   OH214264   2.546   5.750   1.036
 4753TIP3    H114265   2.584   5.665   1.013
 4753TIP3    H214266   2.619   5.799   1.074
 4754TIP3   OH214267   3.575   2.105   4.840
 4754TIP3    H114268   3.521   2.120   4.918
 4754TIP3    H214269   3.661   2.080   4.875
 4755TIP3   OH214270   5.789   4.304   2.738
 4755TIP3    H114271   5.818   4.231   2.792
 4755TIP3    H214272   5.860   4.368   2.745
 4756TIP3   OH214273   3.176   4.365   2.838
 4756TIP3    H114274   3.165   4.345   2.931
 4756TIP3    H214275   3.117   4.439   2.822
 4757TIP3   OH214276   5.365   2.249   5.188
 4757TIP3    H114277   5.354   2.334   5.146
 4757TIP3    H214278   5.420   2.199   5.127
 4758TIP3   OH214279   0.447   0.882   3.423
 4758TIP3    H114280   0.462   0.828   3.500
 4758TIP3    H214281   0.408   0.823   3.359
 4759TIP3   OH214282   0.698   2.311   4.372
 4759TIP3    H114283   0.721   2.220   4.351
 4759TIP3    H214284   0.688   2.311   4.467
 4760TIP3   OH214285   0.509   4.218   1.692
 4760TIP3    H114286   0.445   4.157   1.729
 4760TIP3    H214287   0.456   4.286   1.651
 4761TIP3   OH214288   3.927   5.861   4.885
 4761TIP3    H114289   3.869   5.788   4.861
 4761TIP3    H214290   3.988   5.867   4.813
 4762TIP3   OH214291   3.698   0.253   1.332
 4762TIP3    H114292   3.713   0.332   1.279
 4762TIP3    H214293   3.605   0.255   1.353
 4763TIP3   OH214294   6.051   5.776   1.812
 4763TIP3    H114295   5.977   5.715   1.814
 4763TIP3    H214296   6.044   5.819   1.727
 4764TIP3   OH214297   2.204   0.464   1.690
 4764TIP3    H114298   2.185   0.442   1.781
 4764TIP3    H214299   2.122   0.499   1.656
 4765TIP3   OH214300   3.278   0.624   0.561
 4765TIP3    H114301   3.198   0.616   0.510
 4765TIP3    H214302   3.312   0.535   0.567
 4766TIP3   OH214303   5.655   5.406   1.679
 4766TIP3    H114304   5.580   5.356   1.711
 4766TIP3    H214305   5.616   5.481   1.633
 4767TIP3   OH214306   4.093   5.433   3.134
 4767TIP3    H114307   4.072   5.373   3.205
 4767TIP3    H214308   4.034   5.508   3.148
 4768TIP3   OH214309   2.214   1.865   0.738
 4768TIP3    H114310   2.267   1.857   0.818
 4768TIP3    H214311   2.231   1.954   0.707
 4769TIP3   OH214312   1.430   0.799   2.735
 4769TIP3    H114313   1.414   0.779   2.643
 4769TIP3    H214314   1.479   0.723   2.768
 4770TIP3   OH214315   0.084   0.440   0.595
 4770TIP3    H114316   0.107   0.378   0.664
 4770TIP3    H214317  -0.010   0.452   0.604
 4771TIP3   OH214318   3.791   2.784   0.070
 4771TIP3    H114319   3.770   2.853   0.133
 4771TIP3    H214320   3.853   2.825   0.010
 4772TIP3   OH214321   2.741   1.510   2.322
 4772TIP3    H114322   2.731   1.423   2.360
 4772TIP3    H214323   2.693   1.568   2.382
 4773TIP3   OH214324   4.181   0.916   3.477
 4773TIP3    H114325   4.175   0.969   3.398
 4773TIP3    H214326   4.094   0.877   3.486
 4774TIP3   OH214327   4.457   5.476   4.009
 4774TIP3    H114328   4.459   5.571   4.022
 4774TIP3    H214329   4.528   5.443   4.063
 4775TIP3   OH214330   0.125   5.146   2.661
 4775TIP3    H114331   0.060   5.147   2.590
 4775TIP3    H214332   0.133   5.238   2.687
 4776TIP3   OH214333   1.728   4.879   4.665
 4776TIP3    H114334   1.717   4.939   4.739
 4776TIP3    H214335   1.647   4.829   4.662
 4777TIP3   OH214336   0.581   4.923   0.455
 4777TIP3    H114337   0.489   4.908   0.431
 4777TIP3    H214338   0.581   5.011   0.494
 4778TIP3   OH214339   3.537   1.183   1.637
 4778TIP3    H114340   3.507   1.166   1.547
 4778TIP3    H214341   3.460   1.219   1.682
 4779TIP3   OH214342   2.994   3.889   3.161
 4779TIP3    H114343   3.002   3.947   3.085
 4779TIP3    H214344   3.073   3.906   3.212
 4780TIP3   OH214345   0.433   3.029   0.515
 4780TIP3    H114346   0.446   3.101   0.454
 4780TIP3    H214347   0.441   2.950   0.462
 4781TIP3   OH214348   0.280   3.703   4.289
 4781TIP3    H114349   0.370   3.699   4.321
 4781TIP3    H214350   0.287   3.690   4.194
 4782TIP3   OH214351   3.703   2.995   0.257
 4782TIP3    H114352   3.649   3.073   0.272
 4782TIP3    H214353   3.792   3.030   0.244
 4783TIP3   OH214354   0.026   2.723   4.832
 4783TIP3    H114355   0.080   2.802   4.835
 4783TIP3    H214356  -0.029   2.735   4.754
 4784TIP3   OH214357   0.777   4.844   3.991
 4784TIP3    H114358   0.728   4.778   3.943
 4784TIP3    H214359   0.822   4.894   3.924
 4785TIP3   OH214360   3.482   5.827   4.545
 4785TIP3    H114361   3.504   5.916   4.516
 4785TIP3    H214362   3.458   5.837   4.638
 4786TIP3   OH214363   5.986   1.808   1.334
 4786TIP3    H114364   6.069   1.817   1.286
 4786TIP3    H214365   6.002   1.849   1.419
 4787TIP3   OH214366   1.629   0.031   1.689
 4787TIP3    H114367   1.621   0.111   1.740
 4787TIP3    H214368   1.723   0.014   1.686
 4788TIP3   OH214369   6.228   2.433   1.843
 4788TIP3    H114370   6.170   2.495   1.799
 4788TIP3    H214371   6.250   2.369   1.774
 4789TIP3   OH214372   0.797   0.309   4.942
 4789TIP3    H114373   0.887   0.305   4.909
 4789TIP3    H214374   0.744   0.334   4.866
 4790TIP3   OH214375   3.935   1.922   1.620
 4790TIP3    H114376   3.878   1.849   1.597
 4790TIP3    H214377   3.875   1.990   1.651
 4791TIP3   OH214378   1.196   3.534   0.421
 4791TIP3    H114379   1.164   3.584   0.346
 4791TIP3    H214380   1.136   3.558   0.493
 4792TIP3   OH214381   0.956   5.456   0.441
 4792TIP3    H114382   0.895   5.383   0.447
 4792TIP3    H214383   0.982   5.458   0.349
 4793TIP3   OH214384   0.427   2.087   4.320
 4793TIP3    H114385   0.415   2.056   4.410
 4793TIP3    H214386   0.380   2.170   4.316
 4794TIP3   OH214387   5.056   4.664   2.493
 4794TIP3    H114388   5.040   4.593   2.555
 4794TIP3    H214389   5.144   4.694   2.512
 4795TIP3   OH214390   3.183   0.810   3.123
 4795TIP3    H114391   3.175   0.715   3.136
 4795TIP3    H214392   3.104   0.846   3.163
 4796TIP3   OH214393   2.270   2.109   4.933
 4796TIP3    H114394   2.250   2.086   5.023
 4796TIP3    H214395   2.313   2.031   4.897
 4797TIP3   OH214396   1.554   4.685   3.573
 4797TIP3    H114397   1.495   4.622   3.533
 4797TIP3    H214398   1.619   4.704   3.505
 4798TIP3   OH214399   4.785   2.344   0.748
 4798TIP3    H114400   4.819   2.430   0.723
 4798TIP3    H214401   4.848   2.311   0.812
 4799TIP3   OH214402  -0.021   1.149   0.768
 4799TIP3    H114403  -0.038   1.079   0.705
 4799TIP3    H214404   0.066   1.130   0.803
 4800TIP3   OH214405   4.676   3.601   3.355
 4800TIP3    H114406   4.753   3.649   3.386
 4800TIP3    H214407   4.611   3.669   3.337
 4801TIP3   OH214408   5.280   5.223   4.575
 4801TIP3    H114409   5.291   5.270   4.657
 4801TIP3    H214410   5.203   5.263   4.535
 4802TIP3   OH214411   5.706   1.212   2.070
 4802TIP3    H114412   5.746   1.146   2.013
 4802TIP3    H214413   5.750   1.294   2.048
 4803TIP3   OH214414   2.304   5.662   3.251
 4803TIP3    H114415   2.335   5.723   3.318
 4803TIP3    H214416   2.241   5.713   3.199
 4804TIP3   OH214417   1.692   1.725   4.027
 4804TIP3    H114418   1.704   1.722   4.122
 4804TIP3    H214419   1.744   1.800   3.999
 4805TIP3   OH214420   5.679   5.311   2.490
 4805TIP3    H114421   5.686   5.405   2.472
 4805TIP3    H214422   5.605   5.282   2.438
 4806TIP3   OH214423   0.131   1.799   4.478
 4806TIP3    H114424   0.167   1.887   4.488
 4806TIP3    H214425   0.203   1.748   4.442
 4807TIP3   OH214426   3.844   2.169   1.703
 4807TIP3    H114427   3.861   2.229   1.775
 4807TIP3    H214428   3.851   2.223   1.624
 4808TIP3   OH214429   3.553   3.565   2.401
 4808TIP3    H114430   3.504   3.637   2.441
 4808TIP3    H214431   3.606   3.606   2.333
 4809TIP3   OH214432   2.887   1.430   3.704
 4809TIP3    H114433   2.952   1.367   3.676
 4809TIP3    H214434   2.930   1.480   3.773
 4810TIP3   OH214435   3.843   2.010   4.880
 4810TIP3    H114436   3.879   2.098   4.882
 4810TIP3    H214437   3.919   1.953   4.868
 4811TIP3   OH214438   5.780   4.652   1.368
 4811TIP3    H114439   5.690   4.624   1.349
 4811TIP3    H214440   5.771   4.708   1.445
 4812TIP3   OH214441   2.048   4.433   4.923
 4812TIP3    H114442   2.055   4.483   4.842
 4812TIP3    H214443   2.125   4.375   4.922
 4813TIP3   OH214444   3.511   4.226   3.645
 4813TIP3    H114445   3.448   4.272   3.589
 4813TIP3    H214446   3.490   4.133   3.632
 4814TIP3   OH214447   4.722   2.367   4.644
 4814TIP3    H114448   4.757   2.279   4.660
 4814TIP3    H214449   4.711   2.372   4.549
 4815TIP3   OH214450   2.077   4.182   1.619
 4815TIP3    H114451   2.025   4.245   1.668
 4815TIP3    H214452   2.095   4.112   1.682
 4816TIP3   OH214453   1.543   1.397   3.220
 4816TIP3    H114454   1.623   1.380   3.169
 4816TIP3    H214455   1.492   1.456   3.164
 4817TIP3   OH214456   3.750   5.027   3.219
 4817TIP3    H114457   3.682   5.094   3.213
 4817TIP3    H214458   3.822   5.060   3.165
 4818TIP3   OH214459   5.526   3.050   4.704
 4818TIP3    H114460   5.559   3.037   4.793
 4818TIP3    H214461   5.538   2.965   4.662
 4819TIP3   OH214462   5.005   5.009   0.918
 4819TIP3    H114463   4.956   5.025   0.837
 4819TIP3    H214464   5.066   4.939   0.895
 4820TIP3   OH214465   1.914   3.356   1.251
 4820TIP3    H114466   1.926   3.441   1.210
 4820TIP3    H214467   1.834   3.321   1.211
 4821TIP3   OH214468   1.890   4.896   2.583
 4821TIP3    H114469   1.972   4.860   2.617
 4821TIP3    H214470   1.917   4.977   2.539
 4822TIP3   OH214471   3.272   3.085   0.833
 4822TIP3    H114472   3.341   3.020   0.821
 4822TIP3    H214473   3.300   3.160   0.779
 4823TIP3   OH214474   5.097   2.247   1.327
 4823TIP3    H114475   5.123   2.305   1.255
 4823TIP3    H214476   5.145   2.281   1.403
 4824TIP3   OH214477   3.843   5.159   3.644
 4824TIP3    H114478   3.856   5.159   3.739
 4824TIP3    H214479   3.860   5.068   3.618
 4825TIP3   OH214480   1.562   4.607   1.736
 4825TIP3    H114481   1.498   4.614   1.806
 4825TIP3    H214482   1.554   4.690   1.688
 4826TIP3   OH214483   5.388   0.275   1.303
 4826TIP3    H114484   5.295   0.257   1.319
 4826TIP3    H214485   5.390   0.364   1.268
 4827TIP3   OH214486   1.645   0.892   5.105
 4827TIP3    H114487   1.698   0.970   5.122
 4827TIP3    H214488   1.560   0.927   5.079
 4828TIP3   OH214489   5.718   0.013   3.422
 4828TIP3    H114490   5.648   0.069   3.454
 4828TIP3    H214491   5.796   0.069   3.423
 4829TIP3   OH214492   4.748   5.797   2.775
 4829TIP3    H114493   4.837   5.779   2.806
 4829TIP3    H214494   4.691   5.748   2.834
 4830TIP3   OH214495   3.435   5.177   1.057
 4830TIP3    H114496   3.457   5.086   1.077
 4830TIP3    H214497   3.402   5.213   1.139
 4831TIP3   OH214498   6.033   0.323   0.838
 4831TIP3    H114499   6.094   0.281   0.899
 4831TIP3    H214500   6.035   0.415   0.862
 4832TIP3   OH214501   3.019   3.632   0.197
 4832TIP3    H114502   2.984   3.564   0.254
 4832TIP3    H214503   2.979   3.616   0.112
 4833TIP3   OH214504   2.852   2.617   3.750
 4833TIP3    H114505   2.927   2.574   3.709
 4833TIP3    H214506   2.782   2.552   3.745
 4834TIP3   OH214507   1.912   0.706   0.454
 4834TIP3    H114508   1.927   0.625   0.503
 4834TIP3    H214509   1.896   0.772   0.521
 4835TIP3   OH214510   3.143   1.560   1.438
 4835TIP3    H114511   3.092   1.491   1.396
 4835TIP3    H214512   3.135   1.542   1.532
 4836TIP3   OH214513   6.028   4.198   0.854
 4836TIP3    H114514   5.971   4.275   0.860
 4836TIP3    H214515   6.116   4.234   0.847
 4837TIP3   OH214516   3.264   5.107   4.550
 4837TIP3    H114517   3.318   5.184   4.528
 4837TIP3    H214518   3.181   5.123   4.506
 4838TIP3   OH214519   3.414   5.544   1.972
 4838TIP3    H114520   3.502   5.535   2.010
 4838TIP3    H214521   3.417   5.628   1.926
 4839TIP3   OH214522   0.507   3.210   4.452
 4839TIP3    H114523   0.576   3.188   4.389
 4839TIP3    H214524   0.528   3.298   4.482
 4840TIP3   OH214525   1.451   5.416   2.612
 4840TIP3    H114526   1.540   5.451   2.607
 4840TIP3    H214527   1.444   5.358   2.536
 4841TIP3   OH214528   0.226   3.472   1.233
 4841TIP3    H114529   0.277   3.552   1.243
 4841TIP3    H214530   0.146   3.500   1.190
 4842TIP3   OH214531   5.121   0.247   1.273
 4842TIP3    H114532   5.125   0.226   1.180
 4842TIP3    H214533   5.072   0.330   1.277
 4843TIP3   OH214534   5.269   2.893   2.781
 4843TIP3    H114535   5.357   2.921   2.754
 4843TIP3    H214536   5.234   2.848   2.704
 4844TIP3   OH214537   5.904   0.084   1.948
 4844TIP3    H114538   5.885   0.104   1.856
 4844TIP3    H214539   5.997   0.060   1.948
 4845TIP3   OH214540   0.530   5.301   1.838
 4845TIP3    H114541   0.459   5.304   1.902
 4845TIP3    H214542   0.487   5.278   1.755
 4846TIP3   OH214543   2.521   4.249   1.047
 4846TIP3    H114544   2.560   4.242   1.134
 4846TIP3    H214545   2.593   4.276   0.990
 4847TIP3   OH214546   5.216   5.296   0.952
 4847TIP3    H114547   5.286   5.326   0.895
 4847TIP3    H214548   5.136   5.334   0.916
 4848TIP3   OH214549   5.542   3.161   0.914
 4848TIP3    H114550   5.494   3.090   0.956
 4848TIP3    H214551   5.594   3.117   0.846
 4849TIP3   OH214552   2.330   0.078   0.890
 4849TIP3    H114553   2.320   0.160   0.842
 4849TIP3    H214554   2.252   0.028   0.868
 4850TIP3   OH214555   0.026   5.835   3.991
 4850TIP3    H114556   0.041   5.800   3.903
 4850TIP3    H214557  -0.052   5.789   4.022
 4851TIP3   OH214558   1.979   3.523   2.447
 4851TIP3    H114559   1.931   3.459   2.501
 4851TIP3    H214560   1.951   3.504   2.358
 4852TIP3   OH214561   4.652   4.394   1.097
 4852TIP3    H114562   4.591   4.419   1.027
 4852TIP3    H214563   4.735   4.378   1.053
 4853TIP3   OH214564   5.239   1.175   3.652
 4853TIP3    H114565   5.286   1.258   3.668
 4853TIP3    H214566   5.305   1.117   3.617
 4854TIP3   OH214567   3.818   4.545   2.623
 4854TIP3    H114568   3.750   4.578   2.682
 4854TIP3    H214569   3.770   4.501   2.553
 4855TIP3   OH214570   6.088   3.205   2.371
 4855TIP3    H114571   6.016   3.156   2.410
 4855TIP3    H214572   6.165   3.181   2.422
 4856TIP3   OH214573   3.100   1.539   1.704
 4856TIP3    H114574   3.075   1.626   1.735
 4856TIP3    H214575   3.026   1.484   1.727
 4857TIP3   OH214576   3.362   4.055   4.952
 4857TIP3    H114577   3.281   4.079   4.906
 4857TIP3    H214578   3.431   4.068   4.887
 4858TIP3   OH214579   6.181   2.410   4.331
 4858TIP3    H114580   6.196   2.398   4.237
 4858TIP3    H214581   6.214   2.330   4.371
 4859TIP3   OH214582   1.915   4.637   2.320
 4859TIP3    H114583   1.861   4.620   2.244
 4859TIP3    H214584   2.000   4.662   2.284
 4860TIP3   OH214585   0.779   0.123   2.693
 4860TIP3    H114586   0.719   0.082   2.632
 4860TIP3    H214587   0.838   0.175   2.638
 4861TIP3   OH214588   3.197   4.589   4.732
 4861TIP3    H114589   3.215   4.587   4.638
 4861TIP3    H214590   3.135   4.517   4.746
 4862TIP3   OH214591   0.444   1.146   2.750
 4862TIP3    H114592   0.405   1.135   2.837
 4862TIP3    H214593   0.517   1.084   2.750
 4863TIP3   OH214594   4.208   4.833   1.482
 4863TIP3    H114595   4.283   4.859   1.429
 4863TIP3    H214596   4.138   4.894   1.458
 4864TIP3   OH214597   0.354   1.750   0.768
 4864TIP3    H114598   0.389   1.693   0.837
 4864TIP3    H214599   0.417   1.744   0.697
 4865TIP3   OH214600   6.330   2.424   2.219
 4865TIP3    H114601   6.339   2.339   2.174
 4865TIP3    H214602   6.280   2.478   2.157
 4866TIP3   OH214603   5.662   5.045   2.741
 4866TIP3    H114604   5.576   5.005   2.730
 4866TIP3    H214605   5.714   5.008   2.669
 4867TIP3   OH214606   0.907   1.080   0.305
 4867TIP3    H114607   0.983   1.136   0.323
 4867TIP3    H214608   0.832   1.130   0.339
 4868TIP3   OH214609   1.425   3.994   4.898
 4868TIP3    H114610   1.343   3.969   4.939
 4868TIP3    H214611   1.440   3.927   4.831
 4869TIP3   OH214612   0.168   1.667   3.002
 4869TIP3    H114613   0.143   1.575   2.995
 4869TIP3    H214614   0.088   1.712   3.028
 4870TIP3   OH214615   2.447   0.293   3.716
 4870TIP3    H114616   2.415   0.204   3.712
 4870TIP3    H214617   2.540   0.285   3.739
 4871TIP3   OH214618   4.414   0.359   0.111
 4871TIP3    H114619   4.375   0.446   0.097
 4871TIP3    H214620   4.347   0.310   0.159
 4872TIP3   OH214621   1.341   3.271   4.381
 4872TIP3    H114622   1.326   3.184   4.416
 4872TIP3    H214623   1.380   3.257   4.295
 4873TIP3   OH214624   2.853   5.181   1.856
 4873TIP3    H114625   2.939   5.142   1.840
 4873TIP3    H214626   2.859   5.270   1.820
 4874TIP3   OH214627   1.158   3.786   1.230
 4874TIP3    H114628   1.247   3.756   1.246
 4874TIP3    H214629   1.163   3.837   1.149
 4875TIP3   OH214630   4.980   4.175   3.414
 4875TIP3    H114631   5.028   4.120   3.352
 4875TIP3    H214632   5.011   4.263   3.396
 4876TIP3   OH214633   2.513   1.821   1.194
 4876TIP3    H114634   2.446   1.792   1.255
 4876TIP3    H214635   2.574   1.872   1.247
 4877TIP3   OH214636   2.617   4.431   2.834
 4877TIP3    H114637   2.542   4.380   2.865
 4877TIP3    H214638   2.610   4.428   2.739
 4878TIP3   OH214639   3.832   3.255   4.340
 4878TIP3    H114640   3.820   3.312   4.265
 4878TIP3    H214641   3.798   3.170   4.312
 4879TIP3   OH214642   6.155   0.530   0.599
 4879TIP3    H114643   6.117   0.564   0.680
 4879TIP3    H214644   6.093   0.463   0.570
 4880TIP3   OH214645   4.339   0.855   3.720
 4880TIP3    H114646   4.432   0.837   3.730
 4880TIP3    H214647   4.329   0.880   3.628
 4881TIP3   OH214648   4.503   5.812   2.516
 4881TIP3    H114649   4.539   5.724   2.529
 4881TIP3    H214650   4.410   5.803   2.537
 4882TIP3   OH214651   4.716   1.329   2.390
 4882TIP3    H114652   4.754   1.249   2.428
 4882TIP3    H214653   4.735   1.323   2.297
 4883TIP3   OH214654   1.500   3.405   2.877
 4883TIP3    H114655   1.481   3.369   2.790
 4883TIP3    H214656   1.595   3.399   2.886
 4884TIP3   OH214657   2.223   0.390   3.625
 4884TIP3    H114658   2.293   0.340   3.668
 4884TIP3    H214659   2.269   0.463   3.584
 4885TIP3   OH214660   3.583   4.141   0.138
 4885TIP3    H114661   3.591   4.236   0.130
 4885TIP3    H214662   3.526   4.116   0.065
 4886TIP3   OH214663   1.620   0.090   0.614
 4886TIP3    H114664   1.553   0.085   0.546
 4886TIP3    H214665   1.635   0.184   0.625
 4887TIP3   OH214666   5.662   3.335   0.393
 4887TIP3    H114667   5.617   3.283   0.460
 4887TIP3    H214668   5.713   3.271   0.344
 4888TIP3   OH214669   5.128   1.696   2.355
 4888TIP3    H114670   5.041   1.696   2.394
 4888TIP3    H214671   5.158   1.605   2.362
 4889TIP3   OH214672   1.583   3.235   0.160
 4889TIP3    H114673   1.509   3.223   0.220
 4889TIP3    H214674   1.561   3.314   0.110
 4890TIP3   OH214675   2.992   0.850   2.521
 4890TIP3    H114676   3.066   0.844   2.461
 4890TIP3    H214677   2.975   0.944   2.529
 4891TIP3   OH214678   2.489   0.637   3.767
 4891TIP3    H114679   2.575   0.646   3.808
 4891TIP3    H214680   2.507   0.592   3.684
 4892TIP3   OH214681   2.397   3.601   0.309
 4892TIP3    H114682   2.386   3.535   0.378
 4892TIP3    H214683   2.310   3.640   0.300
 4893TIP3   OH214684   1.099   4.936   2.155
 4893TIP3    H114685   1.184   4.917   2.116
 4893TIP3    H214686   1.045   4.963   2.081
 4894TIP3   OH214687   1.867   4.578   4.651
 4894TIP3    H114688   1.847   4.669   4.671
 4894TIP3    H214689   1.881   4.577   4.557
 4895TIP3   OH214690   5.179   0.186   4.993
 4895TIP3    H114691   5.101   0.132   5.007
 4895TIP3    H214692   5.146   0.276   4.995
 4896TIP3   OH214693   4.205   2.333   3.126
 4896TIP3    H114694   4.232   2.303   3.039
 4896TIP3    H214695   4.111   2.320   3.128
 4897TIP3   OH214696   6.055   2.008   1.625
 4897TIP3    H114697   5.993   2.019   1.696
 4897TIP3    H214698   6.075   1.915   1.623
 4898TIP3   OH214699   4.195   4.560   3.722
 4898TIP3    H114700   4.173   4.650   3.698
 4898TIP3    H214701   4.195   4.513   3.638
 4899TIP3   OH214702   4.277   3.223   5.071
 4899TIP3    H114703   4.310   3.179   4.993
 4899TIP3    H214704   4.353   3.227   5.130
 4900TIP3   OH214705   3.430   5.275   3.452
 4900TIP3    H114706   3.502   5.336   3.466
 4900TIP3    H214707   3.369   5.292   3.524
 4901TIP3   OH214708   3.047   0.905   2.089
 4901TIP3    H114709   3.029   0.998   2.073
 4901TIP3    H214710   2.972   0.859   2.053
 4902TIP3   OH214711   0.204   2.620   1.067
 4902TIP3    H114712   0.154   2.698   1.041
 4902TIP3    H214713   0.271   2.611   0.999
 4903TIP3   OH214714   4.064   4.547   0.911
 4903TIP3    H114715   4.109   4.617   0.865
 4903TIP3    H214716   4.117   4.469   0.895
 4904TIP3   OH214717   5.861   2.031   1.267
 4904TIP3    H114718   5.866   1.936   1.278
 4904TIP3    H214719   5.950   2.062   1.285
 4905TIP3   OH214720   0.188   2.660   4.435
 4905TIP3    H114721   0.156   2.628   4.350
 4905TIP3    H214722   0.278   2.627   4.441
 4906TIP3   OH214723   1.102   1.256   5.058
 4906TIP3    H114724   1.170   1.196   5.090
 4906TIP3    H214725   1.093   1.321   5.127
 4907TIP3   OH214726   5.267   1.867   0.400
 4907TIP3    H114727   5.198   1.820   0.449
 4907TIP3    H214728   5.344   1.810   0.407
 4908TIP3   OH214729   4.632   3.806   1.356
 4908TIP3    H114730   4.657   3.812   1.449
 4908TIP3    H214731   4.692   3.866   1.312
 4909TIP3   OH214732   1.634   3.971   2.252
 4909TIP3    H114733   1.586   3.913   2.311
 4909TIP3    H214734   1.652   3.917   2.175
 4910TIP3   OH214735   1.566   5.003   1.880
 4910TIP3    H114736   1.573   4.934   1.945
 4910TIP3    H214737   1.568   5.084   1.930
 4911TIP3   OH214738   3.648   0.536   0.151
 4911TIP3    H114739   3.574   0.511   0.207
 4911TIP3    H214740   3.668   0.626   0.178
 4912TIP3   OH214741   1.909   5.026   1.321
 4912TIP3    H114742   1.865   4.966   1.261
 4912TIP3    H214743   1.838   5.069   1.369
 4913TIP3   OH214744   1.940   0.406   4.952
 4913TIP3    H114745   1.876   0.477   4.957
 4913TIP3    H214746   1.887   0.326   4.949
 4914TIP3   OH214747   5.409   0.543   1.203
 4914TIP3    H114748   5.345   0.609   1.179
 4914TIP3    H214749   5.484   0.593   1.236
 4915TIP3   OH214750   0.044   0.587   3.238
 4915TIP3    H114751   0.132   0.624   3.240
 4915TIP3    H214752   0.040   0.540   3.155
 4916TIP3   OH214753   3.407   5.912   3.892
 4916TIP3    H114754   3.379   5.833   3.939
 4916TIP3    H214755   3.447   5.878   3.812
 4917TIP3   OH214756   2.519   1.560   2.482
 4917TIP3    H114757   2.502   1.641   2.529
 4917TIP3    H214758   2.472   1.570   2.399
 4918TIP3   OH214759   0.626   3.253   3.588
 4918TIP3    H114760   0.631   3.173   3.640
 4918TIP3    H214761   0.587   3.226   3.505
 4919TIP3   OH214762   5.219   2.775   0.973
 4919TIP3    H114763   5.261   2.793   1.057
 4919TIP3    H214764   5.244   2.686   0.951
 4920TIP3   OH214765   0.829   4.183   0.454
 4920TIP3    H114766   0.883   4.137   0.519
 4920TIP3    H214767   0.868   4.159   0.370
 4921TIP3   OH214768   0.818   3.761   2.613
 4921TIP3    H114769   0.808   3.846   2.571
 4921TIP3    H214770   0.730   3.722   2.608
 4922TIP3   OH214771   4.725   2.980   5.045
 4922TIP3    H114772   4.667   2.986   4.969
 4922TIP3    H214773   4.696   3.051   5.102
 4923TIP3   OH214774   5.194   0.251   3.613
 4923TIP3    H114775   5.101   0.228   3.613
 4923TIP3    H214776   5.223   0.234   3.702
 4924TIP3   OH214777   2.641   2.550   3.258
 4924TIP3    H114778   2.569   2.610   3.277
 4924TIP3    H214779   2.717   2.607   3.245
 4925TIP3   OH214780   2.051   4.412   0.770
 4925TIP3    H114781   1.995   4.418   0.847
 4925TIP3    H214782   2.028   4.488   0.717
 4926TIP3   OH214783   3.444   3.758   4.752
 4926TIP3    H114784   3.432   3.819   4.679
 4926TIP3    H214785   3.440   3.671   4.713
 4927TIP3   OH214786   5.438   3.406   2.513
 4927TIP3    H114787   5.437   3.425   2.607
 4927TIP3    H214788   5.424   3.490   2.471
 4928TIP3   OH214789   1.265   2.833   2.184
 4928TIP3    H114790   1.204   2.760   2.193
 4928TIP3    H214791   1.217   2.898   2.132
 4929TIP3   OH214792   4.369   1.521   3.724
 4929TIP3    H114793   4.377   1.452   3.790
 4929TIP3    H214794   4.339   1.475   3.645
 4930TIP3   OH214795   4.086   0.775   1.472
 4930TIP3    H114796   4.029   0.852   1.475
 4930TIP3    H214797   4.047   0.720   1.404
 4931TIP3   OH214798   2.281   1.523   2.021
 4931TIP3    H114799   2.346   1.477   1.968
 4931TIP3    H214800   2.200   1.474   2.008
 4932TIP3   OH214801   1.838   4.941   2.210
 4932TIP3    H114802   1.924   4.898   2.215
 4932TIP3    H214803   1.857   5.034   2.207
 4933TIP3   OH214804   0.396   4.723   4.685
 4933TIP3    H114805   0.325   4.788   4.682
 4933TIP3    H214806   0.378   4.665   4.611
 4934TIP3   OH214807   4.264   1.410   3.139
 4934TIP3    H114808   4.314   1.491   3.131
 4934TIP3    H214809   4.206   1.410   3.063
 4935TIP3   OH214810   5.433   5.834   4.039
 4935TIP3    H114811   5.347   5.793   4.028
 4935TIP3    H214812   5.478   5.819   3.955
 4936TIP3   OH214813   5.603   3.558   3.846
 4936TIP3    H114814   5.691   3.575   3.812
 4936TIP3    H214815   5.580   3.637   3.893
 4937TIP3   OH214816   5.767   2.718   4.346
 4937TIP3    H114817   5.700   2.650   4.352
 4937TIP3    H214818   5.720   2.795   4.314
 4938TIP3   OH214819   6.104   5.203   2.732
 4938TIP3    H114820   6.009   5.201   2.718
 4938TIP3    H214821   6.138   5.256   2.660
 4939TIP3   OH214822   4.155   2.134   4.447
 4939TIP3    H114823   4.124   2.195   4.515
 4939TIP3    H214824   4.249   2.150   4.441
 4940TIP3   OH214825   4.277   4.035   1.423
 4940TIP3    H114826   4.302   3.943   1.435
 4940TIP3    H214827   4.316   4.080   1.498
 4941TIP3   OH214828   5.477   3.970   0.849
 4941TIP3    H114829   5.569   3.977   0.824
 4941TIP3    H214830   5.479   3.931   0.936
 4942TIP3   OH214831   2.065   5.348   2.893
 4942TIP3    H114832   2.156   5.378   2.896
 4942TIP3    H214833   2.014   5.421   2.929
 4943TIP3   OH214834   3.008   4.259   0.994
 4943TIP3    H114835   3.092   4.224   1.024
 4943TIP3    H214836   2.991   4.214   0.911
 4944TIP3   OH214837   4.544   4.080   3.841
 4944TIP3    H114838   4.609   4.072   3.911
 4944TIP3    H214839   4.537   3.991   3.805
 4945TIP3   OH214840   5.016   4.428   3.028
 4945TIP3    H114841   4.990   4.484   3.101
 4945TIP3    H214842   4.933   4.389   2.997
 4946TIP3   OH214843   0.732   1.958   1.366
 4946TIP3    H114844   0.726   2.038   1.416
 4946TIP3    H214845   0.644   1.946   1.328
 4947TIP3   OH214846   5.736   1.621   2.516
 4947TIP3    H114847   5.784   1.569   2.451
 4947TIP3    H214848   5.666   1.662   2.466
 4948TIP3   OH214849   2.615   3.091   0.679
 4948TIP3    H114850   2.594   3.026   0.611
 4948TIP3    H214851   2.544   3.081   0.743
 4949TIP3   OH214852   3.124   5.883   1.413
 4949TIP3    H114853   3.055   5.923   1.360
 4949TIP3    H214854   3.086   5.878   1.501
 4950TIP3   OH214855   3.820   0.280   4.170
 4950TIP3    H114856   3.793   0.190   4.186
 4950TIP3    H214857   3.911   0.274   4.142
 4951TIP3   OH214858   1.813   3.877   3.861
 4951TIP3    H114859   1.792   3.890   3.954
 4951TIP3    H214860   1.753   3.809   3.832
 4952TIP3   OH214861   2.034   2.954   0.171
 4952TIP3    H114862   1.970   3.025   0.177
 4952TIP3    H214863   1.982   2.874   0.183
 4953TIP3   OH214864   2.705   1.047   1.885
 4953TIP3    H114865   2.632   1.009   1.935
 4953TIP3    H214866   2.700   1.141   1.902
 4954TIP3   OH214867   1.706   5.443   3.980
 4954TIP3    H114868   1.635   5.396   3.936
 4954TIP3    H214869   1.680   5.535   3.975
 4955TIP3   OH214870   5.636   1.779   3.949
 4955TIP3    H114871   5.720   1.798   3.991
 4955TIP3    H214872   5.585   1.859   3.960
 4956TIP3   OH214873   0.238   3.104   3.718
 4956TIP3    H114874   0.313   3.090   3.776
 4956TIP3    H214875   0.196   3.183   3.753
 4957TIP3   OH214876   0.938   1.149   3.495
 4957TIP3    H114877   0.854   1.105   3.512
 4957TIP3    H214878   0.914   1.224   3.440
 4958TIP3   OH214879   5.547   5.167   3.802
 4958TIP3    H114880   5.539   5.221   3.881
 4958TIP3    H214881   5.524   5.079   3.831
 4959TIP3   OH214882   4.096   0.004   2.171
 4959TIP3    H114883   4.002   0.003   2.153
 4959TIP3    H214884   4.132   0.066   2.108
 4960TIP3   OH214885   1.863   1.457   1.120
 4960TIP3    H114886   1.922   1.532   1.124
 4960TIP3    H214887   1.857   1.426   1.210
 4961TIP3   OH214888   1.704   4.731   4.093
 4961TIP3    H114889   1.625   4.705   4.046
 4961TIP3    H214890   1.772   4.736   4.025
 4962TIP3   OH214891   3.942   4.310   2.134
 4962TIP3    H114892   3.914   4.343   2.048
 4962TIP3    H214893   3.869   4.257   2.165
 4963TIP3   OH214894   3.828   5.261   4.658
 4963TIP3    H114895   3.912   5.299   4.633
 4963TIP3    H214896   3.776   5.336   4.687
 4964TIP3   OH214897  -0.036   5.147   1.010
 4964TIP3    H114898  -0.073   5.074   1.059
 4964TIP3    H214899   0.051   5.117   0.985
 4965TIP3   OH214900   3.081   5.540   4.429
 4965TIP3    H114901   3.064   5.588   4.510
 4965TIP3    H214902   3.097   5.607   4.364
 4966TIP3   OH214903   4.793   4.322   2.909
 4966TIP3    H114904   4.739   4.400   2.921
 4966TIP3    H214905   4.753   4.277   2.835
 4967TIP3   OH214906   1.972   1.517   4.177
 4967TIP3    H114907   1.921   1.469   4.242
 4967TIP3    H214908   1.939   1.487   4.093
 4968TIP3   OH214909   2.196   0.480   2.845
 4968TIP3    H114910   2.187   0.437   2.930
 4968TIP3    H214911   2.281   0.450   2.812
 4969TIP3   OH214912   4.373   1.892   2.056
 4969TIP3    H114913   4.339   1.803   2.046
 4969TIP3    H214914   4.461   1.889   2.018
 4970TIP3   OH214915   0.104   0.929   1.399
 4970TIP3    H114916   0.062   0.875   1.465
 4970TIP3    H214917   0.074   1.018   1.418
 4971TIP3   OH214918   0.963   4.765   0.929
 4971TIP3    H114919   0.973   4.695   0.994
 4971TIP3    H214920   1.042   4.818   0.939
 4972TIP3   OH214921   1.942   4.174   2.083
 4972TIP3    H114922   1.901   4.237   2.142
 4972TIP3    H214923   2.014   4.223   2.042
 4973TIP3   OH214924   5.342   3.331   4.912
 4973TIP3    H114925   5.366   3.284   4.992
 4973TIP3    H214926   5.425   3.365   4.878
 4974TIP3   OH214927   0.686   1.650   0.220
 4974TIP3    H114928   0.732   1.673   0.301
 4974TIP3    H214929   0.731   1.699   0.152
 4975TIP3   OH214930   4.270   3.840   3.258
 4975TIP3    H114931   4.280   3.920   3.310
 4975TIP3    H214932   4.188   3.854   3.210
 4976TIP3   OH214933   5.634   2.247   2.028
 4976TIP3    H114934   5.619   2.205   2.113
 4976TIP3    H214935   5.583   2.196   1.966
 4977TIP3   OH214936   2.834   4.811   3.169
 4977TIP3    H114937   2.805   4.798   3.079
 4977TIP3    H214938   2.757   4.847   3.214
 4978TIP3   OH214939   5.507   5.644   1.259
 4978TIP3    H114940   5.500   5.712   1.192
 4978TIP3    H214941   5.533   5.565   1.212
 4979TIP3   OH214942   0.318   2.656   3.291
 4979TIP3    H114943   0.407   2.657   3.257
 4979TIP3    H214944   0.326   2.684   3.382
 4980TIP3   OH214945   1.615   2.823   4.901
 4980TIP3    H114946   1.649   2.751   4.954
 4980TIP3    H214947   1.535   2.788   4.862
 4981TIP3   OH214948   4.537   1.358   3.905
 4981TIP3    H114949   4.591   1.412   3.848
 4981TIP3    H214950   4.548   1.269   3.871
 4982TIP3   OH214951   3.791   2.694   1.696
 4982TIP3    H114952   3.761   2.678   1.785
 4982TIP3    H214953   3.730   2.760   1.661
 4983TIP3   OH214954   2.069   3.576   3.353
 4983TIP3    H114955   1.994   3.633   3.372
 4983TIP3    H214956   2.044   3.491   3.390
 4984TIP3   OH214957   1.560   3.932   4.354
 4984TIP3    H114958   1.505   3.917   4.277
 4984TIP3    H214959   1.498   3.933   4.428
 4985TIP3   OH214960   6.061   3.835   1.492
 4985TIP3    H114961   6.027   3.802   1.575
 4985TIP3    H214962   5.985   3.870   1.447
 4986TIP3   OH214963   5.736   3.669   0.307
 4986TIP3    H114964   5.820   3.714   0.303
 4986TIP3    H214965   5.742   3.614   0.385
 4987TIP3   OH214966   4.922   1.344   0.919
 4987TIP3    H114967   4.984   1.349   0.991
 4987TIP3    H214968   4.882   1.431   0.915
 4988TIP3   OH214969   6.157   1.774   4.270
 4988TIP3    H114970   6.163   1.743   4.179
 4988TIP3    H214971   6.238   1.743   4.311
 4989TIP3   OH214972   4.698   2.604   1.931
 4989TIP3    H114973   4.784   2.578   1.899
 4989TIP3    H214974   4.652   2.635   1.853
 4990TIP3   OH214975   3.593   0.907   2.194
 4990TIP3    H114976   3.498   0.895   2.187
 4990TIP3    H214977   3.611   0.985   2.141
 4991TIP3   OH214978   4.192   4.866   0.194
 4991TIP3    H114979   4.184   4.800   0.263
 4991TIP3    H214980   4.114   4.855   0.141
 4992TIP3   OH214981   1.782   4.129   4.383
 4992TIP3    H114982   1.807   4.126   4.291
 4992TIP3    H214983   1.717   4.059   4.392
 4993TIP3   OH214984   0.506   5.848   0.670
 4993TIP3    H114985   0.586   5.800   0.692
 4993TIP3    H214986   0.484   5.895   0.751
 4994TIP3   OH214987   4.884   4.458   0.834
 4994TIP3    H114988   4.935   4.390   0.879
 4994TIP3    H214989   4.933   4.474   0.753
 4995TIP3   OH214990   2.862   4.363   0.594
 4995TIP3    H114991   2.797   4.299   0.620
 4995TIP3    H214992   2.946   4.322   0.614
 4996TIP3   OH214993   1.380   3.371   3.832
 4996TIP3    H114994   1.298   3.342   3.872
 4996TIP3    H214995   1.355   3.440   3.771
 4997TIP3   OH214996   6.151   2.390   3.231
 4997TIP3    H114997   6.097   2.311   3.232
 4997TIP3    H214998   6.088   2.462   3.232
 4998TIP3   OH214999   3.733   2.328   0.209
 4998TIP3    H115000   3.751   2.342   0.302
 4998TIP3    H215001   3.671   2.255   0.207
 4999TIP3   OH215002   2.168   3.568   1.362
 4999TIP3    H115003   2.175   3.594   1.270
 4999TIP3    H215004   2.221   3.489   1.369
 5000TIP3   OH215005   4.611   0.661   1.329
 5000TIP3    H115006   4.566   0.677   1.247
 5000TIP3    H215007   4.702   0.686   1.312
 5001TIP3   OH215008   0.660   1.918   4.938
 5001TIP3    H115009   0.631   1.944   5.025
 5001TIP3    H215010   0.745   1.961   4.927
 5002TIP3   OH215011   2.451   5.828   3.421
 5002TIP3    H115012   2.426   5.908   3.375
 5002TIP3    H215013   2.545   5.818   3.403
 5003TIP3   OH215014   0.865   0.536   4.058
 5003TIP3    H115015   0.951   0.505   4.087
 5003TIP3    H215016   0.803   0.484   4.109
 5004TIP3   OH215017   1.069   2.837   4.949
 5004TIP3    H115018   1.131   2.898   4.989
 5004TIP3    H215019   1.109   2.751   4.961
 5005TIP3   OH215020   5.348   3.015   3.783
 5005TIP3    H115021   5.422   3.072   3.805
 5005TIP3    H215022   5.366   2.986   3.693
 5006TIP3   OH215023   5.819   5.179   4.749
 5006TIP3    H115024   5.775   5.105   4.708
 5006TIP3    H215025   5.866   5.222   4.677
 5007TIP3   OH215026   4.949   4.832   1.325
 5007TIP3    H115027   4.879   4.772   1.302
 5007TIP3    H215028   4.910   4.919   1.317
 5008TIP3   OH215029   4.778   5.285   4.530
 5008TIP3    H115030   4.783   5.197   4.493
 5008TIP3    H215031   4.792   5.272   4.624
 5009TIP3   OH215032   5.178   4.851   0.775
 5009TIP3    H115033   5.217   4.792   0.711
 5009TIP3    H215034   5.227   4.933   0.767
 5010TIP3   OH215035   0.250   2.881   4.872
 5010TIP3    H115036   0.321   2.819   4.857
 5010TIP3    H215037   0.248   2.895   4.966
 5011TIP3   OH215038   0.300   4.935   0.365
 5011TIP3    H115039   0.281   4.950   0.272
 5011TIP3    H215040   0.223   4.968   0.411
 5012TIP3   OH215041   1.810   4.919   4.995
 5012TIP3    H115042   1.790   4.873   5.076
 5012TIP3    H215043   1.886   4.874   4.959
 5013TIP3   OH215044   4.708   0.289   2.769
 5013TIP3    H115045   4.668   0.203   2.780
 5013TIP3    H215046   4.800   0.277   2.794
 5014TIP3   OH215047   2.395   3.507   2.709
 5014TIP3    H115048   2.326   3.573   2.716
 5014TIP3    H215049   2.469   3.544   2.757
 5015TIP3   OH215050   5.064   2.719   1.503
 5015TIP3    H115051   4.980   2.716   1.549
 5015TIP3    H215052   5.127   2.741   1.572
 5016TIP3   OH215053   0.856   3.368   4.740
 5016TIP3    H115054   0.848   3.427   4.815
 5016TIP3    H215055   0.780   3.309   4.748
 5017TIP3   OH215056   2.014   5.650   4.697
 5017TIP3    H115057   1.942   5.589   4.683
 5017TIP3    H215058   1.972   5.731   4.727
 5018TIP3   OH215059   2.958   0.108   2.734
 5018TIP3    H115060   2.995   0.033   2.780
 5018TIP3    H215061   2.943   0.077   2.644
 5019TIP3   OH215062   3.435   4.998   0.104
 5019TIP3    H115063   3.350   5.041   0.099
 5019TIP3    H215064   3.484   5.034   0.029
 5020TIP3   OH215065   2.258   2.457   4.677
 5020TIP3    H115066   2.256   2.374   4.724
 5020TIP3    H215067   2.169   2.491   4.686
 5021TIP3   OH215068   6.263   3.035   3.033
 5021TIP3    H115069   6.346   3.024   2.986
 5021TIP3    H215070   6.284   3.010   3.123
 5022TIP3   OH215071   1.806   0.644   4.809
 5022TIP3    H115072   1.775   0.706   4.743
 5022TIP3    H215073   1.881   0.601   4.769
 5023TIP3   OH215074   2.151   5.227   3.530
 5023TIP3    H115075   2.080   5.188   3.480
 5023TIP3    H215076   2.147   5.184   3.616
 5024TIP3   OH215077   4.422   0.529   3.048
 5024TIP3    H115078   4.367   0.534   2.970
 5024TIP3    H215079   4.391   0.601   3.103
 5025TIP3   OH215080   1.414   1.324   2.673
 5025TIP3    H115081   1.376   1.240   2.699
 5025TIP3    H215082   1.484   1.339   2.735
 5026TIP3   OH215083   4.765   3.439   1.236
 5026TIP3    H115084   4.736   3.462   1.324
 5026TIP3    H215085   4.735   3.349   1.224
 5027TIP3   OH215086   2.368   4.237   1.493
 5027TIP3    H115087   2.435   4.184   1.535
 5027TIP3    H215088   2.296   4.238   1.556
 5028TIP3   OH215089   6.177   4.239   1.209
 5028TIP3    H115090   6.230   4.285   1.274
 5028TIP3    H215091   6.091   4.229   1.249
 5029TIP3   OH215092   5.653   2.389   3.675
 5029TIP3    H115093   5.633   2.298   3.652
 5029TIP3    H215094   5.625   2.398   3.766
 5030TIP3   OH215095   6.065   3.121   1.601
 5030TIP3    H115096   5.984   3.131   1.551
 5030TIP3    H215097   6.040   3.067   1.676
 5031TIP3   OH215098   6.068   2.218   0.642
 5031TIP3    H115099   6.080   2.252   0.553
 5031TIP3    H215100   5.976   2.192   0.645
 5032TIP3   OH215101   1.766   2.452   3.711
 5032TIP3    H115102   1.712   2.465   3.789
 5032TIP3    H215103   1.839   2.398   3.742
 5033TIP3   OH215104   4.198   1.705   4.339
 5033TIP3    H115105   4.205   1.640   4.409
 5033TIP3    H215106   4.156   1.780   4.380
 5034TIP3   OH215107   3.626   2.261   1.909
 5034TIP3    H115108   3.621   2.355   1.891
 5034TIP3    H215109   3.718   2.246   1.930
 5035TIP3   OH215110   0.387   4.469   1.642
 5035TIP3    H115111   0.421   4.484   1.554
 5035TIP3    H215112   0.292   4.458   1.630
 5036TIP3   OH215113   6.151   2.713   3.755
 5036TIP3    H115114   6.233   2.673   3.783
 5036TIP3    H215115   6.083   2.651   3.781
 5037TIP3   OH215116   6.125   0.305   2.872
 5037TIP3    H115117   6.157   0.392   2.846
 5037TIP3    H215118   6.132   0.252   2.792
 5038TIP3   OH215119   0.066   5.580   0.277
 5038TIP3    H115120   0.053   5.599   0.370
 5038TIP3    H215121  -0.018   5.547   0.246
 5039TIP3   OH215122   4.526   0.151   0.544
 5039TIP3    H115123   4.471   0.217   0.501
 5039TIP3    H215124   4.499   0.068   0.506
 5040TIP3   OH215125   1.993   3.877   2.745
 5040TIP3    H115126   2.051   3.911   2.677
 5040TIP3    H215127   1.911   3.924   2.732
 5041TIP3   OH215128   4.139   4.169   1.991
 5041TIP3    H115129   4.131   4.073   1.988
 5041TIP3    H215130   4.077   4.196   2.059
 5042TIP3   OH215131   1.621   3.950   1.792
 5042TIP3    H115132   1.552   3.898   1.750
 5042TIP3    H215133   1.681   3.971   1.721
 5043TIP3   OH215134   3.878   0.087   0.434
 5043TIP3    H115135   3.928   0.041   0.502
 5043TIP3    H215136   3.944   0.121   0.375
 5044TIP3   OH215137   2.675   5.377   0.597
 5044TIP3    H115138   2.588   5.388   0.557
 5044TIP3    H215139   2.671   5.293   0.641
 5045TIP3   OH215140   4.870   3.748   4.813
 5045TIP3    H115141   4.794   3.749   4.755
 5045TIP3    H215142   4.941   3.784   4.759
 5046TIP3   OH215143   0.412   2.556   0.886
 5046TIP3    H115144   0.441   2.467   0.868
 5046TIP3    H215145   0.421   2.603   0.803
 5047TIP3   OH215146   2.351   3.998   3.364
 5047TIP3    H115147   2.394   4.050   3.296
 5047TIP3    H215148   2.292   4.059   3.408
 5048TIP3   OH215149   3.974   4.598   4.989
 5048TIP3    H115150   4.029   4.666   5.029
 5048TIP3    H215151   3.976   4.526   5.051
 5049TIP3   OH215152   3.305   2.792   1.109
 5049TIP3    H115153   3.367   2.748   1.167
 5049TIP3    H215154   3.358   2.821   1.035
 5050TIP3   OH215155   5.680   3.419   2.386
 5050TIP3    H115156   5.705   3.509   2.404
 5050TIP3    H215157   5.607   3.401   2.445
 5051TIP3   OH215158   2.881   3.798   4.333
 5051TIP3    H115159   2.817   3.733   4.305
 5051TIP3    H215160   2.934   3.752   4.399
 5052TIP3   OH215161   0.781   4.453   2.537
 5052TIP3    H115162   0.771   4.523   2.473
 5052TIP3    H215163   0.763   4.373   2.487
 5053TIP3   OH215164   1.105   0.762   1.108
 5053TIP3    H115165   1.083   0.822   1.037
 5053TIP3    H215166   1.164   0.698   1.067
 5054TIP3   OH215167   2.683   5.842   4.022
 5054TIP3    H115168   2.768   5.811   4.054
 5054TIP3    H215169   2.664   5.786   3.946
 5055TIP3   OH215170   3.144   5.214   1.288
 5055TIP3    H115171   3.235   5.244   1.290
 5055TIP3    H215172   3.118   5.211   1.380
 5056TIP3   OH215173   1.216   5.585   2.687
 5056TIP3    H115174   1.121   5.586   2.686
 5056TIP3    H215175   1.239   5.493   2.673
 5057TIP3   OH215176   2.753   4.203   2.350
 5057TIP3    H115177   2.831   4.258   2.339
 5057TIP3    H215178   2.752   4.181   2.443
 5058TIP3   OH215179   5.583   3.848   3.802
 5058TIP3    H115180   5.638   3.899   3.742
 5058TIP3    H215181   5.499   3.841   3.757
 5059TIP3   OH215182   4.388   1.677   1.283
 5059TIP3    H115183   4.458   1.646   1.226
 5059TIP3    H215184   4.421   1.660   1.372
 5060TIP3   OH215185   0.001   5.978   4.688
 5060TIP3    H115186   0.037   5.918   4.753
 5060TIP3    H215187   0.038   5.948   4.605
 5061TIP3   OH215188   2.561   2.880   0.472
 5061TIP3    H115189   2.650   2.874   0.437
 5061TIP3    H215190   2.506   2.885   0.394
 5062TIP3   OH215191   3.936   1.043   0.551
 5062TIP3    H115192   3.859   1.066   0.604
 5062TIP3    H215193   3.986   1.124   0.544
 5063TIP3   OH215194   5.878   1.141   2.526
 5063TIP3    H115195   5.830   1.179   2.600
 5063TIP3    H215196   5.944   1.085   2.567
 5064TIP3   OH215197   1.570   5.059   0.141
 5064TIP3    H115198   1.482   5.022   0.131
 5064TIP3    H215199   1.568   5.103   0.227
 5065TIP3   OH215200   6.167   0.947   4.093
 5065TIP3    H115201   6.203   0.868   4.134
 5065TIP3    H215202   6.206   1.019   4.141
 5066TIP3   OH215203   0.265   0.860   2.805
 5066TIP3    H115204   0.329   0.891   2.870
 5066TIP3    H215205   0.233   0.940   2.764
 5067TIP3   OH215206   2.869   4.784   2.282
 5067TIP3    H115207   2.792   4.766   2.228
 5067TIP3    H215208   2.840   4.764   2.371
 5068TIP3   OH215209   6.242   3.257   4.250
 5068TIP3    H115210   6.291   3.322   4.200
 5068TIP3    H215211   6.224   3.187   4.188
 5069TIP3   OH215212   4.291   0.616   0.067
 5069TIP3    H115213   4.308   0.710   0.063
 5069TIP3    H215214   4.247   0.596  -0.017
 5070TIP3   OH215215   5.778   5.528   0.794
 5070TIP3    H115216   5.751   5.442   0.826
 5070TIP3    H215217   5.696   5.570   0.769
 5071TIP3   OH215218   5.858   2.380   4.162
 5071TIP3    H115219   5.936   2.356   4.112
 5071TIP3    H215220   5.881   2.362   4.253
 5072TIP3   OH215221   1.849   3.488   0.469
 5072TIP3    H115222   1.818   3.555   0.531
 5072TIP3    H215223   1.781   3.485   0.401
 5073TIP3   OH215224   2.180   1.417   3.835
 5073TIP3    H115225   2.157   1.377   3.751
 5073TIP3    H215226   2.224   1.498   3.812
 5074TIP3   OH215227   2.803   2.790   0.397
 5074TIP3    H115228   2.878   2.836   0.359
 5074TIP3    H215229   2.810   2.807   0.491
 5075TIP3   OH215230   4.568   4.447   0.838
 5075TIP3    H115231   4.475   4.470   0.837
 5075TIP3    H215232   4.613   4.530   0.825
 5076TIP3   OH215233   1.294   4.048   1.291
 5076TIP3    H115234   1.366   3.989   1.267
 5076TIP3    H215235   1.229   3.991   1.331
 5077TIP3   OH215236   2.329   3.226   1.134
 5077TIP3    H115237   2.283   3.206   1.216
 5077TIP3    H215238   2.320   3.146   1.082
 5078TIP3   OH215239   5.844   4.126   2.963
 5078TIP3    H115240   5.913   4.100   3.024
 5078TIP3    H215241   5.763   4.112   3.012
 5079TIP3   OH215242   1.420   1.525   3.012
 5079TIP3    H115243   1.474   1.516   2.933
 5079TIP3    H215244   1.367   1.603   2.997
 5080TIP3   OH215245   1.653   0.571   5.004
 5080TIP3    H115246   1.586   0.636   5.024
 5080TIP3    H215247   1.703   0.609   4.932
 5081TIP3   OH215248   0.706   1.369   0.277
 5081TIP3    H115249   0.707   1.458   0.241
 5081TIP3    H215250   0.639   1.323   0.227
 5082TIP3   OH215251   3.871   0.004   5.176
 5082TIP3    H115252   3.942   0.037   5.121
 5082TIP3    H215253   3.835   0.083   5.218
 5083TIP3   OH215254   2.131   0.557   4.183
 5083TIP3    H115255   2.115   0.465   4.203
 5083TIP3    H215256   2.148   0.598   4.267
 5084TIP3   OH215257   1.079   0.244   0.908
 5084TIP3    H115258   1.066   0.190   0.986
 5084TIP3    H215259   1.171   0.269   0.911
 5085TIP3   OH215260   4.187   2.341   1.391
 5085TIP3    H115261   4.137   2.260   1.396
 5085TIP3    H215262   4.278   2.313   1.396
 5086TIP3   OH215263   1.643   2.445   4.659
 5086TIP3    H115264   1.697   2.375   4.695
 5086TIP3    H215265   1.561   2.403   4.635
 5087TIP3   OH215266   6.108   5.324  -0.018
 5087TIP3    H115267   6.141   5.252   0.036
 5087TIP3    H215268   6.117   5.401   0.039
 5088TIP3   OH215269   3.435   2.408   2.354
 5088TIP3    H115270   3.514   2.384   2.305
 5088TIP3    H215271   3.468   2.459   2.428
 5089TIP3   OH215272   3.053   3.111   2.773
 5089TIP3    H115273   2.996   3.169   2.823
 5089TIP3    H215274   3.124   3.089   2.833
 5090TIP3   OH215275   5.486   3.234   4.499
 5090TIP3    H115276   5.571   3.261   4.532
 5090TIP3    H215277   5.454   3.170   4.562
 5091TIP3   OH215278   3.356   4.042   0.025
 5091TIP3    H115279   3.341   4.064   0.117
 5091TIP3    H215280   3.312   3.958   0.014
 5092TIP3   OH215281   4.381   4.284   1.878
 5092TIP3    H115282   4.307   4.235   1.914
 5092TIP3    H215283   4.410   4.339   1.951
 5093TIP3   OH215284   4.515   4.732   1.100
 5093TIP3    H115285   4.513   4.766   1.010
 5093TIP3    H215286   4.424   4.705   1.116
 5094TIP3   OH215287   4.427   3.299   3.642
 5094TIP3    H115288   4.443   3.312   3.549
 5094TIP3    H215289   4.515   3.290   3.681
 5095TIP3   OH215290   4.725   3.616   2.774
 5095TIP3    H115291   4.711   3.666   2.854
 5095TIP3    H215292   4.820   3.609   2.767
 5096TIP3   OH215293   2.043   5.673   3.718
 5096TIP3    H115294   1.973   5.673   3.782
 5096TIP3    H215295   2.068   5.581   3.710
 5097TIP3   OH215296   0.212   0.690   1.255
 5097TIP3    H115297   0.129   0.646   1.237
 5097TIP3    H215298   0.187   0.769   1.304
 5098TIP3   OH215299   0.119   2.286   1.439
 5098TIP3    H115300   0.192   2.337   1.405
 5098TIP3    H215301   0.126   2.201   1.396
 5099TIP3   OH215302   2.068   0.331   4.012
 5099TIP3    H115303   1.980   0.367   4.015
 5099TIP3    H215304   2.120   0.399   3.967
 5100TIP3   OH215305   0.283   1.052   4.595
 5100TIP3    H115306   0.363   1.096   4.626
 5100TIP3    H215307   0.282   1.067   4.501
 5101TIP3   OH215308   4.769   0.047   3.340
 5101TIP3    H115309   4.864   0.054   3.341
 5101TIP3    H215310   4.747   0.027   3.249
 5102TIP3   OH215311   4.768   3.324   1.756
 5102TIP3    H115312   4.813   3.375   1.689
 5102TIP3    H215313   4.677   3.324   1.729
 5103TIP3   OH215314   3.239   3.540   3.360
 5103TIP3    H115315   3.248   3.635   3.349
 5103TIP3    H215316   3.284   3.503   3.284
 5104TIP3   OH215317   4.034   1.518   1.002
 5104TIP3    H115318   3.969   1.507   0.932
 5104TIP3    H215319   4.054   1.611   1.001
 5105TIP3   OH215320   5.909   0.328   4.956
 5105TIP3    H115321   5.842   0.260   4.944
 5105TIP3    H215322   5.864   0.397   5.005
 5106TIP3   OH215323   3.497   4.475   2.585
 5106TIP3    H115324   3.503   4.533   2.661
 5106TIP3    H215325   3.468   4.532   2.513
 5107TIP3   OH215326   0.053   0.752   1.775
 5107TIP3    H115327  -0.009   0.816   1.808
 5107TIP3    H215328   0.086   0.708   1.853
 5108TIP3   OH215329   5.941   3.775   1.117
 5108TIP3    H115330   5.968   3.835   1.047
 5108TIP3    H215331   5.975   3.814   1.197
 5109TIP3   OH215332   1.269   5.935   2.906
 5109TIP3    H115333   1.177   5.908   2.899
 5109TIP3    H215334   1.291   5.968   2.819
 5110TIP3   OH215335   5.696   2.687   3.291
 5110TIP3    H115336   5.648   2.614   3.331
 5110TIP3    H215337   5.729   2.652   3.209
 5111TIP3   OH215338   4.254   2.700   0.569
 5111TIP3    H115339   4.191   2.630   0.585
 5111TIP3    H215340   4.202   2.771   0.530
 5112TIP3   OH215341   0.210   1.060   3.387
 5112TIP3    H115342   0.147   1.005   3.433
 5112TIP3    H215343   0.296   1.024   3.410
 5113TIP3   OH215344   5.622   5.588   4.683
 5113TIP3    H115345   5.652   5.675   4.654
 5113TIP3    H215346   5.529   5.586   4.660
 5114TIP3   OH215347   4.944   5.942   3.842
 5114TIP3    H115348   4.950   6.036   3.860
 5114TIP3    H215349   4.850   5.926   3.830
 5115TIP3   OH215350   0.593   5.036   4.760
 5115TIP3    H115351   0.505   5.005   4.779
 5115TIP3    H215352   0.637   5.038   4.845
 5116TIP3   OH215353   3.424   3.929   4.294
 5116TIP3    H115354   3.362   3.857   4.306
 5116TIP3    H215355   3.380   3.990   4.234
 5117TIP3   OH215356   1.201   4.923   0.888
 5117TIP3    H115357   1.199   4.997   0.949
 5117TIP3    H215358   1.203   4.963   0.801
 5118TIP3   OH215359   2.955   3.235   3.423
 5118TIP3    H115360   2.904   3.201   3.349
 5118TIP3    H215361   3.046   3.221   3.397
 5119TIP3   OH215362   3.552   5.868   0.612
 5119TIP3    H115363   3.622   5.823   0.567
 5119TIP3    H215364   3.573   5.859   0.705
 5120TIP3   OH215365   5.459   1.236   0.367
 5120TIP3    H115366   5.416   1.168   0.418
 5120TIP3    H215367   5.519   1.190   0.309
 5121TIP3   OH215368   5.797   3.132   1.810
 5121TIP3    H115369   5.863   3.132   1.880
 5121TIP3    H215370   5.760   3.043   1.813
 5122TIP3   OH215371   5.327   3.703   1.246
 5122TIP3    H115372   5.318   3.654   1.164
 5122TIP3    H215373   5.258   3.669   1.302
 5123TIP3   OH215374   4.835   4.931   3.577
 5123TIP3    H115375   4.865   4.846   3.610
 5123TIP3    H215376   4.789   4.911   3.496
 5124TIP3   OH215377   1.698   0.587   0.051
 5124TIP3    H115378   1.764   0.523   0.079
 5124TIP3    H215379   1.678   0.562  -0.039
 5125TIP3   OH215380   2.558   1.787   5.102
 5125TIP3    H115381   2.583   1.722   5.036
 5125TIP3    H215382   2.528   1.735   5.177
 5126TIP3   OH215383   5.195   4.646   0.949
 5126TIP3    H115384   5.179   4.728   0.900
 5126TIP3    H215385   5.158   4.578   0.893
 5127TIP3   OH215386   0.347   1.753   1.718
 5127TIP3    H115387   0.436   1.739   1.685
 5127TIP3    H215388   0.297   1.679   1.684
 5128TIP3   OH215389   1.751   3.389   3.662
 5128TIP3    H115390   1.771   3.310   3.612
 5128TIP3    H215391   1.833   3.413   3.704
 5129TIP3   OH215392   1.608   1.644   1.081
 5129TIP3    H115393   1.658   1.567   1.108
 5129TIP3    H215394   1.520   1.610   1.063
 5130TIP3   OH215395   0.311   3.231   1.372
 5130TIP3    H115396   0.400   3.198   1.360
 5130TIP3    H215397   0.315   3.323   1.343
 5131TIP3   OH215398   2.461   3.679   1.636
 5131TIP3    H115399   2.448   3.753   1.695
 5131TIP3    H215400   2.544   3.697   1.592
 5132TIP3   OH215401   3.606   1.682   1.490
 5132TIP3    H115402   3.701   1.689   1.501
 5132TIP3    H215403   3.576   1.647   1.574
 5133TIP3   OH215404   3.857   2.635   4.707
 5133TIP3    H115405   3.897   2.585   4.636
 5133TIP3    H215406   3.921   2.629   4.779
 5134TIP3   OH215407   4.146   3.169   4.120
 5134TIP3    H115408   4.125   3.245   4.174
 5134TIP3    H215409   4.212   3.201   4.059
 5135TIP3   OH215410   3.791   4.670   4.434
 5135TIP3    H115411   3.770   4.604   4.368
 5135TIP3    H215412   3.733   4.651   4.507
 5136TIP3   OH215413   1.212   0.882   1.338
 5136TIP3    H115414   1.158   0.839   1.272
 5136TIP3    H215415   1.154   0.894   1.413
 5137TIP3   OH215416   1.088   1.422   3.646
 5137TIP3    H115417   1.006   1.410   3.598
 5137TIP3    H215418   1.104   1.337   3.687
 5138TIP3   OH215419   5.977   4.653   3.162
 5138TIP3    H115420   5.924   4.731   3.144
 5138TIP3    H215421   6.049   4.660   3.100
 5139TIP3   OH215422   1.294   2.918   3.631
 5139TIP3    H115423   1.351   2.992   3.612
 5139TIP3    H215424   1.355   2.847   3.655
 5140TIP3   OH215425   2.857   2.163   2.925
 5140TIP3    H115426   2.798   2.102   2.969
 5140TIP3    H215427   2.809   2.245   2.921
 5141TIP3   OH215428   0.247   2.047   4.509
 5141TIP3    H115429   0.292   2.076   4.588
 5141TIP3    H215430   0.162   2.090   4.512
 5142TIP3   OH215431   1.897   2.665   1.387
 5142TIP3    H115432   1.903   2.607   1.463
 5142TIP3    H215433   1.875   2.608   1.314
 5143TIP3   OH215434   2.754   4.228   4.432
 5143TIP3    H115435   2.670   4.189   4.409
 5143TIP3    H215436   2.732   4.318   4.457
 5144TIP3   OH215437   2.991   2.591   0.280
 5144TIP3    H115438   2.907   2.618   0.244
 5144TIP3    H215439   3.043   2.568   0.203
 5145TIP3   OH215440   1.335   2.458   0.606
 5145TIP3    H115441   1.380   2.540   0.625
 5145TIP3    H215442   1.394   2.390   0.638
 5146TIP3   OH215443   5.479   0.233   3.472
 5146TIP3    H115444   5.464   0.280   3.555
 5146TIP3    H215445   5.395   0.191   3.454
 5147TIP3   OH215446   5.940   3.452   3.486
 5147TIP3    H115447   5.938   3.490   3.398
 5147TIP3    H215448   5.910   3.361   3.474
 5148TIP3   OH215449   5.426   3.864   5.043
 5148TIP3    H115450   5.456   3.828   5.126
 5148TIP3    H215451   5.343   3.819   5.026
 5149TIP3   OH215452   6.245   4.223   2.646
 5149TIP3    H115453   6.289   4.292   2.597
 5149TIP3    H215454   6.227   4.262   2.732
 5150TIP3   OH215455   3.243   5.685   4.647
 5150TIP3    H115456   3.289   5.742   4.710
 5150TIP3    H215457   3.304   5.678   4.573
 5151TIP3   OH215458   4.203   3.444   3.717
 5151TIP3    H115459   4.286   3.405   3.692
 5151TIP3    H215460   4.165   3.475   3.635
 5152TIP3   OH215461   4.099   4.237   3.302
 5152TIP3    H115462   4.189   4.235   3.268
 5152TIP3    H215463   4.045   4.259   3.227
 5153TIP3   OH215464   5.448   2.648   2.995
 5153TIP3    H115465   5.483   2.560   3.006
 5153TIP3    H215466   5.381   2.640   2.926
 5154TIP3   OH215467   5.966   3.475   1.753
 5154TIP3    H115468   5.964   3.403   1.816
 5154TIP3    H215469   5.941   3.434   1.670
 5155TIP3   OH215470   2.088   4.169   2.735
 5155TIP3    H115471   2.068   4.241   2.794
 5155TIP3    H215472   2.124   4.101   2.791
 5156TIP3   OH215473   2.254   1.090   0.818
 5156TIP3    H115474   2.214   1.004   0.828
 5156TIP3    H215475   2.231   1.117   0.729
 5157TIP3   OH215476   1.718   3.416   4.958
 5157TIP3    H115477   1.807   3.396   4.986
 5157TIP3    H215478   1.727   3.491   4.899
 5158TIP3   OH215479   6.055   1.295   1.992
 5158TIP3    H115480   6.016   1.213   2.020
 5158TIP3    H215481   6.136   1.302   2.042
 5159TIP3   OH215482   0.735   0.478   1.503
 5159TIP3    H115483   0.706   0.518   1.421
 5159TIP3    H215484   0.818   0.522   1.522
 5160TIP3   OH215485   0.781   1.099   5.081
 5160TIP3    H115486   0.818   1.166   5.138
 5160TIP3    H215487   0.803   1.127   4.992
 5161TIP3   OH215488   2.613   5.842   1.903
 5161TIP3    H115489   2.661   5.760   1.894
 5161TIP3    H215490   2.640   5.894   1.828
 5162TIP3   OH215491   0.480   3.210   0.318
 5162TIP3    H115492   0.574   3.232   0.320
 5162TIP3    H215493   0.457   3.212   0.226
 5163TIP3   OH215494   4.501   2.339   0.884
 5163TIP3    H115495   4.439   2.411   0.888
 5163TIP3    H215496   4.573   2.373   0.830
 5164TIP3   OH215497   2.444   5.086   4.520
 5164TIP3    H115498   2.384   5.136   4.464
 5164TIP3    H215499   2.415   4.995   4.509
 5165TIP3   OH215500   3.984   3.810   0.837
 5165TIP3    H115501   3.938   3.741   0.885
 5165TIP3    H215502   4.075   3.781   0.835
 5166TIP3   OH215503   2.500   0.899   0.254
 5166TIP3    H115504   2.456   0.819   0.225
 5166TIP3    H215505   2.501   0.955   0.177
 5167TIP3   OH215506   2.169   4.639   3.538
 5167TIP3    H115507   2.136   4.595   3.460
 5167TIP3    H215508   2.231   4.704   3.506
 5168TIP3   OH215509   2.657   3.713   1.875
 5168TIP3    H115510   2.699   3.656   1.940
 5168TIP3    H215511   2.563   3.705   1.893
 5169TIP3   OH215512   0.083   1.559   4.949
 5169TIP3    H115513   0.151   1.492   4.961
 5169TIP3    H215514   0.003   1.510   4.933
 5170TIP3   OH215515   5.149   3.458   2.411
 5170TIP3    H115516   5.216   3.526   2.414
 5170TIP3    H215517   5.102   3.474   2.329
 5171TIP3   OH215518   1.831   3.434   4.686
 5171TIP3    H115519   1.800   3.437   4.596
 5171TIP3    H215520   1.871   3.348   4.694
 5172TIP3   OH215521   3.272   4.258   4.609
 5172TIP3    H115522   3.284   4.346   4.574
 5172TIP3    H215523   3.179   4.239   4.597
 5173TIP3   OH215524   1.661   1.788   2.394
 5173TIP3    H115525   1.651   1.701   2.432
 5173TIP3    H215526   1.591   1.840   2.433
 5174TIP3   OH215527   3.253   3.806   4.965
 5174TIP3    H115528   3.297   3.883   5.000
 5174TIP3    H215529   3.318   3.764   4.908
 5175TIP3   OH215530   0.067   3.554   3.024
 5175TIP3    H115531   0.157   3.576   3.046
 5175TIP3    H215532   0.072   3.465   2.987
 5176TIP3   OH215533   3.051   4.528   2.380
 5176TIP3    H115534   2.959   4.546   2.359
 5176TIP3    H215535   3.074   4.453   2.325
 5177TIP3   OH215536   6.293   4.918   1.853
 5177TIP3    H115537   6.224   4.979   1.877
 5177TIP3    H215538   6.264   4.833   1.887
 5178TIP3   OH215539   3.791   3.027   2.115
 5178TIP3    H115540   3.842   2.977   2.051
 5178TIP3    H215541   3.700   3.010   2.092
 5179TIP3   OH215542   2.138   0.543   2.352
 5179TIP3    H115543   2.138   0.539   2.256
 5179TIP3    H215544   2.177   0.460   2.380
 5180TIP3   OH215545   5.077   0.436   4.986
 5180TIP3    H115546   4.986   0.416   4.964
 5180TIP3    H215547   5.071   0.512   5.043
 5181TIP3   OH215548   2.895   1.542   0.466
 5181TIP3    H115549   2.943   1.485   0.406
 5181TIP3    H215550   2.956   1.615   0.483
 5182TIP3   OH215551   4.487   1.920   1.685
 5182TIP3    H115552   4.392   1.927   1.686
 5182TIP3    H215553   4.505   1.843   1.632
 5183TIP3   OH215554   2.932   1.811   0.169
 5183TIP3    H115555   2.965   1.892   0.208
 5183TIP3    H215556   2.842   1.803   0.202
 5184TIP3   OH215557   4.634   5.101   3.170
 5184TIP3    H115558   4.617   5.026   3.227
 5184TIP3    H215559   4.574   5.169   3.202
 5185TIP3   OH215560   1.756   4.617   2.081
 5185TIP3    H115561   1.703   4.697   2.084
 5185TIP3    H215562   1.692   4.546   2.090
 5186TIP3   OH215563   5.465   3.107   2.247
 5186TIP3    H115564   5.519   3.091   2.324
 5186TIP3    H215565   5.409   3.030   2.240
 5187TIP3   OH215566   2.768   3.642   3.555
 5187TIP3    H115567   2.720   3.713   3.512
 5187TIP3    H215568   2.850   3.682   3.583
 5188TIP3   OH215569   6.251   1.239   0.440
 5188TIP3    H115570   6.173   1.272   0.483
 5188TIP3    H215571   6.268   1.154   0.481
 5189TIP3   OH215572   4.722   1.959   2.984
 5189TIP3    H115573   4.675   1.928   3.062
 5189TIP3    H215574   4.654   2.001   2.931
 5190TIP3   OH215575   2.532   1.646   0.137
 5190TIP3    H115576   2.574   1.727   0.166
 5190TIP3    H215577   2.564   1.579   0.198
 5191TIP3   OH215578   5.482   3.163   4.242
 5191TIP3    H115579   5.471   3.232   4.176
 5191TIP3    H215580   5.475   3.209   4.326
 5192TIP3   OH215581   3.210   0.006   0.877
 5192TIP3    H115582   3.265   0.051   0.942
 5192TIP3    H215583   3.136   0.066   0.863
 5193TIP3   OH215584   1.349   4.628   1.892
 5193TIP3    H115585   1.345   4.575   1.972
 5193TIP3    H215586   1.305   4.575   1.826
 5194TIP3   OH215587   0.049   3.327   4.702
 5194TIP3    H115588   0.131   3.312   4.655
 5194TIP3    H215589   0.047   3.259   4.770
 5195TIP3   OH215590   2.866   5.581   4.082
 5195TIP3    H115591   2.815   5.611   4.007
 5195TIP3    H215592   2.884   5.489   4.064
 5196TIP3   OH215593   5.724   4.056   4.316
 5196TIP3    H115594   5.788   4.117   4.278
 5196TIP3    H215595   5.707   3.993   4.247
 5197TIP3   OH215596   5.320   5.597   4.613
 5197TIP3    H115597   5.317   5.555   4.527
 5197TIP3    H215598   5.333   5.525   4.675
 5198TIP3   OH215599   4.641   3.343   2.701
 5198TIP3    H115600   4.687   3.359   2.618
 5198TIP3    H215601   4.667   3.416   2.757
 5199TIP3   OH215602   3.775   4.868   1.774
 5199TIP3    H115603   3.867   4.852   1.751
 5199TIP3    H215604   3.752   4.795   1.831
 5200TIP3   OH215605   1.967   3.019   3.782
 5200TIP3    H115606   1.965   2.952   3.850
 5200TIP3    H215607   2.056   3.014   3.746
 5201TIP3   OH215608   1.635   5.943   3.525
 5201TIP3    H115609   1.591   6.007   3.469
 5201TIP3    H215610   1.579   5.866   3.522
 5202TIP3   OH215611   5.524   3.839   1.077
 5202TIP3    H115612   5.578   3.767   1.045
 5202TIP3    H215613   5.452   3.795   1.123
 5203TIP3   OH215614   5.413   1.401   4.747
 5203TIP3    H115615   5.460   1.374   4.826
 5203TIP3    H215616   5.447   1.488   4.727
 5204TIP3   OH215617   3.420   5.224   4.774
 5204TIP3    H115618   3.326   5.218   4.790
 5204TIP3    H215619   3.428   5.284   4.700
 5205TIP3   OH215620   4.897   1.116   1.413
 5205TIP3    H115621   4.988   1.099   1.390
 5205TIP3    H215622   4.901   1.191   1.473
 5206TIP3   OH215623   3.189   4.609   3.874
 5206TIP3    H115624   3.132   4.591   3.800
 5206TIP3    H215625   3.205   4.704   3.869
 5207TIP3   OH215626   4.783   3.906   0.243
 5207TIP3    H115627   4.762   3.856   0.165
 5207TIP3    H215628   4.842   3.976   0.213
 5208TIP3   OH215629   5.066   1.594   0.866
 5208TIP3    H115630   5.083   1.548   0.784
 5208TIP3    H215631   5.112   1.542   0.932
 5209TIP3   OH215632   1.753   1.106   0.047
 5209TIP3    H115633   1.687   1.080  -0.017
 5209TIP3    H215634   1.745   1.202   0.052
 5210TIP3   OH215635   3.886   4.549   2.914
 5210TIP3    H115636   3.881   4.644   2.928
 5210TIP3    H215637   3.808   4.515   2.957
 5211TIP3   OH215638   4.972   0.479   1.640
 5211TIP3    H115639   5.066   0.492   1.629
 5211TIP3    H215640   4.958   0.485   1.735
 5212TIP3   OH215641   2.077   2.231   4.742
 5212TIP3    H115642   2.143   2.171   4.776
 5212TIP3    H215643   2.063   2.294   4.812
 5213TIP3   OH215644   5.094   2.923   4.531
 5213TIP3    H115645   5.157   2.890   4.466
 5213TIP3    H215646   5.024   2.858   4.531
 5214TIP3   OH215647   5.527   1.700   2.355
 5214TIP3    H115648   5.450   1.751   2.329
 5214TIP3    H215649   5.538   1.636   2.284
 5215TIP3   OH215650   2.837   1.190   1.045
 5215TIP3    H115651   2.749   1.224   1.062
 5215TIP3    H215652   2.876   1.255   0.987
 5216TIP3   OH215653   2.004   3.266   3.679
 5216TIP3    H115654   1.987   3.178   3.713
 5216TIP3    H215655   2.038   3.315   3.755
 5217TIP3   OH215656   5.134   5.139   3.917
 5217TIP3    H115657   5.138   5.234   3.913
 5217TIP3    H215658   5.113   5.112   3.828
 5218TIP3   OH215659   5.462   0.267   2.140
 5218TIP3    H115660   5.554   0.271   2.113
 5218TIP3    H215661   5.442   0.355   2.171
 5219TIP3   OH215662   0.946   2.762   3.770
 5219TIP3    H115663   0.898   2.750   3.852
 5219TIP3    H215664   0.961   2.857   3.765
 5220TIP3   OH215665   4.670   3.153   0.592
 5220TIP3    H115666   4.749   3.206   0.579
 5220TIP3    H215667   4.660   3.148   0.687
 5221TIP3   OH215668   3.090   0.422   3.320
 5221TIP3    H115669   3.112   0.496   3.377
 5221TIP3    H215670   3.070   0.351   3.380
 5222TIP3   OH215671   0.564   5.565   2.613
 5222TIP3    H115672   0.475   5.564   2.577
 5222TIP3    H215673   0.592   5.656   2.607
 5223TIP3   OH215674   4.915   3.731   3.464
 5223TIP3    H115675   4.916   3.774   3.550
 5223TIP3    H215676   4.913   3.802   3.401
 5224TIP3   OH215677   3.856   2.361   0.732
 5224TIP3    H115678   3.865   2.270   0.706
 5224TIP3    H215679   3.782   2.362   0.793
 5225TIP3   OH215680   3.326   2.417   0.706
 5225TIP3    H115681   3.288   2.335   0.674
 5225TIP3    H215682   3.280   2.436   0.788
 5226TIP3   OH215683   3.204   2.293   1.463
 5226TIP3    H115684   3.162   2.251   1.388
 5226TIP3    H215685   3.190   2.233   1.536
 5227TIP3   OH215686   0.439   1.325   2.112
 5227TIP3    H115687   0.388   1.256   2.154
 5227TIP3    H215688   0.529   1.309   2.140
 5228TIP3   OH215689   3.007   4.804   3.401
 5228TIP3    H115690   2.928   4.816   3.348
 5228TIP3    H215691   3.077   4.846   3.351
 5229TIP3   OH215692   1.893   0.025   2.609
 5229TIP3    H115693   1.823   0.037   2.674
 5229TIP3    H215694   1.968   0.072   2.646
 5230TIP3   OH215695   5.978   1.727   3.450
 5230TIP3    H115696   5.941   1.647   3.488
 5230TIP3    H215697   6.044   1.756   3.513
 5231TIP3   OH215698   3.346   1.997   0.367
 5231TIP3    H115699   3.398   2.027   0.442
 5231TIP3    H215700   3.405   2.008   0.292
 5232TIP3   OH215701   0.240   0.356   3.547
 5232TIP3    H115702   0.322   0.357   3.595
 5232TIP3    H215703   0.265   0.369   3.455
 5233TIP3   OH215704   6.288   2.188   4.475
 5233TIP3    H115705   6.301   2.218   4.565
 5233TIP3    H215706   6.267   2.095   4.483
 5234TIP3   OH215707   3.256   4.712   2.053
 5234TIP3    H115708   3.234   4.731   2.144
 5234TIP3    H215709   3.283   4.797   2.017
 5235TIP3   OH215710   4.979   0.027   1.385
 5235TIP3    H115711   5.021   0.104   1.348
 5235TIP3    H215712   4.968   0.047   1.478
 5236TIP3   OH215713   5.629   3.899   2.964
 5236TIP3    H115714   5.704   3.861   2.918
 5236TIP3    H215715   5.666   3.936   3.044
 5237TIP3   OH215716   1.768   1.084   0.332
 5237TIP3    H115717   1.755   1.099   0.238
 5237TIP3    H215718   1.748   0.992   0.344
 5238TIP3   OH215719   4.960   4.236   1.623
 5238TIP3    H115720   5.028   4.224   1.557
 5238TIP3    H215721   4.969   4.160   1.681
 5239TIP3   OH215722   2.414   1.881   2.303
 5239TIP3    H115723   2.413   1.920   2.215
 5239TIP3    H215724   2.401   1.955   2.362
 5240TIP3   OH215725   4.337   1.355   3.502
 5240TIP3    H115726   4.362   1.312   3.420
 5240TIP3    H215727   4.314   1.283   3.560
 5241TIP3   OH215728   3.763   5.379   2.878
 5241TIP3    H115729   3.836   5.439   2.862
 5241TIP3    H215730   3.713   5.381   2.796
 5242TIP3   OH215731   2.567   4.930   2.242
 5242TIP3    H115732   2.543   4.849   2.198
 5242TIP3    H215733   2.620   4.902   2.317
 5243TIP3   OH215734   3.469   5.342   3.190
 5243TIP3    H115735   3.426   5.422   3.158
 5243TIP3    H215736   3.446   5.339   3.283
 5244TIP3   OH215737   3.341   3.678   0.935
 5244TIP3    H115738   3.260   3.709   0.896
 5244TIP3    H215739   3.346   3.586   0.910
 5245TIP3   OH215740   0.331   4.828   0.684
 5245TIP3    H115741   0.260   4.864   0.738
 5245TIP3    H215742   0.310   4.857   0.595
 5246TIP3   OH215743   3.757   0.142   2.258
 5246TIP3    H115744   3.819   0.201   2.299
 5246TIP3    H215745   3.714   0.195   2.191
 5247TIP3   OH215746   0.319   4.760   1.059
 5247TIP3    H115747   0.397   4.760   1.003
 5247TIP3    H215748   0.353   4.738   1.146
 5248TIP3   OH215749   5.976   1.188   3.492
 5248TIP3    H115750   6.071   1.178   3.504
 5248TIP3    H215751   5.944   1.098   3.486
 5249TIP3   OH215752   2.325   1.585   5.006
 5249TIP3    H115753   2.310   1.547   4.919
 5249TIP3    H215754   2.419   1.601   5.010
 5250TIP3   OH215755   1.518   0.387   3.827
 5250TIP3    H115756   1.468   0.335   3.764
 5250TIP3    H215757   1.606   0.391   3.790
 5251TIP3   OH215758   1.323   2.440   1.391
 5251TIP3    H115759   1.417   2.430   1.377
 5251TIP3    H215760   1.290   2.474   1.308
 5252TIP3   OH215761   4.764   0.151   0.432
 5252TIP3    H115762   4.711   0.186   0.504
 5252TIP3    H215763   4.830   0.096   0.474
 5253TIP3   OH215764   3.987   3.268   3.808
 5253TIP3    H115765   4.047   3.343   3.807
 5253TIP3    H215766   3.940   3.274   3.725
 5254TIP3   OH215767   4.566   4.950   4.508
 5254TIP3    H115768   4.512   4.932   4.585
 5254TIP3    H215769   4.656   4.938   4.539
 5255TIP3   OH215770   0.166   2.401   3.340
 5255TIP3    H115771   0.235   2.348   3.379
 5255TIP3    H215772   0.195   2.491   3.350
 5256TIP3   OH215773   1.510   3.759   0.953
 5256TIP3    H115774   1.463   3.690   0.999
 5256TIP3    H215775   1.444   3.802   0.899
 5257TIP3   OH215776   4.815   5.085   1.324
 5257TIP3    H115777   4.764   5.138   1.263
 5257TIP3    H215778   4.894   5.137   1.341
 5258TIP3   OH215779   3.806   5.287   0.932
 5258TIP3    H115780   3.721   5.243   0.923
 5258TIP3    H215781   3.867   5.232   0.884
 5259TIP3   OH215782   2.838   1.625   5.147
 5259TIP3    H115783   2.816   1.660   5.061
 5259TIP3    H215784   2.815   1.695   5.209
 5260TIP3   OH215785   0.632   4.578   1.846
 5260TIP3    H115786   0.643   4.660   1.797
 5260TIP3    H215787   0.700   4.582   1.914
 5261TIP3   OH215788   3.968   5.601   1.153
 5261TIP3    H115789   3.919   5.559   1.224
 5261TIP3    H215790   3.996   5.529   1.097
 5262TIP3   OH215791   5.098   1.195   5.052
 5262TIP3    H115792   5.064   1.262   5.112
 5262TIP3    H215793   5.057   1.215   4.968
 5263TIP3   OH215794   3.544   1.212   3.376
 5263TIP3    H115795   3.583   1.299   3.373
 5263TIP3    H215796   3.452   1.228   3.395
 5264TIP3   OH215797   5.771   5.321   1.928
 5264TIP3    H115798   5.858   5.360   1.934
 5264TIP3    H215799   5.741   5.343   1.840
 5265TIP3   OH215800   1.391   3.512   4.530
 5265TIP3    H115801   1.349   3.492   4.614
 5265TIP3    H215802   1.420   3.427   4.497
 5266TIP3   OH215803   0.761   1.450   4.968
 5266TIP3    H115804   0.796   1.387   4.905
 5266TIP3    H215805   0.838   1.493   5.005
 5267TIP3   OH215806   1.370   5.051   4.802
 5267TIP3    H115807   1.449   5.054   4.857
 5267TIP3    H215808   1.300   5.080   4.861
 5268TIP3   OH215809   2.077   2.977   4.574
 5268TIP3    H115810   2.036   2.915   4.513
 5268TIP3    H215811   2.135   3.030   4.519
 5269TIP3   OH215812   3.725   4.000   2.561
 5269TIP3    H115813   3.777   4.048   2.497
 5269TIP3    H215814   3.679   3.934   2.509
 5270TIP3   OH215815   1.681   0.321   0.369
 5270TIP3    H115816   1.739   0.278   0.306
 5270TIP3    H215817   1.598   0.330   0.322
 5271TIP3   OH215818   1.165   1.128   4.352
 5271TIP3    H115819   1.153   1.034   4.338
 5271TIP3    H215820   1.120   1.145   4.435
 5272TIP3   OH215821   3.485   2.515   1.926
 5272TIP3    H115822   3.418   2.489   1.989
 5272TIP3    H215823   3.442   2.506   1.841
 5273TIP3   OH215824   2.913   5.504   0.771
 5273TIP3    H115825   2.861   5.443   0.718
 5273TIP3    H215826   2.889   5.590   0.738
 5274TIP3   OH215827   2.310   1.509   3.434
 5274TIP3    H115828   2.309   1.442   3.365
 5274TIP3    H215829   2.301   1.592   3.386
 5275TIP3   OH215830   0.873   4.306   3.191
 5275TIP3    H115831   0.897   4.284   3.280
 5275TIP3    H215832   0.799   4.367   3.200
 5276TIP3   OH215833   4.817   0.108   4.780
 5276TIP3    H115834   4.873   0.033   4.800
 5276TIP3    H215835   4.729   0.071   4.773
 5277TIP3   OH215836   5.759   5.226   0.558
 5277TIP3    H115837   5.700   5.282   0.609
 5277TIP3    H215838   5.749   5.139   0.596
 5278TIP3   OH215839   3.896   2.446   3.484
 5278TIP3    H115840   3.979   2.466   3.529
 5278TIP3    H215841   3.860   2.371   3.532
 5279TIP3   OH215842   0.859   1.757   2.281
 5279TIP3    H115843   0.913   1.836   2.274
 5279TIP3    H215844   0.918   1.685   2.257
 5280TIP3   OH215845   3.901   4.586   0.270
 5280TIP3    H115846   3.875   4.504   0.313
 5280TIP3    H215847   3.985   4.608   0.310
 5281TIP3   OH215848   4.724   3.767   1.599
 5281TIP3    H115849   4.811   3.768   1.640
 5281TIP3    H215850   4.663   3.761   1.672
 5282TIP3   OH215851   1.289   3.954   2.809
 5282TIP3    H115852   1.363   3.898   2.783
 5282TIP3    H215853   1.238   3.964   2.729
 5283TIP3   OH215854   5.644   4.883   0.217
 5283TIP3    H115855   5.638   4.886   0.121
 5283TIP3    H215856   5.630   4.791   0.239
 5284TIP3   OH215857   5.153   3.699   3.686
 5284TIP3    H115858   5.080   3.637   3.686
 5284TIP3    H215859   5.122   3.772   3.738
 5285TIP3   OH215860   3.705   4.757   0.739
 5285TIP3    H115861   3.737   4.667   0.748
 5285TIP3    H215862   3.612   4.751   0.761
 5286TIP3   OH215863   3.198   4.763   1.310
 5286TIP3    H115864   3.267   4.812   1.355
 5286TIP3    H215865   3.209   4.673   1.340
 5287TIP3   OH215866   3.131   4.811   4.870
 5287TIP3    H115867   3.140   4.735   4.812
 5287TIP3    H215868   3.151   4.776   4.957
 5288TIP3   OH215869   3.564   4.549   5.147
 5288TIP3    H115870   3.543   4.627   5.199
 5288TIP3    H215871   3.505   4.554   5.071
 5289TIP3   OH215872   6.199   2.929   0.541
 5289TIP3    H115873   6.158   2.910   0.456
 5289TIP3    H215874   6.288   2.955   0.519
 5290TIP3   OH215875   2.414   4.671   4.183
 5290TIP3    H115876   2.390   4.707   4.098
 5290TIP3    H215877   2.364   4.590   4.190
 5291TIP3   OH215878   3.995   0.842   0.055
 5291TIP3    H115879   3.920   0.807   0.103
 5291TIP3    H215880   3.975   0.822  -0.037
 5292TIP3   OH215881   4.363   1.867   2.973
 5292TIP3    H115882   4.325   1.946   3.011
 5292TIP3    H215883   4.422   1.899   2.905
 5293TIP3   OH215884   3.679   1.316   2.645
 5293TIP3    H115885   3.586   1.339   2.644
 5293TIP3    H215886   3.682   1.234   2.694
 5294TIP3   OH215887   1.712   3.346   1.938
 5294TIP3    H115888   1.806   3.354   1.920
 5294TIP3    H215889   1.695   3.252   1.932
 5295TIP3   OH215890   2.620   3.748   4.900
 5295TIP3    H115891   2.588   3.813   4.838
 5295TIP3    H215892   2.586   3.776   4.985
 5296TIP3   OH215893   5.756   2.261   2.751
 5296TIP3    H115894   5.733   2.175   2.717
 5296TIP3    H215895   5.838   2.283   2.707
 5297TIP3   OH215896   3.005   4.144   4.578
 5297TIP3    H115897   3.031   4.078   4.642
 5297TIP3    H215898   2.918   4.117   4.549
 5298TIP3   OH215899   4.347   4.995   3.416
 5298TIP3    H115900   4.380   4.948   3.492
 5298TIP3    H215901   4.295   4.930   3.368
 5299TIP3   OH215902   6.095   4.966   3.214
 5299TIP3    H115903   6.013   4.922   3.235
 5299TIP3    H215904   6.087   4.990   3.122
 5300TIP3   OH215905   1.999   3.173   4.064
 5300TIP3    H115906   1.912   3.134   4.057
 5300TIP3    H215907   2.052   3.125   4.001
 5301TIP3   OH215908   0.894   1.880   1.559
 5301TIP3    H115909   0.860   1.887   1.470
 5301TIP3    H215910   0.924   1.790   1.567
 5302TIP3   OH215911   0.691   0.127  -0.006
 5302TIP3    H115912   0.745   0.203  -0.027
 5302TIP3    H215913   0.634   0.157   0.066
 5303TIP3   OH215914   3.244   3.617   3.883
 5303TIP3    H115915   3.306   3.606   3.955
 5303TIP3    H215916   3.241   3.532   3.840
 5304TIP3   OH215917   4.984   1.900   2.035
 5304TIP3    H115918   4.944   1.880   1.951
 5304TIP3    H215919   5.057   1.958   2.014
 5305TIP3   OH215920   5.703   5.594   2.476
 5305TIP3    H115921   5.680   5.672   2.426
 5305TIP3    H215922   5.738   5.628   2.559
 5306TIP3   OH215923   2.147   1.871   4.401
 5306TIP3    H115924   2.106   1.938   4.456
 5306TIP3    H215925   2.231   1.908   4.377
 5307TIP3   OH215926   4.151   3.817   4.599
 5307TIP3    H115927   4.239   3.780   4.590
 5307TIP3    H215928   4.156   3.902   4.557
 5308TIP3   OH215929   3.572   4.849   3.649
 5308TIP3    H115930   3.567   4.901   3.730
 5308TIP3    H215931   3.490   4.800   3.647
 5309TIP3   OH215932   4.757   5.517   0.972
 5309TIP3    H115933   4.704   5.445   1.006
 5309TIP3    H215934   4.830   5.524   1.033
 5310TIP3   OH215935   3.230   5.864   3.547
 5310TIP3    H115936   3.170   5.849   3.475
 5310TIP3    H215937   3.313   5.824   3.519
 5311TIP3   OH215938   1.932   2.192   1.709
 5311TIP3    H115939   1.932   2.172   1.803
 5311TIP3    H215940   1.997   2.134   1.672
 5312TIP3   OH215941   3.855   0.083   3.842
 5312TIP3    H115942   3.799   0.159   3.824
 5312TIP3    H215943   3.898   0.064   3.759
 5313TIP3   OH215944   5.794   2.133   1.538
 5313TIP3    H115945   5.861   2.183   1.584
 5313TIP3    H215946   5.843   2.064   1.493
 5314TIP3   OH215947   0.369   0.999   1.415
 5314TIP3    H115948   0.430   0.926   1.421
 5314TIP3    H215949   0.283   0.958   1.401
 5315TIP3   OH215950   4.017   5.848   1.313
 5315TIP3    H115951   4.094   5.804   1.349
 5315TIP3    H215952   4.007   5.812   1.225
 5316TIP3   OH215953   2.133   3.816   5.146
 5316TIP3    H115954   2.106   3.907   5.133
 5316TIP3    H215955   2.165   3.788   5.060
 5317TIP3   OH215956   0.981   1.770   4.547
 5317TIP3    H115957   0.905   1.824   4.571
 5317TIP3    H215958   0.966   1.748   4.455
 5318TIP3   OH215959   1.309   1.005   1.966
 5318TIP3    H115960   1.375   1.035   1.904
 5318TIP3    H215961   1.258   0.939   1.918
 5319TIP3   OH215962   3.900   3.890   2.746
 5319TIP3    H115963   3.969   3.956   2.753
 5319TIP3    H215964   3.840   3.925   2.680
 5320TIP3   OH215965   2.204   2.144   0.591
 5320TIP3    H115966   2.290   2.186   0.590
 5320TIP3    H215967   2.160   2.178   0.512
 5321TIP3   OH215968   1.546   5.202   1.654
 5321TIP3    H115969   1.536   5.120   1.703
 5321TIP3    H215970   1.516   5.269   1.714
 5322TIP3   OH215971   0.920   1.800   3.534
 5322TIP3    H115972   0.902   1.886   3.497
 5322TIP3    H215973   0.837   1.775   3.576
 5323TIP3   OH215974   5.997   1.440   4.548
 5323TIP3    H115975   6.039   1.355   4.535
 5323TIP3    H215976   6.068   1.504   4.538
 5324TIP3   OH215977   5.802   4.285   3.598
 5324TIP3    H115978   5.783   4.379   3.598
 5324TIP3    H215979   5.828   4.266   3.508
 5325TIP3   OH215980   3.076   3.430   2.078
 5325TIP3    H115981   3.040   3.343   2.059
 5325TIP3    H215982   3.067   3.478   1.996
 5326TIP3   OH215983   4.347   1.263   2.884
 5326TIP3    H115984   4.293   1.300   2.814
 5326TIP3    H215985   4.327   1.170   2.884
 5327TIP3   OH215986   1.412   1.948   1.591
 5327TIP3    H115987   1.503   1.977   1.602
 5327TIP3    H215988   1.368   2.024   1.551
 5328TIP3   OH215989   4.393   2.087   3.192
 5328TIP3    H115990   4.328   2.155   3.209
 5328TIP3    H215991   4.460   2.101   3.259
 5329TIP3   OH215992   4.013   2.534   1.616
 5329TIP3    H115993   3.946   2.601   1.607
 5329TIP3    H215994   3.970   2.452   1.590
 5330TIP3   OH215995   3.102   2.467   3.650
 5330TIP3    H115996   3.180   2.422   3.617
 5330TIP3    H215997   3.056   2.495   3.571
 5331TIP3   OH215998   1.006   3.289   2.178
 5331TIP3    H115999   0.961   3.231   2.116
 5331TIP3    H216000   1.089   3.309   2.136
 5332TIP3   OH216001   6.025   2.886   1.736
 5332TIP3    H116002   6.050   2.799   1.706
 5332TIP3    H216003   5.987   2.872   1.822
 5333TIP3   OH216004   3.167   1.040   4.286
 5333TIP3    H116005   3.154   1.131   4.258
 5333TIP3    H216006   3.127   0.988   4.216
 5334TIP3   OH216007   2.885   0.352   2.826
 5334TIP3    H116008   2.903   0.392   2.741
 5334TIP3    H216009   2.875   0.258   2.807
 5335TIP3   OH216010   2.019   0.219   1.729
 5335TIP3    H116011   1.958   0.240   1.658
 5335TIP3    H216012   1.971   0.158   1.785
 5336TIP3   OH216013   5.783   1.125   0.650
 5336TIP3    H116014   5.700   1.099   0.609
 5336TIP3    H216015   5.848   1.118   0.581
 5337TIP3   OH216016   1.954   1.850   0.725
 5337TIP3    H116017   2.045   1.832   0.746
 5337TIP3    H216018   1.906   1.776   0.761
 5338TIP3   OH216019   1.172   5.409   4.448
 5338TIP3    H116020   1.178   5.321   4.409
 5338TIP3    H216021   1.169   5.393   4.542
 5339TIP3   OH216022   4.711   5.919   3.545
 5339TIP3    H116023   4.751   6.005   3.534
 5339TIP3    H216024   4.739   5.869   3.468
 5340TIP3   OH216025   4.269   5.108   3.886
 5340TIP3    H116026   4.179   5.086   3.862
 5340TIP3    H216027   4.269   5.105   3.982
 5341TIP3   OH216028   2.532   1.693   3.841
 5341TIP3    H116029   2.589   1.731   3.774
 5341TIP3    H216030   2.470   1.762   3.862
 5342TIP3   OH216031   1.858   4.258   3.852
 5342TIP3    H116032   1.800   4.222   3.785
 5342TIP3    H216033   1.805   4.324   3.897
 5343TIP3   OH216034   6.199   0.008   3.560
 5343TIP3    H116035   6.238   0.084   3.516
 5343TIP3    H216036   6.218  -0.066   3.502
 5344TIP3   OH216037   4.226   0.283   0.641
 5344TIP3    H116038   4.256   0.347   0.576
 5344TIP3    H216039   4.288   0.292   0.714
 5345TIP3   OH216040   2.861   2.817   0.664
 5345TIP3    H116041   2.946   2.773   0.672
 5345TIP3    H216042   2.825   2.816   0.753
 5346TIP3   OH216043   0.597   5.045   1.335
 5346TIP3    H116044   0.515   5.094   1.339
 5346TIP3    H216045   0.654   5.089   1.397
 5347TIP3   OH216046   2.330   4.669   4.950
 5347TIP3    H116047   2.403   4.665   4.888
 5347TIP3    H216048   2.367   4.637   5.032
 5348TIP3   OH216049   2.419   3.750   0.603
 5348TIP3    H116050   2.330   3.773   0.627
 5348TIP3    H216051   2.411   3.665   0.559
 5349TIP3   OH216052   1.453   2.979   2.987
 5349TIP3    H116053   1.499   3.005   2.908
 5349TIP3    H216054   1.429   2.887   2.971
 5350TIP3   OH216055   4.615   5.076   0.197
 5350TIP3    H116056   4.599   5.054   0.288
 5350TIP3    H216057   4.533   5.055   0.152
 5351TIP3   OH216058   1.584   3.314   4.729
 5351TIP3    H116059   1.576   3.306   4.824
 5351TIP3    H216060   1.675   3.339   4.714
 5352TIP3   OH216061   3.405   3.587   5.110
 5352TIP3    H116062   3.331   3.638   5.077
 5352TIP3    H216063   3.422   3.624   5.197
 5353TIP3   OH216064   5.442   4.805   4.423
 5353TIP3    H116065   5.411   4.732   4.368
 5353TIP3    H216066   5.365   4.834   4.471
 5354TIP3   OH216067   3.877   1.904   1.991
 5354TIP3    H116068   3.971   1.899   1.976
 5354TIP3    H216069   3.839   1.845   1.926
 5355TIP3   OH216070   2.270   0.635   4.739
 5355TIP3    H116071   2.251   0.718   4.781
 5355TIP3    H216072   2.358   0.646   4.702
 5356TIP3   OH216073   2.224   3.093   3.928
 5356TIP3    H116074   2.230   2.998   3.917
 5356TIP3    H216075   2.305   3.126   3.889
 5357TIP3   OH216076   0.642   4.828   4.577
 5357TIP3    H116077   0.686   4.890   4.635
 5357TIP3    H216078   0.551   4.826   4.608
 5358TIP3   OH216079   4.027   0.531   2.913
 5358TIP3    H116080   4.026   0.454   2.969
 5358TIP3    H216081   3.972   0.595   2.959
 5359TIP3   OH216082   4.476   2.654   1.404
 5359TIP3    H116083   4.473   2.731   1.347
 5359TIP3    H216084   4.384   2.634   1.421
 5360TIP3   OH216085   5.249   4.398   4.277
 5360TIP3    H116086   5.181   4.341   4.242
 5360TIP3    H216087   5.319   4.338   4.303
 5361TIP3   OH216088   3.543   1.137   1.003
 5361TIP3    H116089   3.627   1.162   1.041
 5361TIP3    H216090   3.484   1.210   1.023
 5362TIP3   OH216091   6.069   1.100   1.789
 5362TIP3    H116092   6.101   1.188   1.811
 5362TIP3    H216093   6.134   1.040   1.826
 5363TIP3   OH216094   2.039   5.228   2.248
 5363TIP3    H116095   2.096   5.260   2.318
 5363TIP3    H216096   2.098   5.201   2.178
 5364TIP3   OH216097   5.223   3.299   3.800
 5364TIP3    H116098   5.301   3.343   3.768
 5364TIP3    H216099   5.249   3.208   3.812
 5365TIP3   OH216100   4.880   0.345   4.556
 5365TIP3    H116101   4.960   0.385   4.590
 5365TIP3    H216102   4.895   0.251   4.563
 5366TIP3   OH216103   6.102   5.845   3.357
 5366TIP3    H116104   6.103   5.843   3.261
 5366TIP3    H216105   6.032   5.785   3.382
 5367TIP3   OH216106   2.694   1.554   2.696
 5367TIP3    H116107   2.718   1.647   2.693
 5367TIP3    H216108   2.653   1.537   2.612
 5368TIP3   OH216109   1.237   2.483   4.844
 5368TIP3    H116110   1.256   2.444   4.759
 5368TIP3    H216111   1.244   2.410   4.906
 5369TIP3   OH216112   2.870   0.436   2.214
 5369TIP3    H116113   2.827   0.487   2.283
 5369TIP3    H216114   2.952   0.482   2.199
 5370TIP3   OH216115   2.507   2.893   4.073
 5370TIP3    H116116   2.596   2.864   4.089
 5370TIP3    H216117   2.484   2.857   3.987
 5371TIP3   OH216118   6.143   0.177   3.886
 5371TIP3    H116119   6.197   0.142   3.815
 5371TIP3    H216120   6.193   0.251   3.920
 5372TIP3   OH216121   5.233   3.364   4.448
 5372TIP3    H116122   5.197   3.377   4.536
 5372TIP3    H216123   5.305   3.303   4.460
 5373TIP3   OH216124   1.279   1.028   3.941
 5373TIP3    H116125   1.322   0.956   3.985
 5373TIP3    H216126   1.185   1.009   3.950
 5374TIP3   OH216127   5.288   2.917   0.401
 5374TIP3    H116128   5.273   2.898   0.308
 5374TIP3    H216129   5.209   2.963   0.430
 5375TIP3   OH216130   1.947   3.589   1.110
 5375TIP3    H116131   2.007   3.663   1.123
 5375TIP3    H216132   1.892   3.616   1.036
 5376TIP3   OH216133   3.976   4.182   4.204
 5376TIP3    H116134   4.044   4.213   4.264
 5376TIP3    H216135   4.023   4.158   4.124
 5377TIP3   OH216136   4.248   5.253   1.676
 5377TIP3    H116137   4.303   5.186   1.717
 5377TIP3    H216138   4.161   5.213   1.672
 5378TIP3   OH216139   1.828   0.256   0.795
 5378TIP3    H116140   1.807   0.336   0.748
 5378TIP3    H216141   1.889   0.209   0.737
 5379TIP3   OH216142   4.667   3.862   2.563
 5379TIP3    H116143   4.754   3.824   2.579
 5379TIP3    H216144   4.625   3.861   2.649
 5380TIP3   OH216145   1.699   0.799   0.269
 5380TIP3    H116146   1.716   0.752   0.187
 5380TIP3    H216147   1.776   0.781   0.323
 5381TIP3   OH216148   4.866   1.897   1.207
 5381TIP3    H116149   4.951   1.926   1.241
 5381TIP3    H216150   4.881   1.883   1.114
 5382TIP3   OH216151   4.177   2.038   4.921
 5382TIP3    H116152   4.156   1.971   4.986
 5382TIP3    H216153   4.264   2.070   4.947
 5383TIP3   OH216154   1.445   0.982   4.968
 5383TIP3    H116155   1.397   1.052   5.012
 5383TIP3    H216156   1.491   1.025   4.897
 5384TIP3   OH216157   4.424   4.962   0.357
 5384TIP3    H116158   4.344   4.923   0.322
 5384TIP3    H216159   4.472   4.888   0.395
 5385TIP3   OH216160   2.812   5.026   1.313
 5385TIP3    H116161   2.895   5.044   1.268
 5385TIP3    H216162   2.750   5.088   1.274
 5386TIP3   OH216163   4.430   0.793   4.634
 5386TIP3    H116164   4.524   0.798   4.653
 5386TIP3    H216165   4.402   0.710   4.672
 5387TIP3   OH216166   1.251   1.387   3.374
 5387TIP3    H116167   1.170   1.426   3.406
 5387TIP3    H216168   1.237   1.375   3.280
 5388TIP3   OH216169   3.670   0.744   3.297
 5388TIP3    H116170   3.586   0.789   3.286
 5388TIP3    H216171   3.650   0.671   3.356
 5389TIP3   OH216172   3.952   0.977   1.590
 5389TIP3    H116173   3.943   1.072   1.593
 5389TIP3    H216174   3.910   0.946   1.670
 5390TIP3   OH216175   4.636   4.012   4.427
 5390TIP3    H116176   4.705   4.022   4.361
 5390TIP3    H216177   4.615   4.101   4.454
 5391TIP3   OH216178   3.209   2.463   4.506
 5391TIP3    H116179   3.304   2.456   4.514
 5391TIP3    H216180   3.176   2.431   4.590
 5392TIP3   OH216181   1.237   1.606   1.518
 5392TIP3    H116182   1.218   1.637   1.429
 5392TIP3    H216183   1.326   1.635   1.535
 5393TIP3   OH216184   3.650   4.301   2.922
 5393TIP3    H116185   3.573   4.357   2.929
 5393TIP3    H216186   3.656   4.281   2.828
 5394TIP3   OH216187   1.972   2.297   4.214
 5394TIP3    H116188   2.028   2.324   4.141
 5394TIP3    H216189   1.952   2.205   4.196
 5395TIP3   OH216190   0.342   3.525   1.611
 5395TIP3    H116191   0.307   3.436   1.607
 5395TIP3    H216192   0.360   3.540   1.704
 5396TIP3   OH216193   1.627   1.211   0.560
 5396TIP3    H116194   1.653   1.170   0.477
 5396TIP3    H216195   1.569   1.147   0.601
 5397TIP3   OH216196   4.091   2.049   2.937
 5397TIP3    H116197   4.185   2.068   2.929
 5397TIP3    H216198   4.077   2.036   3.030
 5398TIP3   OH216199   4.923   3.592   3.225
 5398TIP3    H116200   4.951   3.598   3.316
 5398TIP3    H216201   4.983   3.528   3.185
 5399TIP3   OH216202   6.179   5.364   4.061
 5399TIP3    H116203   6.090   5.379   4.029
 5399TIP3    H216204   6.236   5.393   3.990
 5400TIP3   OH216205   1.668   4.416   0.819
 5400TIP3    H116206   1.631   4.469   0.748
 5400TIP3    H216207   1.705   4.340   0.775
 5401TIP3   OH216208   4.927   4.218   3.957
 5401TIP3    H116209   4.833   4.201   3.947
 5401TIP3    H216210   4.968   4.164   3.889
 5402TIP3   OH216211   3.466   2.122   0.913
 5402TIP3    H116212   3.465   2.200   0.967
 5402TIP3    H216213   3.374   2.096   0.905
 5403TIP3   OH216214   4.202   4.140   3.656
 5403TIP3    H116215   4.129   4.200   3.640
 5403TIP3    H216216   4.241   4.171   3.738
 5404TIP3   OH216217   6.292   0.542   3.761
 5404TIP3    H116218   6.288   0.624   3.811
 5404TIP3    H216219   6.289   0.569   3.670
 5405TIP3   OH216220   5.528   2.624   0.914
 5405TIP3    H116221   5.551   2.711   0.881
 5405TIP3    H216222   5.432   2.622   0.914
 5406TIP3   OH216223   1.804   2.165   1.149
 5406TIP3    H116224   1.750   2.139   1.075
 5406TIP3    H216225   1.748   2.149   1.226
 5407TIP3   OH216226   3.445   3.041   3.808
 5407TIP3    H116227   3.533   3.026   3.773
 5407TIP3    H216228   3.448   3.005   3.896
 5408TIP3   OH216229   3.287   2.092   0.086
 5408TIP3    H116230   3.261   2.177   0.121
 5408TIP3    H216231   3.381   2.102   0.067
 5409TIP3   OH216232   3.213   2.630   2.166
 5409TIP3    H116233   3.256   2.703   2.211
 5409TIP3    H216234   3.156   2.672   2.101
 5410TIP3   OH216235   2.850   4.666   2.651
 5410TIP3    H116236   2.811   4.750   2.626
 5410TIP3    H216237   2.823   4.606   2.581
 5411TIP3   OH216238   0.867   3.031   0.632
 5411TIP3    H116239   0.819   2.962   0.679
 5411TIP3    H216240   0.909   2.986   0.559
 5412TIP3   OH216241   3.671   3.552   4.594
 5412TIP3    H116242   3.741   3.618   4.597
 5412TIP3    H216243   3.620   3.576   4.516
 5413TIP3   OH216244   2.940   4.256   3.619
 5413TIP3    H116245   2.894   4.337   3.642
 5413TIP3    H216246   2.870   4.192   3.603
 5414TIP3   OH216247   0.947   5.546   1.971
 5414TIP3    H116248   0.982   5.459   1.955
 5414TIP3    H216249   0.967   5.595   1.891
 5415TIP3   OH216250   0.703   3.399   1.792
 5415TIP3    H116251   0.661   3.442   1.866
 5415TIP3    H216252   0.727   3.471   1.733
 5416TIP3   OH216253   2.672   1.605   2.085
 5416TIP3    H116254   2.688   1.569   2.172
 5416TIP3    H216255   2.759   1.623   2.050
 5417TIP3   OH216256   0.224   2.019   1.087
 5417TIP3    H116257   0.243   2.102   1.044
 5417TIP3    H216258   0.183   1.966   1.018
 5418TIP3   OH216259   3.748   3.585   0.765
 5418TIP3    H116260   3.729   3.512   0.824
 5418TIP3    H216261   3.708   3.661   0.806
 5419TIP3   OH216262   4.529   0.736   4.044
 5419TIP3    H116263   4.465   0.805   4.025
 5419TIP3    H216264   4.498   0.695   4.125
 5420TIP3   OH216265   4.070   3.399   4.347
 5420TIP3    H116266   3.996   3.348   4.381
 5420TIP3    H216267   4.147   3.354   4.380
 5421TIP3   OH216268   3.103   4.087   0.288
 5421TIP3    H116269   3.048   4.084   0.366
 5421TIP3    H216270   3.192   4.097   0.322
 5422TIP3   OH216271   4.698   5.535   4.403
 5422TIP3    H116272   4.654   5.478   4.340
 5422TIP3    H216273   4.734   5.475   4.468
 5423TIP3   OH216274   4.882   0.705   0.596
 5423TIP3    H116275   4.977   0.703   0.609
 5423TIP3    H216276   4.867   0.778   0.536
 5424TIP3   OH216277   6.137   0.695   3.959
 5424TIP3    H116278   6.068   0.659   3.902
 5424TIP3    H216279   6.093   0.762   4.010
 5425TIP3   OH216280   2.709   1.251   3.191
 5425TIP3    H116281   2.664   1.265   3.274
 5425TIP3    H216282   2.649   1.286   3.125
 5426TIP3   OH216283   5.380   2.351   1.720
 5426TIP3    H116284   5.450   2.394   1.671
 5426TIP3    H216285   5.351   2.279   1.663
 5427TIP3   OH216286   0.440   1.523   0.888
 5427TIP3    H116287   0.495   1.570   0.951
 5427TIP3    H216288   0.401   1.452   0.939
 5428TIP3   OH216289   2.140   5.729   2.460
 5428TIP3    H116290   2.062   5.721   2.405
 5428TIP3    H216291   2.158   5.823   2.461
 5429TIP3   OH216292   5.802   2.447   0.256
 5429TIP3    H116293   5.805   2.536   0.289
 5429TIP3    H216294   5.709   2.428   0.244
 5430TIP3   OH216295   1.130   0.746   1.854
 5430TIP3    H116296   1.101   0.737   1.764
 5430TIP3    H216297   1.222   0.719   1.853
 5431TIP3   OH216298   3.383   1.898   2.019
 5431TIP3    H116299   3.314   1.834   2.003
 5431TIP3    H216300   3.374   1.962   1.948
 5432TIP3   OH216301   4.752   2.443   3.110
 5432TIP3    H116302   4.743   2.530   3.151
 5432TIP3    H216303   4.747   2.382   3.184
 5433TIP3   OH216304   3.024   1.741   4.071
 5433TIP3    H116305   3.098   1.801   4.063
 5433TIP3    H216306   2.994   1.752   4.161
 5434TIP3   OH216307   0.622   3.440   2.357
 5434TIP3    H116308   0.576   3.449   2.273
 5434TIP3    H216309   0.669   3.522   2.368
 5435TIP3   OH216310   1.181   0.717   3.804
 5435TIP3    H116311   1.171   0.728   3.710
 5435TIP3    H216312   1.186   0.623   3.817
 5436TIP3   OH216313   5.963  -0.024   2.773
 5436TIP3    H116314   5.995  -0.043   2.861
 5436TIP3    H216315   6.028   0.037   2.737
 5437TIP3   OH216316   1.616   3.061   2.771
 5437TIP3    H116317   1.562   3.125   2.725
 5437TIP3    H216318   1.654   3.006   2.702
 5438TIP3   OH216319   6.121   5.690   4.031
 5438TIP3    H116320   6.048   5.731   4.076
 5438TIP3    H216321   6.086   5.608   3.996
 5439TIP3   OH216322   3.556   4.357   0.387
 5439TIP3    H116323   3.644   4.321   0.394
 5439TIP3    H216324   3.565   4.447   0.418
 5440TIP3   OH216325   2.090   2.270   0.342
 5440TIP3    H116326   2.094   2.178   0.314
 5440TIP3    H216327   2.029   2.271   0.416
 5441TIP3   OH216328   3.185   2.033   3.722
 5441TIP3    H116329   3.272   2.067   3.699
 5441TIP3    H216330   3.124   2.084   3.669
 5442TIP3   OH216331   3.635   0.128   3.324
 5442TIP3    H116332   3.669   0.213   3.297
 5442TIP3    H216333   3.611   0.085   3.242
 5443TIP3   OH216334   3.021   4.084   2.953
 5443TIP3    H116335   2.960   4.156   2.938
 5443TIP3    H216336   3.103   4.126   2.980
 5444TIP3   OH216337   3.899   3.901   4.309
 5444TIP3    H116338   3.850   3.818   4.313
 5444TIP3    H216339   3.991   3.875   4.306
 5445TIP3   OH216340   0.469   1.643   3.885
 5445TIP3    H116341   0.418   1.665   3.807
 5445TIP3    H216342   0.524   1.719   3.901
 5446TIP3   OH216343   5.935   5.565   4.703
 5446TIP3    H116344   5.841   5.569   4.687
 5446TIP3    H216345   5.962   5.656   4.714
 5447TIP3   OH216346   2.913   0.513   2.576
 5447TIP3    H116347   2.900   0.591   2.522
 5447TIP3    H216348   2.991   0.471   2.540
 5448TIP3   OH216349   2.976   2.525   4.090
 5448TIP3    H116350   2.881   2.520   4.082
 5448TIP3    H216351   3.004   2.579   4.016
 5449TIP3   OH216352   5.093   5.413   3.926
 5449TIP3    H116353   5.109   5.482   3.990
 5449TIP3    H216354   5.106   5.456   3.841
 5450TIP3   OH216355   4.791   3.742   3.969
 5450TIP3    H116356   4.716   3.692   3.934
 5450TIP3    H216357   4.849   3.675   4.005
 5451TIP3   OH216358   4.061   3.678   3.859
 5451TIP3    H116359   3.974   3.713   3.877
 5451TIP3    H216360   4.100   3.739   3.797
 5452TIP3   OH216361   4.931   2.003   2.796
 5452TIP3    H116362   4.936   1.980   2.888
 5452TIP3    H216363   4.992   2.076   2.786
 5453TIP3   OH216364   2.012   0.619   1.202
 5453TIP3    H116365   2.046   0.697   1.157
 5453TIP3    H216366   2.069   0.607   1.277
 5454TIP3   OH216367   4.480   0.801   1.109
 5454TIP3    H116368   4.385   0.801   1.120
 5454TIP3    H216369   4.504   0.894   1.114
 5455TIP3   OH216370   1.363   5.901   4.947
 5455TIP3    H116371   1.269   5.918   4.934
 5455TIP3    H216372   1.380   5.929   5.037
 5456TIP3   OH216373   1.549   0.718   2.135
 5456TIP3    H116374   1.489   0.750   2.067
 5456TIP3    H216375   1.581   0.798   2.177
 5457TIP3   OH216376   3.632   1.558   2.446
 5457TIP3    H116377   3.608   1.513   2.527
 5457TIP3    H216378   3.714   1.516   2.418
 5458TIP3   OH216379   2.567   5.917   5.122
 5458TIP3    H116380   2.485   5.908   5.074
 5458TIP3    H216381   2.612   5.834   5.109
 5459TIP3   OH216382   0.630   5.664   1.923
 5459TIP3    H116383   0.717   5.653   1.962
 5459TIP3    H216384   0.631   5.605   1.847
 5460TIP3   OH216385   3.047   1.328   4.249
 5460TIP3    H116386   3.028   1.275   4.327
 5460TIP3    H216387   2.962   1.364   4.223
 5461TIP3   OH216388   0.240   4.286   1.843
 5461TIP3    H116389   0.182   4.231   1.897
 5461TIP3    H216390   0.188   4.305   1.765
 5462TIP3   OH216391   3.349   2.783   1.521
 5462TIP3    H116392   3.269   2.744   1.557
 5462TIP3    H216393   3.322   2.872   1.495
 5463TIP3   OH216394   2.553   1.218   3.867
 5463TIP3    H116395   2.495   1.164   3.814
 5463TIP3    H216396   2.553   1.176   3.953
 5464TIP3   OH216397   2.473   3.578   4.431
 5464TIP3    H116398   2.428   3.502   4.469
 5464TIP3    H216399   2.513   3.544   4.351
 5465TIP3   OH216400   4.288   4.505   3.996
 5465TIP3    H116401   4.251   4.563   4.062
 5465TIP3    H216402   4.290   4.557   3.916
 5466TIP3   OH216403   6.046   3.166   3.708
 5466TIP3    H116404   6.057   3.248   3.660
 5466TIP3    H216405   6.071   3.098   3.645
 5467TIP3   OH216406   0.950   2.052   3.373
 5467TIP3    H116407   1.007   2.129   3.380
 5467TIP3    H216408   0.920   2.054   3.283
 5468TIP3   OH216409   2.702   5.073   4.621
 5468TIP3    H116410   2.736   4.993   4.581
 5468TIP3    H216411   2.613   5.080   4.588
 5469TIP3   OH216412   6.202   3.398   4.503
 5469TIP3    H116413   6.245   3.337   4.442
 5469TIP3    H216414   6.226   3.364   4.590
 5470TIP3   OH216415   5.362   2.935   0.740
 5470TIP3    H116416   5.290   2.941   0.677
 5470TIP3    H216417   5.325   2.886   0.813
 5471TIP3   OH216418   6.056   0.667   1.167
 5471TIP3    H116419   6.097   0.752   1.183
 5471TIP3    H216420   6.039   0.631   1.254
 5472TIP3   OH216421   0.523   0.614   3.864
 5472TIP3    H116422   0.587   0.615   3.935
 5472TIP3    H216423   0.438   0.609   3.909
 5473TIP3   OH216424   2.574   2.199   3.913
 5473TIP3    H116425   2.661   2.206   3.873
 5473TIP3    H216426   2.591   2.160   3.999
 5474TIP3   OH216427   2.822   0.626   3.239
 5474TIP3    H116428   2.884   0.653   3.307
 5474TIP3    H216429   2.736   0.646   3.275
 5475TIP3   OH216430   5.306   1.569   3.936
 5475TIP3    H116431   5.243   1.505   3.905
 5475TIP3    H216432   5.390   1.524   3.933
 5476TIP3   OH216433   3.689   2.674   2.261
 5476TIP3    H116434   3.630   2.663   2.336
 5476TIP3    H216435   3.777   2.662   2.298
 5477TIP3   OH216436   5.401   4.668   0.154
 5477TIP3    H116437   5.482   4.695   0.111
 5477TIP3    H216438   5.332   4.706   0.100
 5478TIP3   OH216439   2.650   5.034  -0.001
 5478TIP3    H116440   2.623   5.085   0.075
 5478TIP3    H216441   2.569   5.018  -0.049
 5479TIP3   OH216442   4.967   4.247   0.987
 5479TIP3    H116443   5.057   4.215   0.975
 5479TIP3    H216444   4.952   4.238   1.082
 5480TIP3   OH216445   2.660   2.937   4.971
 5480TIP3    H116446   2.703   2.951   5.056
 5480TIP3    H216447   2.679   3.016   4.921
 5481TIP3   OH216448   5.178   3.710   4.404
 5481TIP3    H116449   5.229   3.662   4.470
 5481TIP3    H216450   5.222   3.795   4.397
 5482TIP3   OH216451   5.938   4.993   0.065
 5482TIP3    H116452   5.999   5.059   0.099
 5482TIP3    H216453   5.867   5.043   0.026
 5483TIP3   OH216454   3.882   3.287  -0.013
 5483TIP3    H116455   3.929   3.248   0.060
 5483TIP3    H216456   3.834   3.360   0.026
 5484TIP3   OH216457   5.340   2.230   0.985
 5484TIP3    H116458   5.412   2.224   0.922
 5484TIP3    H216459   5.370   2.177   1.060
 5485TIP3   OH216460   0.363   5.009   2.642
 5485TIP3    H116461   0.275   5.046   2.654
 5485TIP3    H216462   0.365   4.983   2.550
 5486TIP3   OH216463   5.975   3.787   4.351
 5486TIP3    H116464   5.880   3.778   4.363
 5486TIP3    H216465   6.008   3.697   4.354
 5487TIP3   OH216466   4.136   4.800   2.293
 5487TIP3    H116467   4.175   4.824   2.376
 5487TIP3    H216468   4.052   4.760   2.316
 5488TIP3   OH216469   2.071   2.776   1.667
 5488TIP3    H116470   2.030   2.861   1.650
 5488TIP3    H216471   2.103   2.782   1.757
 5489TIP3   OH216472   3.407   0.324   2.764
 5489TIP3    H116473   3.472   0.389   2.737
 5489TIP3    H216474   3.325   0.373   2.772
 5490TIP3   OH216475   1.365   0.585   1.900
 5490TIP3    H116476   1.296   0.519   1.893
 5490TIP3    H216477   1.416   0.558   1.976
 5491TIP3   OH216478   3.342   5.674   0.586
 5491TIP3    H116479   3.372   5.762   0.565
 5491TIP3    H216480   3.400   5.616   0.538
 5492TIP3   OH216481   3.201   4.115   4.344
 5492TIP3    H116482   3.138   4.119   4.273
 5492TIP3    H216483   3.148   4.108   4.423
 5493TIP3   OH216484   3.103   3.841   1.386
 5493TIP3    H116485   3.135   3.908   1.447
 5493TIP3    H216486   3.183   3.806   1.346
 5494TIP3   OH216487   6.161   4.132   1.702
 5494TIP3    H116488   6.215   4.153   1.778
 5494TIP3    H216489   6.106   4.059   1.731
 5495TIP3   OH216490   0.732   5.048   2.520
 5495TIP3    H116491   0.772   4.961   2.517
 5495TIP3    H216492   0.645   5.036   2.481
 5496TIP3   OH216493   0.127   5.656   2.091
 5496TIP3    H116494   0.214   5.665   2.052
 5496TIP3    H216495   0.073   5.620   2.021
 5497TIP3   OH216496   2.023   0.423   0.991
 5497TIP3    H116497   2.089   0.354   0.981
 5497TIP3    H216498   2.036   0.457   1.079
 5498TIP3   OH216499   5.159   3.846   2.579
 5498TIP3    H116500   5.230   3.852   2.515
 5498TIP3    H216501   5.191   3.892   2.656
 5499TIP3   OH216502   4.273   3.126   1.979
 5499TIP3    H116503   4.336   3.187   2.018
 5499TIP3    H216504   4.204   3.182   1.943
 5500TIP3   OH216505   3.284   1.301   2.240
 5500TIP3    H116506   3.223   1.312   2.313
 5500TIP3    H216507   3.277   1.383   2.192
 5501TIP3   OH216508   4.995   4.611   3.361
 5501TIP3    H116509   5.033   4.530   3.328
 5501TIP3    H216510   5.069   4.660   3.396
 5502TIP3   OH216511   3.470   2.772   0.275
 5502TIP3    H116512   3.428   2.822   0.345
 5502TIP3    H216513   3.560   2.804   0.273
 5503TIP3   OH216514   2.768   3.974   4.056
 5503TIP3    H116515   2.852   3.940   4.027
 5503TIP3    H216516   2.716   3.981   3.976
 5504TIP3   OH216517   0.793   4.601   5.205
 5504TIP3    H116518   0.700   4.625   5.202
 5504TIP3    H216519   0.798   4.516   5.161
 5505TIP3   OH216520   0.829   3.017   3.092
 5505TIP3    H116521   0.815   2.929   3.126
 5505TIP3    H216522   0.879   3.061   3.160
 5506TIP3   OH216523   0.702   2.036   4.313
 5506TIP3    H116524   0.615   2.011   4.344
 5506TIP3    H216525   0.707   2.002   4.224
 5507TIP3   OH216526   3.592   5.513   3.542
 5507TIP3    H116527   3.557   5.586   3.491
 5507TIP3    H216528   3.669   5.549   3.586
 5508TIP3   OH216529   6.166   2.847   1.440
 5508TIP3    H116530   6.094   2.898   1.402
 5508TIP3    H216531   6.214   2.910   1.494
 5509TIP3   OH216532   3.733   3.384   4.114
 5509TIP3    H116533   3.780   3.453   4.067
 5509TIP3    H216534   3.708   3.321   4.046
 5510TIP3   OH216535   2.744   3.457   4.921
 5510TIP3    H116536   2.827   3.417   4.895
 5510TIP3    H216537   2.683   3.434   4.851
 5511TIP3   OH216538   5.112   5.752   3.216
 5511TIP3    H116539   5.043   5.813   3.191
 5511TIP3    H216540   5.148   5.721   3.133
 5512TIP3   OH216541   0.787   4.174   3.946
 5512TIP3    H116542   0.758   4.216   3.865
 5512TIP3    H216543   0.866   4.222   3.971
 5513TIP3   OH216544   0.607   3.784   3.830
 5513TIP3    H116545   0.518   3.815   3.812
 5513TIP3    H216546   0.596   3.715   3.895
 5514TIP3   OH216547   5.254   3.907   2.835
 5514TIP3    H116548   5.261   3.811   2.834
 5514TIP3    H216549   5.294   3.933   2.918
 5515TIP3   OH216550   0.572   4.580   2.673
 5515TIP3    H116551   0.654   4.553   2.632
 5515TIP3    H216552   0.503   4.542   2.618
 5516TIP3   OH216553   4.827   1.858   3.643
 5516TIP3    H116554   4.886   1.900   3.706
 5516TIP3    H216555   4.870   1.775   3.622
 5517TIP3   OH216556   3.260   1.416   3.713
 5517TIP3    H116557   3.293   1.353   3.777
 5517TIP3    H216558   3.260   1.499   3.760
 5518TIP3   OH216559   2.504   4.733   0.044
 5518TIP3    H116560   2.558   4.654   0.040
 5518TIP3    H216561   2.567   4.803   0.061
 5519TIP3   OH216562   0.114   3.971   4.606
 5519TIP3    H116563   0.057   3.894   4.598
 5519TIP3    H216564   0.055   4.040   4.637
 5520TIP3   OH216565   0.070   5.535   1.494
 5520TIP3    H116566   0.053   5.442   1.477
 5520TIP3    H216567   0.134   5.534   1.566
 5521TIP3   OH216568   4.175   1.630   2.349
 5521TIP3    H116569   4.085   1.611   2.324
 5521TIP3    H216570   4.182   1.596   2.439
 5522TIP3   OH216571   6.067   1.584   1.152
 5522TIP3    H116572   5.991   1.534   1.121
 5522TIP3    H216573   6.117   1.603   1.073
 5523TIP3   OH216574   4.213   1.472   0.066
 5523TIP3    H116575   4.292   1.419   0.076
 5523TIP3    H216576   4.184   1.455  -0.024
 5524TIP3   OH216577   1.288   2.850   4.237
 5524TIP3    H116578   1.256   2.848   4.147
 5524TIP3    H216579   1.352   2.779   4.241
 5525TIP3   OH216580   3.325   0.370   0.628
 5525TIP3    H116581   3.294   0.307   0.563
 5525TIP3    H216582   3.417   0.383   0.608
 5526TIP3   OH216583   0.397   0.225   4.439
 5526TIP3    H116584   0.360   0.138   4.424
 5526TIP3    H216585   0.400   0.233   4.535
 5527TIP3   OH216586   2.932   4.561   2.017
 5527TIP3    H116587   2.978   4.517   2.089
 5527TIP3    H216588   2.841   4.564   2.045
 5528TIP3   OH216589   3.045   4.314   2.175
 5528TIP3    H116590   3.132   4.332   2.139
 5528TIP3    H216591   3.027   4.224   2.149
 5529TIP3   OH216592   4.966   5.222   0.177
 5529TIP3    H116593   4.886   5.266   0.206
 5529TIP3    H216594   5.001   5.182   0.256
 5530TIP3   OH216595   3.285   3.145   0.429
 5530TIP3    H116596   3.197   3.167   0.398
 5530TIP3    H216597   3.328   3.229   0.439
 5531TIP3   OH216598   4.532   3.205   4.932
 5531TIP3    H116599   4.524   3.132   4.871
 5531TIP3    H216600   4.562   3.278   4.878
 5532TIP3   OH216601   0.744   0.085   0.751
 5532TIP3    H116602   0.716   0.102   0.841
 5532TIP3    H216603   0.802   0.158   0.730
 5533TIP3   OH216604   2.686   4.242   0.087
 5533TIP3    H116605   2.664   4.184   0.014
 5533TIP3    H216606   2.781   4.240   0.092
 5534TIP3   OH216607   4.184   5.426   4.116
 5534TIP3    H116608   4.130   5.469   4.050
 5534TIP3    H216609   4.274   5.440   4.086
 5535TIP3   OH216610   1.334   3.596   2.014
 5535TIP3    H116611   1.430   3.596   2.009
 5535TIP3    H216612   1.306   3.604   1.923
 5536TIP3   OH216613   3.277   3.436   3.020
 5536TIP3    H116614   3.204   3.415   2.962
 5536TIP3    H216615   3.260   3.386   3.100
 5537TIP3   OH216616   3.530   5.742   3.696
 5537TIP3    H116617   3.493   5.751   3.609
 5537TIP3    H216618   3.502   5.656   3.726
 5538TIP3   OH216619   2.571   3.692   3.795
 5538TIP3    H116620   2.485   3.675   3.834
 5538TIP3    H216621   2.632   3.641   3.848
 5539TIP3   OH216622   6.128   2.071   1.317
 5539TIP3    H116623   6.130   2.083   1.412
 5539TIP3    H216624   6.215   2.099   1.288
 5540TIP3   OH216625   6.180   3.862   2.044
 5540TIP3    H116626   6.222   3.947   2.038
 5540TIP3    H216627   6.129   3.855   1.964
 5541TIP3   OH216628   3.129   3.556   4.742
 5541TIP3    H116629   3.056   3.608   4.774
 5541TIP3    H216630   3.132   3.480   4.800
 5542TIP3   OH216631   1.780   1.560   3.724
 5542TIP3    H116632   1.810   1.651   3.725
 5542TIP3    H216633   1.738   1.549   3.639
 5543TIP3   OH216634   1.689   5.599   1.572
 5543TIP3    H116635   1.714   5.654   1.497
 5543TIP3    H216636   1.594   5.609   1.577
 5544TIP3   OH216637   2.870   0.203   2.390
 5544TIP3    H116638   2.956   0.169   2.416
 5544TIP3    H216639   2.889   0.269   2.324
 5545TIP3   OH216640   3.817   4.838   1.066
 5545TIP3    H116641   3.896   4.814   1.114
 5545TIP3    H216642   3.753   4.771   1.091
 5546TIP3   OH216643   5.613   3.638   3.518
 5546TIP3    H116644   5.651   3.626   3.605
 5546TIP3    H216645   5.622   3.553   3.475
 5547TIP3   OH216646   0.805   5.921   1.073
 5547TIP3    H116647   0.737   5.873   1.026
 5547TIP3    H216648   0.762   6.000   1.105
 5548TIP3   OH216649   6.230   1.377   3.824
 5548TIP3    H116650   6.194   1.451   3.873
 5548TIP3    H216651   6.317   1.406   3.798
 5549TIP3   OH216652   0.898   5.527   5.037
 5549TIP3    H116653   0.810   5.563   5.047
 5549TIP3    H216654   0.912   5.526   4.942
 5550TIP3   OH216655   0.599   4.026   0.514
 5550TIP3    H116656   0.523   4.059   0.466
 5550TIP3    H216657   0.674   4.072   0.476
 5551TIP3   OH216658   3.755   1.880   4.135
 5551TIP3    H116659   3.784   1.816   4.200
 5551TIP3    H216660   3.661   1.865   4.127
 5552TIP3   OH216661   4.090   2.185   3.602
 5552TIP3    H116662   4.153   2.215   3.536
 5552TIP3    H216663   4.007   2.180   3.554
 5553TIP3   OH216664   2.873   3.072   2.401
 5553TIP3    H116665   2.790   3.041   2.363
 5553TIP3    H216666   2.846   3.128   2.474
 5554TIP3   OH216667   5.753   3.296   4.003
 5554TIP3    H116668   5.804   3.317   4.081
 5554TIP3    H216669   5.794   3.348   3.933
 5555TIP3   OH216670   1.912   5.294   0.347
 5555TIP3    H116671   1.987   5.345   0.316
 5555TIP3    H216672   1.943   5.251   0.427
 5556TIP3   OH216673   4.376   3.773   1.456
 5556TIP3    H116674   4.456   3.806   1.415
 5556TIP3    H216675   4.395   3.681   1.476
 5557TIP3   OH216676   4.740   4.374   2.377
 5557TIP3    H116677   4.715   4.327   2.298
 5557TIP3    H216678   4.663   4.371   2.433
 5558TIP3   OH216679   3.055   4.162   2.471
 5558TIP3    H116680   3.147   4.161   2.499
 5558TIP3    H216681   3.051   4.095   2.402
 5559TIP3   OH216682   2.333   0.205   4.770
 5559TIP3    H116683   2.413   0.153   4.764
 5559TIP3    H216684   2.263   0.143   4.747
 5560TIP3   OH216685   2.971   5.623   3.066
 5560TIP3    H116686   2.890   5.660   3.031
 5560TIP3    H216687   2.951   5.602   3.157
 5561TIP3   OH216688   1.155   3.784   0.068
 5561TIP3    H116689   1.247   3.761   0.077
 5561TIP3    H216690   1.147   3.816  -0.022
 5562TIP3   OH216691   0.834   5.685   1.421
 5562TIP3    H116692   0.763   5.748   1.437
 5562TIP3    H216693   0.819   5.654   1.332
 5563TIP3   OH216694   3.184   2.163   0.872
 5563TIP3    H116695   3.150   2.232   0.930
 5563TIP3    H216696   3.155   2.188   0.785
 5564TIP3   OH216697   6.187   1.098   4.767
 5564TIP3    H116698   6.096   1.117   4.791
 5564TIP3    H216699   6.183   1.066   4.677
 5565TIP3   OH216700   1.015   1.303   0.879
 5565TIP3    H116701   0.926   1.271   0.889
 5565TIP3    H216702   1.059   1.236   0.826
 5566TIP3   OH216703   3.067   1.214   3.605
 5566TIP3    H116704   3.136   1.217   3.671
 5566TIP3    H216705   3.061   1.121   3.582
 5567TIP3   OH216706   4.194   2.626   3.988
 5567TIP3    H116707   4.229   2.671   4.064
 5567TIP3    H216708   4.155   2.546   4.022
 5568TIP3   OH216709   2.175   1.845   3.456
 5568TIP3    H116710   2.136   1.907   3.517
 5568TIP3    H216711   2.103   1.817   3.400
 5569TIP3   OH216712   4.892   2.707   4.572
 5569TIP3    H116713   4.819   2.699   4.511
 5569TIP3    H216714   4.898   2.622   4.615
 5570TIP3   OH216715   3.770   4.247   0.664
 5570TIP3    H116716   3.681   4.255   0.630
 5570TIP3    H216717   3.827   4.262   0.589
 5571TIP3   OH216718   2.183   4.618   4.601
 5571TIP3    H116719   2.138   4.684   4.653
 5571TIP3    H216720   2.157   4.636   4.511
 5572TIP3   OH216721   1.941   4.585   0.107
 5572TIP3    H116722   1.885   4.509   0.092
 5572TIP3    H216723   2.029   4.555   0.083
 5573TIP3   OH216724   3.801   3.181   1.636
 5573TIP3    H116725   3.822   3.266   1.675
 5573TIP3    H216726   3.706   3.175   1.639
 5574TIP3   OH216727   2.404   2.334   0.524
 5574TIP3    H116728   2.434   2.424   0.539
 5574TIP3    H216729   2.484   2.283   0.515
 5575TIP3   OH216730   2.058   1.291   2.900
 5575TIP3    H116731   2.063   1.203   2.937
 5575TIP3    H216732   1.972   1.295   2.858
 5576TIP3   OH216733   0.785   4.488   3.531
 5576TIP3    H116734   0.856   4.550   3.520
 5576TIP3    H216735   0.708   4.542   3.548
 5577TIP3   OH216736   4.394   0.456   1.309
 5577TIP3    H116737   4.421   0.498   1.391
 5577TIP3    H216738   4.413   0.363   1.323
 5578TIP3   OH216739   0.481   0.864   1.669
 5578TIP3    H116740   0.496   0.813   1.749
 5578TIP3    H216741   0.416   0.814   1.620
 5579TIP3   OH216742   2.491   1.923   2.886
 5579TIP3    H116743   2.554   1.928   2.958
 5579TIP3    H216744   2.463   2.013   2.872
 5580TIP3   OH216745   3.829   0.635   1.774
 5580TIP3    H116746   3.772   0.685   1.833
 5580TIP3    H216747   3.911   0.627   1.822
 5581TIP3   OH216748   5.172   4.790   1.443
 5581TIP3    H116749   5.211   4.724   1.385
 5581TIP3    H216750   5.099   4.826   1.393
 5582TIP3   OH216751   0.943   5.350   2.230
 5582TIP3    H116752   0.978   5.271   2.190
 5582TIP3    H216753   0.887   5.319   2.301
 5583TIP3   OH216754   4.770   5.091   1.037
 5583TIP3    H116755   4.860   5.064   1.021
 5583TIP3    H216756   4.731   5.099   0.950
 5584TIP3   OH216757   0.508   1.834   4.436
 5584TIP3    H116758   0.501   1.855   4.529
 5584TIP3    H216759   0.457   1.753   4.425
 5585TIP3   OH216760   2.953   5.029   0.842
 5585TIP3    H116761   3.034   5.033   0.791
 5585TIP3    H216762   2.981   5.041   0.933
 5586TIP3   OH216763   5.599   4.904   4.228
 5586TIP3    H116764   5.546   4.848   4.171
 5586TIP3    H216765   5.562   4.892   4.315
 5587TIP3   OH216766   5.454   5.268   1.792
 5587TIP3    H116767   5.412   5.183   1.779
 5587TIP3    H216768   5.412   5.303   1.871
 5588TIP3   OH216769   5.811   2.133   0.574
 5588TIP3    H116770   5.855   2.103   0.494
 5588TIP3    H216771   5.748   2.198   0.544
 5589TIP3   OH216772   2.299   1.614   2.289
 5589TIP3    H116773   2.340   1.700   2.292
 5589TIP3    H216774   2.291   1.594   2.195
 5590TIP3   OH216775   0.914   4.452   0.924
 5590TIP3    H116776   0.939   4.359   0.927
 5590TIP3    H216777   0.898   4.469   0.832
 5591TIP3   OH216778   5.351   1.474   1.118
 5591TIP3    H116779   5.409   1.536   1.163
 5591TIP3    H216780   5.398   1.390   1.124
 5592TIP3   OH216781   2.594   4.889   3.650
 5592TIP3    H116782   2.531   4.875   3.721
 5592TIP3    H216783   2.679   4.882   3.693
 5593TIP3   OH216784   0.533   5.315   5.086
 5593TIP3    H116785   0.549   5.409   5.094
 5593TIP3    H216786   0.505   5.304   4.995
 5594TIP3   OH216787   2.351   3.371   3.452
 5594TIP3    H116788   2.323   3.379   3.544
 5594TIP3    H216789   2.443   3.396   3.453
 5595TIP3   OH216790   3.605   3.775   2.067
 5595TIP3    H116791   3.662   3.817   2.132
 5595TIP3    H216792   3.518   3.811   2.084
 5596TIP3   OH216793   4.458   0.713   3.479
 5596TIP3    H116794   4.468   0.691   3.571
 5596TIP3    H216795   4.364   0.723   3.467
 5597TIP3   OH216796   2.638   4.699   5.042
 5597TIP3    H116797   2.615   4.623   5.096
 5597TIP3    H216798   2.723   4.728   5.076
 5598TIP3   OH216799   1.996   1.206   2.174
 5598TIP3    H116800   2.042   1.223   2.092
 5598TIP3    H216801   2.016   1.282   2.229
 5599TIP3   OH216802   5.186   1.740   4.535
 5599TIP3    H116803   5.144   1.738   4.449
 5599TIP3    H216804   5.113   1.745   4.597
 5600TIP3   OH216805   1.721   0.057   5.056
 5600TIP3    H116806   1.791   0.011   5.102
 5600TIP3    H216807   1.730   0.148   5.083
 5601TIP3   OH216808   6.164   1.716   2.215
 5601TIP3    H116809   6.183   1.722   2.309
 5601TIP3    H216810   6.208   1.635   2.187
 5602TIP3   OH216811   1.385   2.587   0.331
 5602TIP3    H116812   1.338   2.528   0.390
 5602TIP3    H216813   1.324   2.660   0.318
 5603TIP3   OH216814   3.214   0.156   4.028
 5603TIP3    H116815   3.230   0.169   4.121
 5603TIP3    H216816   3.184   0.065   4.020
 5604TIP3   OH216817   0.956   4.629   4.460
 5604TIP3    H116818   0.884   4.592   4.512
 5604TIP3    H216819   0.915   4.654   4.377
 5605TIP3   OH216820   6.330   1.512   2.769
 5605TIP3    H116821   6.330   1.531   2.863
 5605TIP3    H216822   6.246   1.469   2.754
 5606TIP3   OH216823   1.887   2.420   2.468
 5606TIP3    H116824   1.852   2.448   2.384
 5606TIP3    H216825   1.869   2.326   2.471
 5607TIP3   OH216826   0.415   0.631   0.130
 5607TIP3    H116827   0.328   0.664   0.152
 5607TIP3    H216828   0.437   0.675   0.048
 5608TIP3   OH216829   5.872   3.043   2.467
 5608TIP3    H116830   5.876   2.948   2.478
 5608TIP3    H216831   5.779   3.063   2.461
 5609TIP3   OH216832   3.117   4.812   3.048
 5609TIP3    H116833   3.145   4.821   3.139
 5609TIP3    H216834   3.044   4.874   3.040
 5610TIP3   OH216835   6.272   1.973   0.388
 5610TIP3    H116836   6.177   1.973   0.400
 5610TIP3    H216837   6.285   2.006   0.299
 5611TIP3   OH216838   2.741   1.953   3.071
 5611TIP3    H116839   2.732   1.938   3.165
 5611TIP3    H216840   2.781   1.873   3.037
 5612TIP3   OH216841   4.322   2.664   2.949
 5612TIP3    H116842   4.392   2.603   2.926
 5612TIP3    H216843   4.365   2.732   3.001
 5613TIP3   OH216844  -0.033   1.283   1.334
 5613TIP3    H116845   0.048   1.303   1.288
 5613TIP3    H216846  -0.005   1.257   1.422
 5614TIP3   OH216847   0.502   4.273   0.038
 5614TIP3    H116848   0.496   4.360   0.076
 5614TIP3    H216849   0.473   4.214   0.107
 5615TIP3   OH216850   5.909   4.984   2.044
 5615TIP3    H116851   5.881   4.925   1.974
 5615TIP3    H216852   5.828   5.007   2.089
 5616TIP3   OH216853   5.300   1.440   3.341
 5616TIP3    H116854   5.264   1.355   3.368
 5616TIP3    H216855   5.265   1.454   3.253
 5617TIP3   OH216856   6.310   4.712   4.931
 5617TIP3    H116857   6.265   4.628   4.925
 5617TIP3    H216858   6.327   4.737   4.840
 5618TIP3   OH216859   5.381   1.476   0.268
 5618TIP3    H116860   5.324   1.457   0.193
 5618TIP3    H216861   5.394   1.391   0.310
 5619TIP3   OH216862   3.302   4.485   4.449
 5619TIP3    H116863   3.367   4.538   4.404
 5619TIP3    H216864   3.222   4.496   4.398
 5620TIP3   OH216865   0.715   5.735   0.819
 5620TIP3    H116866   0.784   5.800   0.803
 5620TIP3    H216867   0.755   5.652   0.794
 5621TIP3   OH216868   4.127   1.020   1.150
 5621TIP3    H116869   4.181   1.090   1.187
 5621TIP3    H216870   4.169   0.939   1.181
 5622TIP3   OH216871   3.083   2.327   1.778
 5622TIP3    H116872   3.000   2.319   1.825
 5622TIP3    H216873   3.117   2.238   1.774
 5623TIP3   OH216874   1.580   2.175   3.510
 5623TIP3    H116875   1.667   2.150   3.542
 5623TIP3    H216876   1.556   2.105   3.450
 5624TIP3   OH216877   1.077   3.928   2.997
 5624TIP3    H116878   1.044   4.006   2.952
 5624TIP3    H216879   1.155   3.903   2.946
 5625TIP3   OH216880   3.759   4.214   4.735
 5625TIP3    H116881   3.663   4.205   4.733
 5625TIP3    H216882   3.774   4.296   4.783
 5626TIP3   OH216883   1.760   1.836   3.607
 5626TIP3    H116884   1.821   1.796   3.544
 5626TIP3    H216885   1.779   1.930   3.601
 5627TIP3   OH216886   2.925   5.483   3.320
 5627TIP3    H116887   2.924   5.499   3.414
 5627TIP3    H216888   2.834   5.497   3.292
 5628TIP3   OH216889   5.952   4.560   1.174
 5628TIP3    H116890   5.911   4.480   1.140
 5628TIP3    H216891   5.899   4.583   1.251
 5629TIP3   OH216892   2.959   5.779   1.635
 5629TIP3    H116893   2.933   5.862   1.675
 5629TIP3    H216894   2.879   5.746   1.595
 5630TIP3   OH216895   1.219   2.229   4.951
 5630TIP3    H116896   1.235   2.152   4.896
 5630TIP3    H216897   1.293   2.231   5.012
 5631TIP3   OH216898   5.326   0.885   4.996
 5631TIP3    H116899   5.391   0.868   4.928
 5631TIP3    H216900   5.302   0.977   4.984
 5632TIP3   OH216901   3.453   0.525   1.797
 5632TIP3    H116902   3.450   0.578   1.717
 5632TIP3    H216903   3.463   0.435   1.766
 5633TIP3   OH216904   6.335   1.123   4.260
 5633TIP3    H116905   6.341   1.213   4.293
 5633TIP3    H216906   6.310   1.072   4.336
 5634TIP3   OH216907   0.023   3.660   1.580
 5634TIP3    H116908   0.006   3.613   1.662
 5634TIP3    H216909  -0.011   3.748   1.597
 5635TIP3   OH216910   3.681   0.632   2.188
 5635TIP3    H116911   3.636   0.716   2.183
 5635TIP3    H216912   3.617   0.569   2.154
 5636TIP3   OH216913   1.408   4.765   0.561
 5636TIP3    H116914   1.480   4.827   0.550
 5636TIP3    H216915   1.329   4.815   0.539
 5637TIP3   OH216916   5.837   0.840   3.639
 5637TIP3    H116917   5.923   0.868   3.607
 5637TIP3    H216918   5.834   0.746   3.619
 5638TIP3   OH216919   4.272   0.594   2.809
 5638TIP3    H116920   4.194   0.551   2.845
 5638TIP3    H216921   4.253   0.687   2.817
 5639TIP3   OH216922   4.022   3.118   1.010
 5639TIP3    H116923   4.052   3.049   0.951
 5639TIP3    H216924   3.930   3.131   0.987
 5640TIP3   OH216925   2.481   2.221   2.866
 5640TIP3    H116926   2.561   2.232   2.814
 5640TIP3    H216927   2.488   2.287   2.934
 5641TIP3   OH216928   5.058   4.493   2.278
 5641TIP3    H116929   5.149   4.504   2.252
 5641TIP3    H216930   5.050   4.547   2.357
 5642TIP3   OH216931   4.619   4.897   4.051
 5642TIP3    H116932   4.669   4.942   3.982
 5642TIP3    H216933   4.574   4.826   4.005
 5643TIP3   OH216934   4.541   2.814   2.574
 5643TIP3    H116935   4.489   2.742   2.537
 5643TIP3    H216936   4.622   2.812   2.524
 5644TIP3   OH216937   3.128   1.687   3.431
 5644TIP3    H116938   3.182   1.766   3.428
 5644TIP3    H216939   3.039   1.719   3.444
 5645TIP3   OH216940   0.190   4.925   3.756
 5645TIP3    H116941   0.165   4.929   3.848
 5645TIP3    H216942   0.127   4.980   3.711
 5646TIP3   OH216943   1.849   4.829   0.221
 5646TIP3    H116944   1.906   4.873   0.284
 5646TIP3    H216945   1.901   4.756   0.189
 5647TIP3   OH216946   1.070   2.934   2.512
 5647TIP3    H116947   1.103   3.005   2.568
 5647TIP3    H216948   0.987   2.968   2.478
 5648TIP3   OH216949   4.116   1.649   2.638
 5648TIP3    H116950   4.072   1.712   2.696
 5648TIP3    H216951   4.202   1.636   2.678
 5649TIP3   OH216952   1.013   1.603   1.629
 5649TIP3    H116953   1.108   1.605   1.612
 5649TIP3    H216954   1.001   1.662   1.704
 5650TIP3   OH216955   1.232   1.796   4.213
 5650TIP3    H116956   1.144   1.762   4.228
 5650TIP3    H216957   1.244   1.861   4.282
 5651TIP3   OH216958   5.849   1.243   1.477
 5651TIP3    H116959   5.821   1.257   1.568
 5651TIP3    H216960   5.929   1.295   1.469
 5652TIP3   OH216961   3.833   1.852   0.083
 5652TIP3    H116962   3.866   1.803   0.158
 5652TIP3    H216963   3.912   1.886   0.041
 5653TIP3   OH216964   5.494   0.938   3.806
 5653TIP3    H116965   5.589   0.943   3.816
 5653TIP3    H216966   5.460   0.973   3.888
 5654TIP3   OH216967   5.849   2.377   1.985
 5654TIP3    H116968   5.772   2.321   1.992
 5654TIP3    H216969   5.844   2.435   2.062
 5655TIP3   OH216970   1.072   2.446   3.158
 5655TIP3    H116971   0.986   2.413   3.183
 5655TIP3    H216972   1.054   2.515   3.095
 5656TIP3   OH216973   2.502   0.377   4.030
 5656TIP3    H116974   2.567   0.356   3.962
 5656TIP3    H216975   2.431   0.420   3.983
 5657TIP3   OH216976   0.360   2.818   1.362
 5657TIP3    H116977   0.408   2.840   1.282
 5657TIP3    H216978   0.319   2.901   1.388
 5658TIP3   OH216979   1.895   4.379   1.029
 5658TIP3    H116980   1.812   4.402   0.988
 5658TIP3    H216981   1.869   4.333   1.110
 5659TIP3   OH216982   3.213   5.347   3.659
 5659TIP3    H116983   3.197   5.441   3.659
 5659TIP3    H216984   3.155   5.313   3.590
 5660TIP3   OH216985   5.116   2.538   2.892
 5660TIP3    H116986   5.178   2.529   2.820
 5660TIP3    H216987   5.153   2.487   2.963
 5661TIP3   OH216988   4.123   0.881   2.787
 5661TIP3    H116989   4.147   0.838   2.705
 5661TIP3    H216990   4.128   0.975   2.767
 5662TIP3   OH216991   6.079   0.982   5.002
 5662TIP3    H116992   6.039   1.000   5.087
 5662TIP3    H216993   6.153   1.043   4.998
 5663TIP3   OH216994   3.899   2.291   4.912
 5663TIP3    H116995   3.824   2.351   4.915
 5663TIP3    H216996   3.939   2.298   4.999
 5664TIP3   OH216997   2.751   5.523   0.979
 5664TIP3    H116998   2.778   5.468   1.053
 5664TIP3    H216999   2.833   5.540   0.931
 5665TIP3   OH217000   2.176   4.479   1.229
 5665TIP3    H117001   2.124   4.413   1.273
 5665TIP3    H217002   2.160   4.464   1.135
 5666TIP3   OH217003   2.114   3.187   1.312
 5666TIP3    H117004   2.069   3.264   1.278
 5666TIP3    H217005   2.124   3.130   1.236
 5667TIP3   OH217006   6.016   0.795   2.280
 5667TIP3    H117007   5.959   0.762   2.350
 5667TIP3    H217008   6.053   0.716   2.241
 5668TIP3   OH217009   0.991   3.595   0.209
 5668TIP3    H117010   1.056   3.657   0.176
 5668TIP3    H217011   0.917   3.603   0.149
 5669TIP3   OH217012   2.176   5.077   0.022
 5669TIP3    H117013   2.196   4.989   0.055
 5669TIP3    H217014   2.080   5.081   0.020
 5670TIP3   OH217015   3.802   4.995   0.825
 5670TIP3    H117016   3.756   4.922   0.782
 5670TIP3    H217017   3.806   4.969   0.917
 5671TIP3   OH217018   4.756   5.208   2.454
 5671TIP3    H117019   4.689   5.149   2.421
 5671TIP3    H217020   4.758   5.192   2.548
 5672TIP3   OH217021   0.418   4.577   3.158
 5672TIP3    H117022   0.379   4.551   3.075
 5672TIP3    H217023   0.387   4.667   3.172
 5673TIP3   OH217024   2.090   1.975   1.616
 5673TIP3    H117025   2.094   1.896   1.562
 5673TIP3    H217026   2.170   1.973   1.668
 5674TIP3   OH217027   3.647   5.141   4.387
 5674TIP3    H117028   3.617   5.101   4.469
 5674TIP3    H217029   3.567   5.173   4.346
 5675TIP3   OH217030   6.231   1.500   3.543
 5675TIP3    H117031   6.252   1.407   3.542
 5675TIP3    H217032   6.142   1.505   3.508
 5676TIP3   OH217033   1.338   0.353   2.581
 5676TIP3    H117034   1.403   0.397   2.527
 5676TIP3    H217035   1.257   0.358   2.529
 5677TIP3   OH217036   5.109   5.130   1.926
 5677TIP3    H117037   5.162   5.209   1.914
 5677TIP3    H217038   5.167   5.058   1.902
 5678TIP3   OH217039   3.657   3.386   2.216
 5678TIP3    H117040   3.641   3.378   2.122
 5678TIP3    H217041   3.577   3.426   2.251
 5679TIP3   OH217042   2.152   4.351   0.167
 5679TIP3    H117043   2.059   4.333   0.152
 5679TIP3    H217044   2.154   4.405   0.246
 5680TIP3   OH217045   3.657   1.109   1.992
 5680TIP3    H117046   3.721   1.155   1.937
 5680TIP3    H217047   3.588   1.173   2.008
 5681TIP3   OH217048   0.957   2.707   4.095
 5681TIP3    H117049   0.948   2.613   4.109
 5681TIP3    H217050   0.869   2.742   4.109
 5682TIP3   OH217051   0.634   3.578   2.852
 5682TIP3    H117052   0.611   3.656   2.901
 5682TIP3    H217053   0.551   3.533   2.838
 5683TIP3   OH217054   1.784   2.494   2.242
 5683TIP3    H117055   1.699   2.533   2.221
 5683TIP3    H217056   1.831   2.493   2.159
 5684TIP3   OH217057   0.517   4.418   4.662
 5684TIP3    H117058   0.493   4.441   4.751
 5684TIP3    H217059   0.517   4.322   4.661
 5685TIP3   OH217060   4.981   0.284   2.819
 5685TIP3    H117061   5.066   0.290   2.863
 5685TIP3    H217062   4.981   0.196   2.780
 5686TIP3   OH217063   3.052   1.720   2.828
 5686TIP3    H117064   3.144   1.746   2.837
 5686TIP3    H217065   3.004   1.802   2.820
 5687TIP3   OH217066   0.377   0.748   1.919
 5687TIP3    H117067   0.429   0.766   1.997
 5687TIP3    H217068   0.378   0.652   1.912
 5688TIP3   OH217069   3.282   4.565   0.407
 5688TIP3    H117070   3.279   4.658   0.433
 5688TIP3    H217071   3.372   4.551   0.378
 5689TIP3   OH217072   1.132   0.986   0.661
 5689TIP3    H117073   1.226   1.001   0.651
 5689TIP3    H217074   1.091   1.047   0.600
 5690TIP3   OH217075   1.880   1.769   1.790
 5690TIP3    H117076   1.851   1.701   1.850
 5690TIP3    H217077   1.974   1.776   1.804
 5691TIP3   OH217078   5.336   1.697   4.186
 5691TIP3    H117079   5.259   1.753   4.190
 5691TIP3    H217080   5.341   1.670   4.094
 5692TIP3   OH217081   1.622   4.805   0.046
 5692TIP3    H117082   1.587   4.893   0.063
 5692TIP3    H217083   1.703   4.801   0.098
 5693TIP3   OH217084   2.070   1.484   1.694
 5693TIP3    H117085   1.975   1.471   1.692
 5693TIP3    H217086   2.082   1.566   1.741
 5694TIP3   OH217087  -0.005   2.035   0.104
 5694TIP3    H117088   0.067   2.097   0.114
 5694TIP3    H217089  -0.029   2.042   0.011
 5695TIP3   OH217090   1.907   2.055   0.544
 5695TIP3    H117091   1.827   2.010   0.515
 5695TIP3    H217092   1.956   1.987   0.590
 5696TIP3   OH217093   2.136   2.978   4.854
 5696TIP3    H117094   2.090   2.895   4.864
 5696TIP3    H217095   2.135   2.995   4.760
 5697TIP3   OH217096   3.869   0.400   2.131
 5697TIP3    H117097   3.828   0.365   2.052
 5697TIP3    H217098   3.863   0.495   2.120
 5698TIP3   OH217099   3.141   3.538   0.576
 5698TIP3    H117100   3.174   3.503   0.659
 5698TIP3    H217101   3.049   3.558   0.593
 5699TIP3   OH217102   6.130   4.732   1.480
 5699TIP3    H117103   6.222   4.747   1.502
 5699TIP3    H217104   6.106   4.653   1.529
 5700TIP3   OH217105   4.530   0.209   4.385
 5700TIP3    H117106   4.582   0.142   4.429
 5700TIP3    H217107   4.594   0.261   4.336
 5701TIP3   OH217108   0.898   0.595   1.961
 5701TIP3    H117109   0.943   0.680   1.956
 5701TIP3    H217110   0.809   0.618   1.989
 5702TIP3   OH217111   1.281   1.802   0.543
 5702TIP3    H117112   1.261   1.894   0.525
 5702TIP3    H217113   1.330   1.774   0.466
 5703TIP3   OH217114   1.399   1.396   0.497
 5703TIP3    H117115   1.422   1.486   0.519
 5703TIP3    H217116   1.460   1.342   0.546
 5704TIP3   OH217117   5.813   3.192   1.515
 5704TIP3    H117118   5.790   3.184   1.608
 5704TIP3    H217119   5.793   3.283   1.494
 5705TIP3   OH217120   4.997   5.504   3.256
 5705TIP3    H117121   5.044   5.584   3.234
 5705TIP3    H217122   5.054   5.457   3.317
 5706TIP3   OH217123   2.714   0.462   3.602
 5706TIP3    H117124   2.648   0.491   3.539
 5706TIP3    H217125   2.737   0.374   3.575
 5707TIP3   OH217126   3.719   2.579   4.392
 5707TIP3    H117127   3.682   2.663   4.421
 5707TIP3    H217128   3.780   2.603   4.323
 5708TIP3   OH217129   4.437   4.867   3.709
 5708TIP3    H117130   4.445   4.953   3.750
 5708TIP3    H217131   4.344   4.855   3.693
 5709TIP3   OH217132   5.838   1.448   1.998
 5709TIP3    H117133   5.917   1.398   1.977
 5709TIP3    H217134   5.829   1.510   1.926
 5710TIP3   OH217135   5.951   3.996   2.687
 5710TIP3    H117136   5.962   4.075   2.634
 5710TIP3    H217137   5.960   4.026   2.777
 5711TIP3   OH217138   4.101   1.626   3.987
 5711TIP3    H117139   4.066   1.696   3.933
 5711TIP3    H217140   4.068   1.545   3.947
 5712TIP3   OH217141   1.564   1.041   2.601
 5712TIP3    H117142   1.485   1.010   2.646
 5712TIP3    H217143   1.630   0.974   2.619
 5713TIP3   OH217144   2.750   0.702   1.247
 5713TIP3    H117145   2.725   0.639   1.314
 5713TIP3    H217146   2.792   0.773   1.296
 5714TIP3   OH217147   3.135   3.258   2.565
 5714TIP3    H117148   3.208   3.207   2.530
 5714TIP3    H217149   3.090   3.198   2.624
 5715TIP3   OH217150   3.844   0.917   3.182
 5715TIP3    H117151   3.868   1.003   3.216
 5715TIP3    H217152   3.779   0.884   3.244
 5716TIP3   OH217153   1.295   4.198   2.395
 5716TIP3    H117154   1.382   4.237   2.387
 5716TIP3    H217155   1.260   4.198   2.306
 5717TIP3   OH217156   2.750   5.686   5.064
 5717TIP3    H117157   2.691   5.694   4.989
 5717TIP3    H217158   2.779   5.595   5.062
 5718TIP3   OH217159   3.425   0.609   3.987
 5718TIP3    H117160   3.509   0.618   4.032
 5718TIP3    H217161   3.443   0.549   3.915
 5719TIP3   OH217162   4.412   1.405   0.741
 5719TIP3    H117163   4.371   1.491   0.733
 5719TIP3    H217164   4.378   1.369   0.822
 5720TIP3   OH217165   5.374   3.257   3.074
 5720TIP3    H117166   5.330   3.315   3.136
 5720TIP3    H217167   5.350   3.291   2.988
 5721TIP3   OH217168   1.183   5.205   0.469
 5721TIP3    H117169   1.234   5.280   0.442
 5721TIP3    H217170   1.163   5.221   0.561
 5722TIP3   OH217171   4.494   0.787   2.270
 5722TIP3    H117172   4.506   0.877   2.301
 5722TIP3    H217173   4.419   0.792   2.211
 5723TIP3   OH217174   5.995   2.511   4.611
 5723TIP3    H117175   5.990   2.457   4.531
 5723TIP3    H217176   6.072   2.479   4.656
 5724TIP3   OH217177   3.643   5.850   5.092
 5724TIP3    H117178   3.582   5.839   5.019
 5724TIP3    H217179   3.688   5.766   5.098
 5725TIP3   OH217180   0.758   3.979   2.481
 5725TIP3    H117181   0.676   3.966   2.432
 5725TIP3    H217182   0.730   4.014   2.565
 5726TIP3   OH217183   4.291   2.665   4.647
 5726TIP3    H117184   4.269   2.706   4.731
 5726TIP3    H217185   4.210   2.670   4.596
 5727TIP3   OH217186   3.195   5.434   3.132
 5727TIP3    H117187   3.171   5.343   3.150
 5727TIP3    H217188   3.144   5.457   3.054
 5728TIP3   OH217189   0.983   4.221   0.196
 5728TIP3    H117190   0.903   4.249   0.151
 5728TIP3    H217191   1.040   4.298   0.195
 5729TIP3   OH217192   5.414   2.694   3.647
 5729TIP3    H117193   5.437   2.657   3.732
 5729TIP3    H217194   5.423   2.789   3.660
 5730TIP3   OH217195   5.943   5.641   1.464
 5730TIP3    H117196   5.978   5.649   1.375
 5730TIP3    H217197   5.883   5.715   1.473
 5731TIP3   OH217198   0.860   3.311   4.476
 5731TIP3    H117199   0.834   3.228   4.516
 5731TIP3    H217200   0.877   3.369   4.549
 5732TIP3   OH217201   0.537   5.368   0.298
 5732TIP3    H117202   0.445   5.364   0.324
 5732TIP3    H217203   0.586   5.362   0.381
 5733TIP3   OH217204   6.041   4.332   1.536
 5733TIP3    H117205   6.046   4.422   1.567
 5733TIP3    H217206   6.065   4.279   1.613
 5734TIP3   OH217207   1.628   1.237   2.407
 5734TIP3    H117208   1.624   1.162   2.465
 5734TIP3    H217209   1.646   1.312   2.465
 5735TIP3   OH217210   5.578   3.180   3.813
 5735TIP3    H117211   5.637   3.163   3.740
 5735TIP3    H217212   5.636   3.203   3.886
 5736TIP3   OH217213   5.230   0.848   2.288
 5736TIP3    H117214   5.281   0.872   2.210
 5736TIP3    H217215   5.264   0.904   2.357
 5737TIP3   OH217216   4.424   2.213   4.445
 5737TIP3    H117217   4.438   2.308   4.448
 5737TIP3    H217218   4.404   2.190   4.536
 5738TIP3   OH217219   3.020   1.745   3.145
 5738TIP3    H117220   3.068   1.664   3.124
 5738TIP3    H217221   2.958   1.718   3.213
 5739TIP3   OH217222   5.205   4.157   3.140
 5739TIP3    H117223   5.272   4.216   3.107
 5739TIP3    H217224   5.246   4.070   3.139
 5740TIP3   OH217225   0.767   2.752   0.675
 5740TIP3    H117226   0.839   2.737   0.613
 5740TIP3    H217227   0.789   2.697   0.750
 5741TIP3   OH217228   4.249   0.835   2.108
 5741TIP3    H117229   4.227   0.880   2.026
 5741TIP3    H217230   4.241   0.742   2.087
 5742TIP3   OH217231   2.308   0.788   3.246
 5742TIP3    H117232   2.310   0.698   3.211
 5742TIP3    H217233   2.380   0.832   3.201
 5743TIP3   OH217234   5.129   4.726   3.987
 5743TIP3    H117235   5.196   4.659   3.998
 5743TIP3    H217236   5.054   4.694   4.038
 5744TIP3   OH217237   3.828   5.824   0.322
 5744TIP3    H117238   3.820   5.801   0.230
 5744TIP3    H217239   3.789   5.750   0.369
 5745TIP3   OH217240   5.261   3.683   0.986
 5745TIP3    H117241   5.223   3.627   0.918
 5745TIP3    H217242   5.301   3.755   0.937
 5746TIP3   OH217243   6.319   3.964   2.740
 5746TIP3    H117244   6.299   4.044   2.693
 5746TIP3    H217245   6.247   3.905   2.719
 5747TIP3   OH217246   4.756   4.585   2.187
 5747TIP3    H117247   4.684   4.553   2.132
 5747TIP3    H217248   4.755   4.527   2.263
 5748TIP3   OH217249   3.778   0.968   3.942
 5748TIP3    H117250   3.791   1.059   3.968
 5748TIP3    H217251   3.740   0.926   4.019
 5749TIP3   OH217252   2.793   0.817   4.741
 5749TIP3    H117253   2.826   0.900   4.775
 5749TIP3    H217254   2.839   0.751   4.792
 5750TIP3   OH217255   4.426   3.769   3.018
 5750TIP3    H117256   4.342   3.798   3.055
 5750TIP3    H217257   4.490   3.785   3.088
 5751TIP3   OH217258   2.113   3.299   3.137
 5751TIP3    H117259   2.022   3.326   3.122
 5751TIP3    H217260   2.127   3.313   3.231
 5752TIP3   OH217261   3.735   3.593   3.683
 5752TIP3    H117262   3.748   3.606   3.776
 5752TIP3    H217263   3.654   3.640   3.663
 5753TIP3   OH217264   5.424   1.823   0.130
 5753TIP3    H117265   5.350   1.826   0.070
 5753TIP3    H217266   5.411   1.742   0.180
 5754TIP3   OH217267   1.865   3.165   1.499
 5754TIP3    H117268   1.928   3.206   1.440
 5754TIP3    H217269   1.835   3.087   1.453
 5755TIP3   OH217270   1.809   2.960   4.779
 5755TIP3    H117271   1.876   2.899   4.811
 5755TIP3    H217272   1.726   2.925   4.813
 5756TIP3   OH217273   3.870   4.230   2.449
 5756TIP3    H117274   3.860   4.314   2.405
 5756TIP3    H217275   3.889   4.252   2.540
 5757TIP3   OH217276   1.344   4.132   1.576
 5757TIP3    H117277   1.327   4.161   1.486
 5757TIP3    H217278   1.413   4.191   1.607
 5758TIP3   OH217279   5.533   0.840   4.843
 5758TIP3    H117280   5.602   0.803   4.898
 5758TIP3    H217281   5.543   0.796   4.759
 5759TIP3   OH217282   4.637   2.517   2.616
 5759TIP3    H117283   4.728   2.542   2.632
 5759TIP3    H217284   4.590   2.545   2.694
 5760TIP3   OH217285   2.166   4.158   3.521
 5760TIP3    H117286   2.109   4.234   3.507
 5760TIP3    H217287   2.130   4.116   3.599
 5761TIP3   OH217288   5.390   4.412   3.095
 5761TIP3    H117289   5.385   4.478   3.165
 5761TIP3    H217290   5.476   4.427   3.054
 5762TIP3   OH217291   4.722   1.811   3.984
 5762TIP3    H117292   4.796   1.764   3.945
 5762TIP3    H217293   4.684   1.861   3.911
 5763TIP3   OH217294   6.277   0.956   3.432
 5763TIP3    H117295   6.193   0.998   3.451
 5763TIP3    H217296   6.290   0.894   3.503
 5764TIP3   OH217297   5.182   1.931   3.233
 5764TIP3    H117298   5.150   1.895   3.151
 5764TIP3    H217299   5.167   1.862   3.298
 5765TIP3   OH217300   5.383   2.936   3.513
 5765TIP3    H117301   5.454   2.881   3.482
 5765TIP3    H217302   5.370   3.000   3.443
 5766TIP3   OH217303   0.988   4.258   2.334
 5766TIP3    H117304   0.993   4.175   2.382
 5766TIP3    H217305   0.898   4.287   2.346
 5767TIP3   OH217306   4.384   1.346   2.175
 5767TIP3    H117307   4.290   1.331   2.185
 5767TIP3    H217308   4.395   1.440   2.189
 5768TIP3   OH217309   1.812   4.617   1.444
 5768TIP3    H117310   1.807   4.548   1.510
 5768TIP3    H217311   1.842   4.572   1.365
 5769TIP3   OH217312   0.079   0.703   4.132
 5769TIP3    H117313   0.085   0.716   4.226
 5769TIP3    H217314  -0.015   0.705   4.113
 5770TIP3   OH217315   2.149   4.746   1.357
 5770TIP3    H117316   2.139   4.653   1.339
 5770TIP3    H217317   2.059   4.779   1.363
 5771TIP3   OH217318   4.801   1.702   4.626
 5771TIP3    H117319   4.811   1.607   4.621
 5771TIP3    H217320   4.751   1.725   4.548
 5772TIP3   OH217321   0.498   3.335   0.782
 5772TIP3    H117322   0.571   3.351   0.722
 5772TIP3    H217323   0.488   3.240   0.782
 5773TIP3   OH217324   6.082   5.117   0.437
 5773TIP3    H117325   6.068   5.041   0.493
 5773TIP3    H217326   6.105   5.187   0.498
 5774TIP3   OH217327   4.720   3.425   3.088
 5774TIP3    H117328   4.768   3.492   3.137
 5774TIP3    H217329   4.628   3.443   3.108
 5775TIP3   OH217330   6.055   1.802   2.872
 5775TIP3    H117331   5.986   1.863   2.845
 5775TIP3    H217332   6.135   1.836   2.831
 5776TIP3   OH217333   3.037   1.448   4.911
 5776TIP3    H117334   3.118   1.411   4.875
 5776TIP3    H217335   3.061   1.476   5.000
 5777TIP3   OH217336   5.707   3.308   5.098
 5777TIP3    H117337   5.779   3.289   5.158
 5777TIP3    H217338   5.749   3.316   5.012
 5778TIP3   OH217339   3.543   3.477   1.367
 5778TIP3    H117340   3.571   3.482   1.276
 5778TIP3    H217341   3.575   3.559   1.405
 5779TIP3   OH217342   0.210   4.787   3.201
 5779TIP3    H117343   0.180   4.875   3.225
 5779TIP3    H217344   0.203   4.737   3.282
 5780TIP3   OH217345   5.982   4.463   2.897
 5780TIP3    H117346   6.031   4.536   2.933
 5780TIP3    H217347   6.046   4.414   2.845
 5781TIP3   OH217348   3.097   3.062   4.935
 5781TIP3    H117349   3.051   3.046   4.853
 5781TIP3    H217350   3.050   3.008   4.999
 5782TIP3   OH217351   2.262   1.628   0.189
 5782TIP3    H117352   2.345   1.631   0.141
 5782TIP3    H217353   2.285   1.596   0.276
 5783TIP3   OH217354   1.293   2.279   0.212
 5783TIP3    H117355   1.317   2.286   0.119
 5783TIP3    H217356   1.224   2.344   0.224
 5784TIP3   OH217357   4.213   1.150   5.036
 5784TIP3    H117358   4.202   1.182   5.125
 5784TIP3    H217359   4.244   1.226   4.987
 5785TIP3   OH217360   2.831   5.468   1.536
 5785TIP3    H117361   2.758   5.411   1.560
 5785TIP3    H217362   2.829   5.472   1.440
 5786TIP3   OH217363   1.323   2.708   5.006
 5786TIP3    H117364   1.343   2.774   4.940
 5786TIP3    H217365   1.305   2.628   4.955
 5787TIP3   OH217366   3.588   4.010   0.509
 5787TIP3    H117367   3.661   3.965   0.553
 5787TIP3    H217368   3.520   4.015   0.576
 5788TIP3   OH217369   5.413   0.479   2.595
 5788TIP3    H117370   5.415   0.515   2.683
 5788TIP3    H217371   5.372   0.393   2.604
 5789TIP3   OH217372   4.431   1.539   2.615
 5789TIP3    H117373   4.424   1.592   2.694
 5789TIP3    H217374   4.501   1.580   2.564
 5790TIP3   OH217375   2.751   0.266   0.935
 5790TIP3    H117376   2.768   0.330   0.865
 5790TIP3    H217377   2.777   0.311   1.015
 5791TIP3   OH217378   4.095   2.480   2.218
 5791TIP3    H117379   4.026   2.447   2.275
 5791TIP3    H217380   4.049   2.517   2.143
 5792TIP3   OH217381   5.909   3.958   2.142
 5792TIP3    H117382   5.942   3.869   2.132
 5792TIP3    H217383   5.814   3.949   2.131
 5793TIP3   OH217384   5.685   3.767   1.647
 5793TIP3    H117385   5.635   3.818   1.710
 5793TIP3    H217386   5.734   3.704   1.700
 5794TIP3   OH217387   4.934   0.038   2.720
 5794TIP3    H117388   4.877   0.026   2.643
 5794TIP3    H217389   4.963  -0.051   2.741
 5795TIP3   OH217390   4.954   2.582   0.790
 5795TIP3    H117391   4.955   2.584   0.886
 5795TIP3    H217392   5.009   2.655   0.764
 5796TIP3   OH217393   2.414   4.042   0.463
 5796TIP3    H117394   2.460   4.051   0.380
 5796TIP3    H217395   2.387   3.950   0.465
 5797TIP3   OH217396   4.632   0.774   1.909
 5797TIP3    H117397   4.643   0.824   1.990
 5797TIP3    H217398   4.594   0.836   1.847
 5798TIP3   OH217399   3.010   0.201   0.842
 5798TIP3    H117400   2.924   0.235   0.869
 5798TIP3    H217401   3.069   0.276   0.850
 5799TIP3   OH217402   4.512   0.020   1.996
 5799TIP3    H117403   4.533   0.080   1.924
 5799TIP3    H217404   4.569  -0.056   1.981
 5800TIP3   OH217405   3.715   2.976   3.734
 5800TIP3    H117406   3.716   2.890   3.776
 5800TIP3    H217407   3.751   2.961   3.646
 5801TIP3   OH217408   5.882   0.209   2.391
 5801TIP3    H117409   5.812   0.268   2.418
 5801TIP3    H217410   5.961   0.245   2.432
 5802TIP3   OH217411   1.639   1.400   2.838
 5802TIP3    H117412   1.665   1.331   2.899
 5802TIP3    H217413   1.687   1.477   2.868
 5803TIP3   OH217414   4.213   4.355   0.796
 5803TIP3    H117415   4.192   4.315   0.712
 5803TIP3    H217416   4.213   4.283   0.859
 5804TIP3   OH217417   2.814   4.098   2.619
 5804TIP3    H117418   2.817   4.148   2.700
 5804TIP3    H217419   2.898   4.053   2.615
 5805TIP3   OH217420   0.354   0.571   1.027
 5805TIP3    H117421   0.330   0.631   1.097
 5805TIP3    H217422   0.350   0.484   1.068
 5806TIP3   OH217423   4.563   1.320   1.578
 5806TIP3    H117424   4.626   1.265   1.625
 5806TIP3    H217425   4.528   1.379   1.645
 5807TIP3   OH217426   1.234   3.970   1.031
 5807TIP3    H117427   1.300   3.975   0.962
 5807TIP3    H217428   1.261   4.038   1.094
 5808TIP3   OH217429   4.355   0.393   3.610
 5808TIP3    H117430   4.334   0.303   3.637
 5808TIP3    H217431   4.362   0.389   3.515
 5809TIP3   OH217432   0.330   3.593   0.302
 5809TIP3    H117433   0.405   3.556   0.348
 5809TIP3    H217434   0.254   3.563   0.353
 5810TIP3   OH217435   0.809   0.323   3.052
 5810TIP3    H117436   0.841   0.306   3.141
 5810TIP3    H217437   0.802   0.419   3.047
 5811TIP3   OH217438   0.959   1.261   2.355
 5811TIP3    H117439   1.033   1.209   2.324
 5811TIP3    H217440   0.882   1.217   2.319
 5812TIP3   OH217441   3.008   5.220   2.849
 5812TIP3    H117442   3.079   5.224   2.785
 5812TIP3    H217443   2.930   5.204   2.797
 5813TIP3   OH217444   5.014   5.504   0.228
 5813TIP3    H117445   5.053   5.560   0.162
 5813TIP3    H217446   4.989   5.425   0.181
 5814TIP3   OH217447   2.695   1.136   4.672
 5814TIP3    H117448   2.747   1.095   4.741
 5814TIP3    H217449   2.723   1.092   4.592
 5815TIP3   OH217450   2.317   1.104   2.505
 5815TIP3    H117451   2.306   1.115   2.600
 5815TIP3    H217452   2.405   1.138   2.487
 5816TIP3   OH217453   5.537   2.388   2.958
 5816TIP3    H117454   5.501   2.372   2.871
 5816TIP3    H217455   5.626   2.422   2.941
 5817TIP3   OH217456   4.027   1.333   4.547
 5817TIP3    H117457   4.114   1.297   4.530
 5817TIP3    H217458   3.977   1.315   4.468
 5818TIP3   OH217459   3.928   0.889   2.034
 5818TIP3    H117460   3.835   0.894   2.016
 5818TIP3    H217461   3.937   0.821   2.101
 5819TIP3   OH217462   4.121   3.411   1.034
 5819TIP3    H117463   4.047   3.465   1.063
 5819TIP3    H217464   4.090   3.368   0.954
 5820TIP3   OH217465   6.214   1.173   0.151
 5820TIP3    H117466   6.140   1.112   0.146
 5820TIP3    H217467   6.215   1.201   0.243
 5821TIP3   OH217468   2.677   3.358   1.877
 5821TIP3    H117469   2.676   3.421   1.949
 5821TIP3    H217470   2.670   3.273   1.919
 5822TIP3   OH217471   3.240   0.747   1.873
 5822TIP3    H117472   3.283   0.680   1.820
 5822TIP3    H217473   3.150   0.714   1.883
 5823TIP3   OH217474   0.610   1.419   2.410
 5823TIP3    H117475   0.529   1.382   2.444
 5823TIP3    H217476   0.606   1.512   2.432
 5824TIP3   OH217477   3.441   4.683   0.863
 5824TIP3    H117478   3.429   4.599   0.908
 5824TIP3    H217479   3.359   4.698   0.816
 5825TIP3   OH217480   4.831   0.552   0.935
 5825TIP3    H117481   4.765   0.599   0.884
 5825TIP3    H217482   4.912   0.601   0.921
 5826TIP3   OH217483   5.124   1.559   4.334
 5826TIP3    H117484   5.210   1.592   4.311
 5826TIP3    H217485   5.142   1.485   4.392
 5827TIP3   OH217486   0.844   4.795   2.453
 5827TIP3    H117487   0.918   4.774   2.510
 5827TIP3    H217488   0.840   4.722   2.391
 5828TIP3   OH217489   1.587   3.705   5.080
 5828TIP3    H117490   1.617   3.711   4.990
 5828TIP3    H217491   1.548   3.618   5.088
 5829TIP3   OH217492   3.540   3.616   0.121
 5829TIP3    H117493   3.479   3.648   0.055
 5829TIP3    H217494   3.550   3.690   0.182
 5830TIP3   OH217495   1.736   5.532   3.620
 5830TIP3    H117496   1.716   5.508   3.711
 5830TIP3    H217497   1.667   5.594   3.596
 5831TIP3   OH217498   4.392   4.235   3.240
 5831TIP3    H117499   4.379   4.173   3.312
 5831TIP3    H217500   4.472   4.281   3.262
 5832TIP3   OH217501   2.437   5.638   2.210
 5832TIP3    H117502   2.360   5.692   2.194
 5832TIP3    H217503   2.438   5.577   2.136
 5833TIP3   OH217504   4.215   0.953   0.578
 5833TIP3    H117505   4.130   0.966   0.537
 5833TIP3    H217506   4.216   1.016   0.650
 5834TIP3   OH217507   1.048   5.549   0.193
 5834TIP3    H117508   1.137   5.520   0.212
 5834TIP3    H217509   1.011   5.479   0.139
 5835TIP3   OH217510   4.254   4.213   1.213
 5835TIP3    H117511   4.289   4.155   1.281
 5835TIP3    H217512   4.301   4.295   1.225
 5836TIP3   OH217513   0.224   5.485   3.480
 5836TIP3    H117514   0.264   5.536   3.551
 5836TIP3    H217515   0.191   5.406   3.523
 5837TIP3   OH217516   1.182   2.933   1.058
 5837TIP3    H117517   1.268   2.894   1.038
 5837TIP3    H217518   1.123   2.896   0.993
 5838TIP3   OH217519   4.668   1.200   0.892
 5838TIP3    H117520   4.608   1.272   0.874
 5838TIP3    H217521   4.755   1.240   0.897
 5839TIP3   OH217522   1.590   0.231   2.452
 5839TIP3    H117523   1.554   0.175   2.521
 5839TIP3    H217524   1.680   0.248   2.481
 5840TIP3   OH217525   6.270   5.252   2.943
 5840TIP3    H117526   6.214   5.241   2.866
 5840TIP3    H217527   6.234   5.191   3.008
 5841TIP3   OH217528   4.064   4.750   4.461
 5841TIP3    H117529   3.973   4.775   4.445
 5841TIP3    H217530   4.108   4.832   4.483
 5842TIP3   OH217531   1.045   3.314   5.108
 5842TIP3    H117532   1.132   3.287   5.080
 5842TIP3    H217533   0.989   3.239   5.089
 5843TIP3   OH217534   5.618   4.585   0.390
 5843TIP3    H117535   5.654   4.534   0.318
 5843TIP3    H217536   5.552   4.528   0.430
 5844TIP3   OH217537   5.963   1.322   4.202
 5844TIP3    H117538   5.997   1.287   4.284
 5844TIP3    H217539   5.868   1.310   4.208
 5845TIP3   OH217540   1.021   5.012   2.889
 5845TIP3    H117541   0.972   4.964   2.822
 5845TIP3    H217542   1.110   4.979   2.882
 5846TIP3   OH217543   3.278   2.353   2.942
 5846TIP3    H117544   3.302   2.388   2.856
 5846TIP3    H217545   3.194   2.393   2.962
 5847TIP3   OH217546   0.692   3.342   0.580
 5847TIP3    H117547   0.736   3.258   0.570
 5847TIP3    H217548   0.748   3.404   0.533
 5848TIP3   OH217549   4.244   4.140   0.953
 5848TIP3    H117550   4.228   4.185   1.036
 5848TIP3    H217551   4.298   4.065   0.977
 5849TIP3   OH217552   2.103   4.328   4.132
 5849TIP3    H117553   2.017   4.304   4.167
 5849TIP3    H217554   2.130   4.252   4.080
 5850TIP3   OH217555   5.298   3.991   4.566
 5850TIP3    H117556   5.362   4.055   4.598
 5850TIP3    H217557   5.349   3.932   4.510
 5851TIP3   OH217558   3.050   0.374   4.027
 5851TIP3    H117559   3.112   0.303   4.042
 5851TIP3    H217560   3.068   0.437   4.097
 5852TIP3   OH217561   4.460   5.952   0.727
 5852TIP3    H117562   4.407   5.876   0.700
 5852TIP3    H217563   4.526   5.915   0.785
 5853TIP3   OH217564   2.178   3.026   2.549
 5853TIP3    H117565   2.254   2.969   2.558
 5853TIP3    H217566   2.113   2.989   2.609
 5854TIP3   OH217567   3.400   4.228   0.696
 5854TIP3    H117568   3.444   4.202   0.778
 5854TIP3    H217569   3.367   4.146   0.660
 5855TIP3   OH217570   2.160   2.974   3.583
 5855TIP3    H117571   2.098   2.991   3.512
 5855TIP3    H217572   2.238   3.025   3.559
 5856TIP3   OH217573   1.353   5.353   3.015
 5856TIP3    H117574   1.362   5.347   3.110
 5856TIP3    H217575   1.262   5.329   2.998
 5857TIP3   OH217576   0.391   0.427   2.846
 5857TIP3    H117577   0.466   0.374   2.871
 5857TIP3    H217578   0.429   0.505   2.807
 5858TIP3   OH217579   4.957   3.790   1.383
 5858TIP3    H117580   4.933   3.881   1.370
 5858TIP3    H217581   4.942   3.774   1.476
 5859TIP3   OH217582   4.388   0.913   1.463
 5859TIP3    H117583   4.468   0.966   1.464
 5859TIP3    H217584   4.418   0.825   1.440
 5860TIP3   OH217585   2.907   5.082   0.272
 5860TIP3    H117586   2.895   5.002   0.323
 5860TIP3    H217587   2.920   5.151   0.337
 5861TIP3   OH217588   4.502   3.402   0.738
 5861TIP3    H117589   4.461   3.317   0.753
 5861TIP3    H217590   4.513   3.438   0.826
 5862TIP3   OH217591   4.319   5.527   3.375
 5862TIP3    H117592   4.375   5.531   3.452
 5862TIP3    H217593   4.267   5.448   3.387
 5863TIP3   OH217594   2.586   1.240   2.452
 5863TIP3    H117595   2.641   1.174   2.408
 5863TIP3    H217596   2.533   1.278   2.383
 5864TIP3   OH217597   6.042   5.541   1.235
 5864TIP3    H117598   6.081   5.615   1.189
 5864TIP3    H217599   5.964   5.519   1.185
 5865TIP3   OH217600   1.922   3.184   4.710
 5865TIP3    H117601   1.992   3.144   4.658
 5865TIP3    H217602   1.879   3.110   4.753
 5866TIP3   OH217603   5.565   3.990   0.534
 5866TIP3    H117604   5.602   3.902   0.542
 5866TIP3    H217605   5.477   3.982   0.571
 5867TIP3   OH217606   3.030   3.793   3.968
 5867TIP3    H117607   3.095   3.731   3.933
 5867TIP3    H217608   3.076   3.877   3.971
 5868TIP3   OH217609   1.266   1.334   1.307
 5868TIP3    H117610   1.327   1.332   1.382
 5868TIP3    H217611   1.181   1.355   1.346
 5869TIP3   OH217612   4.717   1.647   1.351
 5869TIP3    H117613   4.783   1.717   1.349
 5869TIP3    H217614   4.665   1.662   1.272
 5870TIP3   OH217615   1.313   1.039   0.297
 5870TIP3    H117616   1.237   0.980   0.299
 5870TIP3    H217617   1.366   1.007   0.224
 5871TIP3   OH217618   2.553   4.937   4.927
 5871TIP3    H117619   2.639   4.923   4.889
 5871TIP3    H217620   2.537   4.860   4.981
 5872TIP3   OH217621   4.033   3.615   3.475
 5872TIP3    H117622   3.961   3.616   3.539
 5872TIP3    H217623   3.990   3.630   3.391
 5873TIP3   OH217624   4.290   1.205   4.131
 5873TIP3    H117625   4.367   1.166   4.172
 5873TIP3    H217626   4.282   1.160   4.047
 5874TIP3   OH217627   6.053   4.387   1.912
 5874TIP3    H117628   6.139   4.346   1.919
 5874TIP3    H217629   5.992   4.313   1.919
 5875TIP3   OH217630   1.151   2.432   4.483
 5875TIP3    H117631   1.071   2.407   4.436
 5875TIP3    H217632   1.179   2.514   4.441
 5876TIP3   OH217633   6.081   5.058   4.960
 5876TIP3    H117634   6.113   4.984   5.012
 5876TIP3    H217635   6.145   5.127   4.975
 5877TIP3   OH217636   6.268   0.025   1.862
 5877TIP3    H117637   6.351  -0.018   1.839
 5877TIP3    H217638   6.221   0.032   1.780
 5878TIP3   OH217639   0.647   0.952   2.235
 5878TIP3    H117640   0.644   1.041   2.270
 5878TIP3    H217641   0.602   0.899   2.301
 5879TIP3   OH217642   0.345   2.782   5.133
 5879TIP3    H117643   0.395   2.804   5.212
 5879TIP3    H217644   0.406   2.799   5.061
 5880TIP3   OH217645   6.223   1.633   4.553
 5880TIP3    H117646   6.305   1.683   4.555
 5880TIP3    H217647   6.184   1.649   4.639
 5881TIP3   OH217648   0.363   2.364   1.357
 5881TIP3    H117649   0.322   2.324   1.280
 5881TIP3    H217650   0.329   2.454   1.358
 5882TIP3   OH217651   3.330   0.144   1.610
 5882TIP3    H117652   3.422   0.123   1.620
 5882TIP3    H217653   3.296   0.149   1.700
 5883TIP3   OH217654   2.762   4.828   2.898
 5883TIP3    H117655   2.803   4.901   2.851
 5883TIP3    H217656   2.701   4.790   2.835
 5884TIP3   OH217657   0.591   2.429   1.215
 5884TIP3    H117658   0.504   2.424   1.255
 5884TIP3    H217659   0.652   2.416   1.288
 5885TIP3   OH217660   0.964   3.403   3.260
 5885TIP3    H117661   1.040   3.460   3.275
 5885TIP3    H217662   0.932   3.428   3.173
 5886TIP3   OH217663   5.604   4.651   3.082
 5886TIP3    H117664   5.619   4.742   3.107
 5886TIP3    H217665   5.591   4.605   3.165
 5887TIP3   OH217666   4.166   4.954   1.020
 5887TIP3    H117667   4.125   4.895   1.084
 5887TIP3    H217668   4.117   5.036   1.029
 5888TIP3   OH217669   2.586   3.796   2.163
 5888TIP3    H117670   2.504   3.838   2.189
 5888TIP3    H217671   2.645   3.868   2.145
 5889TIP3   OH217672   0.911   5.138   0.097
 5889TIP3    H117673   1.001   5.163   0.074
 5889TIP3    H217674   0.909   5.143   0.192
 5890TIP3   OH217675   3.782   0.268   4.456
 5890TIP3    H117676   3.863   0.221   4.478
 5890TIP3    H217677   3.802   0.309   4.371
 5891TIP3   OH217678   1.516   0.599   0.946
 5891TIP3    H117679   1.601   0.556   0.954
 5891TIP3    H217680   1.523   0.679   0.997
 5892TIP3   OH217681   6.115   2.840   0.227
 5892TIP3    H117682   6.142   2.750   0.207
 5892TIP3    H217683   6.103   2.881   0.142
 5893TIP3   OH217684   1.457   5.536   3.756
 5893TIP3    H117685   1.436   5.523   3.849
 5893TIP3    H217686   1.415   5.462   3.711
 5894TIP3   OH217687   2.078   3.923   4.677
 5894TIP3    H117688   2.025   4.003   4.670
 5894TIP3    H217689   2.032   3.870   4.742
 5895TIP3   OH217690   2.738   0.951   2.207
 5895TIP3    H117691   2.643   0.963   2.211
 5895TIP3    H217692   2.774   1.035   2.237
 5896TIP3   OH217693   5.730   0.226   2.100
 5896TIP3    H117694   5.778   0.302   2.133
 5896TIP3    H217695   5.797   0.172   2.059
 5897TIP3   OH217696   5.769   2.751   1.486
 5897TIP3    H117697   5.846   2.809   1.486
 5897TIP3    H217698   5.764   2.719   1.396
 5898TIP3   OH217699   1.141   4.045   1.727
 5898TIP3    H117700   1.223   4.062   1.680
 5898TIP3    H217701   1.088   3.996   1.665
 5899TIP3   OH217702   1.461   3.144   3.580
 5899TIP3    H117703   1.421   3.220   3.536
 5899TIP3    H217704   1.553   3.147   3.552
 5900TIP3   OH217705   1.374   2.019   0.680
 5900TIP3    H117706   1.382   2.018   0.776
 5900TIP3    H217707   1.348   1.929   0.658
 5901TIP3   OH217708   1.243   1.351   1.865
 5901TIP3    H117709   1.149   1.361   1.871
 5901TIP3    H217710   1.256   1.265   1.823
 5902TIP3   OH217711   5.930   2.267   0.957
 5902TIP3    H117712   5.885   2.349   0.939
 5902TIP3    H217713   6.017   2.278   0.919
 5903TIP3   OH217714   2.761   1.821   4.016
 5903TIP3    H117715   2.693   1.754   4.028
 5903TIP3    H217716   2.841   1.771   4.004
 5904TIP3   OH217717   4.048   5.860   2.959
 5904TIP3    H117718   4.027   5.930   3.020
 5904TIP3    H217719   4.135   5.881   2.926
 5905TIP3   OH217720   4.213   1.839   4.621
 5905TIP3    H117721   4.139   1.838   4.683
 5905TIP3    H217722   4.227   1.747   4.600
 5906TIP3   OH217723   4.210   1.084   3.250
 5906TIP3    H117724   4.169   1.170   3.233
 5906TIP3    H217725   4.303   1.098   3.233
 5907TIP3   OH217726   0.299   0.468   2.159
 5907TIP3    H117727   0.363   0.396   2.159
 5907TIP3    H217728   0.313   0.511   2.243
 5908TIP3   OH217729   0.631   3.215   2.705
 5908TIP3    H117730   0.585   3.296   2.726
 5908TIP3    H217731   0.641   3.217   2.610
 5909TIP3   OH217732   2.238   3.674   2.904
 5909TIP3    H117733   2.265   3.600   2.958
 5909TIP3    H217734   2.163   3.643   2.855
 5910TIP3   OH217735   4.520   4.794   0.818
 5910TIP3    H117736   4.534   4.887   0.834
 5910TIP3    H217737   4.604   4.762   0.784
 5911TIP3   OH217738   1.663   0.808   4.627
 5911TIP3    H117739   1.591   0.745   4.635
 5911TIP3    H217740   1.689   0.802   4.535
 5912TIP3   OH217741   0.235   3.749   4.032
 5912TIP3    H117742   0.238   3.708   3.946
 5912TIP3    H217743   0.142   3.762   4.050
 5913TIP3   OH217744   0.066   2.175   3.642
 5913TIP3    H117745   0.011   2.221   3.579
 5913TIP3    H217746   0.107   2.245   3.693
 5914TIP3   OH217747   1.558   0.782   3.580
 5914TIP3    H117748   1.494   0.713   3.567
 5914TIP3    H217749   1.602   0.759   3.662
 5915TIP3   OH217750   3.268   1.464   2.817
 5915TIP3    H117751   3.269   1.544   2.870
 5915TIP3    H217752   3.301   1.396   2.876
 5916TIP3   OH217753   5.986   5.833   0.626
 5916TIP3    H117754   6.065   5.866   0.583
 5916TIP3    H217755   5.931   5.910   0.638
 5917TIP3   OH217756   2.151   0.600   4.473
 5917TIP3    H117757   2.072   0.559   4.510
 5917TIP3    H217758   2.203   0.625   4.550
 5918TIP3   OH217759   3.896   2.319   1.919
 5918TIP3    H117760   3.980   2.276   1.936
 5918TIP3    H217761   3.909   2.409   1.948
 5919TIP3   OH217762   1.971   4.579   5.144
 5919TIP3    H117763   1.960   4.520   5.069
 5919TIP3    H217764   1.885   4.618   5.157
 5920TIP3   OH217765   3.877   2.545   3.941
 5920TIP3    H117766   3.811   2.482   3.912
 5920TIP3    H217767   3.889   2.603   3.865
 5921TIP3   OH217768   4.366   0.747   5.135
 5921TIP3    H117769   4.434   0.700   5.087
 5921TIP3    H217770   4.409   0.826   5.167
 5922TIP3   OH217771   4.367   2.344   4.006
 5922TIP3    H117772   4.387   2.262   4.050
 5922TIP3    H217773   4.273   2.356   4.017
 5923TIP3   OH217774   2.199   2.562   0.612
 5923TIP3    H117775   2.206   2.557   0.708
 5923TIP3    H217776   2.214   2.472   0.583
 5924TIP3   OH217777   1.851   5.393   1.642
 5924TIP3    H117778   1.784   5.446   1.599
 5924TIP3    H217779   1.845   5.417   1.734
 5925TIP3   OH217780   1.698   4.673   0.883
 5925TIP3    H117781   1.605   4.694   0.878
 5925TIP3    H217782   1.701   4.578   0.874
 5926TIP3   OH217783   5.192   0.441   0.543
 5926TIP3    H117784   5.270   0.466   0.493
 5926TIP3    H217785   5.124   0.501   0.513
 5927TIP3   OH217786   2.844   3.925   0.150
 5927TIP3    H117787   2.855   3.950   0.058
 5927TIP3    H217788   2.869   4.002   0.200
 5928TIP3   OH217789   5.524   2.900   3.041
 5928TIP3    H117790   5.616   2.926   3.037
 5928TIP3    H217791   5.523   2.807   3.018
 5929TIP3   OH217792   0.520   4.507   5.160
 5929TIP3    H117793   0.528   4.412   5.146
 5929TIP3    H217794   0.497   4.541   5.073
 5930TIP3   OH217795   0.992   4.943   1.639
 5930TIP3    H117796   1.081   4.963   1.608
 5930TIP3    H217797   0.945   4.916   1.560
 5931TIP3   OH217798   4.201   5.232   2.249
 5931TIP3    H117799   4.273   5.296   2.255
 5931TIP3    H217800   4.165   5.246   2.161
 5932TIP3   OH217801   0.484   4.243   5.095
 5932TIP3    H117802   0.444   4.201   5.019
 5932TIP3    H217803   0.491   4.174   5.160
 5933TIP3   OH217804   2.885   3.188   3.170
 5933TIP3    H117805   2.891   3.251   3.097
 5933TIP3    H217806   2.800   3.146   3.158
 5934TIP3   OH217807   3.116   0.099   3.128
 5934TIP3    H117808   3.118   0.192   3.104
 5934TIP3    H217809   3.118   0.053   3.044
 5935TIP3   OH217810   4.071   5.644   1.979
 5935TIP3    H117811   4.002   5.651   1.912
 5935TIP3    H217812   4.051   5.714   2.041
 5936TIP3   OH217813   6.001   3.576   3.226
 5936TIP3    H117814   6.085   3.569   3.272
 5936TIP3    H217815   5.996   3.495   3.175
 5937TIP3   OH217816   4.062   0.097   0.740
 5937TIP3    H117817   4.072   0.019   0.686
 5937TIP3    H217818   4.109   0.165   0.692
 5938TIP3   OH217819   3.180   5.636   3.722
 5938TIP3    H117820   3.217   5.699   3.662
 5938TIP3    H217821   3.219   5.657   3.807
 5939TIP3   OH217822   3.706   4.839   2.567
 5939TIP3    H117823   3.624   4.829   2.519
 5939TIP3    H217824   3.686   4.805   2.654
 5940TIP3   OH217825   3.005   2.102   5.087
 5940TIP3    H117826   2.931   2.142   5.041
 5940TIP3    H217827   3.003   2.141   5.174
 5941TIP3   OH217828   1.607   3.008   0.982
 5941TIP3    H117829   1.557   2.975   0.908
 5941TIP3    H217830   1.600   3.103   0.975
 5942TIP3   OH217831   2.635   1.666   4.251
 5942TIP3    H117832   2.602   1.751   4.282
 5942TIP3    H217833   2.577   1.602   4.291
 5943TIP3   OH217834   4.712   2.112   2.121
 5943TIP3    H117835   4.688   2.038   2.065
 5943TIP3    H217836   4.777   2.160   2.070
 5944TIP3   OH217837   0.389   1.247   1.042
 5944TIP3    H117838   0.445   1.224   0.967
 5944TIP3    H217839   0.379   1.165   1.090
 5945TIP3   OH217840   2.580   2.861   0.117
 5945TIP3    H117841   2.632   2.800   0.170
 5945TIP3    H217842   2.621   2.946   0.132
 5946TIP3   OH217843   3.518   2.853   4.502
 5946TIP3    H117844   3.459   2.923   4.529
 5946TIP3    H217845   3.577   2.841   4.576
 5947TIP3   OH217846   1.996   5.684   4.351
 5947TIP3    H117847   1.909   5.716   4.374
 5947TIP3    H217848   1.991   5.664   4.258
 5948TIP3   OH217849   4.573   4.482   2.979
 5948TIP3    H117850   4.534   4.442   2.901
 5948TIP3    H217851   4.512   4.460   3.049
 5949TIP3   OH217852   6.202   1.696   4.827
 5949TIP3    H117853   6.290   1.669   4.853
 5949TIP3    H217854   6.193   1.786   4.860
 5950TIP3   OH217855   5.550   5.651   0.757
 5950TIP3    H117856   5.504   5.569   0.739
 5950TIP3    H217857   5.480   5.716   0.767
 5951TIP3   OH217858   5.155   4.594   2.792
 5951TIP3    H117859   5.249   4.587   2.810
 5951TIP3    H217860   5.118   4.512   2.825
 5952TIP3   OH217861   0.730   4.351   1.723
 5952TIP3    H117862   0.662   4.285   1.718
 5952TIP3    H217863   0.690   4.423   1.772
 5953TIP3   OH217864   5.517   0.610   4.152
 5953TIP3    H117865   5.437   0.647   4.113
 5953TIP3    H217866   5.510   0.630   4.245
 5954TIP3   OH217867   0.039   2.170   3.263
 5954TIP3    H117868   0.069   2.254   3.296
 5954TIP3    H217869  -0.053   2.165   3.289
 5955TIP3   OH217870   2.516   2.694   2.508
 5955TIP3    H117871   2.428   2.665   2.531
 5955TIP3    H217872   2.522   2.783   2.541
 5956TIP3   OH217873   1.712   0.686   3.855
 5956TIP3    H117874   1.619   0.684   3.878
 5956TIP3    H217875   1.757   0.699   3.938
 5957TIP3   OH217876   2.248   0.143   3.824
 5957TIP3    H117877   2.246   0.144   3.920
 5957TIP3    H217878   2.177   0.201   3.797
 5958TIP3   OH217879   4.127   2.316   0.462
 5958TIP3    H117880   4.160   2.326   0.372
 5958TIP3    H217881   4.070   2.239   0.458
 5959TIP3   OH217882   1.960   2.730   0.530
 5959TIP3    H117883   2.034   2.685   0.570
 5959TIP3    H217884   1.888   2.666   0.532
 5960TIP3   OH217885   4.157   1.260   1.816
 5960TIP3    H117886   4.119   1.180   1.852
 5960TIP3    H217887   4.178   1.238   1.726
 5961TIP3   OH217888   2.631   3.161   3.634
 5961TIP3    H117889   2.647   3.255   3.642
 5961TIP3    H217890   2.717   3.122   3.621
 5962TIP3   OH217891   2.222   3.299   2.539
 5962TIP3    H117892   2.243   3.336   2.624
 5962TIP3    H217893   2.213   3.205   2.554
 5963TIP3   OH217894   3.158   2.639   3.174
 5963TIP3    H117895   3.125   2.555   3.141
 5963TIP3    H217896   3.156   2.629   3.269
 5964TIP3   OH217897   4.850   1.063   0.093
 5964TIP3    H117898   4.756   1.044   0.102
 5964TIP3    H217899   4.890   0.978   0.076
 5965TIP3   OH217900   5.816   2.975   3.047
 5965TIP3    H117901   5.864   2.949   3.126
 5965TIP3    H217902   5.884   2.979   2.979
 5966TIP3   OH217903   2.283   3.393   3.721
 5966TIP3    H117904   2.318   3.384   3.810
 5966TIP3    H217905   2.247   3.481   3.718
 5967TIP3   OH217906   3.037   2.219   2.074
 5967TIP3    H117907   2.964   2.240   2.132
 5967TIP3    H217908   3.115   2.245   2.122
 5968TIP3   OH217909   4.061   0.926   4.108
 5968TIP3    H117910   4.119   0.948   4.035
 5968TIP3    H217911   4.000   0.862   4.071
 5969TIP3   OH217912   3.680   5.581   5.084
 5969TIP3    H117913   3.631   5.521   5.028
 5969TIP3    H217914   3.770   5.574   5.054
 5970TIP3   OH217915   5.392   0.191   1.676
 5970TIP3    H117916   5.303   0.157   1.672
 5970TIP3    H217917   5.427   0.159   1.760
 5971TIP3   OH217918   3.610   0.065   1.592
 5971TIP3    H117919   3.631   0.158   1.605
 5971TIP3    H217920   3.685   0.030   1.544
 5972TIP3   OH217921   3.089   5.759   0.641
 5972TIP3    H117922   3.181   5.743   0.621
 5972TIP3    H217923   3.044   5.753   0.557
 5973TIP3   OH217924   1.725   0.729   1.447
 5973TIP3    H117925   1.709   0.648   1.398
 5973TIP3    H217926   1.644   0.745   1.495
 5974TIP3   OH217927   3.268   1.631   1.940
 5974TIP3    H117928   3.234   1.597   2.022
 5974TIP3    H217929   3.198   1.687   1.905
 5975TIP3   OH217930   1.160   3.981   2.001
 5975TIP3    H117931   1.133   4.009   1.913
 5975TIP3    H217932   1.222   4.047   2.029
 5976TIP3   OH217933   4.228   0.378   1.852
 5976TIP3    H117934   4.209   0.357   1.760
 5976TIP3    H217935   4.285   0.454   1.848
 5977TIP3   OH217936   1.465   1.143   1.778
 5977TIP3    H117937   1.510   1.096   1.707
 5977TIP3    H217938   1.388   1.182   1.736
 5978TIP3   OH217939   4.385   3.342   0.497
 5978TIP3    H117940   4.429   3.351   0.412
 5978TIP3    H217941   4.457   3.336   0.560
 5979TIP3   OH217942   3.528   2.519   0.542
 5979TIP3    H117943   3.521   2.612   0.564
 5979TIP3    H217944   3.451   2.480   0.581
 5980TIP3   OH217945   1.632   4.426   5.114
 5980TIP3    H117946   1.605   4.343   5.074
 5980TIP3    H217947   1.673   4.475   5.043
 5981TIP3   OH217948   3.804   4.492   0.806
 5981TIP3    H117949   3.895   4.493   0.835
 5981TIP3    H217950   3.796   4.413   0.753
 5982TIP3   OH217951   0.450   5.021   3.759
 5982TIP3    H117952   0.373   4.976   3.721
 5982TIP3    H217953   0.507   5.036   3.684
 5983TIP3   OH217954   5.111   4.453   0.144
 5983TIP3    H117955   5.043   4.500   0.096
 5983TIP3    H217956   5.188   4.460   0.089
 5984TIP3   OH217957   4.872   3.683   1.129
 5984TIP3    H117958   4.916   3.734   1.197
 5984TIP3    H217959   4.865   3.595   1.164
 5985TIP3   OH217960   4.506   0.269   3.094
 5985TIP3    H117961   4.598   0.278   3.118
 5985TIP3    H217962   4.481   0.356   3.061
 5986TIP3   OH217963   3.434   5.798   0.242
 5986TIP3    H117964   3.484   5.865   0.194
 5986TIP3    H217965   3.453   5.717   0.195
 5987TIP3   OH217966   0.568   0.075   4.236
 5987TIP3    H117967   0.512   0.022   4.293
 5987TIP3    H217968   0.506   0.121   4.179
 5988TIP3   OH217969   3.155   0.434   4.797
 5988TIP3    H117970   3.062   0.448   4.780
 5988TIP3    H217971   3.186   0.519   4.828
 5989TIP3   OH217972   4.760   2.511   0.497
 5989TIP3    H117973   4.707   2.515   0.417
 5989TIP3    H217974   4.697   2.502   0.568
 5990TIP3   OH217975   3.149   0.457   2.478
 5990TIP3    H117976   3.205   0.480   2.552
 5990TIP3    H217977   3.185   0.507   2.405
 5991TIP3   OH217978   4.835   3.403   2.507
 5991TIP3    H117979   4.853   3.336   2.442
 5991TIP3    H217980   4.905   3.395   2.571
 5992TIP3   OH217981   4.598   1.119   3.789
 5992TIP3    H117982   4.653   1.041   3.799
 5992TIP3    H217983   4.636   1.166   3.715
 5993TIP3   OH217984   0.430   3.981   4.014
 5993TIP3    H117985   0.485   3.969   4.092
 5993TIP3    H217986   0.356   3.921   4.027
 5994TIP3   OH217987   0.376   4.785   1.506
 5994TIP3    H117988   0.465   4.770   1.538
 5994TIP3    H217989   0.354   4.872   1.539
 5995TIP3   OH217990   4.648   3.537   2.344
 5995TIP3    H117991   4.569   3.483   2.349
 5995TIP3    H217992   4.710   3.495   2.404
 5996TIP3   OH217993   1.932   4.950   0.477
 5996TIP3    H117994   1.988   4.921   0.548
 5996TIP3    H217995   1.919   5.044   0.494
 5997TIP3   OH217996   5.051   5.372   4.459
 5997TIP3    H117997   4.963   5.335   4.461
 5997TIP3    H217998   5.039   5.464   4.482
 5998TIP3   OH217999   3.514   2.737   1.270
 5998TIP3    H118000   3.542   2.649   1.245
 5998TIP3    H218001   3.463   2.724   1.350
 5999TIP3   OH218002   5.396   2.210   3.431
 5999TIP3    H118003   5.414   2.264   3.354
 5999TIP3    H218004   5.418   2.121   3.404
 6000TIP3   OH218005   0.324   5.773   0.204
 6000TIP3    H118006   0.405   5.766   0.254
 6000TIP3    H218007   0.298   5.865   0.214
 6001TIP3   OH218008   2.323   3.446   0.775
 6001TIP3    H118009   2.257   3.377   0.777
 6001TIP3    H218010   2.372   3.434   0.856
 6002TIP3   OH218011   4.825   2.972   3.346
 6002TIP3    H118012   4.734   2.998   3.360
 6002TIP3    H218013   4.846   2.916   3.421
 6003TIP3   OH218014   2.327   5.857   5.037
 6003TIP3    H118015   2.286   5.772   5.018
 6003TIP3    H218016   2.255   5.910   5.072
 6004TIP3   OH218017   0.672   3.457   1.221
 6004TIP3    H118018   0.659   3.444   1.315
 6004TIP3    H218019   0.622   3.386   1.180
 6005TIP3   OH218020   5.114   2.054   5.002
 6005TIP3    H118021   5.162   2.068   4.920
 6005TIP3    H218022   5.168   2.096   5.069
 6006TIP3   OH218023   5.424   5.323   1.265
 6006TIP3    H118024   5.454   5.232   1.263
 6006TIP3    H218025   5.493   5.372   1.218
 6007TIP3   OH218026   1.696   4.656   2.899
 6007TIP3    H118027   1.663   4.689   2.816
 6007TIP3    H218028   1.661   4.567   2.905
 6008TIP3   OH218029   3.663   2.336   3.308
 6008TIP3    H118030   3.609   2.410   3.283
 6008TIP3    H218031   3.747   2.375   3.334
 6009TIP3   OH218032   2.314   0.842   2.928
 6009TIP3    H118033   2.251   0.777   2.960
 6009TIP3    H218034   2.400   0.806   2.951
 6010TIP3   OH218035   0.838   4.906   3.659
 6010TIP3    H118036   0.755   4.874   3.625
 6010TIP3    H218037   0.871   4.834   3.713
 6011TIP3   OH218038   5.741   0.140   4.208
 6011TIP3    H118039   5.818   0.087   4.189
 6011TIP3    H218040   5.757   0.223   4.162
 6012TIP3   OH218041   5.515   3.353   1.680
 6012TIP3    H118042   5.577   3.422   1.655
 6012TIP3    H218043   5.457   3.395   1.743
 6013TIP3   OH218044   1.918   2.007   4.217
 6013TIP3    H118045   1.935   1.929   4.164
 6013TIP3    H218046   1.945   1.982   4.306
 6014TIP3   OH218047   1.075   2.728   2.701
 6014TIP3    H118048   1.095   2.792   2.633
 6014TIP3    H218049   1.116   2.647   2.669
 6015TIP3   OH218050   1.829   3.376   2.626
 6015TIP3    H118051   1.735   3.366   2.609
 6015TIP3    H218052   1.854   3.294   2.668
 6016TIP3   OH218053   4.853   2.308   2.876
 6016TIP3    H118054   4.904   2.365   2.818
 6016TIP3    H218055   4.854   2.352   2.960
 6017TIP3   OH218056   0.188   5.257   3.617
 6017TIP3    H118057   0.209   5.273   3.709
 6017TIP3    H218058   0.102   5.216   3.619
 6018TIP3   OH218059   0.523   3.452   0.415
 6018TIP3    H118060   0.589   3.429   0.480
 6018TIP3    H218061   0.491   3.368   0.382
 6019TIP3   OH218062   3.768   2.262   3.661
 6019TIP3    H118063   3.698   2.328   3.654
 6019TIP3    H218064   3.777   2.247   3.754
 6020TIP3   OH218065   4.915   4.373   2.596
 6020TIP3    H118066   4.884   4.380   2.505
 6020TIP3    H218067   4.857   4.307   2.635
 6021TIP3   OH218068   1.015   3.621   2.304
 6021TIP3    H118069   1.083   3.674   2.263
 6021TIP3    H218070   1.063   3.548   2.344
 6022TIP3   OH218071   1.882   4.064   2.366
 6022TIP3    H118072   1.796   4.048   2.327
 6022TIP3    H218073   1.927   3.980   2.361
 6023TIP3   OH218074   5.444   0.096   5.076
 6023TIP3    H118075   5.352   0.118   5.062
 6023TIP3    H218076   5.464   0.030   5.009
 6024TIP3   OH218077   5.488   3.150   5.087
 6024TIP3    H118078   5.570   3.184   5.123
 6024TIP3    H218079   5.509   3.061   5.059
 6025TIP3   OH218080   3.230   3.262   4.654
 6025TIP3    H118081   3.299   3.322   4.682
 6025TIP3    H218082   3.264   3.175   4.673
 6026TIP3   OH218083   5.572   0.232   3.873
 6026TIP3    H118084   5.551   0.271   3.958
 6026TIP3    H218085   5.548   0.140   3.883
 6027TIP3   OH218086   1.929   2.614   2.943
 6027TIP3    H118087   1.864   2.676   2.977
 6027TIP3    H218088   1.929   2.542   3.006
 6028TIP3   OH218089   3.316   2.674   2.434
 6028TIP3    H118090   3.410   2.692   2.435
 6028TIP3    H218091   3.310   2.578   2.432
 6029TIP3   OH218092   4.942   1.624   3.588
 6029TIP3    H118093   4.942   1.573   3.507
 6029TIP3    H218094   5.033   1.649   3.601
 6030TIP3   OH218095   4.589   3.435   0.993
 6030TIP3    H118096   4.529   3.448   1.066
 6030TIP3    H218097   4.657   3.502   1.005
 6031TIP3   OH218098   4.811   4.052   1.348
 6031TIP3    H118099   4.732   4.102   1.368
 6031TIP3    H218100   4.862   4.110   1.290
 6032TIP3   OH218101   5.534   5.208   4.497
 6032TIP3    H118102   5.445   5.214   4.531
 6032TIP3    H218103   5.529   5.248   4.410
 6033TIP3   OH218104   5.555   4.887   2.322
 6033TIP3    H118105   5.525   4.969   2.283
 6033TIP3    H218106   5.584   4.834   2.248
 6034TIP3   OH218107   5.843   4.953   2.924
 6034TIP3    H118108   5.904   4.909   2.864
 6034TIP3    H218109   5.774   4.987   2.867
 6035TIP3   OH218110   2.364   0.412   1.026
 6035TIP3    H118111   2.441   0.466   1.045
 6035TIP3    H218112   2.362   0.407   0.930
 6036TIP3   OH218113   5.762   5.941   4.874
 6036TIP3    H118114   5.816   5.985   4.940
 6036TIP3    H218115   5.672   5.956   4.903
 6037TIP3   OH218116   1.118   5.338   1.802
 6037TIP3    H118117   1.119   5.350   1.707
 6037TIP3    H218118   1.117   5.243   1.815
 6038TIP3   OH218119   5.878   2.578   4.948
 6038TIP3    H118120   5.868   2.655   4.892
 6038TIP3    H218121   5.971   2.555   4.940
 6039TIP3   OH218122   2.449   5.524   3.085
 6039TIP3    H118123   2.403   5.570   3.155
 6039TIP3    H218124   2.490   5.593   3.034
 6040TIP3   OH218125   5.186   4.630   4.442
 6040TIP3    H118126   5.173   4.591   4.356
 6040TIP3    H218127   5.145   4.568   4.503
 6041TIP3   OH218128   2.740   3.908   4.550
 6041TIP3    H118129   2.793   3.903   4.470
 6041TIP3    H218130   2.651   3.921   4.518
 6042TIP3   OH218131   3.682   5.364   2.257
 6042TIP3    H118132   3.767   5.325   2.275
 6042TIP3    H218133   3.626   5.291   2.230
 6043TIP3   OH218134   4.304   1.613   2.036
 6043TIP3    H118135   4.341   1.599   2.123
 6043TIP3    H218136   4.222   1.562   2.037
 6044TIP3   OH218137   0.968   1.730   1.858
 6044TIP3    H118138   1.000   1.820   1.860
 6044TIP3    H218139   0.889   1.732   1.912
 6045TIP3   OH218140   0.002   5.572   5.094
 6045TIP3    H118141  -0.072   5.520   5.125
 6045TIP3    H218142   0.018   5.635   5.164
 6046TIP3   OH218143   6.274   4.136   4.750
 6046TIP3    H118144   6.181   4.138   4.727
 6046TIP3    H218145   6.275   4.124   4.845
 6047TIP3   OH218146   2.913   3.006   4.738
 6047TIP3    H118147   2.834   3.043   4.775
 6047TIP3    H218148   2.887   2.975   4.651
 6048TIP3   OH218149   6.198   0.721   2.604
 6048TIP3    H118150   6.114   0.678   2.620
 6048TIP3    H218151   6.252   0.699   2.680
 6049TIP3   OH218152   0.068   2.186   2.090
 6049TIP3    H118153   0.092   2.124   2.021
 6049TIP3    H218154   0.150   2.228   2.114
 6050TIP3   OH218155   4.804   5.209   3.413
 6050TIP3    H118156   4.824   5.116   3.405
 6050TIP3    H218157   4.709   5.213   3.420
 6051TIP3   OH218158   1.922   0.425   2.762
 6051TIP3    H118159   2.017   0.420   2.763
 6051TIP3    H218160   1.897   0.429   2.854
 6052TIP3   OH218161   3.794   0.637   3.043
 6052TIP3    H118162   3.717   0.617   3.095
 6052TIP3    H218163   3.843   0.701   3.095
 6053TIP3   OH218164   0.650   5.225   2.211
 6053TIP3    H118165   0.718   5.159   2.225
 6053TIP3    H218166   0.601   5.226   2.294
 6054TIP3   OH218167   5.442   1.355   3.678
 6054TIP3    H118168   5.487   1.344   3.761
 6054TIP3    H218169   5.509   1.339   3.612
 6055TIP3   OH218170   6.294   4.889   3.570
 6055TIP3    H118171   6.254   4.907   3.655
 6055TIP3    H218172   6.289   4.972   3.523
 6056TIP3   OH218173   6.349   2.232   0.683
 6056TIP3    H118174   6.350   2.211   0.776
 6056TIP3    H218175   6.257   2.244   0.662
 6057TIP3   OH218176   5.029   4.151   2.212
 6057TIP3    H118177   5.085   4.074   2.201
 6057TIP3    H218178   5.023   4.162   2.307
 6058TIP3   OH218179   0.423   2.035   1.508
 6058TIP3    H118180   0.491   2.092   1.473
 6058TIP3    H218181   0.405   1.973   1.438
 6059TIP3   OH218182   0.039   3.137   4.041
 6059TIP3    H118183   0.016   3.095   3.958
 6059TIP3    H218184   0.069   3.224   4.016
 6060TIP3   OH218185   3.112   0.841   4.653
 6060TIP3    H118186   3.171   0.910   4.624
 6060TIP3    H218187   3.145   0.815   4.739
 6061TIP3   OH218188   0.183   0.436   0.138
 6061TIP3    H118189   0.264   0.444   0.087
 6061TIP3    H218190   0.166   0.525   0.168
 6062TIP3   OH218191   0.477   5.858   2.931
 6062TIP3    H118192   0.524   5.924   2.983
 6062TIP3    H218193   0.396   5.843   2.979
 6063TIP3   OH218194   0.495   1.184   0.788
 6063TIP3    H118195   0.564   1.245   0.761
 6063TIP3    H218196   0.494   1.117   0.719
 6064TIP3   OH218197   4.408   3.047   0.150
 6064TIP3    H118198   4.325   3.078   0.185
 6064TIP3    H218199   4.469   3.052   0.223
 6065TIP3   OH218200   4.661   3.192   4.101
 6065TIP3    H118201   4.636   3.162   4.014
 6065TIP3    H218202   4.722   3.264   4.085
 6066TIP3   OH218203   1.355   1.097   1.206
 6066TIP3    H118204   1.295   1.030   1.237
 6066TIP3    H218205   1.310   1.180   1.225
 6067TIP3   OH218206   3.583   3.209   1.979
 6067TIP3    H118207   3.609   3.117   1.985
 6067TIP3    H218208   3.576   3.225   1.885
 6068TIP3   OH218209   2.871   5.301   3.722
 6068TIP3    H118210   2.850   5.224   3.669
 6068TIP3    H218211   2.825   5.286   3.804
 6069TIP3   OH218212   2.088   4.120   0.961
 6069TIP3    H118213   2.161   4.117   1.022
 6069TIP3    H218214   2.069   4.213   0.950
 6070TIP3   OH218215   4.979   5.521   1.155
 6070TIP3    H118216   5.060   5.511   1.205
 6070TIP3    H218217   4.918   5.562   1.217
 6071TIP3   OH218218   2.066   1.440   2.304
 6071TIP3    H118219   2.134   1.502   2.278
 6071TIP3    H218220   1.984   1.487   2.290
 6072TIP3   OH218221   2.663   4.163   0.589
 6072TIP3    H118222   2.608   4.197   0.519
 6072TIP3    H218223   2.621   4.081   0.616
 6073TIP3   OH218224   2.532   5.700   2.883
 6073TIP3    H118225   2.522   5.775   2.825
 6073TIP3    H218226   2.561   5.629   2.826
 6074TIP3   OH218227   1.510   5.659   4.388
 6074TIP3    H118228   1.447   5.602   4.344
 6074TIP3    H218229   1.468   5.684   4.470
 6075TIP3   OH218230   3.722   2.638   3.461
 6075TIP3    H118231   3.676   2.589   3.530
 6075TIP3    H218232   3.792   2.580   3.433
 6076TIP3   OH218233   4.421   3.099   1.497
 6076TIP3    H118234   4.432   3.007   1.473
 6076TIP3    H218235   4.337   3.124   1.458
 6077TIP3   OH218236   1.214   0.830   4.795
 6077TIP3    H118237   1.269   0.792   4.726
 6077TIP3    H218238   1.248   0.918   4.808
 6078TIP3   OH218239   6.143   5.062   2.256
 6078TIP3    H118240   6.146   4.993   2.189
 6078TIP3    H218241   6.050   5.083   2.265
 6079TIP3   OH218242   2.300   4.768   3.330
 6079TIP3    H118243   2.241   4.737   3.262
 6079TIP3    H218244   2.283   4.862   3.337
 6080TIP3   OH218245   2.035   2.341   1.069
 6080TIP3    H118246   1.968   2.284   1.107
 6080TIP3    H218247   2.092   2.281   1.020
 6081TIP3   OH218248   2.478   4.603   3.131
 6081TIP3    H118249   2.440   4.689   3.147
 6081TIP3    H218250   2.410   4.542   3.159
 6082TIP3   OH218251   2.322   0.722   0.101
 6082TIP3    H118252   2.302   0.778   0.027
 6082TIP3    H218253   2.238   0.708   0.145
 6083TIP3   OH218254   5.574   5.907   1.665
 6083TIP3    H118255   5.670   5.907   1.666
 6083TIP3    H218256   5.551   5.850   1.591
 6084TIP3   OH218257   1.918   5.234   4.411
 6084TIP3    H118258   1.845   5.282   4.372
 6084TIP3    H218259   1.892   5.142   4.407
 6085TIP3   OH218260   5.499   1.715   1.209
 6085TIP3    H118261   5.479   1.753   1.124
 6085TIP3    H218262   5.594   1.718   1.215
 6086TIP3   OH218263   5.631   4.118   5.018
 6086TIP3    H118264   5.568   4.115   5.090
 6086TIP3    H218265   5.585   4.079   4.944
 6087TIP3   OH218266   3.314   4.353   3.515
 6087TIP3    H118267   3.329   4.448   3.514
 6087TIP3    H218268   3.227   4.342   3.476
 6088TIP3   OH218269   5.132   2.203   1.854
 6088TIP3    H118270   5.199   2.201   1.921
 6088TIP3    H218271   5.175   2.170   1.775
 6089TIP3   OH218272   4.446   5.320   3.788
 6089TIP3    H118273   4.394   5.243   3.814
 6089TIP3    H218274   4.445   5.376   3.866
 6090TIP3   OH218275   0.789   1.693   0.466
 6090TIP3    H118276   0.777   1.768   0.524
 6090TIP3    H218277   0.875   1.658   0.489
 6091TIP3   OH218278   0.985   2.663   1.322
 6091TIP3    H118279   1.072   2.694   1.298
 6091TIP3    H218280   1.001   2.578   1.364
 6092TIP3   OH218281   3.013   3.597   1.471
 6092TIP3    H118282   3.042   3.686   1.452
 6092TIP3    H218283   3.006   3.593   1.566
 6093TIP3   OH218284   6.182   5.137   0.168
 6093TIP3    H118285   6.163   5.102   0.254
 6093TIP3    H218286   6.269   5.176   0.177
 6094TIP3   OH218287   4.363   1.778   3.789
 6094TIP3    H118288   4.359   1.686   3.765
 6094TIP3    H218289   4.275   1.811   3.772
 6095TIP3   OH218290   5.005   4.477   4.615
 6095TIP3    H118291   4.941   4.419   4.656
 6095TIP3    H218292   5.040   4.529   4.687
 6096TIP3   OH218293   3.540   3.834   0.297
 6096TIP3    H118294   3.535   3.862   0.389
 6096TIP3    H218295   3.600   3.897   0.256
 6097TIP3   OH218296   3.045   4.384   4.363
 6097TIP3    H118297   3.049   4.332   4.282
 6097TIP3    H218298   3.026   4.320   4.431
 6098TIP3   OH218299   2.348   4.059   1.022
 6098TIP3    H118300   2.425   4.117   1.023
 6098TIP3    H218301   2.358   4.006   1.102
 6099TIP3   OH218302   6.037   1.029   1.528
 6099TIP3    H118303   5.965   1.090   1.511
 6099TIP3    H218304   6.077   1.063   1.608
 6100TIP3   OH218305   5.244   0.420   3.383
 6100TIP3    H118306   5.224   0.389   3.472
 6100TIP3    H218307   5.203   0.506   3.378
 6101TIP3   OH218308   3.714   1.336   5.007
 6101TIP3    H118309   3.707   1.258   5.062
 6101TIP3    H218310   3.801   1.372   5.027
 6102TIP3   OH218311   1.855   5.407   0.784
 6102TIP3    H118312   1.831   5.493   0.821
 6102TIP3    H218313   1.825   5.344   0.850
 6103TIP3   OH218314   0.664   2.702   5.168
 6103TIP3    H118315   0.635   2.775   5.113
 6103TIP3    H218316   0.742   2.736   5.212
 6104TIP3   OH218317   6.004   3.188   3.311
 6104TIP3    H118318   5.977   3.242   3.238
 6104TIP3    H218319   6.023   3.102   3.272
 6105TIP3   OH218320   1.659   3.692   3.706
 6105TIP3    H118321   1.695   3.609   3.737
 6105TIP3    H218322   1.632   3.675   3.616
 6106TIP3   OH218323   5.648   4.517   1.685
 6106TIP3    H118324   5.723   4.458   1.685
 6106TIP3    H218325   5.682   4.598   1.723
 6107TIP3   OH218326   4.315   5.596   2.938
 6107TIP3    H118327   4.290   5.505   2.956
 6107TIP3    H218328   4.321   5.602   2.843
 6108TIP3   OH218329   3.206   2.245   4.945
 6108TIP3    H118330   3.276   2.301   4.978
 6108TIP3    H218331   3.178   2.195   5.022
 6109TIP3   OH218332   2.348   0.269   1.538
 6109TIP3    H118333   2.322   0.349   1.584
 6109TIP3    H218334   2.443   0.263   1.552
 6110TIP3   OH218335   0.520   5.516   0.658
 6110TIP3    H118336   0.599   5.519   0.712
 6110TIP3    H218337   0.550   5.543   0.571
 6111TIP3   OH218338   3.107   2.137   4.703
 6111TIP3    H118339   3.118   2.184   4.785
 6111TIP3    H218340   3.065   2.054   4.729
 6112TIP3   OH218341   0.183   2.995   5.150
 6112TIP3    H118342   0.224   3.075   5.184
 6112TIP3    H218343   0.234   2.924   5.189
 6113TIP3   OH218344   4.306   3.640   2.368
 6113TIP3    H118345   4.367   3.626   2.440
 6113TIP3    H218346   4.220   3.619   2.405
 6114TIP3   OH218347   0.641   0.668   2.435
 6114TIP3    H118348   0.640   0.757   2.468
 6114TIP3    H218349   0.685   0.617   2.503
 6115TIP3   OH218350   3.135   2.328   3.248
 6115TIP3    H118351   3.210   2.276   3.221
 6115TIP3    H218352   3.059   2.281   3.211
 6116TIP3   OH218353   5.084   2.346   2.186
 6116TIP3    H118354   5.062   2.366   2.095
 6116TIP3    H218355   5.129   2.261   2.182
 6117TIP3   OH218356   2.622   2.289   1.891
 6117TIP3    H118357   2.585   2.261   1.974
 6117TIP3    H218358   2.705   2.244   1.884
 6118TIP3   OH218359   3.844   0.815   3.635
 6118TIP3    H118360   3.807   0.873   3.568
 6118TIP3    H218361   3.800   0.731   3.621
 6119TIP3   OH218362   1.186   0.720   0.618
 6119TIP3    H118363   1.215   0.806   0.648
 6119TIP3    H218364   1.266   0.675   0.593
 6120TIP3   OH218365   2.855   2.724   3.300
 6120TIP3    H118366   2.936   2.678   3.320
 6120TIP3    H218367   2.842   2.783   3.374
 6121TIP3   OH218368   2.532   1.676   1.842
 6121TIP3    H118369   2.575   1.662   1.926
 6121TIP3    H218370   2.487   1.759   1.852
 6122TIP3   OH218371   5.152   3.212   0.417
 6122TIP3    H118372   5.103   3.167   0.485
 6122TIP3    H218373   5.115   3.178   0.335
 6123TIP3   OH218374   0.900   0.987   0.046
 6123TIP3    H118375   0.960   0.918   0.074
 6123TIP3    H218376   0.914   1.058   0.109
 6124TIP3   OH218377   5.165   4.393   3.329
 6124TIP3    H118378   5.182   4.345   3.249
 6124TIP3    H218379   5.243   4.448   3.341
 6125TIP3   OH218380   3.961   3.417   2.685
 6125TIP3    H118381   4.019   3.392   2.757
 6125TIP3    H218382   3.877   3.378   2.707
 6126TIP3   OH218383   4.173   0.137   3.211
 6126TIP3    H118384   4.154   0.043   3.220
 6126TIP3    H218385   4.125   0.178   3.283
 6127TIP3   OH218386   1.512   4.373   3.748
 6127TIP3    H118387   1.485   4.389   3.658
 6127TIP3    H218388   1.467   4.292   3.773
 6128TIP3   OH218389   2.242   4.006   2.942
 6128TIP3    H118390   2.249   3.952   2.862
 6128TIP3    H218391   2.239   3.942   3.013
 6129TIP3   OH218392   2.740   4.395   1.755
 6129TIP3    H118393   2.828   4.421   1.784
 6129TIP3    H218394   2.752   4.309   1.716
 6130TIP3   OH218395   1.482   0.006   0.103
 6130TIP3    H118396   1.470   0.097   0.130
 6130TIP3    H218397   1.396  -0.021   0.070
 6131TIP3   OH218398   5.200   2.869   3.948
 6131TIP3    H118399   5.143   2.917   4.008
 6131TIP3    H218400   5.240   2.936   3.892
 6132TIP3   OH218401   3.687   0.449   1.143
 6132TIP3    H118402   3.591   0.453   1.140
 6132TIP3    H218403   3.716   0.521   1.088
 6133TIP3   OH218404   2.645   3.605   2.805
 6133TIP3    H118405   2.687   3.521   2.824
 6133TIP3    H218406   2.718   3.667   2.795
 6134TIP3   OH218407   3.842   5.559   3.712
 6134TIP3    H118408   3.894   5.486   3.678
 6134TIP3    H218409   3.850   5.628   3.646
 6135TIP3   OH218410   3.979   2.647   2.499
 6135TIP3    H118411   4.034   2.569   2.494
 6135TIP3    H218412   4.032   2.716   2.460
 6136TIP3   OH218413   4.433   5.239   2.589
 6136TIP3    H118414   4.396   5.167   2.640
 6136TIP3    H218415   4.457   5.198   2.505
 6137TIP3   OH218416   6.218   1.604   0.459
 6137TIP3    H118417   6.172   1.520   0.461
 6137TIP3    H218418   6.162   1.664   0.509
 6138TIP3   OH218419   4.052   4.686   2.671
 6138TIP3    H118420   3.999   4.608   2.657
 6138TIP3    H218421   4.005   4.737   2.736
 6139TIP3   OH218422   3.431   4.920   4.956
 6139TIP3    H118423   3.419   4.911   4.861
 6139TIP3    H218424   3.526   4.920   4.968
 6140TIP3   OH218425   6.304   1.957   2.774
 6140TIP3    H118426   6.324   2.013   2.849
 6140TIP3    H218427   6.389   1.946   2.730
 6141TIP3   OH218428   0.732   0.323   4.197
 6141TIP3    H118429   0.644   0.286   4.186
 6141TIP3    H218430   0.760   0.292   4.283
 6142TIP3   OH218431   4.985   5.336   1.601
 6142TIP3    H118432   5.032   5.420   1.601
 6142TIP3    H218433   4.994   5.304   1.511
 6143TIP3   OH218434   1.431   0.668   3.920
 6143TIP3    H118435   1.444   0.583   3.878
 6143TIP3    H218436   1.358   0.707   3.873
 6144TIP3   OH218437   3.999   5.363   1.419
 6144TIP3    H118438   4.083   5.403   1.396
 6144TIP3    H218439   3.943   5.380   1.343
 6145TIP3   OH218440   0.504   0.903   0.340
 6145TIP3    H118441   0.533   0.901   0.249
 6145TIP3    H218442   0.519   0.813   0.372
 6146TIP3   OH218443   5.778   5.872   1.133
 6146TIP3    H118444   5.785   5.779   1.113
 6146TIP3    H218445   5.833   5.915   1.068
 6147TIP3   OH218446   1.348   1.808   0.042
 6147TIP3    H118447   1.334   1.850   0.127
 6147TIP3    H218448   1.362   1.881  -0.018
 6148TIP3   OH218449   5.638   0.625   0.301
 6148TIP3    H118450   5.676   0.697   0.250
 6148TIP3    H218451   5.683   0.547   0.268
 6149TIP3   OH218452   0.906   2.047   4.860
 6149TIP3    H118453   0.892   2.139   4.881
 6149TIP3    H218454   0.944   2.047   4.773
 6150TIP3   OH218455   3.854   0.940   0.928
 6150TIP3    H118456   3.873   0.910   0.839
 6150TIP3    H218457   3.820   1.029   0.917
 6151TIP3   OH218458   0.100   4.621   4.180
 6151TIP3    H118459   0.142   4.669   4.251
 6151TIP3    H218460   0.104   4.529   4.207
 6152TIP3   OH218461   4.155   0.883   1.854
 6152TIP3    H118462   4.130   0.910   1.766
 6152TIP3    H218463   4.081   0.832   1.886
 6153TIP3   OH218464   5.789   5.111   1.561
 6153TIP3    H118465   5.832   5.196   1.549
 6153TIP3    H218466   5.698   5.133   1.584
 6154TIP3   OH218467   2.234   0.366   1.253
 6154TIP3    H118468   2.275   0.375   1.167
 6154TIP3    H218469   2.298   0.318   1.306
 6155TIP3   OH218470   0.739   4.808   0.776
 6155TIP3    H118471   0.659   4.764   0.805
 6155TIP3    H218472   0.801   4.795   0.848
 6156TIP3   OH218473   6.304   2.996   1.651
 6156TIP3    H118474   6.349   3.071   1.690
 6156TIP3    H218475   6.211   3.013   1.664
 6157TIP3   OH218476   0.939   1.765   4.289
 6157TIP3    H118477   0.910   1.689   4.240
 6157TIP3    H218478   0.886   1.837   4.255
 6158TIP3   OH218479   5.486   2.477   1.315
 6158TIP3    H118480   5.404   2.483   1.365
 6158TIP3    H218481   5.511   2.385   1.322
 6159TIP3   OH218482   1.773   5.544   4.619
 6159TIP3    H118483   1.797   5.474   4.679
 6159TIP3    H218484   1.760   5.500   4.535
 6160TIP3   OH218485   1.179   0.253   1.423
 6160TIP3    H118486   1.206   0.261   1.332
 6160TIP3    H218487   1.161   0.159   1.435
 6161TIP3   OH218488   5.673   0.302   3.283
 6161TIP3    H118489   5.626   0.348   3.213
 6161TIP3    H218490   5.605   0.276   3.345
 6162TIP3   OH218491   0.415   4.788   0.043
 6162TIP3    H118492   0.435   4.710   0.096
 6162TIP3    H218493   0.377   4.752  -0.038
 6163TIP3   OH218494   4.669   5.117   5.199
 6163TIP3    H118495   4.653   5.208   5.224
 6163TIP3    H218496   4.732   5.123   5.127
 6164TIP3   OH218497   1.148   0.210   3.876
 6164TIP3    H118498   1.103   0.126   3.876
 6164TIP3    H218499   1.237   0.189   3.847
 6165TIP3   OH218500   5.674   4.325   1.386
 6165TIP3    H118501   5.698   4.390   1.453
 6165TIP3    H218502   5.700   4.366   1.303
 6166TIP3   OH218503   0.724   5.489   1.690
 6166TIP3    H118504   0.646   5.499   1.635
 6166TIP3    H218505   0.717   5.400   1.724
 6167TIP3   OH218506   2.348   3.463   4.913
 6167TIP3    H118507   2.365   3.486   4.822
 6167TIP3    H218508   2.274   3.518   4.939
 6168TIP3   OH218509   0.754   5.667   3.863
 6168TIP3    H118510   0.706   5.739   3.904
 6168TIP3    H218511   0.741   5.681   3.769
 6169TIP3   OH218512   2.618   5.212   1.249
 6169TIP3    H118513   2.538   5.185   1.294
 6169TIP3    H218514   2.623   5.307   1.264
 6170TIP3   OH218515   5.108   5.737   3.802
 6170TIP3    H118516   5.049   5.803   3.840
 6170TIP3    H218517   5.055   5.692   3.737
 6171TIP3   OH218518   2.936   3.720   2.062
 6171TIP3    H118519   2.997   3.676   2.002
 6171TIP3    H218520   2.872   3.652   2.085
 6172TIP3   OH218521   3.539   1.755   3.689
 6172TIP3    H118522   3.560   1.843   3.657
 6172TIP3    H218523   3.622   1.723   3.725
 6173TIP3   OH218524   1.458   2.702   1.721
 6173TIP3    H118525   1.392   2.760   1.759
 6173TIP3    H218526   1.447   2.712   1.626
 6174TIP3   OH218527   1.920   5.586   0.603
 6174TIP3    H118528   1.839   5.569   0.556
 6174TIP3    H218529   1.922   5.522   0.674
 6175TIP3   OH218530   0.739   4.854   2.057
 6175TIP3    H118531   0.745   4.949   2.048
 6175TIP3    H218532   0.805   4.820   1.997
 6176TIP3   OH218533   4.762   1.241   4.133
 6176TIP3    H118534   4.726   1.315   4.083
 6176TIP3    H218535   4.857   1.252   4.127
 6177TIP3   OH218536   4.391   4.846   2.903
 6177TIP3    H118537   4.429   4.783   2.842
 6177TIP3    H218538   4.458   4.914   2.912
 6178TIP3   OH218539   5.446   0.972   4.080
 6178TIP3    H118540   5.374   1.028   4.108
 6178TIP3    H218541   5.519   0.998   4.136
 6179TIP3   OH218542   3.982   2.211   4.225
 6179TIP3    H118543   4.022   2.162   4.297
 6179TIP3    H218544   3.891   2.222   4.251
 6180TIP3   OH218545   3.926   1.414   4.784
 6180TIP3    H118546   3.892   1.327   4.805
 6180TIP3    H218547   3.988   1.399   4.713
 6181TIP3   OH218548   2.085   3.613   0.399
 6181TIP3    H118549   2.112   3.666   0.473
 6181TIP3    H218550   2.019   3.553   0.434
 6182TIP3   OH218551   2.804   3.381   0.256
 6182TIP3    H118552   2.894   3.353   0.272
 6182TIP3    H218553   2.764   3.384   0.343
 6183TIP3   OH218554   0.610   0.191   3.577
 6183TIP3    H118555   0.704   0.193   3.596
 6183TIP3    H218556   0.570   0.243   3.646
 6184TIP3   OH218557   0.566   4.404   3.969
 6184TIP3    H118558   0.514   4.483   3.956
 6184TIP3    H218559   0.600   4.383   3.883
 6185TIP3   OH218560   2.670   2.109   4.731
 6185TIP3    H118561   2.724   2.131   4.807
 6185TIP3    H218562   2.716   2.037   4.688
 6186TIP3   OH218563   0.507   0.976   0.610
 6186TIP3    H118564   0.575   0.919   0.645
 6186TIP3    H218565   0.511   0.963   0.515
 6187TIP3   OH218566   3.442   3.821   2.882
 6187TIP3    H118567   3.441   3.852   2.972
 6187TIP3    H218568   3.357   3.778   2.870
 6188TIP3   OH218569   3.632   3.768   4.992
 6188TIP3    H118570   3.578   3.712   5.048
 6188TIP3    H218571   3.589   3.765   4.906
 6189TIP3   OH218572   1.369   1.036   4.520
 6189TIP3    H118573   1.449   1.056   4.471
 6189TIP3    H218574   1.298   1.065   4.462
 6190TIP3   OH218575   0.303   1.530   2.269
 6190TIP3    H118576   0.345   1.468   2.211
 6190TIP3    H218577   0.375   1.582   2.306
 6191TIP3   OH218578   1.178   2.801   0.339
 6191TIP3    H118579   1.135   2.886   0.334
 6191TIP3    H218580   1.247   2.813   0.405
 6192TIP3   OH218581   3.141   4.701   0.010
 6192TIP3    H118582   3.046   4.697   0.021
 6192TIP3    H218583   3.156   4.657  -0.074
 6193TIP3   OH218584   6.088   0.514   1.429
 6193TIP3    H118585   6.010   0.500   1.482
 6193TIP3    H218586   6.152   0.450   1.462
 6194TIP3   OH218587   2.048   0.568   5.170
 6194TIP3    H118588   2.037   0.643   5.111
 6194TIP3    H218589   2.033   0.492   5.114
 6195TIP3   OH218590   4.496   2.422   0.507
 6195TIP3    H118591   4.452   2.459   0.583
 6195TIP3    H218592   4.458   2.335   0.497
 6196TIP3   OH218593   3.909   1.126   4.804
 6196TIP3    H118594   3.998   1.115   4.769
 6196TIP3    H218595   3.894   1.047   4.856
 6197TIP3   OH218596   4.673   1.585   0.579
 6197TIP3    H118597   4.578   1.583   0.565
 6197TIP3    H218598   4.703   1.658   0.527
 6198TIP3   OH218599   3.089   1.181   2.601
 6198TIP3    H118600   3.055   1.167   2.689
 6198TIP3    H218601   3.180   1.151   2.605
 6199TIP3   OH218602   3.383   0.464   4.360
 6199TIP3    H118603   3.334   0.534   4.402
 6199TIP3    H218604   3.467   0.503   4.338
 6200TIP3   OH218605   4.057   1.616   3.474
 6200TIP3    H118606   4.110   1.695   3.473
 6200TIP3    H218607   4.045   1.596   3.567
 6201TIP3   OH218608   0.042   2.520   3.061
 6201TIP3    H118609   0.007   2.509   3.149
 6201TIP3    H218610   0.132   2.486   3.066
 6202TIP3   OH218611   0.980   0.585   0.782
 6202TIP3    H118612   1.001   0.660   0.725
 6202TIP3    H218613   1.040   0.594   0.856
 6203TIP3   OH218614   4.874   0.232   0.184
 6203TIP3    H118615   4.965   0.205   0.187
 6203TIP3    H218616   4.838   0.203   0.268
 6204TIP3   OH218617   2.473   2.744   1.145
 6204TIP3    H118618   2.501   2.653   1.138
 6204TIP3    H218619   2.411   2.756   1.073
 6205TIP3   OH218620   1.493   5.059   3.974
 6205TIP3    H118621   1.519   5.117   3.903
 6205TIP3    H218622   1.498   4.971   3.936
 6206TIP3   OH218623   2.606   5.950   3.707
 6206TIP3    H118624   2.560   5.981   3.629
 6206TIP3    H218625   2.537   5.920   3.765
 6207TIP3   OH218626   3.943   4.333   2.754
 6207TIP3    H118627   3.924   4.422   2.784
 6207TIP3    H218628   3.861   4.286   2.764
 6208TIP3   OH218629   3.586   2.586   2.503
 6208TIP3    H118630   3.670   2.554   2.535
 6208TIP3    H218631   3.536   2.605   2.582
 6209TIP3   OH218632   3.893   2.778   0.655
 6209TIP3    H118633   3.807   2.817   0.669
 6209TIP3    H218634   3.881   2.684   0.671
 6210TIP3   OH218635   2.071   3.266  -0.052
 6210TIP3    H118636   1.990   3.233  -0.012
 6210TIP3    H218637   2.115   3.313   0.019
 6211TIP3   OH218638   0.721   2.589   3.704
 6211TIP3    H118639   0.771   2.670   3.695
 6211TIP3    H218640   0.700   2.563   3.614
 6212TIP3   OH218641   5.527   4.378   2.649
 6212TIP3    H118642   5.462   4.338   2.706
 6212TIP3    H218643   5.609   4.333   2.670
 6213TIP3   OH218644   1.085   5.286   2.955
 6213TIP3    H118645   1.001   5.332   2.954
 6213TIP3    H218646   1.062   5.194   2.943
 6214TIP3   OH218647   0.232   5.331   5.159
 6214TIP3    H118648   0.296   5.311   5.091
 6214TIP3    H218649   0.200   5.419   5.137
 6215TIP3   OH218650   0.115   3.726   3.494
 6215TIP3    H118651   0.054   3.722   3.568
 6215TIP3    H218652   0.134   3.819   3.483
 6216TIP3   OH218653   5.234   1.943   2.593
 6216TIP3    H118654   5.197   1.855   2.602
 6216TIP3    H218655   5.200   1.974   2.509
 6217TIP3   OH218656   1.869   0.148   0.261
 6217TIP3    H118657   1.889   0.096   0.339
 6217TIP3    H218658   1.902   0.095   0.188
 6218TIP3   OH218659   1.486   4.431   3.466
 6218TIP3    H118660   1.405   4.423   3.415
 6218TIP3    H218661   1.550   4.379   3.417
 6219TIP3   OH218662   5.500   0.450   1.882
 6219TIP3    H118663   5.532   0.423   1.795
 6219TIP3    H218664   5.419   0.497   1.864
 6220TIP3   OH218665   3.671   5.358   0.261
 6220TIP3    H118666   3.630   5.438   0.293
 6220TIP3    H218667   3.751   5.349   0.313
 6221TIP3   OH218668   5.433   1.995   1.100
 6221TIP3    H118669   5.527   2.013   1.095
 6221TIP3    H218670   5.413   1.953   1.016
 6222TIP3   OH218671   1.792   4.707   4.349
 6222TIP3    H118672   1.762   4.718   4.259
 6222TIP3    H218673   1.788   4.613   4.365
 6223TIP3   OH218674   5.195   2.166   2.745
 6223TIP3    H118675   5.264   2.225   2.714
 6223TIP3    H218676   5.210   2.084   2.698
 6224TIP3   OH218677   4.824   0.324   4.970
 6224TIP3    H118678   4.805   0.272   4.892
 6224TIP3    H218679   4.744   0.373   4.987
 6225TIP3   OH218680   5.367   5.897   2.852
 6225TIP3    H118681   5.292   5.925   2.905
 6225TIP3    H218682   5.352   5.937   2.766
 6226TIP3   OH218683   3.507   5.565   4.700
 6226TIP3    H118684   3.585   5.616   4.679
 6226TIP3    H218685   3.458   5.562   4.617
 6227TIP3   OH218686   2.900   4.757   5.176
 6227TIP3    H118687   2.940   4.687   5.125
 6227TIP3    H218688   2.974   4.808   5.209
 6228TIP3   OH218689   5.761   0.619   2.331
 6228TIP3    H118690   5.755   0.565   2.410
 6228TIP3    H218691   5.757   0.709   2.364
 6229TIP3   OH218692   3.533   1.731   4.126
 6229TIP3    H118693   3.487   1.771   4.200
 6229TIP3    H218694   3.465   1.715   4.061
 6230TIP3   OH218695   4.399   0.201   1.473
 6230TIP3    H118696   4.305   0.218   1.477
 6230TIP3    H218697   4.408   0.128   1.412
 6231TIP3   OH218698   0.176   0.969   4.990
 6231TIP3    H118699   0.128   0.943   4.911
 6231TIP3    H218700   0.119   1.031   5.034
 6232TIP3   OH218701   0.100   4.382   2.474
 6232TIP3    H118702   0.191   4.391   2.504
 6232TIP3    H218703   0.105   4.313   2.407
 6233TIP3   OH218704   2.499   1.710   4.640
 6233TIP3    H118705   2.554   1.764   4.584
 6233TIP3    H218706   2.473   1.636   4.585
 6234TIP3   OH218707   4.526   2.494   2.910
 6234TIP3    H118708   4.591   2.473   2.978
 6234TIP3    H218709   4.489   2.409   2.886
 6235TIP3   OH218710   3.003   1.838   1.448
 6235TIP3    H118711   2.981   1.821   1.356
 6235TIP3    H218712   3.041   1.755   1.479
 6236TIP3   OH218713   1.400   0.371   4.929
 6236TIP3    H118714   1.480   0.417   4.954
 6236TIP3    H218715   1.389   0.303   4.995
 6237TIP3   OH218716   5.000   1.194   3.048
 6237TIP3    H118717   4.983   1.104   3.020
 6237TIP3    H218718   5.065   1.227   2.985
 6238TIP3   OH218719   4.663   1.773   4.890
 6238TIP3    H118720   4.730   1.836   4.915
 6238TIP3    H218721   4.704   1.720   4.822
 6239TIP3   OH218722   2.956   1.410   1.339
 6239TIP3    H118723   2.885   1.406   1.403
 6239TIP3    H218724   2.911   1.410   1.254
 6240TIP3   OH218725   2.254   4.597   3.945
 6240TIP3    H118726   2.229   4.542   3.871
 6240TIP3    H218727   2.203   4.563   4.019
 6241TIP3   OH218728   0.486   3.739   3.353
 6241TIP3    H118729   0.420   3.672   3.368
 6241TIP3    H218730   0.435   3.817   3.328
 6242TIP3   OH218731   0.502   3.466   2.634
 6242TIP3    H118732   0.547   3.464   2.549
 6242TIP3    H218733   0.411   3.444   2.613
 6243TIP3   OH218734   4.418   0.045   3.278
 6243TIP3    H118735   4.448   0.103   3.207
 6243TIP3    H218736   4.323   0.050   3.275
 6244TIP3   OH218737   5.981   4.936   0.607
 6244TIP3    H118738   5.919   4.885   0.555
 6244TIP3    H218739   6.014   4.874   0.673
 6245TIP3   OH218740   5.855   4.550   2.362
 6245TIP3    H118741   5.764   4.564   2.388
 6245TIP3    H218742   5.850   4.535   2.267
 6246TIP3   OH218743   4.499   5.152   4.917
 6246TIP3    H118744   4.425   5.112   4.964
 6246TIP3    H218745   4.463   5.232   4.880
 6247TIP3   OH218746   3.957   0.573   4.606
 6247TIP3    H118747   3.883   0.593   4.662
 6247TIP3    H218748   3.975   0.480   4.622
 6248TIP3   OH218749   0.665   3.542   0.933
 6248TIP3    H118750   0.592   3.485   0.908
 6248TIP3    H218751   0.623   3.620   0.970
 6249TIP3   OH218752   2.382   3.772   3.982
 6249TIP3    H118753   2.445   3.837   4.016
 6249TIP3    H218754   2.311   3.825   3.946
 6250TIP3   OH218755   3.530   2.361   2.767
 6250TIP3    H118756   3.522   2.456   2.780
 6250TIP3    H218757   3.569   2.352   2.680
 6251TIP3   OH218758   4.123   5.317   2.865
 6251TIP3    H118759   4.084   5.377   2.928
 6251TIP3    H218760   4.053   5.256   2.842
 6252TIP3   OH218761   3.775   1.212   1.109
 6252TIP3    H118762   3.817   1.132   1.140
 6252TIP3    H218763   3.820   1.282   1.154
 6253TIP3   OH218764   3.660   3.272   0.555
 6253TIP3    H118765   3.750   3.244   0.538
 6253TIP3    H218766   3.668   3.364   0.579
 6254TIP3   OH218767   4.373   0.358   4.642
 6254TIP3    H118768   4.413   0.404   4.568
 6254TIP3    H218769   4.327   0.285   4.603
 6255TIP3   OH218770   0.534   1.108   4.695
 6255TIP3    H118771   0.535   1.195   4.733
 6255TIP3    H218772   0.588   1.115   4.616
 6256TIP3   OH218773   4.847   1.739   2.792
 6256TIP3    H118774   4.760   1.735   2.832
 6256TIP3    H218775   4.867   1.832   2.787
 6257TIP3   OH218776   2.208   0.355   5.003
 6257TIP3    H118777   2.233   0.317   4.918
 6257TIP3    H218778   2.114   0.338   5.009
 6258TIP3   OH218779   6.204   4.933   1.154
 6258TIP3    H118780   6.139   4.964   1.217
 6258TIP3    H218781   6.278   4.905   1.208
 6259TIP3   OH218782   3.249   5.129   2.396
 6259TIP3    H118783   3.247   5.175   2.312
 6259TIP3    H218784   3.172   5.072   2.394
 6260TIP3   OH218785   0.442   2.178   4.678
 6260TIP3    H118786   0.435   2.224   4.762
 6260TIP3    H218787   0.534   2.186   4.654
 6261TIP3   OH218788   4.317   3.198   3.092
 6261TIP3    H118789   4.385   3.261   3.116
 6261TIP3    H218790   4.242   3.221   3.147
 6262TIP3   OH218791   3.278   1.672   2.519
 6262TIP3    H118792   3.252   1.704   2.433
 6262TIP3    H218793   3.212   1.606   2.541
 6263TIP3   OH218794   5.944   4.277   3.318
 6263TIP3    H118795   6.027   4.319   3.341
 6263TIP3    H218796   5.880   4.348   3.321
 6264TIP3   OH218797   4.353   0.799   4.379
 6264TIP3    H118798   4.360   0.880   4.330
 6264TIP3    H218799   4.373   0.824   4.470
 6265TIP3   OH218800   5.384   3.922   3.091
 6265TIP3    H118801   5.360   3.843   3.138
 6265TIP3    H218802   5.472   3.904   3.056
 6266TIP3   OH218803   3.816   3.677   2.582
 6266TIP3    H118804   3.765   3.604   2.618
 6266TIP3    H218805   3.868   3.708   2.657
 6267TIP3   OH218806   3.961   3.718   1.097
 6267TIP3    H118807   4.006   3.802   1.084
 6267TIP3    H218808   3.995   3.686   1.181
 6268TIP3   OH218809   0.122   5.806   4.907
 6268TIP3    H118810   0.205   5.831   4.948
 6268TIP3    H218811   0.075   5.759   4.975
 6269TIP3   OH218812   2.863   3.042   3.943
 6269TIP3    H118813   2.826   3.089   3.868
 6269TIP3    H218814   2.944   3.090   3.963
 6270TIP3   OH218815   3.028   5.706   0.389
 6270TIP3    H118816   3.100   5.643   0.388
 6270TIP3    H218817   2.977   5.684   0.311
 6271TIP3   OH218818   3.003   5.901   1.118
 6271TIP3    H118819   3.035   5.811   1.130
 6271TIP3    H218820   2.908   5.893   1.118
 6272TIP3   OH218821   5.572   2.028   3.323
 6272TIP3    H118822   5.546   1.967   3.254
 6272TIP3    H218823   5.621   1.975   3.386
 6273TIP3   OH218824   0.535   2.044   1.767
 6273TIP3    H118825   0.575   1.957   1.761
 6273TIP3    H218826   0.496   2.058   1.681
 6274TIP3   OH218827   4.588   3.934   2.305
 6274TIP3    H118828   4.656   3.872   2.276
 6274TIP3    H218829   4.608   3.948   2.397
 6275TIP3   OH218830   2.000   4.822   1.839
 6275TIP3    H118831   1.944   4.873   1.780
 6275TIP3    H218832   2.016   4.880   1.913
 6276TIP3   OH218833   2.832   1.897   4.637
 6276TIP3    H118834   2.902   1.839   4.667
 6276TIP3    H218835   2.849   1.908   4.543
 6277TIP3   OH218836   2.478   2.665   2.958
 6277TIP3    H118837   2.403   2.645   2.903
 6277TIP3    H218838   2.445   2.728   3.022
 6278TIP3   OH218839   3.249   3.701   1.182
 6278TIP3    H118840   3.289   3.707   1.096
 6278TIP3    H218841   3.158   3.675   1.166
 6279TIP3   OH218842   6.118   5.544   1.667
 6279TIP3    H118843   6.055   5.588   1.610
 6279TIP3    H218844   6.191   5.605   1.674
 6280TIP3   OH218845   2.934   2.274   1.093
 6280TIP3    H118846   2.896   2.274   1.181
 6280TIP3    H218847   2.895   2.197   1.051
 6281TIP3   OH218848   3.413   0.406   0.294
 6281TIP3    H118849   3.489   0.379   0.346
 6281TIP3    H218850   3.340   0.356   0.332
 6282TIP3   OH218851   4.478   2.024   0.188
 6282TIP3    H118852   4.529   2.089   0.237
 6282TIP3    H218853   4.506   1.940   0.223
 6283TIP3   OH218854   3.435   0.580   1.060
 6283TIP3    H118855   3.411   0.609   0.972
 6283TIP3    H218856   3.372   0.625   1.117
 6284TIP3   OH218857   0.419   1.269   1.412
 6284TIP3    H118858   0.447   1.309   1.494
 6284TIP3    H218859   0.398   1.178   1.435
 6285TIP3   OH218860   2.842   2.569   1.139
 6285TIP3    H118861   2.865   2.640   1.078
 6285TIP3    H218862   2.767   2.526   1.098
 6286TIP3   OH218863   5.358   4.709   0.635
 6286TIP3    H118864   5.355   4.772   0.563
 6286TIP3    H218865   5.415   4.639   0.603
 6287TIP3   OH218866   5.542   5.781   0.390
 6287TIP3    H118867   5.560   5.872   0.411
 6287TIP3    H218868   5.479   5.753   0.457
 6288TIP3   OH218869   2.220   4.690   0.994
 6288TIP3    H118870   2.136   4.730   1.017
 6288TIP3    H218871   2.201   4.597   0.983
 6289TIP3   OH218872   2.360   3.791   0.079
 6289TIP3    H118873   2.309   3.812   0.156
 6289TIP3    H218874   2.413   3.716   0.105
 6290TIP3   OH218875   2.450   3.070   5.134
 6290TIP3    H118876   2.467   3.039   5.045
 6290TIP3    H218877   2.496   3.154   5.140
 6291TIP3   OH218878   6.132   2.629   1.657
 6291TIP3    H118879   6.199   2.567   1.628
 6291TIP3    H218880   6.122   2.688   1.582
 6292TIP3   OH218881   1.246   3.602   5.107
 6292TIP3    H118882   1.338   3.586   5.087
 6292TIP3    H218883   1.207   3.515   5.112
 6293TIP3   OH218884   5.011   1.423   0.253
 6293TIP3    H118885   4.998   1.511   0.217
 6293TIP3    H218886   5.067   1.378   0.189
 6294TIP3   OH218887   4.096   3.280   3.292
 6294TIP3    H118888   4.121   3.364   3.254
 6294TIP3    H218889   4.005   3.294   3.320
 6295TIP3   OH218890   4.179   3.312   2.334
 6295TIP3    H118891   4.145   3.385   2.282
 6295TIP3    H218892   4.108   3.247   2.333
 6296TIP3   OH218893   5.350   1.831   4.732
 6296TIP3    H118894   5.344   1.926   4.723
 6296TIP3    H218895   5.297   1.797   4.660
 6297TIP3   OH218896   4.746   4.273   1.910
 6297TIP3    H118897   4.834   4.311   1.907
 6297TIP3    H218898   4.751   4.207   1.978
 6298TIP3   OH218899   2.347   3.401   2.166
 6298TIP3    H118900   2.291   3.335   2.208
 6298TIP3    H218901   2.314   3.405   2.076
 6299TIP3   OH218902   3.596   1.517   3.317
 6299TIP3    H118903   3.558   1.542   3.233
 6299TIP3    H218904   3.531   1.542   3.382
 6300TIP3   OH218905   0.700   1.223   2.255
 6300TIP3    H118906   0.723   1.261   2.170
 6300TIP3    H218907   0.690   1.299   2.312
 6301TIP3   OH218908   2.976   2.173   3.595
 6301TIP3    H118909   2.947   2.260   3.624
 6301TIP3    H218910   2.937   2.113   3.659
 6302TIP3   OH218911   5.096   1.650   1.507
 6302TIP3    H118912   5.057   1.736   1.524
 6302TIP3    H218913   5.022   1.595   1.480
 6303TIP3   OH218914   2.470   1.019   2.244
 6303TIP3    H118915   2.420   1.076   2.185
 6303TIP3    H218916   2.403   0.972   2.294
 6304TIP3   OH218917   0.131   4.897   4.051
 6304TIP3    H118918   0.111   4.819   4.104
 6304TIP3    H218919   0.223   4.917   4.072
 6305TIP3   OH218920   6.243   2.360   3.505
 6305TIP3    H118921   6.200   2.357   3.420
 6305TIP3    H218922   6.320   2.415   3.491
 6306TIP3   OH218923   2.626   2.648   4.924
 6306TIP3    H118924   2.702   2.632   4.979
 6306TIP3    H218925   2.625   2.743   4.911
 6307TIP3   OH218926   4.943   2.847   1.272
 6307TIP3    H118927   4.974   2.796   1.347
 6307TIP3    H218928   5.009   2.914   1.259
 6308TIP3   OH218929   5.841   2.902   0.509
 6308TIP3    H118930   5.767   2.926   0.452
 6308TIP3    H218931   5.874   2.986   0.541
 6309TIP3   OH218932   1.103   5.984   3.357
 6309TIP3    H118933   1.065   5.987   3.269
 6309TIP3    H218934   1.060   5.909   3.399
 6310TIP3   OH218935   0.483   4.175   2.095
 6310TIP3    H118936   0.469   4.256   2.046
 6310TIP3    H218937   0.573   4.149   2.074
 6311TIP3   OH218938   1.752   5.203   1.496
 6311TIP3    H118939   1.797   5.269   1.549
 6311TIP3    H218940   1.663   5.202   1.530
 6312TIP3   OH218941   1.462   4.070   0.588
 6312TIP3    H118942   1.393   4.023   0.541
 6312TIP3    H218943   1.501   4.127   0.522
 6313TIP3   OH218944   5.190   3.469   0.838
 6313TIP3    H118945   5.104   3.462   0.797
 6313TIP3    H218946   5.237   3.391   0.810
 6314TIP3   OH218947   5.704   5.013   4.570
 6314TIP3    H118948   5.630   5.069   4.549
 6314TIP3    H218949   5.767   5.028   4.499
 6315TIP3   OH218950   4.542   4.279   4.488
 6315TIP3    H118951   4.615   4.336   4.513
 6315TIP3    H218952   4.503   4.321   4.411
 6316TIP3   OH218953   0.662   1.882   0.651
 6316TIP3    H118954   0.586   1.925   0.690
 6316TIP3    H218955   0.632   1.794   0.630
 6317TIP3   OH218956   5.657   0.621   2.053
 6317TIP3    H118957   5.643   0.613   2.147
 6317TIP3    H218958   5.590   0.566   2.013
 6318TIP3   OH218959   4.332   0.123   3.633
 6318TIP3    H118960   4.286   0.052   3.679
 6318TIP3    H218961   4.419   0.088   3.617
 6319TIP3   OH218962   3.762   3.769   2.988
 6319TIP3    H118963   3.758   3.730   2.901
 6319TIP3    H218964   3.724   3.856   2.977
 6320TIP3   OH218965   4.448   0.361   0.829
 6320TIP3    H118966   4.463   0.266   0.831
 6320TIP3    H218967   4.496   0.394   0.905
 6321TIP3   OH218968   4.999   5.069   0.436
 6321TIP3    H118969   5.066   5.115   0.486
 6321TIP3    H218970   5.014   4.977   0.453
 6322TIP3   OH218971   1.200   4.594   0.409
 6322TIP3    H118972   1.148   4.629   0.482
 6322TIP3    H218973   1.242   4.670   0.370
 6323TIP3   OH218974   3.823   0.973   2.911
 6323TIP3    H118975   3.827   0.961   3.006
 6323TIP3    H218976   3.817   0.884   2.877
 6324TIP3   OH218977   3.383   4.728   2.952
 6324TIP3    H118978   3.407   4.808   2.998
 6324TIP3    H218979   3.304   4.752   2.902
 6325TIP3   OH218980   4.447   5.499   0.417
 6325TIP3    H118981   4.363   5.541   0.437
 6325TIP3    H218982   4.494   5.561   0.362
 6326TIP3   OH218983   2.146   0.995   1.831
 6326TIP3    H118984   2.104   1.073   1.795
 6326TIP3    H218985   2.171   0.944   1.754
 6327TIP3   OH218986   0.374   3.965   4.997
 6327TIP3    H118987   0.416   3.879   4.987
 6327TIP3    H218988   0.301   3.949   5.056
 6328TIP3   OH218989   2.767   1.929   0.472
 6328TIP3    H118990   2.857   1.909   0.498
 6328TIP3    H218991   2.725   1.843   0.465
 6329TIP3   OH218992   1.498   2.763   3.694
 6329TIP3    H118993   1.578   2.752   3.642
 6329TIP3    H218994   1.528   2.761   3.785
 6330TIP3   OH218995   6.133   5.966   4.397
 6330TIP3    H118996   6.222   5.951   4.431
 6330TIP3    H218997   6.147   5.996   4.307
 6331TIP3   OH218998   1.111   0.844   4.279
 6331TIP3    H118999   1.191   0.792   4.288
 6331TIP3    H219000   1.092   0.842   4.185
 6332TIP3   OH219001   3.553   1.119   4.281
 6332TIP3    H119002   3.599   1.149   4.359
 6332TIP3    H219003   3.512   1.197   4.245
 6333TIP3   OH219004   5.110   4.505   0.667
 6333TIP3    H119005   5.149   4.418   0.673
 6333TIP3    H219006   5.150   4.544   0.589
 6334TIP3   OH219007   2.781   5.393   2.963
 6334TIP3    H119008   2.790   5.300   2.984
 6334TIP3    H219009   2.759   5.434   3.047
 6335TIP3   OH219010   6.265   5.543   4.643
 6335TIP3    H119011   6.329   5.487   4.688
 6335TIP3    H219012   6.314   5.622   4.619
 6336TIP3   OH219013   5.150   0.353   2.457
 6336TIP3    H119014   5.169   0.264   2.488
 6336TIP3    H219015   5.099   0.392   2.528
 6337TIP3   OH219016   0.206   3.010   2.021
 6337TIP3    H119017   0.214   2.914   2.016
 6337TIP3    H219018   0.234   3.040   1.935
 6338TIP3   OH219019   5.132   2.536   2.375
 6338TIP3    H119020   5.109   2.471   2.308
 6338TIP3    H219021   5.076   2.611   2.355
 6339TIP3   OH219022   0.050   1.921   0.619
 6339TIP3    H119023   0.039   1.960   0.533
 6339TIP3    H219024  -0.004   1.974   0.677
 6340TIP3   OH219025   3.203   5.103   0.708
 6340TIP3    H119026   3.249   5.165   0.765
 6340TIP3    H219027   3.273   5.055   0.665
 6341TIP3   OH219028   5.766   3.052   3.664
 6341TIP3    H119029   5.861   3.048   3.650
 6341TIP3    H219030   5.729   3.012   3.585
 6342TIP3   OH219031   6.139   0.938   1.235
 6342TIP3    H119032   6.146   0.985   1.317
 6342TIP3    H219033   6.108   1.003   1.172
 6343TIP3   OH219034   2.378   2.478   3.514
 6343TIP3    H119035   2.319   2.546   3.546
 6343TIP3    H219036   2.321   2.409   3.483
 6344TIP3   OH219037   4.364   4.018   3.455
 6344TIP3    H119038   4.299   4.047   3.519
 6344TIP3    H219039   4.438   3.988   3.507
 6345TIP3   OH219040   2.107   2.450   4.917
 6345TIP3    H119041   2.079   2.473   5.006
 6345TIP3    H219042   2.191   2.495   4.906
 6346TIP3   OH219043   4.976   0.843   0.335
 6346TIP3    H119044   4.914   0.816   0.268
 6346TIP3    H219045   4.998   0.934   0.314
 6347TIP3   OH219046   3.827   0.730   2.759
 6347TIP3    H119047   3.783   0.688   2.833
 6347TIP3    H219048   3.859   0.657   2.706
 6348TIP3   OH219049   1.444   2.631   4.214
 6348TIP3    H119050   1.519   2.607   4.268
 6348TIP3    H219051   1.392   2.551   4.207
 6349TIP3   OH219052   3.798   1.332   2.105
 6349TIP3    H119053   3.770   1.311   2.016
 6349TIP3    H219054   3.721   1.371   2.147
 6350TIP3   OH219055   4.572   3.914   2.824
 6350TIP3    H119056   4.634   3.952   2.886
 6350TIP3    H219057   4.545   3.831   2.864
 6351TIP3   OH219058   4.556   3.564   4.937
 6351TIP3    H119059   4.573   3.506   4.863
 6351TIP3    H219060   4.637   3.564   4.987
 6352TIP3   OH219061   1.740   5.801   4.412
 6352TIP3    H119062   1.759   5.786   4.505
 6352TIP3    H219063   1.660   5.751   4.396
 6353TIP3   OH219064   5.967   0.917   3.400
 6353TIP3    H119065   5.998   0.826   3.397
 6353TIP3    H219066   5.915   0.927   3.320
 6354TIP3   OH219067   4.647   1.465   4.819
 6354TIP3    H119068   4.694   1.462   4.736
 6354TIP3    H219069   4.671   1.383   4.863
 6355TIP3   OH219070   0.241   0.868   0.570
 6355TIP3    H119071   0.253   0.774   0.561
 6355TIP3    H219072   0.319   0.899   0.615
 6356TIP3   OH219073   0.087   5.547   2.347
 6356TIP3    H119074   0.096   5.606   2.273
 6356TIP3    H219075   0.038   5.472   2.312
 6357TIP3   OH219076   3.644   5.536   1.128
 6357TIP3    H119077   3.652   5.574   1.216
 6357TIP3    H219078   3.550   5.535   1.111
 6358TIP3   OH219079   4.225   4.801   4.875
 6358TIP3    H119080   4.165   4.872   4.852
 6358TIP3    H219081   4.197   4.774   4.963
 6359TIP3   OH219082   5.182   0.561   4.458
 6359TIP3    H119083   5.113   0.623   4.484
 6359TIP3    H219084   5.217   0.529   4.541
 6360TIP3   OH219085   0.965   4.265   2.001
 6360TIP3    H119086   1.026   4.266   1.927
 6360TIP3    H219087   1.022   4.259   2.078
 6361TIP3   OH219088   6.188   2.113   2.289
 6361TIP3    H119089   6.283   2.114   2.283
 6361TIP3    H219090   6.169   2.141   2.378
 6362TIP3   OH219091   1.001   4.318   3.810
 6362TIP3    H119092   0.999   4.224   3.792
 6362TIP3    H219093   1.093   4.341   3.807
 6363TIP3   OH219094   2.437   5.421   2.392
 6363TIP3    H119095   2.499   5.364   2.348
 6363TIP3    H219096   2.438   5.502   2.341
 6364TIP3   OH219097   1.015   3.208   1.404
 6364TIP3    H119098   1.021   3.192   1.310
 6364TIP3    H219099   1.039   3.124   1.444
 6365TIP3   OH219100   2.176   2.225   0.850
 6365TIP3    H119101   2.192   2.189   0.762
 6365TIP3    H219102   2.131   2.154   0.897
 6366TIP3   OH219103   1.888   3.929   3.611
 6366TIP3    H119104   1.892   3.919   3.706
 6366TIP3    H219105   1.978   3.945   3.584
 6367TIP3   OH219106   4.866   5.224   4.075
 6367TIP3    H119107   4.861   5.164   4.149
 6367TIP3    H219108   4.945   5.197   4.027
 6368TIP3   OH219109   0.183   2.972   0.891
 6368TIP3    H119110   0.144   2.890   0.862
 6368TIP3    H219111   0.132   2.998   0.967
 6369TIP3   OH219112   4.581   2.523   4.044
 6369TIP3    H119113   4.505   2.465   4.043
 6369TIP3    H219114   4.654   2.464   4.064
 6370TIP3   OH219115   3.564   1.309   0.443
 6370TIP3    H119116   3.475   1.305   0.479
 6370TIP3    H219117   3.573   1.227   0.394
 6371TIP3   OH219118   2.372   4.499   0.618
 6371TIP3    H119119   2.368   4.404   0.624
 6371TIP3    H219120   2.442   4.517   0.555
 6372TIP3   OH219121   5.893   5.599   3.627
 6372TIP3    H119122   5.815   5.632   3.672
 6372TIP3    H219123   5.880   5.624   3.535
 6373TIP3   OH219124   4.907   1.339   1.622
 6373TIP3    H119125   4.971   1.282   1.665
 6373TIP3    H219126   4.830   1.335   1.679
 6374TIP3   OH219127   4.713   0.002   3.070
 6374TIP3    H119128   4.722   0.097   3.062
 6374TIP3    H219129   4.704  -0.030   2.980
 6375TIP3   OH219130   1.223   4.534   4.484
 6375TIP3    H119131   1.132   4.556   4.464
 6375TIP3    H219132   1.234   4.559   4.576
 6376TIP3   OH219133   1.793   0.383   3.995
 6376TIP3    H119134   1.772   0.350   3.907
 6376TIP3    H219135   1.750   0.321   4.054
 6377TIP3   OH219136   4.781   2.998   4.371
 6377TIP3    H119137   4.821   3.077   4.336
 6377TIP3    H219138   4.701   3.029   4.414
 6378TIP3   OH219139   6.021   0.616   3.308
 6378TIP3    H119140   6.019   0.521   3.301
 6378TIP3    H219141   6.072   0.645   3.232
 6379TIP3   OH219142   3.091   4.043   3.713
 6379TIP3    H119143   3.029   4.113   3.695
 6379TIP3    H219144   3.131   4.066   3.797
 6380TIP3   OH219145   0.779   4.904   3.087
 6380TIP3    H119146   0.684   4.911   3.091
 6380TIP3    H219147   0.811   4.990   3.115
 6381TIP3   OH219148   3.663   0.331   1.661
 6381TIP3    H119149   3.644   0.418   1.625
 6381TIP3    H219150   3.734   0.346   1.723
 6382TIP3   OH219151   2.606   5.744   2.451
 6382TIP3    H119152   2.660   5.821   2.435
 6382TIP3    H219153   2.562   5.727   2.368
 6383TIP3   OH219154   4.827   2.803   2.083
 6383TIP3    H119155   4.757   2.748   2.047
 6383TIP3    H219156   4.895   2.803   2.016
 6384TIP3   OH219157   4.712   2.349   4.371
 6384TIP3    H119158   4.771   2.373   4.300
 6384TIP3    H219159   4.636   2.309   4.328
 6385TIP3   OH219160   4.574   0.694   3.233
 6385TIP3    H119161   4.580   0.783   3.201
 6385TIP3    H219162   4.518   0.700   3.311
 6386TIP3   OH219163   5.072   3.387   3.161
 6386TIP3    H119164   5.083   3.316   3.098
 6386TIP3    H219165   5.132   3.365   3.232
 6387TIP3   OH219166   4.734   2.007   2.624
 6387TIP3    H119167   4.803   2.004   2.691
 6387TIP3    H219168   4.777   1.980   2.543
 6388TIP3   OH219169   2.346   5.315   3.973
 6388TIP3    H119170   2.287   5.258   3.923
 6388TIP3    H219171   2.297   5.335   4.053
 6389TIP3   OH219172   5.644   4.297   3.298
 6389TIP3    H119173   5.665   4.319   3.207
 6389TIP3    H219174   5.578   4.362   3.324
 6390TIP3   OH219175   4.455   2.801   4.923
 6390TIP3    H119176   4.496   2.845   4.849
 6390TIP3    H219177   4.365   2.835   4.924
 6391TIP3   OH219178   5.626   1.927   1.501
 6391TIP3    H119179   5.678   1.997   1.542
 6391TIP3    H219180   5.606   1.867   1.572
 6392TIP3   OH219181   0.305   0.131   0.325
 6392TIP3    H119182   0.239   0.190   0.289
 6392TIP3    H219183   0.326   0.167   0.411
 6393TIP3   OH219184   4.113   4.025   0.725
 6393TIP3    H119185   4.046   3.958   0.743
 6393TIP3    H219186   4.140   4.055   0.811
 6394TIP3   OH219187   3.175   2.672   4.948
 6394TIP3    H119188   3.159   2.620   4.869
 6394TIP3    H219189   3.198   2.758   4.915
 6395TIP3   OH219190   2.783   5.813   3.484
 6395TIP3    H119191   2.743   5.896   3.513
 6395TIP3    H219192   2.745   5.747   3.542
 6396TIP3   OH219193   0.041   0.631   2.410
 6396TIP3    H119194   0.014   0.559   2.353
 6396TIP3    H219195  -0.040   0.657   2.454
 6397TIP3   OH219196   4.356   5.021   0.025
 6397TIP3    H119197   4.372   4.934  -0.011
 6397TIP3    H219198   4.286   5.007   0.088
 6398TIP3   OH219199   5.409   3.065   1.763
 6398TIP3    H119200   5.478   3.130   1.745
 6398TIP3    H219201   5.382   3.083   1.853
 6399TIP3   OH219202   3.381   5.332   0.444
 6399TIP3    H119203   3.432   5.283   0.509
 6399TIP3    H219204   3.447   5.373   0.388
 6400TIP3   OH219205   3.327   2.875   3.156
 6400TIP3    H119206   3.418   2.864   3.180
 6400TIP3    H219207   3.293   2.786   3.146
 6401TIP3   OH219208   0.679   5.337   3.566
 6401TIP3    H119209   0.695   5.397   3.493
 6401TIP3    H219210   0.586   5.314   3.558
 6402TIP3   OH219211   6.241   4.988   4.745
 6402TIP3    H119212   6.159   4.987   4.794
 6402TIP3    H219213   6.235   5.065   4.689
 6403TIP3   OH219214   3.971  -0.005   1.727
 6403TIP3    H119215   3.981  -0.023   1.634
 6403TIP3    H219216   4.060   0.015   1.758
 6404TIP3   OH219217   4.824   2.389   1.633
 6404TIP3    H119218   4.768   2.424   1.564
 6404TIP3    H219219   4.837   2.462   1.693
 6405TIP3   OH219220   3.604   0.063   4.257
 6405TIP3    H119221   3.624  -0.030   4.261
 6405TIP3    H219222   3.611   0.093   4.348
 6406TIP3   OH219223   3.595   5.544   1.607
 6406TIP3    H119224   3.506   5.516   1.630
 6406TIP3    H219225   3.593   5.639   1.617
 6407TIP3   OH219226   5.787   1.607   4.910
 6407TIP3    H119227   5.819   1.697   4.905
 6407TIP3    H219228   5.740   1.603   4.994
 6408TIP3   OH219229   2.779   4.530   2.394
 6408TIP3    H119230   2.732   4.484   2.463
 6408TIP3    H219231   2.710   4.558   2.333
 6409TIP3   OH219232   4.914   3.689   2.468
 6409TIP3    H119233   4.900   3.620   2.533
 6409TIP3    H219234   5.003   3.720   2.485
 6410TIP3   OH219235   2.062   4.078   5.048
 6410TIP3    H119236   1.974   4.095   5.014
 6410TIP3    H219237   2.067   4.131   5.127
 6411TIP3   OH219238   3.948   1.262   4.307
 6411TIP3    H119239   3.990   1.179   4.328
 6411TIP3    H219240   3.878   1.239   4.245
 6412TIP3   OH219241   0.759   4.230   4.788
 6412TIP3    H119242   0.710   4.148   4.785
 6412TIP3    H219243   0.799   4.236   4.701
 6413TIP3   OH219244   5.879   4.565   3.622
 6413TIP3    H119245   5.887   4.552   3.528
 6413TIP3    H219246   5.967   4.551   3.656
 6414TIP3   OH219247   3.718   3.256   2.736
 6414TIP3    H119248   3.792   3.198   2.717
 6414TIP3    H219249   3.686   3.284   2.651
 6415TIP3   OH219250   3.164   3.888   0.495
 6415TIP3    H119251   3.125   3.871   0.409
 6415TIP3    H219252   3.091   3.917   0.549
 6416TIP3   OH219253   1.443   2.439   1.685
 6416TIP3    H119254   1.460   2.531   1.705
 6416TIP3    H219255   1.349   2.429   1.697
 6417TIP3   OH219256   3.855   5.609   1.813
 6417TIP3    H119257   3.817   5.541   1.757
 6417TIP3    H219258   3.791   5.620   1.884
 6418TIP3   OH219259   6.172   1.432   4.916
 6418TIP3    H119260   6.136   1.520   4.914
 6418TIP3    H219261   6.097   1.375   4.901
 6419TIP3   OH219262   0.623   3.513   4.941
 6419TIP3    H119263   0.681   3.495   5.015
 6419TIP3    H219264   0.567   3.436   4.936
 6420TIP3   OH219265   4.542   4.198   2.248
 6420TIP3    H119266   4.452   4.226   2.263
 6420TIP3    H219267   4.541   4.104   2.265
 6421TIP3   OH219268   2.759   4.051   3.583
 6421TIP3    H119269   2.763   3.997   3.662
 6421TIP3    H219270   2.703   4.001   3.523
 6422TIP3   OH219271   5.878   3.839   4.039
 6422TIP3    H119272   5.840   3.788   4.111
 6422TIP3    H219273   5.819   3.913   4.028
 6423TIP3   OH219274   6.134   5.484   3.648
 6423TIP3    H119275   6.164   5.506   3.560
 6423TIP3    H219276   6.039   5.498   3.646
 6424TIP3   OH219277   0.932   5.223   2.596
 6424TIP3    H119278   0.889   5.305   2.573
 6424TIP3    H219279   0.861   5.160   2.607
 6425TIP3   OH219280   4.560   3.861   3.269
 6425TIP3    H119281   4.602   3.934   3.315
 6425TIP3    H219282   4.467   3.870   3.290
 6426TIP3   OH219283   0.994   5.832   2.915
 6426TIP3    H119284   1.009   5.753   2.864
 6426TIP3    H219285   0.923   5.809   2.975
 6427TIP3   OH219286   6.074   4.980   4.514
 6427TIP3    H119287   6.025   4.899   4.530
 6427TIP3    H219288   6.007   5.042   4.483
 6428TIP3   OH219289   2.830   0.592   2.969
 6428TIP3    H119290   2.868   0.507   2.947
 6428TIP3    H219291   2.850   0.603   3.062
 6429TIP3   OH219292   2.942   4.132   4.254
 6429TIP3    H119293   2.912   4.050   4.216
 6429TIP3    H219294   2.874   4.155   4.318
 6430TIP3   OH219295   1.368   3.150   4.780
 6430TIP3    H119296   1.434   3.199   4.730
 6430TIP3    H219297   1.284   3.186   4.751
 6431TIP3   OH219298   1.695   1.672   4.337
 6431TIP3    H119299   1.631   1.634   4.397
 6431TIP3    H219300   1.773   1.686   4.390
 6432TIP3   OH219301   5.087   3.989   5.082
 6432TIP3    H119302   5.064   4.076   5.113
 6432TIP3    H219303   5.120   3.944   5.160
 6433TIP3   OH219304   5.334   3.976   1.357
 6433TIP3    H119305   5.326   3.891   1.314
 6433TIP3    H219306   5.427   3.982   1.379
 6434TIP3   OH219307   2.801   4.863   1.047
 6434TIP3    H119308   2.881   4.916   1.050
 6434TIP3    H219309   2.812   4.798   1.117
 6435TIP3   OH219310   2.736   5.640   0.548
 6435TIP3    H119311   2.721   5.547   0.530
 6435TIP3    H219312   2.777   5.673   0.468
 6436TIP3   OH219313   3.463   0.083   2.664
 6436TIP3    H119314   3.471   0.098   2.570
 6436TIP3    H219315   3.473   0.170   2.703
 6437TIP3   OH219316   2.706   0.181   0.381
 6437TIP3    H119317   2.648   0.145   0.449
 6437TIP3    H219318   2.784   0.209   0.428
 6438TIP3   OH219319   2.484   5.396   0.386
 6438TIP3    H119320   2.469   5.479   0.340
 6438TIP3    H219321   2.552   5.352   0.334
 6439TIP3   OH219322   4.893   5.222   4.764
 6439TIP3    H119323   4.827   5.177   4.817
 6439TIP3    H219324   4.917   5.299   4.815
 6440TIP3   OH219325   3.653   4.621   4.683
 6440TIP3    H119326   3.649   4.546   4.742
 6440TIP3    H219327   3.562   4.651   4.677
 6441TIP3   OH219328   4.869   0.938   1.726
 6441TIP3    H119329   4.892   0.875   1.658
 6441TIP3    H219330   4.898   0.897   1.808
 6442TIP3   OH219331   4.823   2.323   2.278
 6442TIP3    H119332   4.893   2.340   2.214
 6442TIP3    H219333   4.865   2.271   2.346
 6443TIP3   OH219334   0.924   3.534   5.007
 6443TIP3    H119335   0.859   3.561   5.071
 6443TIP3    H219336   0.960   3.452   5.042
 6444TIP3   OH219337   0.812   1.241   3.893
 6444TIP3    H119338   0.794   1.156   3.935
 6444TIP3    H219339   0.903   1.234   3.864
 6445TIP3   OH219340   2.606   1.299   1.144
 6445TIP3    H119341   2.571   1.387   1.158
 6445TIP3    H219342   2.534   1.249   1.106
 6446TIP3   OH219343   2.664   3.251   4.414
 6446TIP3    H119344   2.599   3.245   4.344
 6446TIP3    H219345   2.726   3.181   4.395
 6447TIP3   OH219346   1.161   3.321   3.995
 6447TIP3    H119347   1.141   3.313   4.088
 6447TIP3    H219348   1.130   3.408   3.971
 6448TIP3   OH219349   4.717   0.872   3.767
 6448TIP3    H119350   4.763   0.908   3.842
 6448TIP3    H219351   4.713   0.778   3.784
 6449TIP3   OH219352   2.337   5.105   1.842
 6449TIP3    H119353   2.350   5.112   1.747
 6449TIP3    H219354   2.419   5.068   1.875
 6450TIP3   OH219355   0.110   4.819   4.661
 6450TIP3    H119356   0.038   4.880   4.648
 6450TIP3    H219357   0.079   4.737   4.622
 6451TIP3   OH219358   4.434   3.805   4.978
 6451TIP3    H119359   4.476   3.719   4.979
 6451TIP3    H219360   4.343   3.787   4.955
 6452TIP3   OH219361   4.486   1.910   2.750
 6452TIP3    H119362   4.425   1.876   2.685
 6452TIP3    H219363   4.562   1.937   2.699
 6453TIP3   OH219364   6.196   5.291   0.622
 6453TIP3    H119365   6.286   5.323   0.619
 6453TIP3    H219366   6.142   5.370   0.627
 6454TIP3   OH219367   4.576   5.494   2.464
 6454TIP3    H119368   4.542   5.478   2.552
 6454TIP3    H219369   4.665   5.527   2.478
 6455TIP3   OH219370   6.230   3.528   1.779
 6455TIP3    H119371   6.135   3.530   1.774
 6455TIP3    H219372   6.254   3.442   1.744
 6456TIP3   OH219373   3.966   2.586   1.998
 6456TIP3    H119374   3.873   2.603   1.984
 6456TIP3    H219375   4.011   2.648   1.941
 6457TIP3   OH219376   5.984   3.079   1.053
 6457TIP3    H119377   5.998   3.106   0.963
 6457TIP3    H219378   6.062   3.111   1.100
 6458TIP3   OH219379   5.259   5.804   0.719
 6458TIP3    H119380   5.267   5.724   0.667
 6458TIP3    H219381   5.196   5.782   0.787
 6459TIP3   OH219382   3.423   0.768   1.588
 6459TIP3    H119383   3.486   0.797   1.522
 6459TIP3    H219384   3.377   0.848   1.614
 6460TIP3   OH219385   1.556   3.529   4.286
 6460TIP3    H119386   1.520   3.564   4.368
 6460TIP3    H219387   1.481   3.524   4.227
 6461TIP3   OH219388   2.194   3.225   2.291
 6461TIP3    H119389   2.187   3.134   2.319
 6461TIP3    H219390   2.196   3.275   2.372
 6462TIP3   OH219391   3.999   4.092   1.373
 6462TIP3    H119392   4.090   4.091   1.405
 6462TIP3    H219393   4.006   4.095   1.278
 6463TIP3   OH219394   5.372   5.408   1.565
 6463TIP3    H119395   5.362   5.337   1.628
 6463TIP3    H219396   5.406   5.366   1.486
 6464TIP3   OH219397   5.038   1.011   4.399
 6464TIP3    H119398   5.127   1.008   4.435
 6464TIP3    H219399   5.015   0.919   4.386
 6465TIP3   OH219400   0.848   5.818   4.698
 6465TIP3    H119401   0.802   5.735   4.697
 6465TIP3    H219402   0.899   5.817   4.779
 6466TIP3   OH219403   6.367   0.900   1.034
 6466TIP3    H119404   6.356   0.991   1.005
 6466TIP3    H219405   6.290   0.882   1.087
 6467TIP3   OH219406   5.065   0.789   3.955
 6467TIP3    H119407   4.995   0.838   3.911
 6467TIP3    H219408   5.119   0.754   3.884
 6468TIP3   OH219409   4.885   3.032   3.994
 6468TIP3    H119410   4.852   3.121   4.009
 6468TIP3    H219411   4.888   3.023   3.898
 6469TIP3   OH219412   2.599   3.602   1.157
 6469TIP3    H119413   2.661   3.560   1.216
 6469TIP3    H219414   2.644   3.680   1.125
 6470TIP3   OH219415   3.322   4.831   0.520
 6470TIP3    H119416   3.295   4.813   0.610
 6470TIP3    H219417   3.243   4.865   0.477
 6471TIP3   OH219418   2.912   0.341   1.185
 6471TIP3    H119419   2.951   0.391   1.114
 6471TIP3    H219420   2.983   0.329   1.248
 6472TIP3   OH219421   4.419   2.468   3.754
 6472TIP3    H119422   4.504   2.427   3.765
 6472TIP3    H219423   4.384   2.476   3.843
 6473TIP3   OH219424   3.972   5.054   3.047
 6473TIP3    H119425   3.954   5.096   2.962
 6473TIP3    H219426   4.062   5.022   3.039
 6474TIP3   OH219427   5.386   1.164   1.026
 6474TIP3    H119428   5.316   1.102   1.048
 6474TIP3    H219429   5.459   1.110   0.999
 6475TIP3   OH219430   4.083   3.793   0.230
 6475TIP3    H119431   4.114   3.717   0.280
 6475TIP3    H219432   4.012   3.758   0.175
 6476TIP3   OH219433   3.427   3.088   4.658
 6476TIP3    H119434   3.424   3.037   4.739
 6476TIP3    H219435   3.520   3.089   4.634
 6477TIP3   OH219436   1.620   2.577   0.198
 6477TIP3    H119437   1.595   2.603   0.109
 6477TIP3    H219438   1.540   2.585   0.249
 6478TIP3   OH219439   5.852   2.026   1.823
 6478TIP3    H119440   5.862   2.067   1.909
 6478TIP3    H219441   5.758   2.027   1.806
 6479TIP3   OH219442   3.345   4.588   1.754
 6479TIP3    H119443   3.387   4.506   1.778
 6479TIP3    H219444   3.352   4.642   1.832
 6480TIP3   OH219445   1.860   4.215   2.948
 6480TIP3    H119446   1.772   4.253   2.943
 6480TIP3    H219447   1.918   4.285   2.920
 6481TIP3   OH219448   2.539   0.987   3.174
 6481TIP3    H119449   2.480   1.040   3.120
 6481TIP3    H219450   2.612   0.966   3.117
 6482TIP3   OH219451   5.459   3.838   4.421
 6482TIP3    H119452   5.512   3.855   4.342
 6482TIP3    H219453   5.506   3.766   4.465
 6483TIP3   OH219454   3.660   0.840   1.857
 6483TIP3    H119455   3.571   0.805   1.867
 6483TIP3    H219456   3.654   0.930   1.889
 6484TIP3   OH219457   4.835   4.476   0.411
 6484TIP3    H119458   4.902   4.412   0.389
 6484TIP3    H219459   4.756   4.445   0.366
 6485TIP3   OH219460   5.699   0.280   0.469
 6485TIP3    H119461   5.695   0.351   0.404
 6485TIP3    H219462   5.790   0.278   0.497
 6486TIP3   OH219463   4.033   5.816   3.773
 6486TIP3    H119464   4.060   5.856   3.691
 6486TIP3    H219465   4.052   5.722   3.762
 6487TIP3   OH219466   2.214   4.355   2.227
 6487TIP3    H119467   2.192   4.406   2.149
 6487TIP3    H219468   2.286   4.299   2.199
 6488TIP3   OH219469   0.565   5.943   4.902
 6488TIP3    H119470   0.541   6.034   4.885
 6488TIP3    H219471   0.530   5.924   4.989
 6489TIP3   OH219472   1.896   0.719   3.144
 6489TIP3    H119473   1.862   0.713   3.234
 6489TIP3    H219474   1.970   0.779   3.151
 6490TIP3   OH219475   3.150   4.038   4.005
 6490TIP3    H119476   3.109   4.124   3.997
 6490TIP3    H219477   3.242   4.053   3.986
 6491TIP3   OH219478   4.144   1.084   0.817
 6491TIP3    H119479   4.165   1.160   0.871
 6491TIP3    H219480   4.110   1.019   0.878
 6492TIP3   OH219481   5.026   4.266   0.306
 6492TIP3    H119482   5.068   4.338   0.259
 6492TIP3    H219483   4.980   4.217   0.239
 6493TIP3   OH219484   5.795   0.817   1.067
 6493TIP3    H119485   5.799   0.888   1.130
 6493TIP3    H219486   5.838   0.852   0.988
 6494TIP3   OH219487   4.134   0.273   1.424
 6494TIP3    H119488   4.114   0.278   1.331
 6494TIP3    H219489   4.142   0.365   1.452
 6495TIP3   OH219490   0.088   0.312   0.363
 6495TIP3    H119491   0.111   0.358   0.282
 6495TIP3    H219492   0.097   0.379   0.431
 6496TIP3   OH219493   3.089   5.397   0.407
 6496TIP3    H119494   3.178   5.400   0.442
 6496TIP3    H219495   3.046   5.328   0.457
 6497TIP3   OH219496   4.515   4.742   3.173
 6497TIP3    H119497   4.456   4.695   3.232
 6497TIP3    H219498   4.513   4.692   3.092
 6498TIP3   OH219499   2.331   3.269   2.800
 6498TIP3    H119500   2.403   3.257   2.862
 6498TIP3    H219501   2.342   3.358   2.767
 6499TIP3   OH219502   4.666   5.044   3.771
 6499TIP3    H119503   4.715   4.999   3.702
 6499TIP3    H219504   4.691   5.136   3.762
 6500TIP3   OH219505   6.084   2.712   3.028
 6500TIP3    H119506   6.088   2.668   2.943
 6500TIP3    H219507   6.171   2.701   3.065
 6501TIP3   OH219508   3.423   0.932   4.984
 6501TIP3    H119509   3.479   0.958   4.911
 6501TIP3    H219510   3.481   0.885   5.044
 6502TIP3   OH219511   0.802   3.781   1.932
 6502TIP3    H119512   0.760   3.863   1.907
 6502TIP3    H219513   0.729   3.720   1.946
 6503TIP3   OH219514   6.246   4.974   2.545
 6503TIP3    H119515   6.317   4.981   2.482
 6503TIP3    H219516   6.176   5.028   2.509
 6504TIP3   OH219517   4.439   2.970   3.665
 6504TIP3    H119518   4.349   3.001   3.661
 6504TIP3    H219519   4.432   2.878   3.690
 6505TIP3   OH219520   4.861   0.810   4.848
 6505TIP3    H119521   4.941   0.767   4.818
 6505TIP3    H219522   4.891   0.874   4.911
 6506TIP3   OH219523   5.278   4.128   1.912
 6506TIP3    H119524   5.350   4.144   1.850
 6506TIP3    H219525   5.223   4.206   1.903
 6507TIP3   OH219526   1.654   5.677   2.623
 6507TIP3    H119527   1.572   5.722   2.601
 6507TIP3    H219528   1.655   5.674   2.719
 6508TIP3   OH219529   5.650   0.863   1.611
 6508TIP3    H119530   5.667   0.788   1.668
 6508TIP3    H219531   5.589   0.918   1.661
 6509TIP3   OH219532   0.192   1.499   1.656
 6509TIP3    H119533   0.183   1.423   1.598
 6509TIP3    H219534   0.242   1.467   1.730
 6510TIP3   OH219535   2.621   4.841   1.428
 6510TIP3    H119536   2.653   4.800   1.508
 6510TIP3    H219537   2.700   4.879   1.388
 6511TIP3   OH219538   4.595   2.219   3.358
 6511TIP3    H119539   4.593   2.156   3.430
 6511TIP3    H219540   4.548   2.295   3.392
 6512TIP3   OH219541   3.994   5.166   4.187
 6512TIP3    H119542   3.972   5.106   4.259
 6512TIP3    H219543   4.089   5.157   4.177
 6513TIP3   OH219544   0.511   4.678   0.837
 6513TIP3    H119545   0.455   4.721   0.772
 6513TIP3    H219546   0.508   4.585   0.813
 6514TIP3   OH219547   2.553   4.932   1.135
 6514TIP3    H119548   2.587   4.997   1.196
 6514TIP3    H219549   2.626   4.916   1.075
 6515TIP3   OH219550   5.755   0.648   4.432
 6515TIP3    H119551   5.775   0.591   4.357
 6515TIP3    H219552   5.741   0.587   4.505
 6516TIP3   OH219553   5.964   2.719   1.026
 6516TIP3    H119554   6.040   2.689   1.075
 6516TIP3    H219555   5.934   2.642   0.978
 6517TIP3   OH219556   1.326   5.324   0.233
 6517TIP3    H119557   1.261   5.281   0.178
 6517TIP3    H219558   1.353   5.401   0.182
 6518TIP3   OH219559   2.930   4.958   3.898
 6518TIP3    H119560   2.958   4.892   3.961
 6518TIP3    H219561   2.981   5.036   3.920
 6519TIP3   OH219562   3.594   2.855   1.585
 6519TIP3    H119563   3.572   2.932   1.637
 6519TIP3    H219564   3.509   2.819   1.558
 6520TIP3   OH219565   2.998   1.539   2.611
 6520TIP3    H119566   2.995   1.447   2.634
 6520TIP3    H219567   3.006   1.585   2.695
 6521TIP3   OH219568   0.191   2.581   1.338
 6521TIP3    H119569   0.160   2.589   1.248
 6521TIP3    H219570   0.233   2.666   1.356
 6522TIP3   OH219571   4.649   2.079   1.192
 6522TIP3    H119572   4.711   2.006   1.180
 6522TIP3    H219573   4.638   2.086   1.286
 6523TIP3   OH219574   3.389   0.904   0.982
 6523TIP3    H119575   3.436   0.860   0.912
 6523TIP3    H219576   3.429   0.990   0.988
 6524TIP3   OH219577   4.655   4.574   4.692
 6524TIP3    H119578   4.723   4.517   4.728
 6524TIP3    H219579   4.657   4.558   4.598
 6525TIP3   OH219580   4.558   2.708   1.713
 6525TIP3    H119581   4.508   2.636   1.674
 6525TIP3    H219582   4.498   2.748   1.776
 6526TIP3   OH219583   2.142   4.993   4.322
 6526TIP3    H119584   2.054   5.027   4.339
 6526TIP3    H219585   2.201   5.063   4.351
 6527TIP3   OH219586   2.368   3.028   2.132
 6527TIP3    H119587   2.302   2.959   2.144
 6527TIP3    H219588   2.323   3.096   2.083
 6528TIP3   OH219589   0.025   5.623   2.617
 6528TIP3    H119590  -0.070   5.627   2.628
 6528TIP3    H219591   0.037   5.612   2.523
 6529TIP3   OH219592   5.825   1.680   0.550
 6529TIP3    H119593   5.768   1.695   0.626
 6529TIP3    H219594   5.913   1.679   0.587
 6530TIP3   OH219595   0.340   4.287   2.750
 6530TIP3    H119596   0.375   4.261   2.665
 6530TIP3    H219597   0.351   4.382   2.753
 6531TIP3   OH219598   1.493   0.781   3.037
 6531TIP3    H119599   1.423   0.720   3.013
 6531TIP3    H219600   1.574   0.732   3.019
 6532TIP3   OH219601   4.517   1.173   4.268
 6532TIP3    H119602   4.584   1.198   4.204
 6532TIP3    H219603   4.567   1.145   4.345
 6533TIP3   OH219604   5.783   5.254   0.042
 6533TIP3    H119605   5.758   5.342   0.014
 6533TIP3    H219606   5.798   5.263   0.136
 6534TIP3   OH219607   2.226   5.776   0.813
 6534TIP3    H119608   2.222   5.797   0.719
 6534TIP3    H219609   2.213   5.861   0.856
 6535TIP3   OH219610   0.100   0.093   2.547
 6535TIP3    H119611   0.135   0.153   2.613
 6535TIP3    H219612   0.163   0.021   2.544
 6536TIP3   OH219613   6.074   5.297   3.259
 6536TIP3    H119614   5.992   5.252   3.280
 6536TIP3    H219615   6.053   5.351   3.183
 6537TIP3   OH219616   1.547   1.946   3.338
 6537TIP3    H119617   1.609   1.898   3.393
 6537TIP3    H219618   1.585   1.942   3.251
 6538TIP3   OH219619   6.226   0.413   3.988
 6538TIP3    H119620   6.288   0.416   3.915
 6538TIP3    H219621   6.182   0.497   3.986
 6539TIP3   OH219622   0.553   4.820   2.784
 6539TIP3    H119623   0.553   4.734   2.741
 6539TIP3    H219624   0.469   4.859   2.758
 6540TIP3   OH219625   2.302   1.886   3.883
 6540TIP3    H119626   2.236   1.939   3.928
 6540TIP3    H219627   2.288   1.798   3.917
 6541TIP3   OH219628   1.010   0.558   1.417
 6541TIP3    H119629   1.075   0.513   1.363
 6541TIP3    H219630   0.960   0.611   1.355
 6542TIP3   OH219631   3.724   1.654   4.728
 6542TIP3    H119632   3.791   1.671   4.794
 6542TIP3    H219633   3.773   1.634   4.648
 6543TIP3   OH219634   5.459   4.660   4.833
 6543TIP3    H119635   5.403   4.737   4.823
 6543TIP3    H219636   5.507   4.653   4.751
 6544TIP3   OH219637   0.337   0.781   4.315
 6544TIP3    H119638   0.370   0.810   4.400
 6544TIP3    H219639   0.266   0.720   4.336
 6545TIP3   OH219640   4.384   1.641   0.513
 6545TIP3    H119641   4.315   1.602   0.569
 6545TIP3    H219642   4.346   1.641   0.425
 6546TIP3   OH219643   6.262   1.945   4.590
 6546TIP3    H119644   6.319   1.889   4.537
 6546TIP3    H219645   6.299   1.941   4.678
 6547TIP3   OH219646   3.901   3.078   2.641
 6547TIP3    H119647   3.995   3.080   2.620
 6547TIP3    H219648   3.860   3.046   2.560
 6548TIP3   OH219649   5.695   5.768   3.823
 6548TIP3    H119650   5.664   5.819   3.748
 6548TIP3    H219651   5.636   5.693   3.827
 6549TIP3   OH219652   0.362   1.129   1.710
 6549TIP3    H119653   0.344   1.071   1.784
 6549TIP3    H219654   0.345   1.075   1.632
 6550TIP3   OH219655   4.869   5.873   3.183
 6550TIP3    H119656   4.799   5.833   3.234
 6550TIP3    H219657   4.850   5.966   3.185
 6551TIP3   OH219658   2.063   1.667   1.009
 6551TIP3    H119659   2.147   1.667   1.054
 6551TIP3    H219660   2.077   1.613   0.931
 6552TIP3   OH219661   1.768   0.774   4.381
 6552TIP3    H119662   1.777   0.865   4.353
 6552TIP3    H219663   1.780   0.723   4.302
 6553TIP3   OH219664   3.006   3.266   1.514
 6553TIP3    H119665   2.980   3.179   1.541
 6553TIP3    H219666   2.931   3.322   1.534
 6554TIP3   OH219667   4.294   2.231   2.857
 6554TIP3    H119668   4.302   2.309   2.802
 6554TIP3    H219669   4.381   2.191   2.855
 6555TIP3   OH219670   2.368   0.316   0.728
 6555TIP3    H119671   2.452   0.282   0.697
 6555TIP3    H219672   2.374   0.411   0.714
 6556TIP3   OH219673   1.867   4.735   3.078
 6556TIP3    H119674   1.909   4.800   3.021
 6556TIP3    H219675   1.791   4.705   3.027
 6557TIP3   OH219676   5.464   2.522   1.902
 6557TIP3    H119677   5.462   2.435   1.861
 6557TIP3    H219678   5.549   2.558   1.876
 6558TIP3   OH219679   6.012   3.165   4.780
 6558TIP3    H119680   6.002   3.259   4.768
 6558TIP3    H219681   6.084   3.141   4.722
 6559TIP3   OH219682   6.211   5.248   4.652
 6559TIP3    H119683   6.186   5.303   4.726
 6559TIP3    H219684   6.200   5.305   4.575
 6560TIP3   OH219685   5.040   5.867   1.328
 6560TIP3    H119686   4.946   5.854   1.340
 6560TIP3    H219687   5.070   5.786   1.285
 6561TIP3   OH219688   4.687   4.897   3.344
 6561TIP3    H119689   4.734   4.855   3.271
 6561TIP3    H219690   4.606   4.846   3.352
 6562TIP3   OH219691   3.528   0.105   1.099
 6562TIP3    H119692   3.623   0.097   1.090
 6562TIP3    H219693   3.500   0.156   1.022
 6563TIP3   OH219694   4.939   0.750   4.437
 6563TIP3    H119695   4.927   0.742   4.343
 6563TIP3    H219696   4.874   0.690   4.474
 6564TIP3   OH219697   1.573   2.087   1.931
 6564TIP3    H119698   1.618   2.034   1.865
 6564TIP3    H219699   1.598   2.047   2.015
 6565TIP3   OH219700   5.248   3.897   4.115
 6565TIP3    H119701   5.194   3.914   4.039
 6565TIP3    H219702   5.211   3.952   4.184
 6566TIP3   OH219703   5.891   0.957   0.827
 6566TIP3    H119704   5.961   0.926   0.770
 6566TIP3    H219705   5.855   1.033   0.782
 6567TIP3   OH219706   0.658   1.846   3.798
 6567TIP3    H119707   0.648   1.914   3.865
 6567TIP3    H219708   0.724   1.787   3.834
 6568TIP3   OH219709   3.939   3.644   4.643
 6568TIP3    H119710   3.963   3.581   4.576
 6568TIP3    H219711   3.999   3.718   4.630
 6569TIP3   OH219712   5.713   4.725   3.806
 6569TIP3    H119713   5.742   4.657   3.745
 6569TIP3    H219714   5.727   4.687   3.893
 6570TIP3   OH219715   6.252   2.253   4.915
 6570TIP3    H119716   6.176   2.239   4.859
 6570TIP3    H219717   6.215   2.290   4.996
 6571TIP3   OH219718   2.883   0.927   3.777
 6571TIP3    H119719   2.960   0.895   3.731
 6571TIP3    H219720   2.837   0.848   3.805
 6572TIP3   OH219721   1.558   2.631   2.181
 6572TIP3    H119722   1.537   2.698   2.116
 6572TIP3    H219723   1.562   2.679   2.264
 6573TIP3   OH219724   0.358   4.036   1.019
 6573TIP3    H119725   0.391   4.125   1.031
 6573TIP3    H219726   0.264   4.046   1.005
 6574TIP3   OH219727   2.703   3.779   1.477
 6574TIP3    H119728   2.745   3.708   1.429
 6574TIP3    H219729   2.719   3.857   1.424
 6575TIP3   OH219730   2.442   4.188   4.148
 6575TIP3    H119731   2.468   4.147   4.231
 6575TIP3    H219732   2.525   4.217   4.109
 6576TIP3   OH219733   2.776   2.456   5.084
 6576TIP3    H119734   2.699   2.460   5.141
 6576TIP3    H219735   2.844   2.503   5.133
 6577TIP3   OH219736   0.400   2.305   4.911
 6577TIP3    H119737   0.448   2.339   4.987
 6577TIP3    H219738   0.309   2.299   4.941
 6578TIP3   OH219739   4.398   0.974   2.851
 6578TIP3    H119740   4.395   0.902   2.789
 6578TIP3    H219741   4.453   1.041   2.808
 6579TIP3   OH219742   0.542   1.493   4.550
 6579TIP3    H119743   0.542   1.445   4.467
 6579TIP3    H219744   0.450   1.514   4.565
 6580TIP3   OH219745   1.191   1.457   4.705
 6580TIP3    H119746   1.215   1.550   4.711
 6580TIP3    H219747   1.105   1.453   4.749
 6581TIP3   OH219748   0.118   4.932   1.299
 6581TIP3    H119749   0.156   4.845   1.307
 6581TIP3    H219750   0.085   4.953   1.386
 6582TIP3   OH219751   3.043   1.718   4.770
 6582TIP3    H119752   3.073   1.629   4.789
 6582TIP3    H219753   2.985   1.740   4.843
 6583TIP3   OH219754   0.086   4.432   3.182
 6583TIP3    H119755   0.132   4.405   3.103
 6583TIP3    H219756  -0.007   4.429   3.158
 6584TIP3   OH219757   0.554   5.127   0.721
 6584TIP3    H119758   0.560   5.038   0.756
 6584TIP3    H219759   0.544   5.183   0.798
 6585TIP3   OH219760   6.122   0.161   1.293
 6585TIP3    H119761   6.184   0.208   1.348
 6585TIP3    H219762   6.131   0.069   1.320
 6586TIP3   OH219763   6.064   5.930   3.033
 6586TIP3    H119764   6.105   5.860   2.982
 6586TIP3    H219765   6.052   6.001   2.969
 6587TIP3   OH219766   1.684   4.625   0.385
 6587TIP3    H119767   1.653   4.574   0.310
 6587TIP3    H219768   1.706   4.711   0.349
 6588TIP3   OH219769   3.878   5.886   1.707
 6588TIP3    H119770   3.887   5.799   1.746
 6588TIP3    H219771   3.784   5.895   1.691
 6589TIP3   OH219772   3.630   3.725   1.536
 6589TIP3    H119773   3.712   3.742   1.490
 6589TIP3    H219774   3.625   3.794   1.603
 6590TIP3   OH219775   4.406   3.709   4.535
 6590TIP3    H119776   4.454   3.634   4.498
 6590TIP3    H219777   4.404   3.773   4.464
 6591TIP3   OH219778   1.925   2.316   0.552
 6591TIP3    H119779   1.913   2.221   0.543
 6591TIP3    H219780   1.919   2.332   0.646
 6592TIP3   OH219781   2.895   1.723   4.320
 6592TIP3    H119782   2.899   1.666   4.397
 6592TIP3    H219783   2.807   1.710   4.285
 6593TIP3   OH219784   0.760   3.700   2.266
 6593TIP3    H119785   0.753   3.769   2.332
 6593TIP3    H219786   0.854   3.681   2.260
 6594TIP3   OH219787   2.467   1.219   1.568
 6594TIP3    H119788   2.420   1.248   1.489
 6594TIP3    H219789   2.467   1.124   1.563
 6595TIP3   OH219790   3.026   2.521   3.403
 6595TIP3    H119791   3.077   2.449   3.366
 6595TIP3    H219792   2.937   2.486   3.409
 6596TIP3   OH219793   4.627   3.819   4.652
 6596TIP3    H119794   4.551   3.762   4.641
 6596TIP3    H219795   4.625   3.876   4.575
 6597TIP3   OH219796   0.066   4.900   2.794
 6597TIP3    H119797   0.045   4.836   2.726
 6597TIP3    H219798   0.104   4.974   2.746
 6598TIP3   OH219799   2.778   2.206   4.977
 6598TIP3    H119800   2.775   2.285   5.031
 6598TIP3    H219801   2.712   2.149   5.016
 6599TIP3   OH219802   1.498   5.190   0.383
 6599TIP3    H119803   1.448   5.246   0.324
 6599TIP3    H219804   1.574   5.242   0.407
 6600TIP3   OH219805   2.641   2.744   2.251
 6600TIP3    H119806   2.652   2.839   2.256
 6600TIP3    H219807   2.619   2.717   2.340
 6601TIP3   OH219808   4.544   2.375   4.860
 6601TIP3    H119809   4.590   2.435   4.919
 6601TIP3    H219810   4.602   2.366   4.784
 6602TIP3   OH219811   1.916   5.199   1.940
 6602TIP3    H119812   1.872   5.284   1.940
 6602TIP3    H219813   1.883   5.155   1.862
 6603TIP3   OH219814   4.075   4.356   5.071
 6603TIP3    H119815   4.130   4.408   5.014
 6603TIP3    H219816   4.061   4.274   5.023
 6604TIP3   OH219817   4.036   1.068   3.818
 6604TIP3    H119818   4.020   1.111   3.734
 6604TIP3    H219819   3.951   1.029   3.841
 6605TIP3   OH219820   3.616   4.915   4.180
 6605TIP3    H119821   3.606   4.822   4.199
 6605TIP3    H219822   3.623   4.957   4.266
 6606TIP3   OH219823   0.807   1.214   1.541
 6606TIP3    H119824   0.758   1.212   1.459
 6606TIP3    H219825   0.758   1.156   1.600
 6607TIP3   OH219826   0.918   0.816   0.567
 6607TIP3    H119827   0.910   0.902   0.607
 6607TIP3    H219828   1.007   0.788   0.588
 6608TIP3   OH219829   3.435   5.656   2.735
 6608TIP3    H119830   3.509   5.712   2.710
 6608TIP3    H219831   3.421   5.674   2.827
 6609TIP3   OH219832   1.958   2.483   3.367
 6609TIP3    H119833   1.874   2.440   3.383
 6609TIP3    H219834   2.019   2.442   3.429
 6610TIP3   OH219835   4.814   2.152   3.205
 6610TIP3    H119836   4.803   2.097   3.128
 6610TIP3    H219837   4.729   2.151   3.248
 6611TIP3   OH219838   0.916   3.509   1.401
 6611TIP3    H119839   0.873   3.564   1.335
 6611TIP3    H219840   0.924   3.423   1.360
 6612TIP3   OH219841   4.500   4.329   4.073
 6612TIP3    H119842   4.577   4.356   4.022
 6612TIP3    H219843   4.435   4.397   4.054
 6613TIP3   OH219844   5.956   3.558   0.959
 6613TIP3    H119845   5.960   3.636   1.015
 6613TIP3    H219846   6.048   3.531   0.950
 6614TIP3   OH219847   1.835   1.109   0.803
 6614TIP3    H119848   1.867   1.130   0.890
 6614TIP3    H219849   1.741   1.095   0.814
 6615TIP3   OH219850   0.946   5.186   0.383
 6615TIP3    H119851   1.024   5.157   0.430
 6615TIP3    H219852   0.875   5.180   0.447
 6616TIP3   OH219853   0.543   3.668   0.075
 6616TIP3    H119854   0.546   3.748   0.127
 6616TIP3    H219855   0.524   3.599   0.138
 6617TIP3   OH219856   2.452   0.945   1.498
 6617TIP3    H119857   2.373   0.917   1.453
 6617TIP3    H219858   2.485   0.867   1.542
 6618TIP3   OH219859   0.720   2.188   3.640
 6618TIP3    H119860   0.815   2.179   3.649
 6618TIP3    H219861   0.700   2.149   3.555
 6619TIP3   OH219862   1.079   4.440   3.020
 6619TIP3    H119863   1.013   4.391   3.069
 6619TIP3    H219864   1.041   4.451   2.933
 6620TIP3   OH219865   0.630   5.635   2.868
 6620TIP3    H119866   0.557   5.696   2.874
 6620TIP3    H219867   0.624   5.599   2.779
 6621TIP3   OH219868   4.196   4.534   1.852
 6621TIP3    H119869   4.185   4.448   1.892
 6621TIP3    H219870   4.156   4.595   1.915
 6622TIP3   OH219871   3.373   3.895   2.135
 6622TIP3    H119872   3.335   3.957   2.074
 6622TIP3    H219873   3.380   3.944   2.217
 6623TIP3   OH219874   5.826   5.652   2.708
 6623TIP3    H119875   5.864   5.599   2.778
 6623TIP3    H219876   5.773   5.717   2.754
 6624TIP3   OH219877   4.632   5.804   3.965
 6624TIP3    H119878   4.660   5.809   4.056
 6624TIP3    H219879   4.540   5.779   3.970
 6625TIP3   OH219880   2.612   0.344   3.054
 6625TIP3    H119881   2.698   0.348   3.012
 6625TIP3    H219882   2.617   0.267   3.111
 6626TIP3   OH219883   6.116   5.810   0.197
 6626TIP3    H119884   6.162   5.867   0.259
 6626TIP3    H219885   6.025   5.808   0.229
 6627TIP3   OH219886   0.583   2.132   0.359
 6627TIP3    H119887   0.549   2.218   0.383
 6627TIP3    H219888   0.667   2.150   0.316
 6628TIP3   OH219889   5.616   2.389   1.597
 6628TIP3    H119890   5.685   2.325   1.616
 6628TIP3    H219891   5.564   2.349   1.527
 6629TIP3   OH219892   2.985   0.428   3.718
 6629TIP3    H119893   3.069   0.449   3.676
 6629TIP3    H219894   3.003   0.435   3.812
 6630TIP3   OH219895   3.749   4.469   2.374
 6630TIP3    H119896   3.814   4.536   2.352
 6630TIP3    H219897   3.668   4.499   2.333
 6631TIP3   OH219898   6.038   0.855   4.722
 6631TIP3    H119899   6.070   0.883   4.807
 6631TIP3    H219900   6.099   0.893   4.659
 6632TIP3   OH219901   1.554   5.212   2.051
 6632TIP3    H119902   1.612   5.287   2.069
 6632TIP3    H219903   1.477   5.228   2.105
 6633TIP3   OH219904   0.088   5.488   1.110
 6633TIP3    H119905   0.005   5.491   1.063
 6633TIP3    H219906   0.073   5.424   1.180
 6634TIP3   OH219907   5.331   5.829   1.458
 6634TIP3    H119908   5.318   5.747   1.411
 6634TIP3    H219909   5.406   5.870   1.414
 6635TIP3   OH219910   4.298   5.776   4.527
 6635TIP3    H119911   4.349   5.847   4.565
 6635TIP3    H219912   4.321   5.778   4.434
 6636TIP3   OH219913   4.180   2.152   2.439
 6636TIP3    H119914   4.165   2.113   2.525
 6636TIP3    H219915   4.130   2.097   2.379
 6637TIP3   OH219916   4.324   2.480   1.978
 6637TIP3    H119917   4.327   2.502   1.885
 6637TIP3    H219918   4.243   2.521   2.009
 6638TIP3   OH219919   1.613   2.050   0.228
 6638TIP3    H119920   1.665   2.114   0.180
 6638TIP3    H219921   1.619   1.970   0.175
 6639TIP3   OH219922   0.910   0.296   0.715
 6639TIP3    H119923   0.951   0.299   0.801
 6639TIP3    H219924   0.939   0.376   0.671
 6640TIP3   OH219925   4.089   1.493   1.609
 6640TIP3    H119926   4.162   1.516   1.666
 6640TIP3    H219927   4.113   1.528   1.523
 6641TIP3   OH219928   4.905   0.951   2.930
 6641TIP3    H119929   4.989   0.923   2.895
 6641TIP3    H219930   4.840   0.909   2.873
 6642TIP3   OH219931   2.788   0.069   3.030
 6642TIP3    H119932   2.837   0.137   3.077
 6642TIP3    H219933   2.832  -0.013   3.054
 6643TIP3   OH219934   2.709   1.543   2.974
 6643TIP3    H119935   2.715   1.548   2.878
 6643TIP3    H219936   2.779   1.484   2.999
 6644TIP3   OH219937   5.723   0.138   4.934
 6644TIP3    H119938   5.736   0.117   5.026
 6644TIP3    H219939   5.681   0.060   4.898
 6645TIP3   OH219940   5.902   2.446   3.338
 6645TIP3    H119941   5.893   2.467   3.431
 6645TIP3    H219942   5.825   2.391   3.319
   6.33209   5.96995   5.17014   0.00000   0.00000  -2.11070   0.00000  -2.11070  -2.98498
