Title
19927
    1ASP      N    1   1.320   1.900   1.445 -0.0412  0.4203 -0.4612
    1ASP    HT1    2   1.336   1.974   1.373  0.0552  0.6857 -0.1689
    1ASP    HT2    3   1.419   1.871   1.460 -0.1643 -0.2985 -1.0075
    1ASP    HT3    4   1.284   1.946   1.531  0.5132  0.4972 -0.2632
    1ASP     CA    5   1.235   1.797   1.390 -0.1977  0.5067  0.2336
    1ASP     HA    6   1.152   1.848   1.343 -0.2718 -0.1805 -0.3879
    1ASP     CB    7   1.306   1.714   1.282 -0.0409 -0.0248  0.2094
    1ASP    HB1    8   1.392   1.661   1.329  0.3148  0.5783  0.2543
    1ASP    HB2    9   1.344   1.785   1.206 -0.9530 -1.2976 -1.5189
    1ASP     CG   10   1.217   1.615   1.211 -0.4133 -0.1202 -0.4842
    1ASP    OD1   11   1.266   1.511   1.157 -0.1718 -0.2721  0.4226
    1ASP    OD2   12   1.096   1.642   1.200  0.1991  0.2444 -0.2527
    1ASP      C   13   1.172   1.724   1.510  0.2738  0.2488  0.2292
    1ASP      O   14   1.241   1.711   1.608 -0.3044 -0.8147  0.0690
    2ALA      N   15   1.046   1.676   1.498  0.3187  0.1298  0.3042
    2ALA     HN   16   1.006   1.664   1.407 -0.6583 -3.4078  1.0198
    2ALA     CA   17   0.965   1.631   1.613  0.1137  0.2482  0.6611
    2ALA     HA   18   0.866   1.608   1.577  0.4273 -0.3032  0.1149
    2ALA     CB   19   1.006   1.487   1.656 -0.0081  0.2486 -0.1090
    2ALA    HB1   20   0.923   1.455   1.722 -1.3027  1.4628 -1.0763
    2ALA    HB2   21   1.099   1.480   1.715 -0.2363 -3.0599  0.0398
    2ALA    HB3   22   1.005   1.409   1.577  1.7623  0.0731  0.0083
    2ALA      C   23   0.942   1.725   1.720 -0.8505 -0.5158 -0.7837
    2ALA      O   24   0.926   1.841   1.688 -0.0043  0.3956 -0.2487
    3ASP      N   25   0.935   1.686   1.849  0.0234 -0.1374 -0.3565
    3ASP     HN   26   0.931   1.590   1.873 -0.3884  0.5330  2.6721
    3ASP     CA   27   0.956   1.767   1.966 -0.0574  0.4606 -0.5722
    3ASP     HA   28   0.936   1.872   1.946 -2.1285  0.2232  0.0318
    3ASP     CB   29   0.865   1.722   2.085  0.0525  0.2268 -0.7869
    3ASP    HB1   30   0.892   1.768   2.182  2.3669 -0.1662 -1.1822
    3ASP    HB2   31   0.880   1.612   2.098  0.8544  0.1865 -1.8677
    3ASP     CG   32   0.715   1.738   2.043 -0.9486  0.1622  0.2004
    3ASP    OD1   33   0.676   1.853   2.015  0.0326 -0.1623  0.5378
    3ASP    OD2   34   0.639   1.640   2.041  0.0591  0.6333 -0.5446
    3ASP      C   35   1.106   1.758   2.007 -0.2491  0.1686  0.2331
    3ASP      O   36   1.152   1.659   2.064 -0.5352 -0.3809 -0.5778
    4GLY      N   37   1.186   1.866   1.985  0.8093  0.5768  0.0159
    4GLY     HN   38   1.141   1.951   1.957 -0.2952  1.0224  2.8650
    4GLY     CA   39   1.326   1.877   2.019 -0.3582  0.1573  0.0380
    4GLY    HA1   40   1.357   1.962   1.960  0.3703 -0.3192 -0.2749
    4GLY    HA2   41   1.358   1.784   1.976  0.5871 -0.1338  1.3358
    4GLY      C   42   1.355   1.883   2.164  0.0060  0.1980 -0.5137
    4GLY      O   43   1.275   1.934   2.244 -0.3817  0.3119 -0.7104
    5PRO      N   44   1.473   1.837   2.211  0.1778 -0.7267 -0.7299
    5PRO     CD   45   1.572   1.779   2.119 -0.4640 -0.1096  0.2179
    5PRO    HD1   46   1.608   1.860   2.052 -1.8363  0.7259  0.4477
    5PRO    HD2   47   1.529   1.701   2.053  2.0166 -1.3317 -0.0627
    5PRO     CA   48   1.537   1.869   2.335  0.0934 -0.4853  0.6115
    5PRO     HA   49   1.494   1.799   2.405 -0.3468  0.4403  1.2890
    5PRO     CB   50   1.686   1.830   2.313  0.5828 -0.3240 -0.3769
    5PRO    HB1   51   1.745   1.810   2.405  2.0629  1.5229 -0.8403
    5PRO    HB2   52   1.740   1.912   2.261 -0.0265 -0.3542 -1.0769
    5PRO     CG   53   1.687   1.723   2.201 -0.8812 -0.4774 -0.1089
    5PRO    HG1   54   1.786   1.732   2.152 -1.6567 -0.1393 -1.6893
    5PRO    HG2   55   1.668   1.621   2.242 -0.9382 -0.4182  0.0102
    5PRO      C   56   1.520   2.007   2.388  0.3085 -0.4160  0.9748
    5PRO      O   57   1.536   2.102   2.312 -0.2229  0.0011  0.1538
    6GLY      N   58   1.497   2.009   2.524  0.2644  0.3547  0.0213
    6GLY     HN   59   1.480   1.926   2.578 -3.0501  2.6497  3.0567
    6GLY     CA   60   1.513   2.130   2.612  0.0323 -0.2425 -0.2836
    6GLY    HA1   61   1.540   2.090   2.709  0.0016 -0.7527 -0.4833
    6GLY    HA2   62   1.426   2.193   2.610  0.3650  0.3017  1.0487
    6GLY      C   63   1.640   2.217   2.575  0.3326  0.0334 -0.4123
    6GLY      O   64   1.752   2.173   2.548 -0.1660  0.0939  0.2242
    7ASP      N   65   1.621   2.350   2.588 -0.5855 -0.0484  0.5101
    7ASP     HN   66   1.532   2.390   2.610 -0.0810  0.3792  1.9004
    7ASP     CA   67   1.731   2.451   2.589 -0.6404  0.5652 -0.0312
    7ASP     HA   68   1.794   2.427   2.505 -1.7940 -2.8172 -0.0816
    7ASP     CB   69   1.676   2.593   2.575 -0.7392  0.2776  0.2817
    7ASP    HB1   70   1.745   2.675   2.604  1.5760 -0.9074 -1.5065
    7ASP    HB2   71   1.582   2.603   2.635 -2.2620 -0.4358 -1.8469
    7ASP     CG   72   1.632   2.624   2.434  0.8251 -0.0999  0.3203
    7ASP    OD1   73   1.633   2.534   2.349  0.5478  0.6226  0.6750
    7ASP    OD2   74   1.602   2.743   2.403  0.3646  0.5338  0.2776
    7ASP      C   75   1.826   2.437   2.714  0.5404  0.1291 -0.0532
    7ASP      O   76   1.767   2.404   2.824 -0.0449 -0.4774 -0.4984
    8PRO      N   77   1.957   2.460   2.714 -0.2569  0.1051 -0.4610
    8PRO     CD   78   2.032   2.500   2.591  0.1743 -0.5586 -1.0077
    8PRO    HD1   79   1.974   2.567   2.525 -0.1166  1.0252  0.7896
    8PRO    HD2   80   2.046   2.412   2.523 -0.7326 -0.8942 -0.7754
    8PRO     CA   81   2.043   2.471   2.834 -0.7514 -0.3150 -0.2399
    8PRO     HA   82   2.039   2.383   2.896  2.6051 -0.4672 -0.0588
    8PRO     CB   83   2.183   2.493   2.777  0.1047  0.0342 -0.1212
    8PRO    HB1   84   2.222   2.394   2.746 -0.5380  0.1996 -1.5401
    8PRO    HB2   85   2.252   2.548   2.844 -1.4980  0.0975  1.5708
    8PRO     CG   86   2.160   2.570   2.643  0.2562  0.5774  0.1869
    8PRO    HG1   87   2.144   2.678   2.664 -1.0311  0.2585  0.9692
    8PRO    HG2   88   2.234   2.553   2.561  0.2344 -2.5038  0.6561
    8PRO      C   89   2.003   2.585   2.920 -0.3223  0.6809  0.1250
    8PRO      O   90   2.014   2.703   2.885 -0.0584 -0.5319 -0.3093
    9ASP      N   91   1.948   2.552   3.032  0.0709  0.1964 -0.1051
    9ASP     HN   92   1.948   2.457   3.064 -3.1862  0.6124  1.6637
    9ASP     CA   93   1.887   2.643   3.130 -0.5136 -0.4788  0.6577
    9ASP     HA   94   1.817   2.702   3.074  1.1805  1.2908  0.2829
    9ASP     CB   95   1.809   2.577   3.241  0.5340  0.2898  0.4926
    9ASP    HB1   96   1.801   2.637   3.334  0.9043 -0.8908  1.2962
    9ASP    HB2   97   1.870   2.491   3.273 -0.0943 -1.5175 -2.7017
    9ASP     CG   98   1.676   2.539   3.183  0.2067 -0.3745 -0.3574
    9ASP    OD1   99   1.609   2.630   3.130  0.4417  0.2759 -0.1207
    9ASP    OD2  100   1.635   2.424   3.191  0.5692  0.0489 -0.1728
    9ASP      C  101   1.988   2.749   3.189 -0.4316 -0.3450 -0.2892
    9ASP      O  102   2.105   2.717   3.201 -1.0408  0.2119 -0.0129
   10ALA      N  103   1.940   2.867   3.234  0.0064  0.8503  0.6409
   10ALA     HN  104   1.845   2.889   3.212 -0.8978 -2.5898  0.4034
   10ALA     CA  105   2.010   2.978   3.290  0.5046  0.6798  0.3468
   10ALA     HA  106   2.082   2.999   3.212 -1.1350  1.3834 -1.0650
   10ALA     CB  107   1.919   3.101   3.311 -0.0459  0.4553  0.9299
   10ALA    HB1  108   1.830   3.084   3.375 -1.0435 -0.3752 -0.6130
   10ALA    HB2  109   1.874   3.133   3.214  0.2263 -2.3297 -0.2039
   10ALA    HB3  110   1.982   3.182   3.354 -0.0923  0.2230  1.4351
   10ALA      C  111   2.086   2.945   3.417  0.3809 -0.2614 -0.3944
   10ALA      O  112   2.052   2.847   3.480  0.0373 -0.2827 -0.5576
   11GLY      N  113   2.191   3.017   3.457  0.4342 -0.1423 -0.0128
   11GLY     HN  114   2.205   3.094   3.396 -2.5363  0.5163 -0.0444
   11GLY     CA  115   2.271   2.998   3.573  0.3593 -0.4919 -0.1478
   11GLY    HA1  116   2.361   3.057   3.565  1.3435 -1.8992  0.1615
   11GLY    HA2  117   2.289   2.892   3.584  1.7762 -0.2821 -0.2745
   11GLY      C  118   2.207   3.054   3.699 -0.6952 -0.4949 -0.0160
   11GLY    OT1  119   2.124   2.975   3.762  0.6020 -0.6357 -0.0640
   11GLY    OT2  120   2.243   3.166   3.742 -0.2346 -0.0081 -0.1094
   12SOD    SOD  121   6.008   3.427   4.217 -0.1159 -0.1535 -0.2466
   13SOD    SOD  122   5.914   3.802   0.896 -0.7182  0.2871  0.2905
   14SOD    SOD  123   3.560   5.519   3.888 -0.2207 -0.1868 -0.1420
   15SOD    SOD  124   5.770   4.443   4.452  0.0138 -0.3519 -0.5161
   16SOD    SOD  125   2.914   2.919   2.445 -0.3157 -0.0059  0.2829
   17SOD    SOD  126   1.158   3.256   4.810  0.6360 -0.2908 -0.1299
   18SOD    SOD  127   3.901   5.430   0.957  0.3662  0.2689  0.3909
   19SOD    SOD  128   2.113   5.137   4.316 -0.0608 -0.1825 -0.5913
   20SOD    SOD  129   0.949   2.334   4.219 -0.1960 -0.1779  0.0357
   21SOD    SOD  130   2.588   0.781   0.523  0.4868  0.1693 -0.0208
   22SOD    SOD  131   1.467   5.534   5.031  0.0628  0.6677 -0.1923
   23SOD    SOD  132   3.576   3.233   1.616 -0.4874 -0.3973  0.0565
   24SOD    SOD  133   3.783   0.615   2.789  0.2150  0.4927  0.9550
   25SOD    SOD  134   1.621   1.025   1.083 -0.3031  0.6330  0.0490
   26SOD    SOD  135   5.331   4.526   1.852 -0.4121 -0.4765  0.0560
   27SOD    SOD  136   6.069   5.549   4.149  0.6743 -0.0620 -0.7405
   28SOD    SOD  137   4.762   2.293   2.918  0.0417 -0.5691 -0.2027
   29SOD    SOD  138   1.064   5.442   4.203 -0.1611 -0.2944 -0.2375
   30SOD    SOD  139   0.455   1.870   3.768  0.0008 -0.3261  0.0831
   31SOD    SOD  140   3.722   0.771   2.393 -0.3512  0.0193 -0.3850
   32SOD    SOD  141   2.903   0.510   1.299  0.0036 -0.7632 -0.0694
   33SOD    SOD  142   0.039   5.935   0.136 -0.1517 -0.5175 -0.2076
   34CLA    CLA  143   5.830   2.774   3.965 -0.2062  0.2137 -0.0742
   35CLA    CLA  144   4.425   0.254   5.089 -0.2246 -0.3026 -0.3367
   36CLA    CLA  145   1.642   1.072   0.642 -0.4979  0.4996 -0.1371
   37CLA    CLA  146   2.911   1.444   5.070 -0.3521 -0.1238 -0.5149
   38CLA    CLA  147   3.254   5.766   0.036 -0.0759  0.2408  0.1073
   39CLA    CLA  148   3.202   5.016   3.498 -0.2200 -0.1651 -0.2224
   40CLA    CLA  149   3.789   0.243   3.190 -0.1157  0.1740  0.0682
   41CLA    CLA  150   3.294   4.206   3.075 -0.2626  0.2259 -0.0901
   42CLA    CLA  151   4.179   0.942   3.474  0.0639 -0.5209 -0.2042
   43CLA    CLA  152   3.829   1.073   2.063 -0.2433 -0.2543 -0.1964
   44CLA    CLA  153   5.995   5.961   5.002  0.3257  0.0929  0.2645
   45CLA    CLA  154   5.157   3.867   2.113  0.0784 -0.2835 -0.2756
   46CLA    CLA  155   0.199   5.467   4.382  0.0967  0.0350 -0.1621
   47CLA    CLA  156   6.085   1.231   0.297  0.1420  0.0980 -0.1923
   48CLA    CLA  157   2.386   1.937   1.412 -0.0283  0.2638  0.2682
   49CLA    CLA  158   4.656   5.945   2.241  0.0618  0.0940 -0.0685
   50CLA    CLA  159   4.114   4.792   1.143 -0.6865 -0.1250  0.0966
   51CLA    CLA  160   2.080   3.583   5.081  0.4338  0.0416 -0.0864
   52TIP3   OH2  161   3.818   3.757   1.461 -0.1946 -0.0509 -0.4993
   52TIP3    H1  162   3.722   3.763   1.457 -0.3848 -1.7861  0.5044
   52TIP3    H2  163   3.845   3.756   1.369 -0.9965  1.8574 -0.8032
   53TIP3   OH2  164   3.348   3.127   1.571 -0.1441  0.7904 -0.0571
   53TIP3    H1  165   3.311   3.050   1.614  1.6384  0.2273  0.5562
   53TIP3    H2  166   3.280   3.194   1.577 -0.6119  0.1849  2.0988
   54TIP3   OH2  167   3.815   1.009   2.368  0.1851 -0.1327 -0.7073
   54TIP3    H1  168   3.784   1.074   2.432  2.3867  0.3341 -0.0408
   54TIP3    H2  169   3.785   1.043   2.283 -1.2913  0.1389 -0.1105
   55TIP3   OH2  170   4.178   0.288   4.091  0.6795 -0.3327 -0.0018
   55TIP3    H1  171   4.211   0.373   4.064  1.7479 -1.2386 -1.6736
   55TIP3    H2  172   4.083   0.300   4.095  0.5507  0.3029 -2.7990
   56TIP3   OH2  173   2.971   1.827   2.376 -0.0498  0.6088 -0.4727
   56TIP3    H1  174   2.947   1.912   2.340  1.4978  1.3527  0.1463
   56TIP3    H2  175   3.050   1.844   2.428  0.5575 -1.2778 -0.6755
   57TIP3   OH2  176   6.243   5.308   1.189  0.4167  0.6052 -0.3068
   57TIP3    H1  177   6.265   5.398   1.163  0.0587  0.6862 -0.3357
   57TIP3    H2  178   6.153   5.296   1.159  0.3508  0.3485 -0.0146
   58TIP3   OH2  179   2.608   4.728   4.660 -0.1408 -0.2237 -0.0092
   58TIP3    H1  180   2.687   4.713   4.609 -0.1585  0.4245 -0.2326
   58TIP3    H2  181   2.540   4.677   4.616 -0.3317  0.9314 -1.0943
   59TIP3   OH2  182   3.664   5.252   3.435 -0.2077 -0.1424 -0.4816
   59TIP3    H1  183   3.623   5.309   3.369 -1.5860 -0.0001  0.4465
   59TIP3    H2  184   3.590   5.218   3.486  0.8555  1.0856  2.0723
   60TIP3   OH2  185   2.952   5.154   2.507  0.3511  0.2609  0.4335
   60TIP3    H1  186   2.875   5.208   2.524  0.6496  0.7411  0.2709
   60TIP3    H2  187   2.987   5.188   2.425 -0.7704 -1.6760 -0.9309
   61TIP3   OH2  188   0.220   2.035   0.572  0.1748  0.0702 -0.1448
   61TIP3    H1  189   0.251   1.948   0.548  0.9216 -0.2115  1.6161
   61TIP3    H2  190   0.297   2.092   0.561 -0.4056  0.5926 -1.6228
   62TIP3   OH2  191   1.791   5.300   4.158 -0.0063 -0.4707 -0.1155
   62TIP3    H1  192   1.703   5.322   4.129  0.3931 -0.3726 -1.2911
   62TIP3    H2  193   1.815   5.370   4.219 -0.6455 -0.3675  0.0162
   63TIP3   OH2  194   1.131   2.801   0.716 -0.0371  0.3071 -0.1680
   63TIP3    H1  195   1.094   2.872   0.664 -1.0850  0.4601  0.7725
   63TIP3    H2  196   1.172   2.743   0.651 -0.1989  1.1513 -1.0411
   64TIP3   OH2  197   0.221   1.389   4.370  0.2635 -0.2544  0.3410
   64TIP3    H1  198   0.180   1.303   4.357  0.6080 -0.3135 -0.4258
   64TIP3    H2  199   0.205   1.436   4.288  0.5129  0.2303  0.5666
   65TIP3   OH2  200   4.226   3.217   0.603  1.1478  0.6151  0.0240
   65TIP3    H1  201   4.279   3.138   0.608  1.3466  0.8063  1.2004
   65TIP3    H2  202   4.249   3.257   0.519  0.9629 -0.6194 -0.6279
   66TIP3   OH2  203   0.954   5.860   3.452 -0.0354 -0.3648 -0.5025
   66TIP3    H1  204   0.978   5.932   3.394 -1.5031  0.3929 -0.2103
   66TIP3    H2  205   0.911   5.902   3.526 -0.2713 -1.4985  0.0253
   67TIP3   OH2  206   3.501   0.784   0.317  1.0972 -0.1765  0.0970
   67TIP3    H1  207   3.415   0.801   0.355  0.5938  0.4930 -1.2943
   67TIP3    H2  208   3.492   0.699   0.275  1.3322 -0.4280  0.5512
   68TIP3   OH2  209   1.495   4.508   0.388  0.4829  0.4761  0.3590
   68TIP3    H1  210   1.533   4.555   0.462 -0.3106 -0.0345  1.1029
   68TIP3    H2  211   1.405   4.539   0.384 -0.4027 -1.7832  1.5760
   69TIP3   OH2  212   0.737   1.506   4.112  0.2171 -0.1279  0.3306
   69TIP3    H1  213   0.718   1.449   4.186 -0.5516 -0.3478 -0.0242
   69TIP3    H2  214   0.809   1.561   4.142 -1.3802  1.2009  2.0134
   70TIP3   OH2  215   1.746   0.091   0.214  0.5438  0.0783  0.0111
   70TIP3    H1  216   1.765   0.096   0.308 -0.1985 -0.7796  0.2270
   70TIP3    H2  217   1.699   0.172   0.194  2.2009  1.0701 -0.0099
   71TIP3   OH2  218   0.365   0.554   4.311  0.2648 -0.1192 -0.0031
   71TIP3    H1  219   0.449   0.549   4.357  1.2302 -1.0699 -1.7529
   71TIP3    H2  220   0.376   0.496   4.235 -1.3877  1.0330 -1.1973
   72TIP3   OH2  221   3.295   5.677   1.550  0.0668  0.1797  0.0050
   72TIP3    H1  222   3.243   5.600   1.529 -2.0223  0.7042  2.6437
   72TIP3    H2  223   3.271   5.741   1.483  0.5658 -0.9341 -1.2520
   73TIP3   OH2  224   6.239   5.088   0.281 -0.4459  0.3020 -0.2351
   73TIP3    H1  225   6.187   5.112   0.204 -1.2413  2.6919  0.9451
   73TIP3    H2  226   6.316   5.146   0.275  0.5652 -1.0010 -0.3034
   74TIP3   OH2  227   5.836   3.809   1.110 -0.2142  0.1489  0.0479
   74TIP3    H1  228   5.802   3.763   1.187 -1.3697  0.0249 -0.5189
   74TIP3    H2  229   5.845   3.900   1.139  4.0030 -0.5756  1.8213
   75TIP3   OH2  230   5.714   2.172   4.033  0.1135 -0.3841 -0.5474
   75TIP3    H1  231   5.654   2.185   3.960 -0.4173 -0.7663 -0.1903
   75TIP3    H2  232   5.657   2.160   4.109  0.6550 -0.1658 -0.1006
   76TIP3   OH2  233   3.398   4.570   0.099  0.0438  0.2783  0.5280
   76TIP3    H1  234   3.456   4.500   0.131  0.0105  0.8740  1.9529
   76TIP3    H2  235   3.326   4.572   0.162  0.8261  2.6165  1.4632
   77TIP3   OH2  236   2.362   2.822   4.210 -0.5940 -0.3445  0.4825
   77TIP3    H1  237   2.277   2.864   4.221 -0.1552  0.6175  0.3224
   77TIP3    H2  238   2.387   2.843   4.120 -0.3933 -1.0113  0.3806
   78TIP3   OH2  239   0.744   4.580   5.125 -0.1289  0.0433 -0.5912
   78TIP3    H1  240   0.742   4.507   5.187  0.1333 -0.7622 -1.5046
   78TIP3    H2  241   0.757   4.539   5.040 -0.0544  1.1594 -1.1392
   79TIP3   OH2  242   4.437   1.185   0.136 -0.4459 -0.4032  0.2850
   79TIP3    H1  243   4.447   1.097   0.172  0.9824 -0.0326  0.8795
   79TIP3    H2  244   4.483   1.181   0.052 -1.6948 -0.6163 -0.4077
   80TIP3   OH2  245   3.832   3.786   3.775  0.1168 -0.3442 -0.3386
   80TIP3    H1  246   3.815   3.711   3.718 -1.0690 -1.8703  1.8690
   80TIP3    H2  247   3.903   3.757   3.833 -0.3490  0.2080  0.5371
   81TIP3   OH2  248   5.671   5.083   1.431 -0.1414  0.2803 -0.2101
   81TIP3    H1  249   5.731   5.074   1.506  1.0344  0.9585 -1.0281
   81TIP3    H2  250   5.701   5.163   1.387 -0.4173 -0.4240 -1.7391
   82TIP3   OH2  251   5.652   4.651   2.558  0.3295  0.0463 -0.8518
   82TIP3    H1  252   5.714   4.715   2.594  0.2487 -0.1327 -0.3945
   82TIP3    H2  253   5.572   4.663   2.609  0.4627 -0.7407 -0.4486
   83TIP3   OH2  254   1.225   1.403   3.430  0.3665  0.4721  0.5783
   83TIP3    H1  255   1.172   1.323   3.437 -0.4278  0.8434 -0.7381
   83TIP3    H2  256   1.316   1.372   3.434  0.0733 -0.3059  1.6941
   84TIP3   OH2  257   4.934   5.456   4.221  0.3686  0.1172  0.1968
   84TIP3    H1  258   4.906   5.497   4.303 -0.9769  1.5123 -0.8935
   84TIP3    H2  259   4.852   5.429   4.178  0.9396  0.5481 -1.2283
   85TIP3   OH2  260   5.690   5.404   4.911  0.9954 -0.0187 -0.1203
   85TIP3    H1  261   5.708   5.410   5.005  0.4734 -0.6812  0.0327
   85TIP3    H2  262   5.658   5.491   4.886  1.0830  0.1420  0.3243
   86TIP3   OH2  263   3.098   1.005   4.551 -0.4218  0.5310 -0.2521
   86TIP3    H1  264   3.172   0.989   4.609  0.7181 -0.1913 -1.8316
   86TIP3    H2  265   3.063   1.089   4.580  0.1468  0.2446  1.3943
   87TIP3   OH2  266   6.224   5.149   3.821  0.0797 -0.2344  0.2357
   87TIP3    H1  267   6.272   5.066   3.810 -1.3303 -0.9835 -0.5003
   87TIP3    H2  268   6.143   5.124   3.864 -0.6230  0.6721 -0.5144
   88TIP3   OH2  269   5.630   5.931   1.305  0.4403 -0.0797 -1.0819
   88TIP3    H1  270   5.664   5.953   1.392  1.0140 -1.7681 -0.8422
   88TIP3    H2  271   5.549   5.982   1.297  0.6123  0.4410  0.2491
   89TIP3   OH2  272   0.934   4.422   3.395  0.0347 -0.1234  0.6566
   89TIP3    H1  273   0.922   4.514   3.371  0.7095 -0.3858 -0.7699
   89TIP3    H2  274   0.944   4.376   3.312 -1.1738 -1.6494  1.2904
   90TIP3   OH2  275   4.782   3.010   1.021  0.1447  0.3193 -0.2648
   90TIP3    H1  276   4.763   2.975   1.108 -0.4229  2.4650  0.5359
   90TIP3    H2  277   4.781   3.105   1.032  0.6773  0.6500 -2.4981
   91TIP3   OH2  278   5.762   4.883   2.671 -0.6729 -0.0483  0.1597
   91TIP3    H1  279   5.740   4.957   2.613  1.2167 -2.3783 -4.0122
   91TIP3    H2  280   5.838   4.913   2.720  0.6488  0.6121 -2.1541
   92TIP3   OH2  281   4.764   3.023   4.427  0.3028 -0.1556  0.3383
   92TIP3    H1  282   4.799   2.934   4.435  1.0113  0.2773  4.0930
   92TIP3    H2  283   4.671   3.015   4.449  0.4312  0.0461  0.9751
   93TIP3   OH2  284   4.547   3.424   4.840 -0.1981  0.4083  0.0472
   93TIP3    H1  285   4.470   3.456   4.887 -0.1574 -0.9056  1.0497
   93TIP3    H2  286   4.615   3.489   4.858 -0.0489 -0.2785  2.2050
   94TIP3   OH2  287   3.244   0.542   1.860  0.1472 -0.2209 -0.3429
   94TIP3    H1  288   3.294   0.566   1.782  0.2877  1.2590  0.1861
   94TIP3    H2  289   3.166   0.499   1.825  0.6538 -0.4380 -1.2597
   95TIP3   OH2  290   3.396   5.780   4.826  0.0066 -0.1810 -0.4033
   95TIP3    H1  291   3.349   5.700   4.851 -0.8469  0.6051  0.5846
   95TIP3    H2  292   3.399   5.832   4.906  0.5487  0.7867 -1.0338
   96TIP3   OH2  293   5.661   5.876   2.323  0.1088 -0.2278  0.3223
   96TIP3    H1  294   5.756   5.887   2.314  0.2152 -0.5654  0.9279
   96TIP3    H2  295   5.623   5.944   2.267  0.6732 -1.7500 -2.0534
   97TIP3   OH2  296   3.957   3.236   3.313 -0.4814 -0.1071  0.0071
   97TIP3    H1  297   3.961   3.175   3.387 -0.1620  0.7039  0.6813
   97TIP3    H2  298   3.899   3.306   3.344  0.1906  0.5743 -0.2482
   98TIP3   OH2  299   1.821   5.043   0.478 -0.1146  0.0986 -0.1801
   98TIP3    H1  300   1.853   5.133   0.467 -1.3948  0.5377 -0.5282
   98TIP3    H2  301   1.899   4.989   0.467  0.6086  1.1418 -0.4312
   99TIP3   OH2  302   3.978   2.176   4.006  0.1524  0.8243 -0.1234
   99TIP3    H1  303   3.994   2.134   3.922  0.4674 -2.6513  1.4676
   99TIP3    H2  304   4.062   2.215   4.030  1.0524 -0.9910 -0.0913
  100TIP3   OH2  305   5.508   0.383   4.849  0.4057  0.3389  0.0213
  100TIP3    H1  306   5.517   0.292   4.822  0.0703  0.4223 -0.3749
  100TIP3    H2  307   5.546   0.386   4.937  1.7291  0.1202 -0.5332
  101TIP3   OH2  308   1.095   2.642   3.623  0.3664 -0.3184  0.4527
  101TIP3    H1  309   1.114   2.613   3.534 -1.6861 -2.1417  0.5100
  101TIP3    H2  310   1.107   2.737   3.620  0.3839 -0.3292 -1.7552
  102TIP3   OH2  311   5.934   4.658   0.140  0.3950 -0.1114 -0.0543
  102TIP3    H1  312   5.890   4.717   0.079 -0.5455 -1.5432 -0.7951
  102TIP3    H2  313   6.026   4.686   0.137  0.3574 -0.0711 -2.0473
  103TIP3   OH2  314   0.318   4.654   1.377 -0.3378  0.1310 -0.6136
  103TIP3    H1  315   0.336   4.560   1.375 -0.1206  0.0199  2.3275
  103TIP3    H2  316   0.226   4.661   1.351 -1.4769 -1.3762  2.5439
  104TIP3   OH2  317   5.570   3.937   1.001 -0.2120  0.6121 -0.0015
  104TIP3    H1  318   5.554   3.906   1.090 -0.5487 -1.4802 -0.7255
  104TIP3    H2  319   5.489   3.983   0.977  0.1300  1.7655  0.9605
  105TIP3   OH2  320   1.583   4.872  -0.019  0.3222  0.2746 -0.1441
  105TIP3    H1  321   1.525   4.831   0.045  0.5098 -0.6388 -0.5374
  105TIP3    H2  322   1.671   4.858   0.016  0.3198  1.6485  0.4468
  106TIP3   OH2  323   5.067   1.928   4.478  0.6520 -0.7270  0.2421
  106TIP3    H1  324   5.025   1.845   4.500 -1.1791  0.4406  1.4082
  106TIP3    H2  325   5.011   1.995   4.518  3.5090  0.9829  1.7057
  107TIP3   OH2  326   2.950   2.588   1.362  0.2542  0.0766  0.3248
  107TIP3    H1  327   2.957   2.520   1.430  1.2633 -0.2423 -0.0678
  107TIP3    H2  328   2.858   2.613   1.363 -0.1249 -1.2074  0.5782
  108TIP3   OH2  329   5.460   1.492   3.421  0.2326  0.3662  0.7762
  108TIP3    H1  330   5.537   1.457   3.466  0.6501 -0.0999 -0.2631
  108TIP3    H2  331   5.386   1.461   3.473  0.7554  2.3305  2.8517
  109TIP3   OH2  332   2.085   1.076   3.420 -0.3190 -0.7023 -0.5458
  109TIP3    H1  333   2.176   1.048   3.432  0.7735  1.3461 -2.9836
  109TIP3    H2  334   2.058   1.033   3.338 -1.4591 -1.0358 -0.0093
  110TIP3   OH2  335   4.746   4.788   1.513  1.1523  0.4413  0.8489
  110TIP3    H1  336   4.763   4.800   1.606  2.1058 -1.3496  0.9472
  110TIP3    H2  337   4.797   4.857   1.470  0.2336  1.6644  1.6359
  111TIP3   OH2  338   2.389   0.738   1.862  0.2388 -0.2758 -0.1045
  111TIP3    H1  339   2.420   0.784   1.941  2.6766 -0.9856 -0.5641
  111TIP3    H2  340   2.375   0.648   1.891  0.3475 -0.3513 -0.2837
  112TIP3   OH2  341   2.934   0.265   3.025  0.6211  0.3538 -0.3287
  112TIP3    H1  342   2.873   0.191   3.023  1.1656 -0.0965 -0.5877
  112TIP3    H2  343   2.993   0.250   2.951 -0.6550  2.2666 -1.8127
  113TIP3   OH2  344   0.169   1.166   2.713  0.1702  0.0536 -0.1033
  113TIP3    H1  345   0.173   1.209   2.627 -1.7790  0.5370  0.0014
  113TIP3    H2  346   0.120   1.227   2.768 -0.6861 -1.2835  0.6755
  114TIP3   OH2  347   5.380   4.747   4.501  0.5744 -0.8270  0.4710
  114TIP3    H1  348   5.291   4.718   4.479  0.7393  0.1833 -1.7140
  114TIP3    H2  349   5.367   4.830   4.547  0.3731 -0.9262  0.5963
  115TIP3   OH2  350   1.586   3.652   4.615  0.1720 -0.8028  0.5542
  115TIP3    H1  351   1.663   3.708   4.627  1.1517 -1.6286 -1.3656
  115TIP3    H2  352   1.556   3.672   4.526  0.4630 -3.1313 -0.1357
  116TIP3   OH2  353   2.760   2.057   4.097 -0.6735 -0.1508  0.1038
  116TIP3    H1  354   2.760   1.986   4.162 -0.6908  1.3021  1.7437
  116TIP3    H2  355   2.668   2.065   4.071 -0.4359 -1.9324 -1.5392
  117TIP3   OH2  356   3.377   4.241   1.067  0.2727 -0.6408 -0.2399
  117TIP3    H1  357   3.420   4.160   1.042  0.4042 -0.6484  0.0044
  117TIP3    H2  358   3.444   4.289   1.117  0.8341  0.4464 -1.9627
  118TIP3   OH2  359   2.237   4.566   1.901 -0.5987 -0.1569 -0.0019
  118TIP3    H1  360   2.239   4.481   1.945 -1.5350 -0.0215  0.3055
  118TIP3    H2  361   2.174   4.555   1.830 -0.1466  0.0584 -0.4490
  119TIP3   OH2  362   1.373   0.783   2.563  0.3199  0.1546 -0.0884
  119TIP3    H1  363   1.436   0.823   2.503  0.3298 -1.0014 -0.8765
  119TIP3    H2  364   1.290   0.826   2.543  0.6761  1.0647  0.3485
  120TIP3   OH2  365   0.817   4.981   2.235 -0.7184 -0.5221 -0.1639
  120TIP3    H1  366   0.769   4.918   2.288  0.2374 -0.8267  0.3567
  120TIP3    H2  367   0.883   5.017   2.294 -0.4041  0.0043 -0.8199
  121TIP3   OH2  368   1.931   4.409   4.505 -0.5730 -0.1501  0.5958
  121TIP3    H1  369   1.957   4.411   4.413  3.3632 -2.2184  1.4165
  121TIP3    H2  370   1.995   4.465   4.549  1.3882 -3.6046  2.5610
  122TIP3   OH2  371   0.822   0.082   3.003 -0.4686  0.3675  0.6946
  122TIP3    H1  372   0.767   0.019   2.956 -1.5337  0.0263  2.2919
  122TIP3    H2  373   0.801   0.167   2.964 -0.3918 -0.0427 -0.2520
  123TIP3   OH2  374   6.256   1.195   3.508 -0.2413 -0.4937 -0.6719
  123TIP3    H1  375   6.167   1.212   3.476  0.1015 -0.6980 -1.7677
  123TIP3    H2  376   6.294   1.282   3.520 -0.8050 -0.3862  0.4773
  124TIP3   OH2  377   5.457   2.895   1.482 -0.2853 -0.3629  0.1642
  124TIP3    H1  378   5.486   2.975   1.437  1.7701  0.1874  2.2954
  124TIP3    H2  379   5.511   2.891   1.561 -1.9063 -2.6909  1.2543
  125TIP3   OH2  380   2.112   5.036   4.865  0.4377 -0.7435  0.4074
  125TIP3    H1  381   2.019   5.013   4.860  0.8353 -2.4235 -0.2065
  125TIP3    H2  382   2.115   5.113   4.921 -1.3569 -0.4368  0.1550
  126TIP3   OH2  383   5.347   1.249   1.520 -0.1296  0.2826  0.1087
  126TIP3    H1  384   5.416   1.315   1.519 -0.4142  0.5796 -0.4519
  126TIP3    H2  385   5.370   1.189   1.449  1.0495 -1.2095  1.6829
  127TIP3   OH2  386   0.879   2.751   2.430 -0.3523 -0.3838  0.3556
  127TIP3    H1  387   0.840   2.692   2.495  1.6793 -0.6584  1.4189
  127TIP3    H2  388   0.827   2.738   2.351 -1.9158 -1.2334  1.4717
  128TIP3   OH2  389   1.403   0.667   0.773 -0.0072  0.6512  0.1934
  128TIP3    H1  390   1.397   0.740   0.710  1.0814  1.2117  0.7068
  128TIP3    H2  391   1.336   0.686   0.838 -0.7771  0.3549 -0.4983
  129TIP3   OH2  392   4.524   2.150   3.549  0.2619  0.0347 -0.1931
  129TIP3    H1  393   4.438   2.191   3.552 -1.0397 -2.4372 -1.7520
  129TIP3    H2  394   4.550   2.144   3.641 -0.5200  2.0930  0.2238
  130TIP3   OH2  395   1.307   4.171   2.730 -0.2847 -0.2618  0.2759
  130TIP3    H1  396   1.283   4.111   2.660  0.2860  0.0696 -0.2143
  130TIP3    H2  397   1.263   4.137   2.808  0.7729 -1.8672  0.2156
  131TIP3   OH2  398   5.164   2.503   0.837 -0.1306 -0.2916  0.0645
  131TIP3    H1  399   5.102   2.450   0.787 -0.4012  0.5032 -0.4649
  131TIP3    H2  400   5.238   2.445   0.855 -0.4220 -0.8384 -0.5060
  132TIP3   OH2  401   1.079   5.925   3.828 -0.1048  0.2122  0.7620
  132TIP3    H1  402   1.145   5.886   3.770 -1.7222 -1.7760  0.1641
  132TIP3    H2  403   1.131   5.973   3.893  1.8873 -0.2504 -0.3931
  133TIP3   OH2  404   1.185   0.993   1.245 -0.3289  0.1751  0.0239
  133TIP3    H1  405   1.206   1.086   1.244  1.0678 -0.1166 -0.0742
  133TIP3    H2  406   1.200   0.966   1.336 -0.8149  0.0657  0.0727
  134TIP3   OH2  407   3.710   1.556   0.086  0.5156  0.0852 -0.2936
  134TIP3    H1  408   3.698   1.651   0.088 -0.5697 -0.0509  0.4460
  134TIP3    H2  409   3.682   1.526   0.173 -1.1555 -1.1158 -1.1821
  135TIP3   OH2  410   2.330   5.529   3.947 -0.3602 -0.3622  0.0433
  135TIP3    H1  411   2.290   5.571   4.022  2.5715  0.0455  1.5426
  135TIP3    H2  412   2.335   5.597   3.881 -2.6444 -0.6305 -0.4978
  136TIP3   OH2  413   4.918   3.425   2.220  0.5362 -0.4308  0.5500
  136TIP3    H1  414   4.986   3.488   2.196  0.0739  0.9061  2.4800
  136TIP3    H2  415   4.964   3.341   2.229  1.1772 -0.4220 -2.0245
  137TIP3   OH2  416   5.613   1.678   1.910 -0.0072  0.0347 -0.4791
  137TIP3    H1  417   5.605   1.616   1.837 -0.0152  0.1210 -0.5508
  137TIP3    H2  418   5.706   1.703   1.909  0.8625 -2.5766  1.6419
  138TIP3   OH2  419   0.981   1.403   2.005 -0.4496  0.1439  0.2298
  138TIP3    H1  420   0.986   1.379   2.097  2.3660  0.6383  0.3040
  138TIP3    H2  421   1.045   1.474   1.995 -2.8101  2.2392 -1.5519
  139TIP3   OH2  422   2.805   2.032   3.813 -0.1984  0.4201  0.3686
  139TIP3    H1  423   2.828   2.029   3.905  1.2207 -0.5963  0.0090
  139TIP3    H2  424   2.756   2.114   3.803 -1.8647 -0.2497  2.3302
  140TIP3   OH2  425   2.561   4.055   0.365 -0.3012  0.5447  0.2612
  140TIP3    H1  426   2.638   3.999   0.356 -1.1243 -0.8093  1.2581
  140TIP3    H2  427   2.590   4.128   0.419  1.1054  1.7770 -2.0221
  141TIP3   OH2  428   4.114   0.826   1.431 -0.7364 -0.6311 -0.3171
  141TIP3    H1  429   4.200   0.785   1.437 -0.2453 -0.0069 -2.4253
  141TIP3    H2  430   4.054   0.760   1.465  0.1059 -2.8506 -2.8064
  142TIP3   OH2  431   1.402   1.380   1.768 -0.3706  0.3357  0.2746
  142TIP3    H1  432   1.487   1.339   1.748 -0.1567  0.0113  1.7529
  142TIP3    H2  433   1.423   1.471   1.785 -0.0152 -0.0716  2.3099
  143TIP3   OH2  434   5.776   0.447   1.904  0.0467  0.4453 -0.0320
  143TIP3    H1  435   5.713   0.490   1.846 -0.5536  1.8047  1.5391
  143TIP3    H2  436   5.841   0.515   1.922 -1.3114  1.0914  3.0899
  144TIP3   OH2  437   5.119   2.565   2.471 -0.6012  0.5726  0.6617
  144TIP3    H1  438   5.113   2.586   2.378 -0.1787 -2.1056 -0.0554
  144TIP3    H2  439   5.210   2.540   2.485 -1.1397 -1.2790  1.2038
  145TIP3   OH2  440   2.566   3.084   3.756  0.1080 -0.0662  0.4091
  145TIP3    H1  441   2.503   3.096   3.828  0.6910  0.5182  0.8365
  145TIP3    H2  442   2.577   3.172   3.719 -1.2154 -0.5643 -1.2997
  146TIP3   OH2  443   1.975   4.419   2.758  0.1414  0.0500 -0.0170
  146TIP3    H1  444   2.023   4.427   2.840  0.8746 -0.2348 -0.4143
  146TIP3    H2  445   1.992   4.501   2.712  1.5736 -0.6771 -0.8481
  147TIP3   OH2  446   3.902   4.587   3.293  0.2584  0.3911 -0.4114
  147TIP3    H1  447   3.817   4.615   3.327 -0.7978 -2.5163 -0.3038
  147TIP3    H2  448   3.894   4.595   3.198 -0.9188 -1.5280 -0.5403
  148TIP3   OH2  449   1.478   1.373   2.771  0.0834 -0.3091 -0.4253
  148TIP3    H1  450   1.388   1.405   2.777  0.1175  0.3365 -2.5708
  148TIP3    H2  451   1.528   1.432   2.828 -0.5164  0.7830 -0.9912
  149TIP3   OH2  452   5.491   4.302   0.179 -0.0711  0.1377  0.0977
  149TIP3    H1  453   5.469   4.395   0.179  2.3106  0.8096  1.7431
  149TIP3    H2  454   5.525   4.285   0.091 -2.0993  0.3301 -0.7742
  150TIP3   OH2  455   5.754   1.134   3.396  0.4294  0.1102 -0.0473
  150TIP3    H1  456   5.738   1.085   3.477  0.2715 -1.4465 -0.9819
  150TIP3    H2  457   5.815   1.203   3.422  0.3326 -0.3031  1.4054
  151TIP3   OH2  458   1.328   5.529   3.310 -0.5653 -0.0118 -0.6745
  151TIP3    H1  459   1.388   5.580   3.256 -1.5471  0.5062 -1.3016
  151TIP3    H2  460   1.295   5.592   3.375 -0.1431 -0.3904 -0.0803
  152TIP3   OH2  461   0.262   3.989   1.503  0.4888  0.0882  0.1618
  152TIP3    H1  462   0.223   3.939   1.575  1.6201  0.2509  0.9066
  152TIP3    H2  463   0.324   4.048   1.545  2.3757 -0.9235 -1.0178
  153TIP3   OH2  464   4.575   5.730   5.131  0.1256  0.1859 -0.1789
  153TIP3    H1  465   4.635   5.738   5.057 -1.3828 -0.6770 -1.5561
  153TIP3    H2  466   4.515   5.659   5.106 -1.1631  0.6812  1.3345
  154TIP3   OH2  467   3.635   0.954   3.912  0.0798 -0.4527  0.0545
  154TIP3    H1  468   3.632   0.957   4.007  0.0390 -1.2589  0.0914
  154TIP3    H2  469   3.696   0.882   3.893  0.3603 -0.0620 -0.5256
  155TIP3   OH2  470   1.819   0.672   4.091 -0.1304  0.0033 -0.0470
  155TIP3    H1  471   1.725   0.656   4.099 -0.0106 -1.9540 -1.6711
  155TIP3    H2  472   1.839   0.736   4.160 -2.4484 -0.3279  1.0177
  156TIP3   OH2  473   1.888   2.427   3.849 -0.1253 -0.0466 -0.8779
  156TIP3    H1  474   1.887   2.333   3.870 -0.8854  0.2320  0.4854
  156TIP3    H2  475   1.830   2.435   3.774 -2.1511 -0.3813  0.5689
  157TIP3   OH2  476   1.614   0.485   3.296 -0.2657  0.1317  0.3783
  157TIP3    H1  477   1.703   0.508   3.323 -0.4877  1.1212  0.2973
  157TIP3    H2  478   1.580   0.432   3.368 -0.0568  0.8408  1.0135
  158TIP3   OH2  479   0.117   0.224   4.410 -0.9038 -0.1791  0.2520
  158TIP3    H1  480   0.129   0.161   4.339 -1.5578  0.2230 -0.2269
  158TIP3    H2  481   0.048   0.283   4.378  0.1004  1.1452  0.4129
  159TIP3   OH2  482   0.769   0.127   3.752 -0.4798 -0.5853 -0.2848
  159TIP3    H1  483   0.759   0.035   3.725 -1.0221 -0.3630 -0.8587
  159TIP3    H2  484   0.744   0.177   3.675  1.4157  0.0518 -0.5243
  160TIP3   OH2  485   0.450   0.745   3.001  0.3665  0.0911  0.0498
  160TIP3    H1  486   0.434   0.734   2.907  0.8933 -0.6045  0.0367
  160TIP3    H2  487   0.404   0.672   3.042 -1.0817  1.1858  0.4746
  161TIP3   OH2  488   0.704  -0.022   5.154 -0.4696 -0.6362 -0.7808
  161TIP3    H1  489   0.657   0.032   5.090 -2.0604 -0.6118  0.3453
  161TIP3    H2  490   0.784   0.027   5.172 -0.2163 -0.4028 -2.3672
  162TIP3   OH2  491   5.105   1.868   1.275  0.2887 -0.5394  0.0347
  162TIP3    H1  492   5.143   1.953   1.297 -0.0969 -1.0490  2.9930
  162TIP3    H2  493   5.109   1.865   1.179 -0.5318  3.1978 -0.2893
  163TIP3   OH2  494   6.205   1.404   2.602 -0.2972  0.7934 -0.4162
  163TIP3    H1  495   6.178   1.415   2.511 -2.6938  0.4840  0.1839
  163TIP3    H2  496   6.145   1.461   2.651 -0.4150 -0.5866  1.1170
  164TIP3   OH2  497   3.582   4.060   2.347  0.3292 -0.3119 -0.5215
  164TIP3    H1  498   3.633   4.124   2.396 -0.4645 -1.0044  1.2996
  164TIP3    H2  499   3.614   3.975   2.378 -0.5942 -0.7634 -0.7585
  165TIP3   OH2  500   0.708   1.879   3.677  0.8027  0.3367  0.6112
  165TIP3    H1  501   0.728   1.788   3.696  1.6348  0.2814 -0.4408
  165TIP3    H2  502   0.784   1.928   3.708  0.1463  0.7532  1.6393
  166TIP3   OH2  503   2.540   2.952   4.609 -0.3200 -0.0543 -0.0294
  166TIP3    H1  504   2.613   2.986   4.557  2.4547 -0.3680  3.3050
  166TIP3    H2  505   2.521   3.022   4.672 -2.1359 -0.4637 -0.0794
  167TIP3   OH2  506   2.930   2.572   2.868  0.3188  0.2496  0.5264
  167TIP3    H1  507   2.958   2.663   2.870  0.4054  0.2218  0.5934
  167TIP3    H2  508   2.845   2.574   2.824 -0.1540  0.4881  1.4235
  168TIP3   OH2  509   1.031   4.936   2.681  0.4497  0.4326  0.1083
  168TIP3    H1  510   0.955   4.896   2.722 -1.5607 -0.3050 -3.8608
  168TIP3    H2  511   1.090   4.863   2.663  0.2134  0.3548 -0.3859
  169TIP3   OH2  512   2.866   0.867   4.699 -0.6640 -0.0847  0.2208
  169TIP3    H1  513   2.943   0.921   4.684  0.4642 -1.3965  1.0245
  169TIP3    H2  514   2.864   0.806   4.625 -0.5296 -0.4833  0.5400
  170TIP3   OH2  515   4.267   2.695   4.333 -0.0504  0.0169  0.2073
  170TIP3    H1  516   4.257   2.625   4.269  1.1305  0.6199 -0.6965
  170TIP3    H2  517   4.180   2.734   4.340 -0.5725 -1.1207  0.2520
  171TIP3   OH2  518   5.147   0.726   0.603  0.2221 -0.1816  0.3061
  171TIP3    H1  519   5.208   0.682   0.662 -0.0579  1.2263  1.7153
  171TIP3    H2  520   5.061   0.713   0.644  0.0170  0.7634  0.1843
  172TIP3   OH2  521   1.461   2.341   4.716 -0.7631  0.0004 -0.0972
  172TIP3    H1  522   1.458   2.246   4.709 -2.0279  0.1092 -1.5535
  172TIP3    H2  523   1.549   2.365   4.687 -0.6630 -0.6902 -0.3666
  173TIP3   OH2  524   3.732   3.304   2.771 -0.0790 -0.3341 -0.6029
  173TIP3    H1  525   3.643   3.329   2.748 -0.7487 -0.3844  1.7017
  173TIP3    H2  526   3.727   3.212   2.795  0.4207 -0.1340  0.3173
  174TIP3   OH2  527   2.942   5.030   4.586  0.1414 -0.4161 -0.2422
  174TIP3    H1  528   2.887   5.108   4.592  0.9020  0.2302 -1.3356
  174TIP3    H2  529   2.921   4.992   4.501  0.1535 -1.1303  0.0649
  175TIP3   OH2  530   4.121   2.751   0.998 -0.2167 -0.2818  0.6825
  175TIP3    H1  531   4.191   2.744   1.062  1.2491  1.3688 -0.6512
  175TIP3    H2  532   4.109   2.845   0.984 -0.7243 -0.5647 -1.1709
  176TIP3   OH2  533   1.479   4.383   4.969 -0.0196  0.3209  0.1243
  176TIP3    H1  534   1.491   4.405   5.061  1.5087 -1.0674  0.3134
  176TIP3    H2  535   1.543   4.313   4.952  0.2754  1.0420 -2.1786
  177TIP3   OH2  536   5.073   3.348   2.985 -0.6118  0.6171 -0.1085
  177TIP3    H1  537   5.161   3.315   3.004 -0.5600  1.7608  1.8715
  177TIP3    H2  538   5.023   3.270   2.963  0.3510 -0.3591  0.9910
  178TIP3   OH2  539   2.299   5.190   3.444  0.0125  0.6402 -0.7383
  178TIP3    H1  540   2.383   5.172   3.402  0.1356 -1.7240  0.3540
  178TIP3    H2  541   2.312   5.166   3.536 -1.7693  0.4711 -0.4810
  179TIP3   OH2  542   1.109   2.754   2.097 -0.1179 -0.1637  0.2958
  179TIP3    H1  543   1.025   2.760   2.143 -0.4508  0.4646 -0.3808
  179TIP3    H2  544   1.171   2.727   2.165 -0.9827 -1.3000  0.6604
  180TIP3   OH2  545   0.938   5.637   4.155  0.1434 -0.1749  0.7153
  180TIP3    H1  546   0.848   5.666   4.170  0.1287 -0.3610  0.9936
  180TIP3    H2  547   0.983   5.716   4.124 -0.2532 -0.2205 -0.0139
  181TIP3   OH2  548   4.952   5.906   0.332 -0.1737  0.7059  0.0128
  181TIP3    H1  549   4.916   5.993   0.346 -0.2549  0.9321 -1.4201
  181TIP3    H2  550   4.956   5.867   0.419  0.4598  2.3572  0.7519
  182TIP3   OH2  551   5.555   5.220   4.167  0.1361  0.1644 -0.4079
  182TIP3    H1  552   5.584   5.251   4.082 -0.7885 -0.7814 -1.0811
  182TIP3    H2  553   5.613   5.264   4.230  1.7939 -0.2799 -1.5830
  183TIP3   OH2  554   1.568   5.806   3.766 -0.0656 -0.0552 -0.1495
  183TIP3    H1  555   1.565   5.839   3.855 -0.9726  0.4792 -0.3602
  183TIP3    H2  556   1.660   5.814   3.740  0.0504  0.6038  0.4317
  184TIP3   OH2  557   1.270   5.762   2.333 -0.2979  0.1579 -0.3392
  184TIP3    H1  558   1.328   5.838   2.339  1.3921 -1.0762 -0.2613
  184TIP3    H2  559   1.237   5.750   2.422  0.0741  0.3270 -0.1753
  185TIP3   OH2  560   0.748   4.511   2.104  0.7341  0.7013 -0.4234
  185TIP3    H1  561   0.799   4.467   2.172  0.4640  1.9500  0.6239
  185TIP3    H2  562   0.779   4.602   2.106 -0.7309  1.2335 -0.5335
  186TIP3   OH2  563   4.557   4.937   2.667 -0.1951  0.4563 -0.3089
  186TIP3    H1  564   4.650   4.932   2.644 -0.3323  2.9887 -1.7219
  186TIP3    H2  565   4.554   4.991   2.745 -0.5804  2.2595 -1.5216
  187TIP3   OH2  566   2.941   0.967   0.402 -0.1233  0.1943  0.1742
  187TIP3    H1  567   3.031   0.971   0.435  0.6254 -1.0946 -1.5531
  187TIP3    H2  568   2.950   0.961   0.307 -2.0701  0.3440 -0.0750
  188TIP3   OH2  569   1.314   5.884   3.699 -0.4830 -0.1249  0.2439
  188TIP3    H1  570   1.335   5.977   3.705  0.4946 -0.3317  0.3432
  188TIP3    H2  571   1.393   5.840   3.731 -0.2015 -1.0372 -1.5589
  189TIP3   OH2  572   4.868   4.324   2.047  0.3637 -0.6822  0.2712
  189TIP3    H1  573   4.789   4.316   2.100  0.0713 -0.0022 -0.0512
  189TIP3    H2  574   4.838   4.318   1.956  0.7424 -0.9289  0.1581
  190TIP3   OH2  575   0.387   3.821   3.148 -0.1204 -0.0058 -0.1986
  190TIP3    H1  576   0.306   3.782   3.117  0.4714 -0.2816 -1.4467
  190TIP3    H2  577   0.387   3.910   3.112  0.3996 -0.1997 -0.6856
  191TIP3   OH2  578   3.317   1.219   3.132 -0.2980 -0.3911  0.2948
  191TIP3    H1  579   3.302   1.155   3.201 -1.6845 -1.8164 -1.2172
  191TIP3    H2  580   3.234   1.266   3.124 -0.1283 -0.1802 -0.3046
  192TIP3   OH2  581   2.655   1.741   3.853  0.1620  0.7420  0.1844
  192TIP3    H1  582   2.706   1.783   3.922 -0.4911 -1.1512  1.9453
  192TIP3    H2  583   2.580   1.799   3.838  1.4403  2.2658 -0.5948
  193TIP3   OH2  584   2.467   2.377   0.205  0.3824 -0.0181 -0.5341
  193TIP3    H1  585   2.506   2.450   0.254  1.8482 -0.0642 -1.5760
  193TIP3    H2  586   2.377   2.372   0.238  0.6161  1.4601  0.4429
  194TIP3   OH2  587   3.259   5.798   2.543  0.6049  0.3387  0.4293
  194TIP3    H1  588   3.302   5.779   2.627  1.0166  0.5856  0.2766
  194TIP3    H2  589   3.299   5.737   2.481  0.7239  0.5563  0.2911
  195TIP3   OH2  590   3.060   4.046   0.649 -0.2489  0.0800  0.4615
  195TIP3    H1  591   3.052   4.098   0.729  1.4289 -0.4384  1.0206
  195TIP3    H2  592   3.060   3.955   0.680 -1.5643 -0.2109 -0.3464
  196TIP3   OH2  593   1.600   5.876   0.689 -0.3856 -0.1654  0.8040
  196TIP3    H1  594   1.592   5.821   0.767 -1.3812 -1.4019 -0.1295
  196TIP3    H2  595   1.536   5.946   0.702 -0.9734 -0.7030  0.8362
  197TIP3   OH2  596   6.240   2.867   2.557 -0.3629 -0.2043  0.1442
  197TIP3    H1  597   6.310   2.931   2.546  1.2242 -1.5927  1.6671
  197TIP3    H2  598   6.284   2.785   2.575 -2.3652 -1.5858 -0.7737
  198TIP3   OH2  599   2.315   2.611   0.673  0.5341 -0.4080  0.2928
  198TIP3    H1  600   2.291   2.637   0.583 -0.0761 -1.3035  0.1850
  198TIP3    H2  601   2.380   2.676   0.700 -1.2313  1.5412  0.1960
  199TIP3   OH2  602   4.169   4.108   2.916 -0.3564 -0.5028 -0.0566
  199TIP3    H1  603   4.262   4.090   2.927 -0.1341 -0.1305 -1.1415
  199TIP3    H2  604   4.134   4.116   3.005  0.6935 -0.4230  0.3546
  200TIP3   OH2  605   1.475   0.043   1.547  0.2371 -0.8847 -0.0272
  200TIP3    H1  606   1.468  -0.013   1.625 -0.1146  0.6280  1.0600
  200TIP3    H2  607   1.565   0.077   1.550 -0.4027  0.8463  0.9459
  201TIP3   OH2  608   5.545   3.816   0.760  0.0714  0.1984 -0.3484
  201TIP3    H1  609   5.547   3.833   0.854  3.5020  0.2983 -0.3076
  201TIP3    H2  610   5.544   3.903   0.719  2.4691  0.3211 -0.2828
  202TIP3   OH2  611   1.742   3.297   1.824 -0.0544  0.1353  0.1369
  202TIP3    H1  612   1.671   3.321   1.883 -0.1628  0.0163  0.0537
  202TIP3    H2  613   1.700   3.247   1.754  0.2426 -0.8152  0.6159
  203TIP3   OH2  614   2.024   2.662   4.565  0.4715  0.0391 -0.5807
  203TIP3    H1  615   2.046   2.754   4.546  2.2790  0.3814  2.5274
  203TIP3    H2  616   1.930   2.665   4.587  0.8664  1.5618  1.2157
  204TIP3   OH2  617   5.605   3.153   1.360  0.1994 -0.2862  0.2834
  204TIP3    H1  618   5.697   3.137   1.341  0.0618 -0.7834  0.0131
  204TIP3    H2  619   5.583   3.231   1.309  0.3426 -0.4536 -0.0382
  205TIP3   OH2  620   1.857   5.669   2.079  0.3248  0.0232 -0.0039
  205TIP3    H1  621   1.883   5.754   2.044  0.0689  0.7790  1.5437
  205TIP3    H2  622   1.808   5.627   2.009  2.5971  0.0644 -1.7251
  206TIP3   OH2  623   3.194   0.302   2.314 -0.4713 -0.3626 -0.2236
  206TIP3    H1  624   3.232   0.370   2.258 -0.2262  1.0370  1.5592
  206TIP3    H2  625   3.103   0.329   2.327 -0.0548  0.3122  1.4574
  207TIP3   OH2  626   2.848   5.126   4.145 -0.0109 -0.3615 -0.1470
  207TIP3    H1  627   2.920   5.186   4.125  0.3704 -0.5449  0.6113
  207TIP3    H2  628   2.809   5.105   4.060 -0.3125  1.1439 -0.4177
  208TIP3   OH2  629   4.160   0.286   1.212 -0.4433 -0.1522 -0.1032
  208TIP3    H1  630   4.171   0.369   1.258 -0.2349  0.7804 -1.7855
  208TIP3    H2  631   4.204   0.298   1.128 -1.1313 -1.6666 -0.7217
  209TIP3   OH2  632   0.401   2.839   0.552 -0.1676  0.5976  0.3282
  209TIP3    H1  633   0.472   2.816   0.491 -1.8524  0.0922 -1.5366
  209TIP3    H2  634   0.391   2.934   0.541  0.9219  0.8742  1.4545
  210TIP3   OH2  635   2.026   2.630   1.778 -0.3831 -0.1300 -0.0571
  210TIP3    H1  636   2.036   2.725   1.777 -0.1207 -0.1582 -1.1049
  210TIP3    H2  637   1.933   2.615   1.794 -0.4556  0.3006 -0.0715
  211TIP3   OH2  638   1.671   4.386   3.725  0.1792 -0.2648 -0.3580
  211TIP3    H1  639   1.724   4.449   3.772 -0.8797  0.3309  0.0566
  211TIP3    H2  640   1.595   4.371   3.781  0.3069 -1.7559 -0.5425
  212TIP3   OH2  641   6.074   5.667   0.208 -0.5768 -0.7991  0.0967
  212TIP3    H1  642   6.105   5.755   0.229 -0.7022 -0.3763 -1.4030
  212TIP3    H2  643   5.980   5.670   0.226 -0.5866 -0.6213  0.0158
  213TIP3   OH2  644   2.746   5.513   1.682 -0.3659  0.4351 -0.5413
  213TIP3    H1  645   2.810   5.443   1.674  1.2473  1.7375  0.4371
  213TIP3    H2  646   2.714   5.507   1.772 -1.0875  0.2437 -0.8037
  214TIP3   OH2  647   5.956   0.347   1.044 -0.2999 -0.3286  0.8783
  214TIP3    H1  648   5.965   0.361   0.950 -0.1505  1.6336  1.1450
  214TIP3    H2  649   6.032   0.392   1.082 -0.0298 -1.6104  1.9072
  215TIP3   OH2  650   0.866   3.827   4.703 -0.5241 -0.3689  0.1160
  215TIP3    H1  651   0.776   3.800   4.681 -0.5714  0.5955 -0.9785
  215TIP3    H2  652   0.892   3.883   4.630  1.3108 -1.3366 -0.0216
  216TIP3   OH2  653   4.006   2.849   3.408 -0.1688 -0.4994 -0.6245
  216TIP3    H1  654   3.924   2.823   3.450  0.8712 -0.4020  1.6315
  216TIP3    H2  655   4.019   2.940   3.435  0.8895 -0.6511 -0.5724
  217TIP3   OH2  656   3.994   0.677   3.946 -0.1186  0.3570  0.0880
  217TIP3    H1  657   4.054   0.750   3.955 -1.5511  1.7585 -1.1187
  217TIP3    H2  658   4.026   0.629   3.870  0.1985  0.3491  0.2246
  218TIP3   OH2  659   5.200   4.292   0.607  0.1152 -0.3851 -0.1988
  218TIP3    H1  660   5.284   4.334   0.625 -1.3049  2.1483  1.0039
  218TIP3    H2  661   5.213   4.200   0.631  2.4452 -0.0168  0.1566
  219TIP3   OH2  662   0.282   4.103   0.063  0.2706 -0.1471 -0.0494
  219TIP3    H1  663   0.285   4.082   0.157 -1.2511 -0.6315 -0.0976
  219TIP3    H2  664   0.352   4.050   0.025 -0.3751 -1.4534  0.5304
  220TIP3   OH2  665   0.176   2.788   0.993 -0.1094  0.1403  0.1581
  220TIP3    H1  666   0.133   2.872   0.977  0.5866  0.4739  0.0071
  220TIP3    H2  667   0.211   2.762   0.908 -0.2039 -0.2435  0.2315
  221TIP3   OH2  668   2.721   2.348   1.206  0.6608  0.4544 -0.1142
  221TIP3    H1  669   2.746   2.392   1.287 -0.2574  0.5275  0.1408
  221TIP3    H2  670   2.673   2.271   1.235 -1.0865  1.3287 -0.5841
  222TIP3   OH2  671   5.637   5.630   3.584 -0.2039 -0.2907 -0.4834
  222TIP3    H1  672   5.562   5.593   3.538 -1.0828  0.9505 -0.1086
  222TIP3    H2  673   5.607   5.640   3.675  1.4733 -2.6703  0.4527
  223TIP3   OH2  674   3.011   5.524   1.134  0.9971 -0.0689 -0.3418
  223TIP3    H1  675   3.084   5.585   1.123 -0.0588  1.4293  0.4934
  223TIP3    H2  676   3.031   5.452   1.074  2.7889  0.6228 -0.6580
  224TIP3   OH2  677   4.259   2.366   3.226  0.0262 -0.3877  0.0420
  224TIP3    H1  678   4.334   2.355   3.286  0.5519  0.9102 -0.3465
  224TIP3    H2  679   4.284   2.439   3.170 -2.3982  1.5481  1.2580
  225TIP3   OH2  680   4.392   0.775   4.798 -0.3637 -0.2810 -0.2085
  225TIP3    H1  681   4.319   0.800   4.855  0.7996 -0.0461  1.2326
  225TIP3    H2  682   4.373   0.818   4.714 -1.4972  0.3801  0.3618
  226TIP3   OH2  683   2.494   0.237   3.638 -0.2208 -0.6595 -0.3591
  226TIP3    H1  684   2.444   0.250   3.718  0.2076 -1.4791  0.0503
  226TIP3    H2  685   2.496   0.142   3.625 -0.1302 -0.5509 -1.2404
  227TIP3   OH2  686   0.438   3.047   1.876 -0.1390  0.5590  0.0893
  227TIP3    H1  687   0.349   3.077   1.894  0.2227  0.8354  1.5030
  227TIP3    H2  688   0.491   3.084   1.946  1.0710  0.2605 -0.6372
  228TIP3   OH2  689   6.099   0.918   0.253  0.4647 -0.3520  0.0592
  228TIP3    H1  690   6.077   1.010   0.261 -0.9528 -0.7278  0.6211
  228TIP3    H2  691   6.072   0.894   0.164 -0.9351 -0.6711  0.5526
  229TIP3   OH2  692   6.037   1.031   0.996 -0.6413  0.5534 -0.1241
  229TIP3    H1  693   6.047   1.041   0.901 -0.4829  0.9854 -0.0645
  229TIP3    H2  694   6.085   0.952   1.018 -2.2838 -0.6609 -0.6857
  230TIP3   OH2  695   4.148   1.267   1.809  0.1736 -0.1733  0.0802
  230TIP3    H1  696   4.120   1.199   1.748  0.7469 -1.7367  1.4993
  230TIP3    H2  697   4.244   1.261   1.809  0.1522 -0.7496  1.7268
  231TIP3   OH2  698   1.083   5.624   4.950  0.5873 -0.5139 -0.0408
  231TIP3    H1  699   1.012   5.674   4.990  2.0517  1.3746  0.3720
  231TIP3    H2  700   1.047   5.591   4.868 -0.2123  2.0374 -0.7894
  232TIP3   OH2  701   3.030   1.677   1.069 -0.0824  0.2319 -0.0093
  232TIP3    H1  702   3.091   1.689   1.142  1.6598 -1.3844 -1.1170
  232TIP3    H2  703   3.085   1.653   0.995 -2.0599 -1.2436 -1.1004
  233TIP3   OH2  704   0.786   4.455   1.241 -0.0554  0.1396  0.5473
  233TIP3    H1  705   0.817   4.421   1.157 -0.0276  0.0989  0.5738
  233TIP3    H2  706   0.860   4.443   1.300  0.8121  2.4079  0.0143
  234TIP3   OH2  707   4.810   1.016   3.506  0.4901  0.8345 -0.2534
  234TIP3    H1  708   4.894   0.992   3.467 -0.5368 -0.3901 -1.8577
  234TIP3    H2  709   4.789   1.102   3.469  0.2085  0.3239 -1.3310
  235TIP3   OH2  710   5.077   1.948   3.195 -0.8896  0.1634 -0.6099
  235TIP3    H1  711   5.064   1.935   3.289 -1.3348 -1.1526 -0.8297
  235TIP3    H2  712   5.104   2.039   3.187  1.1213 -0.2118  1.0076
  236TIP3   OH2  713   0.746   3.270   3.691 -0.4486  0.3082  0.4778
  236TIP3    H1  714   0.840   3.288   3.678 -0.0270  0.0188  2.6354
  236TIP3    H2  715   0.734   3.182   3.655  0.2763  0.0922  0.7238
  237TIP3   OH2  716   3.241   2.994   3.557  0.0501  0.1623  0.6186
  237TIP3    H1  717   3.324   3.005   3.511 -0.1749 -1.5652 -0.2543
  237TIP3    H2  718   3.246   2.907   3.595 -2.4179 -1.1540 -1.7770
  238TIP3   OH2  719   5.925   1.315   2.944  0.2992 -0.2325  0.2376
  238TIP3    H1  720   5.936   1.277   2.857  0.7892 -0.0224  0.2031
  238TIP3    H2  721   5.850   1.269   2.981  0.5214 -0.8151 -0.0240
  239TIP3   OH2  722   3.264   2.795   0.432  0.1940 -0.7583  0.2319
  239TIP3    H1  723   3.348   2.821   0.471  0.4995 -0.2285 -0.7572
  239TIP3    H2  724   3.214   2.876   0.426 -0.7604 -1.2111  1.6444
  240TIP3   OH2  725   5.369   4.055   2.963  0.5421 -0.3511  0.1925
  240TIP3    H1  726   5.353   4.144   2.994  0.9783 -1.0779  2.7494
  240TIP3    H2  727   5.313   4.046   2.886 -1.7297  1.2007  1.5566
  241TIP3   OH2  728   3.561   4.820   2.654  0.2522  0.1175 -0.0978
  241TIP3    H1  729   3.567   4.770   2.735 -0.7089 -0.1410 -0.1628
  241TIP3    H2  730   3.477   4.866   2.660  1.2907  2.0830  0.1419
  242TIP3   OH2  731   1.002   2.428   4.432 -0.6288 -0.1422  0.4008
  242TIP3    H1  732   0.962   2.514   4.445 -2.2029 -0.9174  0.9204
  242TIP3    H2  733   0.980   2.379   4.512 -0.3235 -1.2393 -0.1658
  243TIP3   OH2  734   4.209   4.049   1.503 -0.1605  0.1289 -0.4999
  243TIP3    H1  735   4.266   4.062   1.579  0.3879 -0.7263 -0.7505
  243TIP3    H2  736   4.147   3.982   1.531  1.1978 -1.5619 -1.3882
  244TIP3   OH2  737   4.062   2.048   4.292  0.4795  0.2686  0.5057
  244TIP3    H1  738   4.005   1.981   4.255  1.1140 -1.1572  2.0095
  244TIP3    H2  739   4.092   2.098   4.215 -1.3122 -0.0678 -0.4847
  245TIP3   OH2  740   4.344   5.583   4.773 -0.3882 -0.0794 -0.2554
  245TIP3    H1  741   4.337   5.672   4.740  0.6917  0.2156  0.2965
  245TIP3    H2  742   4.329   5.590   4.867  3.1059  0.0681  0.4040
  246TIP3   OH2  743   1.496   2.625   0.816  0.1649 -0.0364  0.2658
  246TIP3    H1  744   1.531   2.712   0.833 -0.7012  0.2236  0.7426
  246TIP3    H2  745   1.482   2.623   0.721  1.6470 -0.2302  0.0230
  247TIP3   OH2  746   5.612   5.217   4.712  0.3025  0.2313 -0.4837
  247TIP3    H1  747   5.542   5.267   4.755  0.9707  0.0692  0.8373
  247TIP3    H2  748   5.693   5.257   4.745  0.8318 -0.2718 -1.1690
  248TIP3   OH2  749   1.849   4.844   0.037  0.0668 -0.8684 -0.3433
  248TIP3    H1  750   1.878   4.804   0.119 -0.2195 -1.4519 -0.5193
  248TIP3    H2  751   1.883   4.934   0.040 -0.9581 -0.5026  0.9593
  249TIP3   OH2  752   0.629   2.531   4.509  0.5442 -0.2509 -0.5922
  249TIP3    H1  753   0.706   2.578   4.542  2.7583 -3.1054 -1.2610
  249TIP3    H2  754   0.629   2.448   4.556 -2.7604 -0.0370  0.0283
  250TIP3   OH2  755   1.712   0.841   0.462  0.3287  0.1652 -0.2705
  250TIP3    H1  756   1.697   0.858   0.369  0.7616 -1.3271 -0.6434
  250TIP3    H2  757   1.692   0.924   0.506 -2.1283  0.2783 -1.4409
  251TIP3   OH2  758   1.958   0.874   1.065 -0.4448 -0.2499  0.2324
  251TIP3    H1  759   1.876   0.890   1.019 -0.7871 -1.8783  0.2354
  251TIP3    H2  760   2.006   0.814   1.009  1.3446  1.6264 -0.3856
  252TIP3   OH2  761   2.335   0.989   5.056  1.1954 -0.3744  0.6540
  252TIP3    H1  762   2.371   0.992   4.967 -1.6213  0.0437 -0.5946
  252TIP3    H2  763   2.346   1.079   5.089 -0.0054  0.1526 -0.3079
  253TIP3   OH2  764   0.933   2.215   0.334  0.2611 -0.1272  0.1778
  253TIP3    H1  765   0.952   2.273   0.408  0.7806  0.7915 -0.6484
  253TIP3    H2  766   1.018   2.197   0.295  0.4837 -3.6062  1.8851
  254TIP3   OH2  767   5.383   2.421   1.803  0.1383 -0.3985 -0.1843
  254TIP3    H1  768   5.426   2.419   1.889  0.1214 -1.5156 -0.1840
  254TIP3    H2  769   5.411   2.340   1.760  1.7301  1.0765 -2.0476
  255TIP3   OH2  770   5.299   1.647   1.927  0.2055  0.4621 -0.5463
  255TIP3    H1  771   5.345   1.645   1.843 -0.7748  1.5463 -1.1293
  255TIP3    H2  772   5.305   1.738   1.956  0.3081  0.1520  0.4463
  256TIP3   OH2  773   4.530   1.189   2.921  0.1591 -0.1500 -0.1766
  256TIP3    H1  774   4.522   1.235   2.837 -2.5653  1.2477  0.7466
  256TIP3    H2  775   4.506   1.099   2.901  0.1513  0.0220 -1.0021
  257TIP3   OH2  776   4.775   4.635   2.032 -0.5319  0.1604 -0.5605
  257TIP3    H1  777   4.685   4.660   2.052 -0.3550 -0.8056  1.7122
  257TIP3    H2  778   4.771   4.542   2.013  0.2149 -0.4729  1.9442
  258TIP3   OH2  779   2.127   4.974   4.484 -0.1682 -0.0880 -0.3394
  258TIP3    H1  780   2.184   5.013   4.550 -0.0347 -0.7006 -0.0893
  258TIP3    H2  781   2.044   4.958   4.530 -0.0807 -0.4996 -0.3190
  259TIP3   OH2  782   2.096   1.861   1.414 -0.5928 -0.4290 -0.2998
  259TIP3    H1  783   2.098   1.785   1.472 -2.1204 -0.6653 -0.5116
  259TIP3    H2  784   2.181   1.903   1.427  1.0524 -3.1241 -1.5236
  260TIP3   OH2  785   3.254   2.492   1.832  0.0550  0.2634 -0.1790
  260TIP3    H1  786   3.244   2.404   1.870  0.3463 -0.2831 -1.3139
  260TIP3    H2  787   3.317   2.480   1.761  0.4626  1.4983 -0.0470
  261TIP3   OH2  788   4.874   1.716   5.060  0.2886 -0.1396  0.0453
  261TIP3    H1  789   4.888   1.676   4.975  1.8955  0.6918 -0.1138
  261TIP3    H2  790   4.901   1.649   5.123  0.7474 -0.1410 -0.1522
  262TIP3   OH2  791   0.478   5.979   1.679  0.2435 -0.3851  0.2334
  262TIP3    H1  792   0.403   5.920   1.685  0.3900 -0.4378  2.0089
  262TIP3    H2  793   0.538   5.935   1.619 -0.8699 -0.6244 -0.7453
  263TIP3   OH2  794   0.674   4.610   4.654 -0.9318  0.0779  0.0203
  263TIP3    H1  795   0.759   4.567   4.656 -0.9079  0.0684 -0.7110
  263TIP3    H2  796   0.624   4.568   4.723 -1.0021 -1.3636 -0.8666
  264TIP3   OH2  797   4.525   1.860   0.388 -0.2378  0.2937  0.6811
  264TIP3    H1  798   4.495   1.909   0.312 -1.0172 -0.9349  0.1726
  264TIP3    H2  799   4.620   1.857   0.379 -0.1987  1.4839  0.5992
  265TIP3   OH2  800   2.891   2.006   4.575  0.0350 -0.3081  0.0822
  265TIP3    H1  801   2.905   1.986   4.667  0.9793 -0.0086  0.0179
  265TIP3    H2  802   2.920   2.097   4.566 -0.8522 -0.0547 -0.3416
  266TIP3   OH2  803   0.034   1.308   5.134  0.2883  0.7646  0.6160
  266TIP3    H1  804   0.102   1.252   5.096 -0.9522 -0.6652  0.4436
  266TIP3    H2  805   0.000   1.259   5.208 -0.4166  1.5684  0.8485
  267TIP3   OH2  806   4.283   5.894   4.943 -0.6377  0.2263  1.0718
  267TIP3    H1  807   4.294   5.820   5.004 -0.8422 -0.4462  0.3083
  267TIP3    H2  808   4.369   5.936   4.941  0.6397 -2.1480 -1.2105
  268TIP3   OH2  809   4.583   3.884   2.236 -0.3159  0.5492 -0.3380
  268TIP3    H1  810   4.552   3.859   2.149  0.3183  2.2097 -1.0675
  268TIP3    H2  811   4.525   3.955   2.263  0.0436  0.6332  0.2273
  269TIP3   OH2  812   4.165   4.890   3.839 -0.7132  0.4955 -0.1489
  269TIP3    H1  813   4.081   4.934   3.849 -0.2221  1.4634 -0.2011
  269TIP3    H2  814   4.153   4.832   3.764 -1.1526  1.0817 -0.5376
  270TIP3   OH2  815   1.494   5.301   1.764 -0.5459 -0.6292 -0.1495
  270TIP3    H1  816   1.460   5.213   1.748  0.2306 -0.9413 -0.1556
  270TIP3    H2  817   1.440   5.336   1.834 -1.4716 -0.7460 -0.7798
  271TIP3   OH2  818   1.099   2.153   4.224  0.0816  0.1689  0.5318
  271TIP3    H1  819   1.193   2.156   4.210  0.2799 -0.6622  1.6169
  271TIP3    H2  820   1.087   2.105   4.306 -1.3668 -1.2611 -0.4406
  272TIP3   OH2  821   3.799   3.151   4.496 -0.1494 -0.2683 -0.0979
  272TIP3    H1  822   3.765   3.229   4.541 -0.4906 -0.5283  0.0895
  272TIP3    H2  823   3.894   3.162   4.501 -0.1739  0.9625 -1.4923
  273TIP3   OH2  824   1.995   3.261   3.794 -0.3244  0.3750  0.0894
  273TIP3    H1  825   2.011   3.285   3.886 -1.5960 -2.0202  1.0325
  273TIP3    H2  826   2.070   3.206   3.770 -0.3227  0.4554 -0.0917
  274TIP3   OH2  827   3.737   0.920   1.295  0.3600 -0.2635  0.1218
  274TIP3    H1  828   3.645   0.932   1.272  0.3395  2.0642  1.1647
  274TIP3    H2  829   3.770   0.858   1.230 -1.6070 -0.0857 -1.1233
  275TIP3   OH2  830   3.272   1.650   3.226 -0.0302  0.0375 -0.3413
  275TIP3    H1  831   3.223   1.605   3.295  1.7259  0.0496  0.9651
  275TIP3    H2  832   3.230   1.735   3.219 -0.8359 -0.3154  0.0359
  276TIP3   OH2  833   3.908   3.368   4.274  0.1935 -0.2283 -0.1256
  276TIP3    H1  834   3.954   3.285   4.264 -0.5776 -0.8298  1.1438
  276TIP3    H2  835   3.833   3.362   4.215  0.2066 -0.3852 -0.1253
  277TIP3   OH2  836   2.891   0.696   3.261  0.0165  0.5038 -0.0732
  277TIP3    H1  837   2.860   0.611   3.231  0.9516 -0.8064  2.4703
  277TIP3    H2  838   2.816   0.734   3.308  0.0702  0.4285  0.0726
  278TIP3   OH2  839   0.098   5.420   1.339 -0.7721 -0.1931 -0.6305
  278TIP3    H1  840   0.029   5.375   1.290  0.7331 -2.5761 -0.7564
  278TIP3    H2  841   0.175   5.365   1.327  0.0821 -0.1408  3.1823
  279TIP3   OH2  842   3.286   4.827   4.173  0.4558 -0.0328  0.2151
  279TIP3    H1  843   3.226   4.878   4.119  1.3669 -0.8806 -1.6736
  279TIP3    H2  844   3.332   4.892   4.227 -0.9700  0.7613  0.5250
  280TIP3   OH2  845   0.636   3.218   1.987  0.0278 -0.4330 -0.1362
  280TIP3    H1  846   0.707   3.279   2.005 -0.4641 -0.3124  1.5267
  280TIP3    H2  847   0.662   3.136   2.031 -0.5121 -0.6173 -0.1531
  281TIP3   OH2  848   1.318   3.190   3.692  0.0275 -0.4673 -0.2540
  281TIP3    H1  849   1.413   3.196   3.688 -0.0036  0.1587 -0.1341
  281TIP3    H2  850   1.287   3.234   3.613 -0.1859  0.2534  0.2190
  282TIP3   OH2  851   5.999   0.879   3.446 -0.4502  0.6040 -0.1129
  282TIP3    H1  852   6.035   0.925   3.522 -0.8772 -1.3829  1.3745
  282TIP3    H2  853   5.996   0.787   3.473 -0.1041 -0.2652 -2.7526
  283TIP3   OH2  854   0.561   3.978   4.617  0.4944  0.3688 -0.1631
  283TIP3    H1  855   0.625   4.040   4.584  1.2508 -0.1400  0.3149
  283TIP3    H2  856   0.573   3.899   4.564  1.9772 -0.5866  1.4750
  284TIP3   OH2  857   2.480   3.947   0.109  0.0261 -0.4600  0.1911
  284TIP3    H1  858   2.498   3.939   0.015  0.7357 -0.0988  0.2809
  284TIP3    H2  859   2.472   4.042   0.123  0.6034 -0.4620  0.5974
  285TIP3   OH2  860   5.951   4.665   2.219  0.5322  0.0299 -0.3281
  285TIP3    H1  861   6.003   4.588   2.244 -1.7827 -1.1870  1.0796
  285TIP3    H2  862   5.986   4.735   2.274  1.7352 -0.3470 -0.5801
  286TIP3   OH2  863   4.690   0.913   1.071  0.1394 -0.3282 -0.5127
  286TIP3    H1  864   4.781   0.895   1.093  1.2703  0.7751 -3.8129
  286TIP3    H2  865   4.680   1.007   1.086 -0.5861 -0.5067  0.1750
  287TIP3   OH2  866   1.764   2.594   1.883 -0.1305 -0.2064 -0.6200
  287TIP3    H1  867   1.692   2.543   1.846  1.0612 -1.5046 -1.2568
  287TIP3    H2  868   1.730   2.628   1.965 -1.6806 -0.2068 -1.2301
  288TIP3   OH2  869   2.251   4.313   1.983  0.4498 -0.1168 -0.2550
  288TIP3    H1  870   2.198   4.254   2.038 -1.8152  0.8643 -1.2482
  288TIP3    H2  871   2.262   4.265   1.901 -0.4280  0.3664 -0.6646
  289TIP3   OH2  872   1.062   4.989   5.121 -0.1713  0.1609 -0.2608
  289TIP3    H1  873   1.022   5.076   5.127 -0.0668  0.1313  1.0239
  289TIP3    H2  874   1.001   4.940   5.066 -0.8037  0.7332 -0.0924
  290TIP3   OH2  875   2.832   0.133   2.122  0.0947 -0.0616  0.4750
  290TIP3    H1  876   2.788   0.076   2.059  0.4948  1.0242 -0.8188
  290TIP3    H2  877   2.852   0.213   2.073  1.0517  0.5385  1.7826
  291TIP3   OH2  878   0.762   3.979   2.433  0.1155 -0.3983  1.1857
  291TIP3    H1  879   0.703   4.051   2.411 -1.5242 -1.5032  1.7828
  291TIP3    H2  880   0.707   3.916   2.480  1.2490 -2.4578 -0.0936
  292TIP3   OH2  881   5.653   4.617   1.593  0.1119  0.5327 -0.0675
  292TIP3    H1  882   5.635   4.636   1.685  0.8724  0.5154  0.0859
  292TIP3    H2  883   5.715   4.545   1.594 -0.3432  0.1271 -0.6085
  293TIP3   OH2  884   4.708   4.022   2.709 -0.2221 -0.3460 -0.5977
  293TIP3    H1  885   4.727   3.949   2.768  1.6417 -0.0900 -0.8303
  293TIP3    H2  886   4.748   3.997   2.626 -2.3969 -0.4843 -1.6717
  294TIP3   OH2  887   3.638   1.913   2.700  0.2507 -0.4856 -0.0396
  294TIP3    H1  888   3.650   1.819   2.685  0.4467 -0.2923 -1.1882
  294TIP3    H2  889   3.707   1.937   2.762  0.3239 -1.0560  0.1006
  295TIP3   OH2  890   5.060   0.239   4.626  0.1960  0.1934 -0.3213
  295TIP3    H1  891   5.027   0.275   4.543  0.3395 -0.6218 -0.7376
  295TIP3    H2  892   4.989   0.185   4.660  0.4729 -0.2113 -0.3761
  296TIP3   OH2  893   1.508   5.591   4.391 -0.4994  0.6964 -0.7024
  296TIP3    H1  894   1.532   5.676   4.429  5.0847 -0.5788 -0.4624
  296TIP3    H2  895   1.520   5.604   4.296  0.1463  0.2599 -0.6829
  297TIP3   OH2  896   4.646   3.362   1.134 -0.5165 -0.0795  0.0952
  297TIP3    H1  897   4.690   3.440   1.101  0.6073 -1.0170 -0.7033
  297TIP3    H2  898   4.555   3.373   1.108 -1.0723  2.3401  2.5851
  298TIP3   OH2  899   5.847   1.731   3.933 -0.4889  0.3313 -0.2021
  298TIP3    H1  900   5.821   1.751   4.023 -2.2725 -1.6600 -0.1690
  298TIP3    H2  901   5.862   1.816   3.892 -0.1239  1.2947  1.8260
  299TIP3   OH2  902   6.298   0.421   4.337  0.2439  0.0774  0.5718
  299TIP3    H1  903   6.330   0.502   4.378  0.8224 -0.1233  0.5272
  299TIP3    H2  904   6.302   0.440   4.243 -0.3018  0.2483  0.5830
  300TIP3   OH2  905   1.580   3.882   3.198  0.0349 -0.4914 -0.1191
  300TIP3    H1  906   1.548   3.853   3.283  0.4876  0.8181  0.5219
  300TIP3    H2  907   1.619   3.968   3.215  1.1588 -0.7063 -1.4277
  301TIP3   OH2  908   2.297   1.584   0.110  0.0993 -0.6675 -0.3224
  301TIP3    H1  909   2.285   1.609   0.018 -0.9734 -0.0676 -0.0501
  301TIP3    H2  910   2.300   1.668   0.156 -0.0838 -0.9750  0.2523
  302TIP3   OH2  911   2.221   3.905   4.621 -0.1468 -0.6474 -0.1122
  302TIP3    H1  912   2.307   3.927   4.583 -0.5023 -0.0886 -0.6106
  302TIP3    H2  913   2.162   3.905   4.546 -0.7376 -0.2207  0.3488
  303TIP3   OH2  914   1.888   1.796   4.015  0.3967 -0.1829 -0.1635
  303TIP3    H1  915   1.923   1.742   3.944  0.7388  0.3628 -0.4173
  303TIP3    H2  916   1.811   1.838   3.977  1.3540  1.1746 -0.6687
  304TIP3   OH2  917   3.256   5.845   3.719 -0.6225 -0.1877  0.0141
  304TIP3    H1  918   3.328   5.908   3.731  0.2995 -1.3325  0.6987
  304TIP3    H2  919   3.284   5.768   3.768 -3.2018 -0.0207  1.9057
  305TIP3   OH2  920   1.263   5.071   0.208  0.2871 -0.2863  0.1461
  305TIP3    H1  921   1.188   5.048   0.153 -0.9149 -1.7679  2.2318
  305TIP3    H2  922   1.225   5.122   0.279  1.5118  0.1891  0.4752
  306TIP3   OH2  923   3.031   0.942   1.810  0.3283 -0.7739 -0.5015
  306TIP3    H1  924   2.959   0.891   1.774 -1.7622  1.0715  0.8219
  306TIP3    H2  925   3.062   0.890   1.885 -1.5490 -0.3703  0.6248
  307TIP3   OH2  926   4.114   2.477   0.535  0.1640  0.2367 -0.0117
  307TIP3    H1  927   4.106   2.485   0.630 -0.0992  1.2300 -0.1107
  307TIP3    H2  928   4.152   2.559   0.507  1.0406 -0.3851 -0.6917
  308TIP3   OH2  929   1.077   4.422   0.580 -0.0226  0.0837 -0.5499
  308TIP3    H1  930   1.115   4.463   0.502  1.5384 -1.7474 -0.8207
  308TIP3    H2  931   1.104   4.480   0.652  0.3368  0.6704 -1.1457
  309TIP3   OH2  932   3.984   0.552   2.650  0.3058 -0.1676  0.2416
  309TIP3    H1  933   3.987   0.543   2.555  1.1271 -1.0110  0.3323
  309TIP3    H2  934   4.076   0.551   2.677  0.0634 -0.4661  1.0885
  310TIP3   OH2  935   5.976   5.896   3.522 -0.7217 -0.3308  0.1997
  310TIP3    H1  936   5.958   5.871   3.613 -0.0850 -0.7752  0.2076
  310TIP3    H2  937   5.889   5.914   3.486 -0.8693  1.5603  1.3635
  311TIP3   OH2  938   1.985   2.700   0.342 -0.0799  0.6635  0.0088
  311TIP3    H1  939   2.007   2.793   0.345 -1.6446  1.1625 -2.1188
  311TIP3    H2  940   1.938   2.684   0.424  1.1832  1.4430  0.9125
  312TIP3   OH2  941   4.127   3.489   3.010 -0.5188 -0.3664 -0.1004
  312TIP3    H1  942   4.032   3.481   3.002 -0.7031  0.6038  0.9055
  312TIP3    H2  943   4.148   3.441   3.091 -0.0515 -1.1846 -0.6927
  313TIP3   OH2  944   0.527   0.693   1.236 -0.5993  0.3691 -0.1728
  313TIP3    H1  945   0.501   0.682   1.144 -0.0000 -0.2576 -0.2865
  313TIP3    H2  946   0.495   0.779   1.260 -0.8511  0.5049 -0.9468
  314TIP3   OH2  947   4.080   0.349   3.197 -0.2430  0.2657  0.3135
  314TIP3    H1  948   4.107   0.336   3.106  0.6334  0.6176  0.5123
  314TIP3    H2  949   4.003   0.294   3.207  0.4297 -0.8172 -0.2633
  315TIP3   OH2  950   2.676   1.930   4.393  0.2839  0.3108 -0.4816
  315TIP3    H1  951   2.715   1.872   4.327 -0.3939 -1.6623  0.7785
  315TIP3    H2  952   2.747   1.948   4.454 -0.0443 -1.0555  0.3332
  316TIP3   OH2  953   6.300   0.725   2.919  0.2881 -0.4252  0.6473
  316TIP3    H1  954   6.236   0.780   2.965  0.5509  1.0370 -0.6471
  316TIP3    H2  955   6.383   0.772   2.930  0.3958 -0.1709 -1.0752
  317TIP3   OH2  956   0.667   5.539   1.456  0.0562 -0.0841 -0.0404
  317TIP3    H1  957   0.572   5.549   1.453 -0.1330 -1.6183  0.2007
  317TIP3    H2  958   0.691   5.511   1.368  0.3148  0.3716 -0.1213
  318TIP3   OH2  959   5.004   4.377   0.995  0.3365  0.1676 -0.6370
  318TIP3    H1  960   5.032   4.295   1.036  1.0806  0.8384  0.2366
  318TIP3    H2  961   4.916   4.358   0.961  0.0368 -0.6664  0.5328
  319TIP3   OH2  962   2.752   0.693   3.808  0.0158 -0.4407  0.1021
  319TIP3    H1  963   2.816   0.738   3.862  1.1353 -1.5887 -0.2233
  319TIP3    H2  964   2.803   0.648   3.741 -1.2225 -0.4003 -0.9147
  320TIP3   OH2  965   0.043   0.751   4.644 -0.1101 -0.0149 -0.4692
  320TIP3    H1  966   0.070   0.713   4.560 -1.3477 -1.0365 -0.4304
  320TIP3    H2  967   0.010   0.677   4.695 -0.0007  0.6968  0.6830
  321TIP3   OH2  968   0.889   2.680   3.324 -0.0014 -1.1425 -0.3262
  321TIP3    H1  969   0.956   2.711   3.262  2.2406 -0.1343  2.3605
  321TIP3    H2  970   0.843   2.759   3.351  1.1299 -1.0421  1.4812
  322TIP3   OH2  971   5.683   3.430   0.608  0.1958  0.0226  0.2308
  322TIP3    H1  972   5.767   3.433   0.561 -1.0357 -2.2033 -2.3345
  322TIP3    H2  973   5.631   3.500   0.569 -0.8408 -1.8504 -1.9743
  323TIP3   OH2  974   3.570   1.388   5.168  0.1437  0.2513  0.4781
  323TIP3    H1  975   3.604   1.474   5.144  0.1574  0.3339  0.7928
  323TIP3    H2  976   3.607   1.328   5.103 -0.5763  0.6115 -0.2822
  324TIP3   OH2  977   5.004   2.556   3.988  0.6053 -0.1300 -0.4151
  324TIP3    H1  978   4.918   2.517   3.968  0.4376  0.4650 -0.8665
  324TIP3    H2  979   5.012   2.629   3.928  1.7500 -0.6044 -0.8694
  325TIP3   OH2  980   4.092   5.360   4.464 -0.0646  0.1216 -0.3022
  325TIP3    H1  981   4.086   5.326   4.553 -1.2044 -1.0735 -0.8022
  325TIP3    H2  982   4.182   5.339   4.437  0.4816  1.0060  0.7290
  326TIP3   OH2  983   3.785   0.395   4.331  0.3680 -0.4993 -0.3701
  326TIP3    H1  984   3.717   0.367   4.270  0.5020 -0.4072 -0.5599
  326TIP3    H2  985   3.849   0.324   4.330  0.1880 -0.6706 -0.0545
  327TIP3   OH2  986   5.285   5.023   2.303  0.1574 -0.1422  0.2095
  327TIP3    H1  987   5.320   4.967   2.373 -3.1722 -1.1609  1.2501
  327TIP3    H2  988   5.198   5.047   2.334  0.3233  3.2973 -1.5655
  328TIP3   OH2  989   1.664   3.913   0.040  0.2271 -0.1925  0.3260
  328TIP3    H1  990   1.651   3.978  -0.029 -0.9319 -1.6559 -0.9222
  328TIP3    H2  991   1.717   3.958   0.106  1.5301  1.2386 -1.5670
  329TIP3   OH2  992   5.358   3.037   4.936  0.1474  0.8995 -0.5400
  329TIP3    H1  993   5.334   3.103   4.872 -2.0904  1.0126  0.3451
  329TIP3    H2  994   5.429   3.077   4.987 -0.7633  2.4056 -0.3975
  330TIP3   OH2  995   0.143   5.531   2.305 -0.1716  0.8251  0.4306
  330TIP3    H1  996   0.054   5.540   2.271 -0.7077  0.1496  1.5909
  330TIP3    H2  997   0.199   5.558   2.232 -1.1289 -2.9226 -1.9408
  331TIP3   OH2  998   3.815   5.837   4.066  0.1771  0.2032  0.9735
  331TIP3    H1  999   3.756   5.912   4.057  1.3245  1.2968  2.1274
  331TIP3    H2 1000   3.884   5.854   4.002 -0.6708 -1.0314 -0.3160
  332TIP3   OH2 1001   1.975   3.153   5.077  0.3246 -0.4780  0.2608
  332TIP3    H1 1002   2.040   3.206   5.122 -0.7568  2.0946 -0.9739
  332TIP3    H2 1003   1.892   3.175   5.120 -0.4024  0.3640 -1.4705
  333TIP3   OH2 1004   0.661   5.281   4.382  0.4187  0.7809  0.0598
  333TIP3    H1 1005   0.605   5.335   4.325  0.5125 -1.1381 -1.9802
  333TIP3    H2 1006   0.606   5.261   4.457 -0.7865  0.9574 -0.7377
  334TIP3   OH2 1007   3.772   2.332   3.195 -0.1151  0.0357 -0.1902
  334TIP3    H1 1008   3.722   2.410   3.219  0.8186  0.1617  1.4834
  334TIP3    H2 1009   3.781   2.284   3.277 -0.1914 -1.5704 -1.0870
  335TIP3   OH2 1010   1.426   3.633   2.542  0.4871  0.2771  0.0212
  335TIP3    H1 1011   1.461   3.552   2.579 -0.1926 -0.2090 -0.3672
  335TIP3    H2 1012   1.489   3.701   2.567  0.8935 -0.3149  0.6329
  336TIP3   OH2 1013   2.219   1.595   4.243 -0.1235 -0.1943 -0.3152
  336TIP3    H1 1014   2.133   1.633   4.258 -0.1633 -0.2856 -0.3120
  336TIP3    H2 1015   2.237   1.612   4.150  0.2812  0.6930 -0.0895
  337TIP3   OH2 1016   3.118   3.192   1.784 -0.2447  0.1411  0.2882
  337TIP3    H1 1017   3.185   3.145   1.833 -0.2250  1.9263  2.0950
  337TIP3    H2 1018   3.063   3.123   1.746  2.1098 -1.3473 -0.6136
  338TIP3   OH2 1019   1.516   4.408   4.319 -0.3214 -0.1519  0.4123
  338TIP3    H1 1020   1.507   4.341   4.386  2.9466 -0.4771  0.7052
  338TIP3    H2 1021   1.513   4.491   4.367  0.2697 -0.3122  0.7363
  339TIP3   OH2 1022   6.288   5.690   0.734 -0.3974 -0.3736  0.0597
  339TIP3    H1 1023   6.367   5.667   0.783  0.3390 -1.7903 -1.7043
  339TIP3    H2 1024   6.314   5.685   0.642 -2.8785 -2.3023 -0.6467
  340TIP3   OH2 1025   1.261   3.305   1.421 -0.3070  0.1722  0.3642
  340TIP3    H1 1026   1.278   3.364   1.495  1.8563  0.0828 -0.0135
  340TIP3    H2 1027   1.192   3.247   1.452  0.3292  0.3449  2.2013
  341TIP3   OH2 1028   4.880   1.667   2.991 -0.2019  0.1767 -0.6797
  341TIP3    H1 1029   4.885   1.740   2.930 -0.7274  0.3554 -0.5176
  341TIP3    H2 1030   4.827   1.601   2.945 -2.2051  1.0431  0.2807
  342TIP3   OH2 1031   4.391   2.951   0.899 -0.3655 -0.8652 -0.0179
  342TIP3    H1 1032   4.299   2.975   0.906 -0.0700  0.3823 -0.2304
  342TIP3    H2 1033   4.425   2.959   0.988 -0.5632 -1.8028  0.1510
  343TIP3   OH2 1034   0.609   4.472   1.805 -1.0058 -0.5679  0.2407
  343TIP3    H1 1035   0.543   4.530   1.845 -0.7282  0.3164 -0.5477
  343TIP3    H2 1036   0.692   4.518   1.817 -0.8427 -0.5642 -0.8180
  344TIP3   OH2 1037   6.296   4.184   4.055 -0.1742  0.0764 -0.3294
  344TIP3    H1 1038   6.219   4.157   4.006  1.0708 -1.2774 -1.6332
  344TIP3    H2 1039   6.344   4.103   4.071  0.8121  0.8476  0.7486
  345TIP3   OH2 1040   3.910   5.712   2.316  0.3713 -0.2224 -0.3347
  345TIP3    H1 1041   3.930   5.618   2.309  0.3266 -0.1179 -2.6257
  345TIP3    H2 1042   3.995   5.754   2.325  0.3671 -0.4718  1.1681
  346TIP3   OH2 1043   1.987   0.899   4.267  0.3550  0.2371 -0.1705
  346TIP3    H1 1044   2.045   0.970   4.296  2.5738 -1.2667 -0.6218
  346TIP3    H2 1045   1.980   0.841   4.343 -0.5348  0.3505 -0.1523
  347TIP3   OH2 1046   2.060   5.812   4.293 -0.8359 -0.2744 -0.4222
  347TIP3    H1 1047   2.114   5.736   4.316  0.0362  0.3794 -0.2849
  347TIP3    H2 1048   2.024   5.790   4.206 -0.1199 -0.5923 -0.6440
  348TIP3   OH2 1049   0.654   0.507   0.942 -0.0790 -0.1965 -0.2975
  348TIP3    H1 1050   0.711   0.576   0.977 -1.2020  1.0665 -0.8290
  348TIP3    H2 1051   0.697   0.425   0.966  1.5618  0.6907 -0.0558
  349TIP3   OH2 1052   2.349   2.847   2.211  0.0772 -0.6839 -0.4432
  349TIP3    H1 1053   2.298   2.776   2.250  0.5649 -1.5229 -1.2918
  349TIP3    H2 1054   2.284   2.906   2.174 -0.3214 -1.0012 -0.2570
  350TIP3   OH2 1055   3.899   1.158   0.801  0.1009  0.1536 -0.1541
  350TIP3    H1 1056   3.873   1.250   0.802  1.3036  0.5012  0.3465
  350TIP3    H2 1057   3.935   1.144   0.714  0.4149  0.3070 -0.0506
  351TIP3   OH2 1058   0.451   4.827   3.616  0.2435  0.6743 -0.2401
  351TIP3    H1 1059   0.357   4.838   3.607  0.2734  1.3247  0.2026
  351TIP3    H2 1060   0.473   4.758   3.552 -0.8905 -1.2520  1.3225
  352TIP3   OH2 1061   4.477   4.899   0.215 -0.0328 -0.2570  0.1815
  352TIP3    H1 1062   4.526   4.819   0.233  1.0065 -0.1172 -1.7355
  352TIP3    H2 1063   4.428   4.880   0.134 -3.8228 -0.6306  2.3326
  353TIP3   OH2 1064   4.784   5.965   0.998 -0.4841  0.6286  0.1003
  353TIP3    H1 1065   4.782   5.870   1.000  1.4646  0.5621  0.6168
  353TIP3    H2 1066   4.706   5.992   1.048  0.2264 -0.7132  2.0265
  354TIP3   OH2 1067   0.830   0.979   4.078 -0.6855  0.7326  0.0404
  354TIP3    H1 1068   0.811   0.886   4.087  0.5390  0.3072 -1.4050
  354TIP3    H2 1069   0.744   1.019   4.064 -1.1260 -0.3344 -0.4353
  355TIP3   OH2 1070   3.008   5.498   2.231  0.1360  0.1943  0.6423
  355TIP3    H1 1071   3.060   5.540   2.162 -1.1562  0.8181  0.0185
  355TIP3    H2 1072   2.982   5.569   2.289 -0.7947  0.0389  0.4288
  356TIP3   OH2 1073   4.763   1.077   2.818  0.0046  0.2177  0.1054
  356TIP3    H1 1074   4.726   1.098   2.733 -0.7100 -1.1255  0.0584
  356TIP3    H2 1075   4.810   0.994   2.805  0.3036  0.2500  0.8978
  357TIP3   OH2 1076   1.900   4.001   0.239  0.2915 -0.0439 -0.1608
  357TIP3    H1 1077   1.947   4.070   0.287 -1.6378  1.7174 -0.6676
  357TIP3    H2 1078   1.963   3.969   0.174  1.2430  1.2238  0.1050
  358TIP3   OH2 1079   0.585   2.469   2.237 -0.4214  0.2350 -0.0372
  358TIP3    H1 1080   0.525   2.416   2.184 -0.2623  1.0911 -1.0971
  358TIP3    H2 1081   0.630   2.405   2.292 -2.8091 -0.3844  1.3678
  359TIP3   OH2 1082   0.394   2.708   0.794  0.4825 -0.0813  0.1806
  359TIP3    H1 1083   0.483   2.718   0.829  0.3287  0.4416  0.4381
  359TIP3    H2 1084   0.392   2.766   0.718  1.1904 -2.0873 -1.4882
  360TIP3   OH2 1085   1.842   0.391   1.260  0.1141 -0.0793 -0.0149
  360TIP3    H1 1086   1.747   0.388   1.250  0.1734  0.2607 -0.6947
  360TIP3    H2 1087   1.871   0.453   1.194  0.8091 -0.1444  0.2256
  361TIP3   OH2 1088   5.236   3.458   4.300 -0.4542 -1.1709 -0.5570
  361TIP3    H1 1089   5.252   3.407   4.221 -2.7461 -0.4904 -1.5378
  361TIP3    H2 1090   5.143   3.481   4.296 -0.6623 -1.0687  2.3287
  362TIP3   OH2 1091   0.569   0.916   2.377  0.1866  0.0815 -0.4899
  362TIP3    H1 1092   0.612   0.897   2.294 -2.4350  0.2344 -1.9899
  362TIP3    H2 1093   0.530   1.002   2.364 -0.5803 -0.0529  0.7919
  363TIP3   OH2 1094  -0.010   4.811   2.650 -0.9357  0.1956  0.2204
  363TIP3    H1 1095   0.077   4.851   2.647  0.2393 -1.9457  2.2938
  363TIP3    H2 1096  -0.038   4.822   2.741 -3.0528  1.1745 -0.4869
  364TIP3   OH2 1097   5.090   2.725   0.191 -0.4170 -0.1839  0.8604
  364TIP3    H1 1098   5.056   2.796   0.246  0.0245  0.4175  0.3666
  364TIP3    H2 1099   5.170   2.761   0.153 -0.7683 -0.5555 -0.2501
  365TIP3   OH2 1100   1.444   2.740   1.780  0.0976  0.6047 -0.5122
  365TIP3    H1 1101   1.385   2.771   1.850 -0.5003 -0.6760 -0.4135
  365TIP3    H2 1102   1.402   2.770   1.699 -0.4224  0.1621 -0.4159
  366TIP3   OH2 1103   3.198   0.464   3.622 -0.0145 -0.0983  0.4439
  366TIP3    H1 1104   3.103   0.462   3.623 -0.0082 -0.4000  0.9937
  366TIP3    H2 1105   3.220   0.557   3.609 -0.3702 -0.2192 -1.1221
  367TIP3   OH2 1106   4.672   3.737   0.921 -0.4868 -0.4889 -0.3376
  367TIP3    H1 1107   4.581   3.713   0.901 -0.3197 -0.0229 -1.7327
  367TIP3    H2 1108   4.723   3.660   0.894 -0.2887  0.0281 -1.4932
  368TIP3   OH2 1109   3.508   0.043   2.590  0.4338  0.4505  0.5063
  368TIP3    H1 1110   3.465   0.076   2.668 -0.6145  0.0751  0.1111
  368TIP3    H2 1111   3.453   0.072   2.517 -0.8740 -2.4950  0.1567
  369TIP3   OH2 1112   0.702   5.424   2.902 -0.6349  0.2770 -0.2850
  369TIP3    H1 1113   0.665   5.507   2.930  1.7811  1.4914 -0.3784
  369TIP3    H2 1114   0.767   5.448   2.836 -0.8139 -1.8315 -1.3292
  370TIP3   OH2 1115   1.441   0.163   0.706  0.1315 -0.1995  0.4115
  370TIP3    H1 1116   1.361   0.216   0.717 -0.4201 -0.7140 -0.8967
  370TIP3    H2 1117   1.510   0.217   0.744 -0.3101  1.8018 -1.3772
  371TIP3   OH2 1118   6.254   5.808   4.465  0.1898  0.6038  0.1795
  371TIP3    H1 1119   6.302   5.868   4.408  1.8604  0.5629  1.4664
  371TIP3    H2 1120   6.232   5.861   4.542 -1.5393  0.5057 -0.2084
  372TIP3   OH2 1121   4.190   0.543   1.351  0.1200 -0.7390  0.2818
  372TIP3    H1 1122   4.243   0.552   1.430 -1.9507  0.4271  1.6395
  372TIP3    H2 1123   4.240   0.588   1.283  0.7768  0.5183  1.5548
  373TIP3   OH2 1124   2.234   3.477   4.842 -0.3782 -0.1334 -0.3151
  373TIP3    H1 1125   2.176   3.522   4.904 -0.1278  0.1090 -0.2582
  373TIP3    H2 1126   2.319   3.474   4.886 -0.1704  0.1373 -0.6962
  374TIP3   OH2 1127   3.347   5.371   1.801 -0.7552  0.2390  0.3645
  374TIP3    H1 1128   3.311   5.295   1.755 -0.5086  0.3925 -0.0908
  374TIP3    H2 1129   3.433   5.384   1.762 -0.6990  0.6106  0.6049
  375TIP3   OH2 1130   2.582   2.345   2.534  0.7045 -0.7546 -0.6028
  375TIP3    H1 1131   2.635   2.273   2.500  3.3483 -0.0391  1.5941
  375TIP3    H2 1132   2.573   2.325   2.627  1.4815  1.6625  0.0525
  376TIP3   OH2 1133   0.957   5.026   1.095  0.1902  0.1239  0.0030
  376TIP3    H1 1134   0.901   5.016   1.018  1.4379  2.0527 -1.2571
  376TIP3    H2 1135   0.974   5.120   1.100  3.0040 -0.3364  0.5330
  377TIP3   OH2 1136   3.241   2.335   4.003 -0.5234  0.0879 -0.1408
  377TIP3    H1 1137   3.180   2.393   3.957  1.5457 -0.5083 -4.0466
  377TIP3    H2 1138   3.324   2.383   4.003  0.2102 -1.1489  0.4818
  378TIP3   OH2 1139   2.583   5.699   4.061 -0.0855 -0.0735  0.1209
  378TIP3    H1 1140   2.500   5.746   4.074 -1.0235 -1.6191 -0.0831
  378TIP3    H2 1141   2.593   5.646   4.139  0.2987 -0.5145 -0.2254
  379TIP3   OH2 1142   3.579   3.889   1.272  0.3400  0.0977 -0.1690
  379TIP3    H1 1143   3.563   3.945   1.348  0.5453  1.1292 -0.8736
  379TIP3    H2 1144   3.590   3.950   1.199 -0.9777 -0.9050 -1.2468
  380TIP3   OH2 1145   3.774   3.123   3.938 -0.3924 -0.0414 -0.6287
  380TIP3    H1 1146   3.691   3.159   3.968 -0.7062 -0.8877 -0.4520
  380TIP3    H2 1147   3.806   3.072   4.012  0.6284  0.8238 -0.4506
  381TIP3   OH2 1148   3.495   0.817   4.509  0.0759  0.3300  0.6461
  381TIP3    H1 1149   3.457   0.847   4.591  0.6974  1.3837  0.5611
  381TIP3    H2 1150   3.445   0.862   4.441 -0.6841 -0.8212  0.4100
  382TIP3   OH2 1151   0.255   4.242   0.627  0.3598  0.0785  0.4791
  382TIP3    H1 1152   0.243   4.215   0.718  0.7285 -0.2320  0.4392
  382TIP3    H2 1153   0.315   4.316   0.633  0.8301 -0.2960  0.4497
  383TIP3   OH2 1154   1.009   3.379   2.572  0.2480 -0.8270  0.0361
  383TIP3    H1 1155   1.045   3.445   2.514 -0.3659  0.3406  0.9549
  383TIP3    H2 1156   1.059   3.299   2.551  0.9678 -0.1110 -1.1047
  384TIP3   OH2 1157   1.608   1.555   2.907 -0.2091 -0.4215  0.6750
  384TIP3    H1 1158   1.581   1.616   2.975 -1.1930 -0.4519  0.3325
  384TIP3    H2 1159   1.702   1.567   2.900 -0.0609 -0.5827  2.1859
  385TIP3   OH2 1160   5.970   2.785   2.500 -0.2950 -0.5424 -0.4912
  385TIP3    H1 1161   6.062   2.808   2.514 -0.1675 -1.8215  1.0059
  385TIP3    H2 1162   5.969   2.736   2.418  0.3388 -0.4457 -0.5578
  386TIP3   OH2 1163   2.740   5.876   0.206 -0.0372 -0.0232 -0.4294
  386TIP3    H1 1164   2.704   5.848   0.290  1.9398  0.6525  0.7002
  386TIP3    H2 1165   2.793   5.801   0.177  0.6662  0.3765 -0.2045
  387TIP3   OH2 1166   0.562   5.006   1.155  0.4437 -0.0661  0.0457
  387TIP3    H1 1167   0.491   5.036   1.098  2.0913  1.1236 -1.4857
  387TIP3    H2 1168   0.640   5.007   1.099  1.6242 -1.7732  1.5337
  388TIP3   OH2 1169   4.129   3.533   4.736 -0.0063  0.1866 -0.4346
  388TIP3    H1 1170   4.187   3.458   4.741  0.4080  0.5465  0.3727
  388TIP3    H2 1171   4.080   3.520   4.655 -2.0728 -2.4901  1.0866
  389TIP3   OH2 1172   2.073   0.679   2.711 -0.0621  0.3451 -0.0580
  389TIP3    H1 1173   1.993   0.629   2.694  0.1874  0.4094 -1.5586
  389TIP3    H2 1174   2.108   0.697   2.624  1.1465  1.0385  0.5588
  390TIP3   OH2 1175   3.520   3.086   3.343  0.7760  0.1733 -0.0664
  390TIP3    H1 1176   3.576   3.155   3.308  0.0072  1.5949  1.3905
  390TIP3    H2 1177   3.431   3.113   3.321  0.4043  0.1163  1.2568
  391TIP3   OH2 1178   6.309   3.145   2.814  0.2050 -0.1108 -0.2223
  391TIP3    H1 1179   6.245   3.075   2.834 -1.0479  1.4550  1.6747
  391TIP3    H2 1180   6.306   3.154   2.719 -2.8589  0.2203 -0.1975
  392TIP3   OH2 1181   1.755   5.236   1.702  0.5060  0.2489 -0.2076
  392TIP3    H1 1182   1.727   5.175   1.634 -0.7707 -0.0459  0.5458
  392TIP3    H2 1183   1.674   5.269   1.739  1.1873  1.3918  0.3083
  393TIP3   OH2 1184   1.117   2.194   1.158  0.1572  0.2151  0.6208
  393TIP3    H1 1185   1.025   2.167   1.153  0.6061 -1.2416 -0.3396
  393TIP3    H2 1186   1.121   2.274   1.105  0.1475 -1.9848 -3.0933
  394TIP3   OH2 1187   1.721   3.286   4.110 -0.2300 -0.6837 -0.5304
  394TIP3    H1 1188   1.714   3.191   4.107  0.0777 -0.6997 -0.7047
  394TIP3    H2 1189   1.805   3.303   4.154  0.6794 -0.5076 -2.2662
  395TIP3   OH2 1190   2.866   3.745   3.946 -0.7894 -0.4848 -0.0686
  395TIP3    H1 1191   2.882   3.746   3.851  1.4224 -2.0378  0.1839
  395TIP3    H2 1192   2.872   3.652   3.969  2.0508  0.0717  1.9937
  396TIP3   OH2 1193   1.328   2.861   4.992 -0.1037 -0.0878  1.1315
  396TIP3    H1 1194   1.292   2.836   4.907  1.5454  1.8685 -0.2541
  396TIP3    H2 1195   1.286   2.803   5.054 -1.2077 -1.7698 -1.0462
  397TIP3   OH2 1196   5.260   1.133   3.242 -0.1370 -0.4014 -0.3499
  397TIP3    H1 1197   5.202   1.205   3.218 -0.0282  0.9984  3.0957
  397TIP3    H2 1198   5.347   1.173   3.244  0.0384 -0.8189  0.7829
  398TIP3   OH2 1199   5.682   5.270   2.198 -0.0201 -0.1714  0.2758
  398TIP3    H1 1200   5.588   5.272   2.218  0.1013 -1.4892  1.1023
  398TIP3    H2 1201   5.701   5.178   2.184  1.1825  0.0711  0.2566
  399TIP3   OH2 1202   5.755   4.238   2.953 -0.2924 -0.5127 -0.3030
  399TIP3    H1 1203   5.816   4.174   2.916  1.8554  0.9649  0.4461
  399TIP3    H2 1204   5.766   4.228   3.048 -0.3541  0.5170 -0.1721
  400TIP3   OH2 1205   3.946   5.889   3.809  0.1806 -0.4633 -0.3289
  400TIP3    H1 1206   3.977   5.908   3.721  0.2078  0.3269 -0.1522
  400TIP3    H2 1207   4.025   5.864   3.857  0.4898  1.0093 -0.0247
  401TIP3   OH2 1208   3.406   2.558   4.630 -0.1787 -0.0820 -0.3212
  401TIP3    H1 1209   3.482   2.587   4.579  0.1415  0.8589  0.6473
  401TIP3    H2 1210   3.374   2.481   4.584  1.9993 -1.1458 -0.1765
  402TIP3   OH2 1211   3.865   5.442   3.704  0.1606 -0.1146 -0.4337
  402TIP3    H1 1212   3.929   5.459   3.635 -0.0691  0.7117 -0.4457
  402TIP3    H2 1213   3.917   5.431   3.783  0.2531  3.0173  0.0666
  403TIP3   OH2 1214   0.818   3.660   3.252  0.5346 -0.8791  0.2956
  403TIP3    H1 1215   0.746   3.695   3.306 -1.5442  0.1647 -2.8370
  403TIP3    H2 1216   0.837   3.575   3.290 -3.4180 -1.8387  0.5444
  404TIP3   OH2 1217   3.316   0.254   0.358 -0.0314 -0.0444  1.3903
  404TIP3    H1 1218   3.407   0.281   0.369  0.3279 -0.4891 -0.2693
  404TIP3    H2 1219   3.321   0.162   0.334 -0.7143  0.5856 -1.4450
  405TIP3   OH2 1220   3.243   4.402   4.386  0.2978 -0.4497 -0.1925
  405TIP3    H1 1221   3.313   4.451   4.429  0.4205 -0.4180 -0.4246
  405TIP3    H2 1222   3.162   4.434   4.426  0.4302 -0.6289  0.2131
  406TIP3   OH2 1223   2.940   1.535   2.685 -0.0956  0.4949 -0.2256
  406TIP3    H1 1224   3.032   1.509   2.686  0.2140  1.4167 -1.7530
  406TIP3    H2 1225   2.901   1.485   2.757  1.8979  1.2831  1.5362
  407TIP3   OH2 1226   2.198   5.798   3.874  0.3570 -0.1439  0.5903
  407TIP3    H1 1227   2.282   5.812   3.832 -0.1525  1.5503  0.0684
  407TIP3    H2 1228   2.184   5.877   3.927 -1.0958 -0.1838  0.3108
  408TIP3   OH2 1229   6.170   3.363   0.568 -0.2809 -0.0481 -0.0170
  408TIP3    H1 1230   6.079   3.387   0.551 -0.0045  0.9090 -0.1850
  408TIP3    H2 1231   6.221   3.431   0.524  0.5020  0.1314  1.1504
  409TIP3   OH2 1232   3.636   5.801   2.007  0.2560  0.0675  0.1014
  409TIP3    H1 1233   3.670   5.802   1.918 -0.1436  0.2368 -0.0527
  409TIP3    H2 1234   3.578   5.725   2.010  0.9980 -0.4993  0.5022
  410TIP3   OH2 1235   5.901   0.619   3.972  0.4162 -0.3514 -0.5200
  410TIP3    H1 1236   5.917   0.579   4.057  2.0251 -0.3465 -0.8043
  410TIP3    H2 1237   5.896   0.713   3.990 -1.2368 -0.4653 -0.1732
  411TIP3   OH2 1238   3.855   5.876   0.680 -0.5722  0.0150  0.0680
  411TIP3    H1 1239   3.894   5.911   0.761  0.2168 -1.0290  0.1623
  411TIP3    H2 1240   3.924   5.821   0.642 -1.2302 -0.1711 -0.8871
  412TIP3   OH2 1241   5.074   4.436   1.512  0.4862 -0.2885  0.1670
  412TIP3    H1 1242   5.030   4.490   1.446  0.2078 -1.3782 -0.5549
  412TIP3    H2 1243   5.168   4.447   1.494  0.4289 -0.1271 -0.0351
  413TIP3   OH2 1244   4.485   4.484   1.280  0.4770 -0.0648  0.0843
  413TIP3    H1 1245   4.464   4.400   1.322 -0.2338 -0.0974 -0.3221
  413TIP3    H2 1246   4.402   4.514   1.243  0.7531  0.7546  0.1012
  414TIP3   OH2 1247   4.889   4.367   2.785 -0.4779  0.3539 -0.1779
  414TIP3    H1 1248   4.829   4.433   2.750 -1.6762  0.4283  1.8828
  414TIP3    H2 1249   4.850   4.340   2.868  0.6830 -1.9985 -0.3095
  415TIP3   OH2 1250   2.180   0.223   2.678  0.6058  0.1214  0.0225
  415TIP3    H1 1251   2.087   0.216   2.700  0.3813  2.0477 -0.1610
  415TIP3    H2 1252   2.225   0.201   2.759  0.1121 -2.9349 -0.4189
  416TIP3   OH2 1253   4.325   1.500   4.622  0.1654 -0.4333  0.3817
  416TIP3    H1 1254   4.262   1.434   4.653 -1.5770  0.0522 -1.7888
  416TIP3    H2 1255   4.270   1.569   4.585  1.9903  0.8373 -0.0703
  417TIP3   OH2 1256   5.242   4.021   2.691  0.6286  0.4272 -0.3712
  417TIP3    H1 1257   5.280   4.108   2.690  0.2896  0.7411  3.0871
  417TIP3    H2 1258   5.148   4.036   2.677  0.5585  0.6699  0.3000
  418TIP3   OH2 1259   1.158   0.994   2.798  0.7824 -0.3259  0.0230
  418TIP3    H1 1260   1.253   1.001   2.805  0.7119  0.7787 -0.0408
  418TIP3    H2 1261   1.128   0.988   2.888  1.0006 -2.2308  0.0079
  419TIP3   OH2 1262   5.420   0.232   2.316 -0.4422  0.4961 -0.3802
  419TIP3    H1 1263   5.329   0.235   2.345 -0.4618  1.6704 -0.5217
  419TIP3    H2 1264   5.471   0.241   2.397 -0.4326 -0.2760 -0.2876
  420TIP3   OH2 1265   4.928   1.412   2.608 -0.0855 -0.4419 -0.4994
  420TIP3    H1 1266   4.886   1.441   2.527 -3.8385 -0.6923  1.1497
  420TIP3    H2 1267   4.929   1.316   2.601  1.7727 -0.4169 -1.1456
  421TIP3   OH2 1268   1.729   3.287   4.473 -0.0888 -0.2422  0.3441
  421TIP3    H1 1269   1.778   3.368   4.464  0.6240 -0.6176  0.7938
  421TIP3    H2 1270   1.673   3.284   4.395  0.4498  0.2874 -0.0711
  422TIP3   OH2 1271   3.723   3.638   4.964  0.0174  0.3445  0.4283
  422TIP3    H1 1272   3.666   3.652   4.888 -0.4093 -1.2540  0.4163
  422TIP3    H2 1273   3.665   3.652   5.039 -0.2606 -0.6934  0.4204
  423TIP3   OH2 1274   4.813   5.686   0.787  0.4364  0.3564  0.2161
  423TIP3    H1 1275   4.756   5.619   0.826  0.6013  0.0607 -0.0439
  423TIP3    H2 1276   4.758   5.764   0.783 -0.3740 -0.2417 -1.1593
  424TIP3   OH2 1277   4.027   4.635   0.902 -0.1059  0.0700 -0.0860
  424TIP3    H1 1278   3.956   4.571   0.905 -0.4638  0.4432 -0.5089
  424TIP3    H2 1279   4.042   4.659   0.994  0.8821 -1.5357  0.2007
  425TIP3   OH2 1280   4.697   2.863   1.525 -0.3004 -0.5729  0.0639
  425TIP3    H1 1281   4.739   2.881   1.609  0.2256  0.1594 -0.3382
  425TIP3    H2 1282   4.605   2.882   1.539  0.2495  3.1838 -0.4536
  426TIP3   OH2 1283   5.435   4.144   3.658  0.8986 -0.1807 -0.1397
  426TIP3    H1 1284   5.365   4.203   3.631 -0.5484 -1.8401 -0.1313
  426TIP3    H2 1285   5.431   4.143   3.753  0.3611 -0.9480 -0.1696
  427TIP3   OH2 1286   4.213   5.594   3.014  0.0549  0.0640 -0.1791
  427TIP3    H1 1287   4.144   5.540   3.052  0.1060 -0.8780 -1.3449
  427TIP3    H2 1288   4.210   5.676   3.064 -0.5398 -0.7175  1.1263
  428TIP3   OH2 1289   5.202   3.387   4.573 -0.3972  0.4474  0.1774
  428TIP3    H1 1290   5.228   3.403   4.483 -0.3080  3.1773  0.5912
  428TIP3    H2 1291   5.149   3.307   4.569 -0.8897  0.8066 -2.3906
  429TIP3   OH2 1292   2.271   5.509   2.222  0.1241 -0.0622 -0.1294
  429TIP3    H1 1293   2.271   5.603   2.203  1.0317 -0.0193  0.0701
  429TIP3    H2 1294   2.234   5.469   2.143  0.9155  0.3690 -0.7332
  430TIP3   OH2 1295   3.659   4.424   0.169 -0.2222  0.2225 -0.3044
  430TIP3    H1 1296   3.624   4.386   0.250 -0.8389 -0.3513 -0.8254
  430TIP3    H2 1297   3.719   4.492   0.198 -1.4641  0.9583  0.6414
  431TIP3   OH2 1298   3.620   3.083   1.959  0.2153  0.0162 -0.1544
  431TIP3    H1 1299   3.620   3.164   2.009 -0.8955  0.0707 -0.2129
  431TIP3    H2 1300   3.708   3.047   1.971  0.5305  0.9271  0.3538
  432TIP3   OH2 1301   0.059   1.888   3.358  0.7656  0.2611 -0.8392
  432TIP3    H1 1302   0.128   1.954   3.365  1.3229 -0.4657  0.7916
  432TIP3    H2 1303  -0.023   1.939   3.358  1.2140  0.9961 -0.5315
  433TIP3   OH2 1304   4.672   5.930   1.412  0.0998  0.1178 -0.3199
  433TIP3    H1 1305   4.734   5.976   1.468  0.5408 -1.2759  0.4080
  433TIP3    H2 1306   4.709   5.842   1.403 -1.9966 -0.9431  0.5718
  434TIP3   OH2 1307   2.378   4.630   1.120  0.5602 -0.3999 -0.1277
  434TIP3    H1 1308   2.474   4.626   1.120  0.5175 -2.3863 -0.7469
  434TIP3    H2 1309   2.353   4.599   1.033 -0.6567  1.1018 -0.3602
  435TIP3   OH2 1310   4.237   2.108   0.559 -0.0099 -0.4422 -0.5032
  435TIP3    H1 1311   4.256   2.188   0.607 -0.7937 -0.2860 -0.4340
  435TIP3    H2 1312   4.281   2.119   0.474  0.2922 -0.1542 -0.3079
  436TIP3   OH2 1313   5.511   1.213   4.064 -0.5892  0.1148  0.3576
  436TIP3    H1 1314   5.437   1.244   4.116  0.2265  0.9593  1.0648
  436TIP3    H2 1315   5.544   1.292   4.021 -0.7230 -0.4295 -0.7822
  437TIP3   OH2 1316   3.078   5.872   0.632 -0.0841 -0.0524  0.2302
  437TIP3    H1 1317   3.044   5.805   0.573  0.4989 -0.2403  0.0938
  437TIP3    H2 1318   3.169   5.847   0.647 -0.1891  0.0553  1.1304
  438TIP3   OH2 1319   3.857   4.262   0.509 -0.2828  0.1750  0.4159
  438TIP3    H1 1320   3.895   4.338   0.464  0.4884 -0.0328  0.6910
  438TIP3    H2 1321   3.785   4.298   0.560 -0.8472  0.4957 -0.5751
  439TIP3   OH2 1322   2.002   2.786   0.986 -0.0162  0.5181  0.3851
  439TIP3    H1 1323   1.955   2.773   1.069  0.3837  0.6667  0.6400
  439TIP3    H2 1324   2.090   2.811   1.013  0.1151  0.5681 -0.0907
  440TIP3   OH2 1325   0.646   3.635   2.644 -0.0972  0.3147  0.3452
  440TIP3    H1 1326   0.603   3.657   2.561  0.3477 -1.2396 -0.3358
  440TIP3    H2 1327   0.633   3.712   2.699 -0.9362  1.1416 -0.9567
  441TIP3   OH2 1328   2.407   1.948   1.968  0.1694 -0.4552 -0.4032
  441TIP3    H1 1329   2.393   1.931   1.875  1.6372  0.5245 -0.8441
  441TIP3    H2 1330   2.441   1.866   2.003 -1.6470 -1.2527 -0.3993
  442TIP3   OH2 1331   1.897   1.988   2.745 -0.6640  0.7460 -0.5471
  442TIP3    H1 1332   1.989   1.973   2.723 -0.7866 -0.3374 -0.3859
  442TIP3    H2 1333   1.851   1.980   2.661 -0.6080  1.4069 -0.6475
  443TIP3   OH2 1334   6.310   3.654   2.888  0.1469 -0.0521 -0.4413
  443TIP3    H1 1335   6.324   3.606   2.806  1.0203 -0.4772 -0.0605
  443TIP3    H2 1336   6.294   3.745   2.861 -0.2139 -0.3136 -1.1090
  444TIP3   OH2 1337   4.610   2.488   4.545  0.4941 -0.0758 -0.1641
  444TIP3    H1 1338   4.531   2.434   4.553 -0.1662  0.9787  0.5810
  444TIP3    H2 1339   4.659   2.446   4.474 -1.8580  0.6265 -2.3609
  445TIP3   OH2 1340   1.097   3.620   3.235 -0.4461 -0.1958  0.3283
  445TIP3    H1 1341   1.142   3.704   3.230 -1.9665  0.8021  2.1928
  445TIP3    H2 1342   1.005   3.642   3.222 -0.8935 -1.5409  1.0429
  446TIP3   OH2 1343   1.834   2.864   2.755 -0.1326 -0.2325  0.4894
  446TIP3    H1 1344   1.750   2.847   2.798 -0.6736 -0.7034 -0.6981
  446TIP3    H2 1345   1.896   2.805   2.797 -1.1890 -2.5697 -1.0450
  447TIP3   OH2 1346   0.858   3.969   2.952  0.4265  0.3310 -0.0724
  447TIP3    H1 1347   0.820   3.998   2.869  0.4189 -0.2109 -0.2637
  447TIP3    H2 1348   0.790   3.915   2.992  1.1449 -1.0349 -0.6335
  448TIP3   OH2 1349   5.275   5.504   4.817 -0.3538  0.2342  0.3884
  448TIP3    H1 1350   5.295   5.544   4.902  4.3961  1.6057 -1.0300
  448TIP3    H2 1351   5.311   5.415   4.824  0.1264  0.3813 -0.1810
  449TIP3   OH2 1352   3.947   2.870   0.110 -0.5069 -0.8668 -0.2881
  449TIP3    H1 1353   4.039   2.877   0.133 -0.5535  0.3913 -0.3915
  449TIP3    H2 1354   3.939   2.917   0.027 -1.2595 -0.8660 -0.2260
  450TIP3   OH2 1355   4.987   2.539   4.491 -0.5012  0.8772  0.1474
  450TIP3    H1 1356   5.052   2.478   4.457  0.1235  2.4094 -1.5768
  450TIP3    H2 1357   4.904   2.508   4.456 -0.2521  0.7607 -0.3426
  451TIP3   OH2 1358   1.186   2.372   2.880  0.0089 -0.1592  0.0096
  451TIP3    H1 1359   1.127   2.422   2.936 -1.0994 -0.4830 -0.8480
  451TIP3    H2 1360   1.129   2.312   2.832  0.8778  0.3181 -1.7003
  452TIP3   OH2 1361   2.550   0.977   3.222  0.3410  0.2551 -0.6889
  452TIP3    H1 1362   2.610   0.969   3.148  1.2232  0.7397 -0.0509
  452TIP3    H2 1363   2.546   1.071   3.240  0.3863  0.1191  0.0731
  453TIP3   OH2 1364   2.865   2.341   0.817 -0.1723  0.0397  0.1877
  453TIP3    H1 1365   2.899   2.253   0.803 -0.9505 -0.0862 -1.0242
  453TIP3    H2 1366   2.849   2.375   0.729 -0.6412  1.0942  0.6665
  454TIP3   OH2 1367   5.876   2.737   1.511  0.0711 -0.3680  0.4874
  454TIP3    H1 1368   5.897   2.768   1.423  1.6640  0.7677  1.2179
  454TIP3    H2 1369   5.958   2.699   1.543 -0.7204 -1.5520  1.1798
  455TIP3   OH2 1370   2.287   4.191   1.744 -0.2613  0.3912 -0.0227
  455TIP3    H1 1371   2.199   4.178   1.709 -0.1627 -0.2706 -0.0243
  455TIP3    H2 1372   2.322   4.103   1.757  0.1944  0.6427  0.5105
  456TIP3   OH2 1373   0.605   2.313   3.672  0.7581 -0.1923  0.3663
  456TIP3    H1 1374   0.511   2.330   3.666  0.6636 -1.0914 -1.5701
  456TIP3    H2 1375   0.625   2.263   3.593  2.9365  0.2963  0.5433
  457TIP3   OH2 1376   0.230   5.683   1.628  0.4534 -0.6316 -0.0979
  457TIP3    H1 1377   0.250   5.601   1.672  1.7740 -0.3702 -0.1492
  457TIP3    H2 1378   0.247   5.750   1.695  2.7175 -0.2114 -0.9762
  458TIP3   OH2 1379   6.023   5.068   3.123 -0.3457  0.5685  0.7697
  458TIP3    H1 1380   5.970   5.124   3.180 -0.1536  0.4391  1.0771
  458TIP3    H2 1381   6.054   4.998   3.180 -0.4596  0.2272  0.4199
  459TIP3   OH2 1382   0.264   2.864   5.175  0.6293  0.8758  0.1514
  459TIP3    H1 1383   0.251   2.864   5.080  0.9697 -0.3393  0.0880
  459TIP3    H2 1384   0.357   2.845   5.187  0.0460 -2.1195  0.7157
  460TIP3   OH2 1385   3.735   0.170   2.653 -0.0174  0.7081 -0.2366
  460TIP3    H1 1386   3.679   0.096   2.629  0.7493  0.4308 -1.1987
  460TIP3    H2 1387   3.819   0.152   2.612  1.2313  0.4706  2.2243
  461TIP3   OH2 1388   0.574   1.026   2.047  0.0692 -0.4929 -0.1759
  461TIP3    H1 1389   0.640   0.995   1.985  0.9258  1.5498 -0.3514
  461TIP3    H2 1390   0.500   1.053   1.992 -0.1982 -1.0383 -0.0989
  462TIP3   OH2 1391   1.664   1.543   5.088  0.1203 -0.0160  0.5603
  462TIP3    H1 1392   1.647   1.519   5.179 -0.2208 -0.5384  0.3587
  462TIP3    H2 1393   1.613   1.623   5.075  0.2118  0.0905  0.8378
  463TIP3   OH2 1394   5.909   3.435   3.205  0.4312  0.3969  0.6441
  463TIP3    H1 1395   5.981   3.498   3.204  0.7577  0.0333  0.6461
  463TIP3    H2 1396   5.926   3.379   3.129 -0.0447  0.5220  0.4464
  464TIP3   OH2 1397   2.860   4.183   4.748  0.0677 -0.7092 -0.1715
  464TIP3    H1 1398   2.816   4.123   4.808  1.3271 -1.9424 -0.4594
  464TIP3    H2 1399   2.894   4.128   4.678  2.7279  0.0459  0.4063
  465TIP3   OH2 1400   4.550   2.251   4.980 -0.2674  0.1944  0.0403
  465TIP3    H1 1401   4.535   2.169   5.027  1.5678  1.1597  2.5899
  465TIP3    H2 1402   4.485   2.311   5.017  0.4983  0.6811  0.6505
  466TIP3   OH2 1403   2.067   3.364   1.312 -0.2162  0.3234  0.2411
  466TIP3    H1 1404   2.026   3.355   1.398 -0.4268  1.0596  0.2221
  466TIP3    H2 1405   2.107   3.278   1.296 -2.0472 -0.5628  0.1082
  467TIP3   OH2 1406   5.185   5.872   2.250  0.1372  0.2956  0.4546
  467TIP3    H1 1407   5.128   5.828   2.187  1.3413  0.0141 -0.4750
  467TIP3    H2 1408   5.160   5.964   2.246  0.6279  0.3836 -0.9181
  468TIP3   OH2 1409   5.735   1.172   3.071 -0.1438  0.0637  0.1962
  468TIP3    H1 1410   5.659   1.197   3.123  0.1338 -0.0818  0.6699
  468TIP3    H2 1411   5.774   1.098   3.118  0.2711  0.1131 -0.0643
  469TIP3   OH2 1412   6.349   1.323   2.100  0.3577  0.1841 -0.2440
  469TIP3    H1 1413   6.320   1.393   2.041  0.5308  1.1007  0.7060
  469TIP3    H2 1414   6.349   1.244   2.047  0.0204  0.8892 -1.3216
  470TIP3   OH2 1415   1.086   5.265   4.852  0.4463  0.3227 -0.2038
  470TIP3    H1 1416   1.013   5.287   4.794  1.7593  0.4430 -1.8534
  470TIP3    H2 1417   1.043   5.242   4.935 -1.6729 -1.9261 -1.7605
  471TIP3   OH2 1418   0.466   2.088   3.828  0.3644 -0.4689  0.3940
  471TIP3    H1 1419   0.441   2.124   3.914  1.3990 -0.5222  0.7296
  471TIP3    H2 1420   0.531   2.149   3.794  0.9962 -1.1830  0.2806
  472TIP3   OH2 1421   5.707   2.614   0.059  0.2263  0.1247  0.6009
  472TIP3    H1 1422   5.777   2.612   0.124  0.6132 -0.7925  0.1826
  472TIP3    H2 1423   5.626   2.625   0.109  0.5198 -0.5456  1.2310
  473TIP3   OH2 1424   6.066   2.187   3.501  0.2537  0.0443 -0.6653
  473TIP3    H1 1425   6.065   2.103   3.455  1.5769  1.0045 -2.5790
  473TIP3    H2 1426   6.005   2.242   3.453  0.8615  0.7618 -0.6434
  474TIP3   OH2 1427   0.632   3.271   5.032 -0.2477 -0.6279 -0.5755
  474TIP3    H1 1428   0.626   3.267   5.128  0.9802 -0.0086 -0.4567
  474TIP3    H2 1429   0.724   3.253   5.013  0.2639  2.4117 -1.4246
  475TIP3   OH2 1430   4.819   3.481   0.919 -0.4145 -0.3363 -0.1274
  475TIP3    H1 1431   4.778   3.472   0.834 -1.1540  1.8347 -0.0412
  475TIP3    H2 1432   4.912   3.464   0.902 -0.5132  0.3038 -1.4096
  476TIP3   OH2 1433   2.782   3.726   5.146  0.4924 -0.0240 -0.5429
  476TIP3    H1 1434   2.834   3.665   5.198  1.8031  0.9792 -0.6426
  476TIP3    H2 1435   2.832   3.738   5.065 -1.0899 -0.8896 -1.7216
  477TIP3   OH2 1436   3.813   4.502   4.110  0.6006 -0.0304  0.1766
  477TIP3    H1 1437   3.744   4.533   4.169 -0.4253 -0.3907 -0.7886
  477TIP3    H2 1438   3.816   4.407   4.124  0.8496 -0.0255  0.1593
  478TIP3   OH2 1439   4.704   3.121   2.466 -0.2378 -0.3229 -0.5512
  478TIP3    H1 1440   4.736   3.076   2.388  1.0244  0.5126 -0.5407
  478TIP3    H2 1441   4.771   3.103   2.533  1.4895  3.2284 -1.1067
  479TIP3   OH2 1442   4.026   2.590   4.603  0.2454 -0.1777  0.2652
  479TIP3    H1 1443   4.008   2.501   4.633  1.0571 -0.1687  0.7902
  479TIP3    H2 1444   3.945   2.638   4.622  0.6502 -0.2236  2.2926
  480TIP3   OH2 1445   4.131   5.829   3.989 -0.6378 -0.3839 -0.3049
  480TIP3    H1 1446   4.194   5.808   4.057 -0.9658 -1.0177 -0.1924
  480TIP3    H2 1447   4.091   5.911   4.018 -0.8698 -0.7155  0.3362
  481TIP3   OH2 1448   4.129   3.934   3.810 -0.2468 -0.3405 -0.6283
  481TIP3    H1 1449   4.063   3.902   3.872 -0.3008 -0.3391 -0.6857
  481TIP3    H2 1450   4.205   3.878   3.826 -0.0314  0.0935 -0.0925
  482TIP3   OH2 1451   0.376   3.374   4.599 -0.0272  0.8137  0.3621
  482TIP3    H1 1452   0.373   3.299   4.659  2.0290  0.8209  0.5429
  482TIP3    H2 1453   0.317   3.438   4.638  1.1148  0.7458  2.2957
  483TIP3   OH2 1454   4.697   2.643   1.298  0.2120  0.0752 -0.5197
  483TIP3    H1 1455   4.790   2.630   1.318  0.5120  0.4645 -1.6440
  483TIP3    H2 1456   4.694   2.666   1.206 -1.0751 -0.7105 -0.7099
  484TIP3   OH2 1457   2.596   3.709   3.580  0.0237 -0.0463  0.2947
  484TIP3    H1 1458   2.512   3.734   3.616  0.6809  1.0518  1.1115
  484TIP3    H2 1459   2.620   3.629   3.628  0.3543  0.7565  1.5000
  485TIP3   OH2 1460   3.330   0.172   4.609 -0.1068  0.7537 -0.4705
  485TIP3    H1 1461   3.302   0.197   4.697  0.3595 -0.9820  0.2012
  485TIP3    H2 1462   3.250   0.178   4.557 -0.7093  0.4377  0.3922
  486TIP3   OH2 1463   2.661   5.779   2.595 -0.1415 -0.0338 -0.3569
  486TIP3    H1 1464   2.733   5.799   2.654  1.0177 -1.0447 -1.3946
  486TIP3    H2 1465   2.689   5.702   2.547 -0.8512  0.9992 -2.5589
  487TIP3   OH2 1466   0.629   2.783   1.994 -0.0826 -0.0587  0.2316
  487TIP3    H1 1467   0.572   2.751   1.924  0.4816 -1.1677  0.2540
  487TIP3    H2 1468   0.569   2.808   2.065 -0.5517 -1.0184  0.1827
  488TIP3   OH2 1469   5.914   4.589   1.889  0.4295 -0.1414  0.0618
  488TIP3    H1 1470   5.848   4.530   1.852  0.9626 -0.8309  0.1704
  488TIP3    H2 1471   5.958   4.536   1.956  1.3990  0.1433 -0.3360
  489TIP3   OH2 1472   0.886   1.010   0.769 -0.5012 -0.6018 -0.1930
  489TIP3    H1 1473   0.893   1.091   0.719 -2.4507  0.0568  0.5075
  489TIP3    H2 1474   0.941   1.024   0.846  0.1732 -0.4644 -0.6892
  490TIP3   OH2 1475   0.590   5.166   2.733  0.1008 -0.3477 -0.5825
  490TIP3    H1 1476   0.604   5.127   2.819  1.2772  1.0480 -0.0944
  490TIP3    H2 1477   0.498   5.194   2.734  0.3323  0.4444  0.5848
  491TIP3   OH2 1478   0.219   5.830   0.280 -0.1441 -0.2038  0.2220
  491TIP3    H1 1479   0.193   5.777   0.355 -3.0079  0.5494 -0.1159
  491TIP3    H2 1480   0.300   5.874   0.308 -0.1142 -1.3534  2.1176
  492TIP3   OH2 1481   0.937   0.052   3.251  0.2831  0.3589  0.2169
  492TIP3    H1 1482   0.903   0.064   3.162 -1.1747 -0.4816  0.6335
  492TIP3    H2 1483   1.014  -0.004   3.240  1.2751  1.8256 -0.6860
  493TIP3   OH2 1484   2.244   3.910   3.265  0.4360 -0.5559 -0.0999
  493TIP3    H1 1485   2.188   3.889   3.190  1.6807  3.2465 -2.3902
  493TIP3    H2 1486   2.331   3.879   3.240  1.1444  1.9184 -1.0346
  494TIP3   OH2 1487   6.006   3.088   1.716 -0.5848  0.2363  0.0247
  494TIP3    H1 1488   6.059   3.115   1.641 -0.7357  1.5758  0.3763
  494TIP3    H2 1489   5.990   3.169   1.764  0.0588 -0.6646  1.8620
  495TIP3   OH2 1490   5.011   1.932   3.459 -0.2754 -0.8642 -0.1089
  495TIP3    H1 1491   4.989   1.977   3.541  0.5694 -1.6228  0.5498
  495TIP3    H2 1492   4.946   1.863   3.451  1.5624 -2.9694  1.7295
  496TIP3   OH2 1493   1.130   3.114   2.557  0.0159  0.2359 -0.2306
  496TIP3    H1 1494   1.170   3.114   2.644  2.1742  2.5513 -1.0871
  496TIP3    H2 1495   1.146   3.026   2.523  0.5922 -0.1991  1.0970
  497TIP3   OH2 1496   1.415   0.825   2.837 -0.0631  0.6523  0.3952
  497TIP3    H1 1497   1.387   0.805   2.747  0.6824 -0.1944  0.3340
  497TIP3    H2 1498   1.437   0.918   2.836 -1.3979  0.9903  0.0706
  498TIP3   OH2 1499   4.482   5.510   2.869  0.3403 -0.3748  0.4468
  498TIP3    H1 1500   4.425   5.515   2.945 -0.8751 -1.5379 -0.3528
  498TIP3    H2 1501   4.462   5.590   2.819 -0.6954 -0.8161  0.1252
  499TIP3   OH2 1502   6.215   3.084   4.736 -0.2616  0.8375  0.1916
  499TIP3    H1 1503   6.258   3.075   4.650  1.5226  0.0602  1.1036
  499TIP3    H2 1504   6.166   3.003   4.747 -0.4908  0.9362 -0.0769
  500TIP3   OH2 1505   3.220   5.885   1.360 -0.2380  0.2066 -0.0651
  500TIP3    H1 1506   3.303   5.885   1.312 -1.2267  0.5285 -1.8478
  500TIP3    H2 1507   3.195   5.978   1.363 -0.6823  0.0797  0.2111
  501TIP3   OH2 1508   0.774   3.078   1.158 -0.1541  0.0684  0.5637
  501TIP3    H1 1509   0.739   3.087   1.247 -0.9716 -1.0473  0.3912
  501TIP3    H2 1510   0.814   2.991   1.157 -2.7187 -1.2403 -0.9208
  502TIP3   OH2 1511   0.679   2.332   0.319  0.1937 -0.1401  0.8924
  502TIP3    H1 1512   0.768   2.298   0.310  0.3035  0.2651  0.3783
  502TIP3    H2 1513   0.638   2.276   0.384  1.0565  0.1142  1.6865
  503TIP3   OH2 1514   2.537   0.030   0.322 -0.4698  0.7829 -0.0150
  503TIP3    H1 1515   2.593  -0.022   0.380 -2.4779 -0.0932  1.2375
  503TIP3    H2 1516   2.598   0.069   0.259  1.8608  1.8866  2.6951
  504TIP3   OH2 1517   5.087   5.069   3.400 -0.6955  0.0740 -0.2891
  504TIP3    H1 1518   5.183   5.073   3.408 -0.7389  0.8527 -0.0294
  504TIP3    H2 1519   5.069   4.978   3.375  0.2041  0.2533 -1.7230
  505TIP3   OH2 1520   4.572   3.481   0.782  0.1071 -1.1684  0.7003
  505TIP3    H1 1521   4.558   3.387   0.788  0.8561 -1.3551 -0.2908
  505TIP3    H2 1522   4.487   3.519   0.803 -0.0634 -2.0316  1.6788
  506TIP3   OH2 1523   2.257   3.815   2.432 -0.3544 -0.3018 -0.3725
  506TIP3    H1 1524   2.276   3.819   2.526  1.2865  0.1498 -0.6956
  506TIP3    H2 1525   2.213   3.731   2.420 -2.2402  0.3949  1.0456
  507TIP3   OH2 1526   2.783   3.966   1.474 -0.3337 -0.2846  0.3146
  507TIP3    H1 1527   2.716   4.030   1.496 -0.2316  0.8186 -2.3063
  507TIP3    H2 1528   2.861   4.018   1.456  1.1883 -1.5092  2.7557
  508TIP3   OH2 1529   3.675   5.921   0.372 -0.2291  0.1119 -0.6433
  508TIP3    H1 1530   3.630   5.909   0.456  1.2972  1.9444  0.5247
  508TIP3    H2 1531   3.608   5.958   0.314 -0.3827  2.7472  1.0301
  509TIP3   OH2 1532   2.745   4.548   1.954  0.6673 -0.2712  0.2348
  509TIP3    H1 1533   2.651   4.532   1.963 -0.0295  3.5110  1.1282
  509TIP3    H2 1534   2.753   4.621   1.894  2.9674  0.2799  1.0763
  510TIP3   OH2 1535   5.969   0.261   3.140  0.1042 -0.2132  0.2190
  510TIP3    H1 1536   6.055   0.220   3.147  0.8050  0.8417 -1.5431
  510TIP3    H2 1537   5.939   0.239   3.052 -0.7007  0.7599  0.2248
  511TIP3   OH2 1538   1.950   1.418   0.378  0.5218  0.4211 -0.3012
  511TIP3    H1 1539   2.027   1.408   0.322  0.3739 -0.8298 -0.3222
  511TIP3    H2 1540   1.876   1.413   0.318  0.1570 -4.3118  0.0921
  512TIP3   OH2 1541   3.798   1.694   3.385  0.2277 -0.0398 -0.0583
  512TIP3    H1 1542   3.756   1.609   3.370 -0.9510 -0.8410  5.4952
  512TIP3    H2 1543   3.890   1.673   3.402 -0.2682 -0.5657  2.3967
  513TIP3   OH2 1544   2.716   1.226   1.232  0.2519  0.0239  0.0123
  513TIP3    H1 1545   2.664   1.295   1.272 -2.5719 -0.5184 -2.3855
  513TIP3    H2 1546   2.653   1.171   1.185  2.5122 -3.3291  0.4746
  514TIP3   OH2 1547   4.461   3.010   3.702 -0.3721 -0.6290  0.1345
  514TIP3    H1 1548   4.511   3.070   3.757  1.4185 -0.4544 -1.5771
  514TIP3    H2 1549   4.486   2.923   3.731  0.8344 -0.5396 -0.5929
  515TIP3   OH2 1550   3.049   5.390   4.335  0.0898  0.2562  0.3136
  515TIP3    H1 1551   3.041   5.352   4.422 -2.4749  0.3999  0.2136
  515TIP3    H2 1552   3.029   5.483   4.347 -1.2784  0.1013 -0.5382
  516TIP3   OH2 1553   6.160   3.250   4.248 -0.0227 -0.5159  0.4593
  516TIP3    H1 1554   6.127   3.163   4.224  0.1101 -0.5570  0.4221
  516TIP3    H2 1555   6.248   3.233   4.282  0.2299 -0.3342 -0.0944
  517TIP3   OH2 1556   2.168   2.336   1.313  0.2888 -0.2367 -0.1027
  517TIP3    H1 1557   2.169   2.268   1.245  1.1147 -0.9626  0.6101
  517TIP3    H2 1558   2.108   2.302   1.379 -2.3768  1.5180 -1.4359
  518TIP3   OH2 1559   0.314   4.556   0.874 -0.2976 -0.7518 -0.2334
  518TIP3    H1 1560   0.363   4.594   0.947  0.2698 -1.2203 -0.3581
  518TIP3    H2 1561   0.229   4.533   0.911  0.4775 -2.3138  0.6691
  519TIP3   OH2 1562   0.030   1.418   1.325 -0.4151  0.0569  0.5794
  519TIP3    H1 1563   0.055   1.365   1.249 -0.1695  1.2077 -0.1759
  519TIP3    H2 1564   0.076   1.378   1.399  1.2085  0.2588 -0.2714
  520TIP3   OH2 1565   5.086   4.386   2.185 -0.7269  0.2646 -0.7100
  520TIP3    H1 1566   5.001   4.392   2.140 -0.6688  2.0757 -0.6385
  520TIP3    H2 1567   5.102   4.474   2.218  1.5907  0.1704 -1.4257
  521TIP3   OH2 1568   1.754   1.480   0.191  0.4071 -0.0771  0.2785
  521TIP3    H1 1569   1.677   1.464   0.136 -0.2682 -1.3570  1.5413
  521TIP3    H2 1570   1.818   1.517   0.131 -0.2499 -1.5527 -1.4327
  522TIP3   OH2 1571   6.303   5.861   3.064 -0.0941 -0.6658  0.1950
  522TIP3    H1 1572   6.225   5.900   3.102 -0.2776 -0.1652 -0.6587
  522TIP3    H2 1573   6.278   5.840   2.974  0.7224 -0.5793 -0.0630
  523TIP3   OH2 1574   0.685   5.917   0.841 -0.2564 -0.2289 -0.1201
  523TIP3    H1 1575   0.651   5.867   0.916  1.1654  0.2994  0.9279
  523TIP3    H2 1576   0.674   5.858   0.766  2.0947 -2.5449  1.1854
  524TIP3   OH2 1577   5.882   5.664   1.660 -0.3471 -0.1799  0.0579
  524TIP3    H1 1578   5.903   5.734   1.723 -0.1930 -0.8481  0.7698
  524TIP3    H2 1579   5.927   5.587   1.695 -2.5866 -1.2797  0.7142
  525TIP3   OH2 1580   2.547   3.591   4.363  0.1549  0.3193 -0.0248
  525TIP3    H1 1581   2.638   3.620   4.369  0.1844  0.2270 -0.0250
  525TIP3    H2 1582   2.521   3.578   4.455  1.0160 -2.3785 -0.0831
  526TIP3   OH2 1583   0.778   1.296   2.874  0.2486 -0.3432 -0.0158
  526TIP3    H1 1584   0.733   1.236   2.814 -1.5272 -0.4711  1.3853
  526TIP3    H2 1585   0.862   1.253   2.891  0.7302 -0.3842 -2.2231
  527TIP3   OH2 1586   3.086   4.279   1.766 -0.0516 -0.5608  0.4194
  527TIP3    H1 1587   3.165   4.228   1.783  0.5466  0.6847  1.5803
  527TIP3    H2 1588   3.033   4.269   1.845 -0.5821 -0.5579  0.0699
  528TIP3   OH2 1589   0.890   2.652   0.760  0.1067 -0.1522 -0.0178
  528TIP3    H1 1590   0.971   2.702   0.775 -0.8101  1.5129 -0.4024
  528TIP3    H2 1591   0.875   2.659   0.666 -0.9808  0.3652  0.1847
  529TIP3   OH2 1592   2.708   1.268   2.609 -0.3579 -0.7481  0.2406
  529TIP3    H1 1593   2.613   1.282   2.618 -0.2394  0.3442 -0.0195
  529TIP3    H2 1594   2.734   1.325   2.536  0.4360 -1.3454  0.0486
  530TIP3   OH2 1595   5.444   0.155   4.068 -0.0691 -0.0804 -0.1775
  530TIP3    H1 1596   5.495   0.216   4.122  0.4885  0.1093 -0.9141
  530TIP3    H2 1597   5.442   0.195   3.981 -1.3286 -0.1777 -0.2130
  531TIP3   OH2 1598   1.077   0.047   2.862  0.1715  0.0425 -0.3316
  531TIP3    H1 1599   0.987   0.070   2.883 -0.0226 -0.3533 -0.7037
  531TIP3    H2 1600   1.094   0.090   2.779  0.3531  0.1874 -0.2180
  532TIP3   OH2 1601   2.320   5.814   1.603  0.3328  0.0617  0.0853
  532TIP3    H1 1602   2.334   5.893   1.550 -0.1600  0.3143  0.3271
  532TIP3    H2 1603   2.268   5.757   1.546 -0.9249  0.6762  0.6033
  533TIP3   OH2 1604   2.108   3.519   3.699  0.5817 -0.2272 -0.0676
  533TIP3    H1 1605   2.195   3.495   3.667 -0.2026  0.0948 -2.6769
  533TIP3    H2 1606   2.063   3.435   3.712  0.5334 -0.3654 -1.0513
  534TIP3   OH2 1607   4.281   0.131   0.427  0.1773  0.1689 -0.8441
  534TIP3    H1 1608   4.195   0.104   0.461  0.8668  0.3327  1.1963
  534TIP3    H2 1609   4.262   0.200   0.364 -1.1726  0.4598 -0.1523
  535TIP3   OH2 1610   5.948   0.602   2.763  0.9330 -0.3785 -0.2532
  535TIP3    H1 1611   5.993   0.629   2.683  1.7687 -0.5027  0.1579
  535TIP3    H2 1612   5.860   0.637   2.754  1.1500 -0.0008 -1.0226
  536TIP3   OH2 1613   2.322   4.418   3.829 -0.0417 -0.4218 -0.5258
  536TIP3    H1 1614   2.350   4.334   3.794  2.1914 -0.3048  0.8314
  536TIP3    H2 1615   2.340   4.481   3.758 -0.8631 -0.9257 -1.1999
  537TIP3   OH2 1616   3.735   3.468   0.288 -0.1538  0.7763  0.4053
  537TIP3    H1 1617   3.703   3.523   0.216 -0.5048  1.8152  1.3287
  537TIP3    H2 1618   3.788   3.401   0.245 -0.0294  1.6059 -0.7892
  538TIP3   OH2 1619   3.445   2.803   4.731  0.3310 -0.3105 -0.4572
  538TIP3    H1 1620   3.394   2.727   4.701 -1.9304  0.8967  0.0580
  538TIP3    H2 1621   3.504   2.822   4.659  0.6513 -2.2715 -0.7712
  539TIP3   OH2 1622   5.307   3.953   4.023  0.1635 -0.3555  0.7496
  539TIP3    H1 1623   5.248   3.943   3.948 -1.3232  1.5142  1.5813
  539TIP3    H2 1624   5.334   3.863   4.044  2.6481 -0.8525 -3.4230
  540TIP3   OH2 1625   6.235   0.845   1.010 -0.5332 -0.5667  0.6161
  540TIP3    H1 1626   6.232   0.781   0.940  1.2888  1.0791 -1.0820
  540TIP3    H2 1627   6.325   0.845   1.040 -0.4028  1.3412  0.3713
  541TIP3   OH2 1628   5.210   0.445   2.679  0.4236 -0.1910 -0.1345
  541TIP3    H1 1629   5.178   0.532   2.703  0.4228 -0.4873  1.0106
  541TIP3    H2 1630   5.301   0.443   2.710 -0.6354 -1.8434  3.3530
  542TIP3   OH2 1631   5.377   1.838   3.301 -0.2358 -0.6235  0.3868
  542TIP3    H1 1632   5.309   1.820   3.366 -1.7174  0.0989 -0.8913
  542TIP3    H2 1633   5.384   1.933   3.300  1.7125 -0.7214  1.3570
  543TIP3   OH2 1634   2.620   0.214   4.311 -0.3933 -1.0528  0.2729
  543TIP3    H1 1635   2.557   0.182   4.246  0.1447  0.5045 -1.0723
  543TIP3    H2 1636   2.589   0.302   4.333  0.0583 -1.1446  1.3003
  544TIP3   OH2 1637   5.160   3.449   2.732  0.2897  0.8525  0.6638
  544TIP3    H1 1638   5.251   3.477   2.736  0.3378  0.7524  0.2682
  544TIP3    H2 1639   5.150   3.388   2.805  1.0160 -0.5176 -0.3322
  545TIP3   OH2 1640   2.878   2.363   4.904 -0.3977 -0.0698 -0.6360
  545TIP3    H1 1641   2.888   2.429   4.836 -0.6058 -0.7139 -1.3054
  545TIP3    H2 1642   2.896   2.410   4.985  0.9519  0.4735 -1.2107
  546TIP3   OH2 1643   5.169   4.305   0.314 -0.2119  0.2821 -0.2506
  546TIP3    H1 1644   5.116   4.306   0.394  1.6295 -0.6016  1.0712
  546TIP3    H2 1645   5.238   4.241   0.332  1.5164  1.6112 -1.7261
  547TIP3   OH2 1646   4.816   1.251   3.349  0.2051  0.0972 -0.8121
  547TIP3    H1 1647   4.772   1.250   3.263 -0.9866 -3.4820 -0.3302
  547TIP3    H2 1648   4.899   1.295   3.333 -0.3801  0.3761 -3.5951
  548TIP3   OH2 1649   4.722   2.660   4.250 -0.3528  0.4865 -0.0099
  548TIP3    H1 1650   4.657   2.702   4.307 -0.9145  0.8190 -0.8880
  548TIP3    H2 1651   4.807   2.691   4.283 -0.6132  0.0219  1.1667
  549TIP3   OH2 1652   1.250   1.011   0.132 -0.6105  0.1202 -0.2039
  549TIP3    H1 1653   1.204   1.095   0.136 -1.6147 -0.2887 -1.8582
  549TIP3    H2 1654   1.182   0.946   0.149  0.5884 -0.3821  3.4708
  550TIP3   OH2 1655   6.074   2.448   3.862 -0.8370  0.4695 -0.1766
  550TIP3    H1 1656   6.077   2.367   3.811  0.6963 -0.1458  0.8391
  550TIP3    H2 1657   5.983   2.452   3.894 -0.9581 -0.8203 -0.2945
  551TIP3   OH2 1658   4.693   0.967   2.064 -0.1951  0.4219  0.0729
  551TIP3    H1 1659   4.760   0.995   2.126 -1.3041 -0.7468  1.9154
  551TIP3    H2 1660   4.677   0.875   2.087 -2.2328  0.6005 -0.4320
  552TIP3   OH2 1661   6.272   2.237   3.079 -0.0566  0.5975  0.7490
  552TIP3    H1 1662   6.332   2.234   3.154  1.7741  0.6089 -0.6713
  552TIP3    H2 1663   6.240   2.147   3.070 -0.1049  0.5462  1.3788
  553TIP3   OH2 1664   5.231   4.999   3.711 -0.6125 -0.1544 -0.2007
  553TIP3    H1 1665   5.288   4.933   3.749 -0.2198  0.1900 -0.1903
  553TIP3    H2 1666   5.275   5.026   3.630 -0.6306  0.2936 -0.0642
  554TIP3   OH2 1667   0.847   4.822   3.974  0.0673 -0.1874 -0.2529
  554TIP3    H1 1668   0.755   4.845   3.962  0.1547  0.4046  0.1719
  554TIP3    H2 1669   0.846   4.754   4.042  0.1083  1.6785  1.7326
  555TIP3   OH2 1670   5.257   2.040   3.782  0.4438  0.2273 -0.2346
  555TIP3    H1 1671   5.304   1.977   3.728 -1.4042 -0.4485 -1.1056
  555TIP3    H2 1672   5.226   1.989   3.857 -1.0554  0.0458 -0.9419
  556TIP3   OH2 1673   5.673   0.953   0.525 -0.1499 -0.0769  0.0711
  556TIP3    H1 1674   5.622   0.968   0.446  0.0015 -1.2409 -0.2680
  556TIP3    H2 1675   5.649   0.865   0.553  0.3076  0.0618  0.9363
  557TIP3   OH2 1676   5.610   5.044   2.474 -0.3566 -0.0827 -0.1221
  557TIP3    H1 1677   5.653   5.043   2.389  0.4676 -0.4138  0.2871
  557TIP3    H2 1678   5.544   4.975   2.469 -0.7250  0.3019 -0.6916
  558TIP3   OH2 1679   2.400   3.140   0.500 -0.3175 -0.1531 -0.0724
  558TIP3    H1 1680   2.434   3.168   0.585  1.9728  0.9599 -1.2664
  558TIP3    H2 1681   2.407   3.044   0.502  0.1470 -0.1110  0.8173
  559TIP3   OH2 1682   2.800   2.139   1.414  0.1199 -0.2384  0.6730
  559TIP3    H1 1683   2.811   2.044   1.419 -0.7089 -0.3093  1.2333
  559TIP3    H2 1684   2.729   2.159   1.475  0.0902  0.7091  0.3481
  560TIP3   OH2 1685   1.196   0.604   3.289  0.9144  0.6803  0.3912
  560TIP3    H1 1686   1.220   0.693   3.265 -1.2469  1.0202 -0.7982
  560TIP3    H2 1687   1.111   0.590   3.247 -0.3409 -0.8282  3.1265
  561TIP3   OH2 1688   1.050   0.683   2.983  0.5420 -0.4877  0.1808
  561TIP3    H1 1689   0.985   0.676   3.053  0.7238  1.2265  0.5532
  561TIP3    H2 1690   0.999   0.685   2.902  0.2491 -0.9355  0.3517
  562TIP3   OH2 1691   1.920   3.844   0.490  0.1199 -0.3254  0.0918
  562TIP3    H1 1692   1.905   3.926   0.537 -1.1055 -0.7105  0.4149
  562TIP3    H2 1693   1.897   3.865   0.399  0.5406 -0.1170  0.0304
  563TIP3   OH2 1694   1.212   1.392   4.307  0.4331  0.2138  0.3098
  563TIP3    H1 1695   1.289   1.352   4.268  0.8139  1.1432  0.0641
  563TIP3    H2 1696   1.235   1.485   4.315 -1.3970  0.9161 -1.6577
  564TIP3   OH2 1697   2.459   2.699   5.109 -0.4364 -0.4676  0.0025
  564TIP3    H1 1698   2.497   2.770   5.161  1.6420 -1.1504 -0.4762
  564TIP3    H2 1699   2.372   2.731   5.084  0.1857  1.6482  0.3287
  565TIP3   OH2 1700   4.171   2.521   2.712 -0.0548 -0.2810 -0.1316
  565TIP3    H1 1701   4.182   2.501   2.619  1.0502  1.2537 -0.3726
  565TIP3    H2 1702   4.240   2.585   2.731 -0.8532  0.1436  1.5235
  566TIP3   OH2 1703   5.766   0.887   1.360 -0.5414  0.4631 -0.4307
  566TIP3    H1 1704   5.827   0.862   1.291  0.1780 -1.0296  0.6745
  566TIP3    H2 1705   5.679   0.871   1.323 -0.3381  2.8030 -2.0954
  567TIP3   OH2 1706   4.205   3.351   4.314  0.1662  0.2445 -0.3741
  567TIP3    H1 1707   4.281   3.320   4.364  1.0805 -0.8317 -2.3181
  567TIP3    H2 1708   4.145   3.276   4.314 -1.1987  1.2544  1.5779
  568TIP3   OH2 1709   0.592   3.150   3.458 -0.2477  0.1243  0.1748
  568TIP3    H1 1710   0.595   3.138   3.363 -0.1644  0.0963  0.1811
  568TIP3    H2 1711   0.508   3.194   3.474  0.1292  0.9331 -0.0034
  569TIP3   OH2 1712   4.254   3.300   4.657 -0.2660  0.1921 -0.7580
  569TIP3    H1 1713   4.316   3.243   4.703  0.6190  1.1736 -0.7001
  569TIP3    H2 1714   4.297   3.320   4.574  0.3804  2.3870  0.0481
  570TIP3   OH2 1715   1.595   3.387   4.696  0.5658  0.5070  0.0779
  570TIP3    H1 1716   1.629   3.328   4.629 -0.6166 -0.1457  0.0284
  570TIP3    H2 1717   1.610   3.475   4.662  0.5779  0.1904 -0.7388
  571TIP3   OH2 1718   3.547   5.220   4.646 -0.3903 -0.2965  0.0300
  571TIP3    H1 1719   3.555   5.297   4.703  0.2485 -0.8492  0.7071
  571TIP3    H2 1720   3.605   5.239   4.572  1.9854 -1.2926  1.5440
  572TIP3   OH2 1721   6.309   0.685   3.736  0.0826  0.3218  0.3996
  572TIP3    H1 1722   6.288   0.719   3.823 -2.3588  0.3558 -0.1344
  572TIP3    H2 1723   6.366   0.611   3.753  0.9998  1.3166  1.9176
  573TIP3   OH2 1724   3.686   1.976   4.514  0.1839  0.0947  0.0321
  573TIP3    H1 1725   3.600   1.934   4.513  0.5845 -0.7654  0.2239
  573TIP3    H2 1726   3.690   2.020   4.598  0.6080 -1.3755  0.8220
  574TIP3   OH2 1727   2.869   3.208   0.739  0.1643  0.8505 -0.1589
  574TIP3    H1 1728   2.858   3.113   0.739 -2.0806  1.0530  0.2469
  574TIP3    H2 1729   2.961   3.222   0.762  0.4646 -1.2010  0.0546
  575TIP3   OH2 1730   3.210   1.013   0.472  0.1968  0.1825  0.3895
  575TIP3    H1 1731   3.258   0.995   0.553 -1.8466 -0.4736  1.5337
  575TIP3    H2 1732   3.194   1.107   0.474  0.1836  0.1751  0.7480
  576TIP3   OH2 1733   4.321   4.772   1.834  0.4003 -0.7758  0.4433
  576TIP3    H1 1734   4.381   4.704   1.802 -0.0954 -1.7279  1.4466
  576TIP3    H2 1735   4.240   4.759   1.783  0.6532 -0.2300 -0.1111
  577TIP3   OH2 1736   3.782   2.917   0.383  0.2267 -0.1051 -0.5228
  577TIP3    H1 1737   3.828   2.943   0.304  1.2442 -0.1525  0.0419
  577TIP3    H2 1738   3.836   2.949   0.455  0.2388 -1.5963  0.1753
  578TIP3   OH2 1739   4.098   1.202   1.012  0.1435  0.3599  0.4565
  578TIP3    H1 1740   4.045   1.180   0.935  0.0670  2.2278 -0.0585
  578TIP3    H2 1741   4.074   1.135   1.076 -0.9638 -0.3188 -0.6060
  579TIP3   OH2 1742   0.926   5.275   1.529  0.3701  0.0045  0.2898
  579TIP3    H1 1743   0.981   5.212   1.575  1.5071  1.3501  0.8650
  579TIP3    H2 1744   0.924   5.352   1.587 -0.6827  0.6347 -0.5411
  580TIP3   OH2 1745   1.608   5.353   2.992 -0.0260  0.1308  0.0772
  580TIP3    H1 1746   1.534   5.292   2.984 -0.0484  0.3033 -1.1125
  580TIP3    H2 1747   1.649   5.353   2.906 -0.5630  2.4878 -0.2493
  581TIP3   OH2 1748   3.171   5.073   4.789 -0.6042  0.1440 -0.1151
  581TIP3    H1 1749   3.246   5.016   4.771 -0.3453 -0.1125  1.5727
  581TIP3    H2 1750   3.125   5.079   4.706  0.1744 -1.3469 -0.6999
  582TIP3   OH2 1751   1.767   2.898   0.113  0.2648  0.1319 -0.5052
  582TIP3    H1 1752   1.757   2.881   0.206  0.0806 -1.2683 -0.7563
  582TIP3    H2 1753   1.758   2.993   0.104  1.1563  0.3876  1.0019
  583TIP3   OH2 1754   5.841   4.832   3.679  0.9263  0.1394 -0.9759
  583TIP3    H1 1755   5.885   4.750   3.701 -1.7117 -1.1703 -0.0718
  583TIP3    H2 1756   5.784   4.809   3.606 -1.5397  0.4415  0.7198
  584TIP3   OH2 1757   5.970   4.714   4.791 -0.2729 -0.6775  0.1523
  584TIP3    H1 1758   5.988   4.790   4.737  1.6072 -0.4761  1.0011
  584TIP3    H2 1759   6.037   4.715   4.859 -2.5304 -0.8924  2.5711
  585TIP3   OH2 1760   4.372   2.045   1.932  0.4261  0.2279 -0.4254
  585TIP3    H1 1761   4.446   2.021   1.877  2.0713 -0.9637  2.1437
  585TIP3    H2 1762   4.296   2.005   1.890  1.3986  0.3286 -2.3747
  586TIP3   OH2 1763   1.242   2.896   3.549  0.5948  0.3032  0.1558
  586TIP3    H1 1764   1.331   2.883   3.516  1.4792  2.6558  1.3573
  586TIP3    H2 1765   1.252   2.906   3.644 -1.5213 -3.5036  0.9813
  587TIP3   OH2 1766   5.604   4.224   2.022 -0.1205 -0.6904  0.6456
  587TIP3    H1 1767   5.633   4.138   2.054 -2.1938 -1.1435  1.4638
  587TIP3    H2 1768   5.665   4.286   2.064 -0.1065 -1.5983  2.0545
  588TIP3   OH2 1769   4.815   3.011   4.166 -0.0682  0.0432  0.4069
  588TIP3    H1 1770   4.802   3.029   4.259 -0.1783 -0.6894  0.5377
  588TIP3    H2 1771   4.884   2.944   4.164 -1.0147 -0.9458  0.0280
  589TIP3   OH2 1772   2.802   0.824   0.617 -0.2379  0.5173  0.3979
  589TIP3    H1 1773   2.863   0.894   0.595 -0.6555  0.4005 -1.2746
  589TIP3    H2 1774   2.855   0.761   0.666  0.4861  1.3371  0.6846
  590TIP3   OH2 1775   4.922   1.486   3.532 -0.3476  0.4394  0.1815
  590TIP3    H1 1776   4.890   1.408   3.578  0.5686  0.5641  1.0765
  590TIP3    H2 1777   4.859   1.500   3.462 -0.2768 -1.3668 -0.2861
  591TIP3   OH2 1778   0.772   1.241   3.765 -0.4136  0.2091  0.2176
  591TIP3    H1 1779   0.747   1.329   3.795 -1.3238 -0.1365  0.5036
  591TIP3    H2 1780   0.690   1.192   3.763 -0.0890 -0.3066 -1.0967
  592TIP3   OH2 1781   3.981   1.619   2.374  0.3292  0.1567 -0.0067
  592TIP3    H1 1782   3.914   1.561   2.336  0.3203 -0.4606  0.9165
  592TIP3    H2 1783   4.064   1.578   2.350  0.3632  0.5753 -0.6113
  593TIP3   OH2 1784   5.171   3.630   1.700 -0.2699  0.2465  0.4505
  593TIP3    H1 1785   5.170   3.689   1.625  0.8150 -0.2397  0.0443
  593TIP3    H2 1786   5.103   3.665   1.758 -0.4138  1.2308 -0.2830
  594TIP3   OH2 1787   3.044   3.191   2.144 -0.8952  0.0523  0.6130
  594TIP3    H1 1788   3.083   3.181   2.231 -1.9973 -1.5501  0.9674
  594TIP3    H2 1789   3.110   3.240   2.094  0.2361  0.0419  2.0171
  595TIP3   OH2 1790   4.035   5.828   4.410 -0.3783 -0.5033 -0.5117
  595TIP3    H1 1791   4.026   5.792   4.499  2.5062  0.3881  0.2561
  595TIP3    H2 1792   3.950   5.868   4.392 -0.8668 -0.1659  2.1315
  596TIP3   OH2 1793   2.595   0.074   1.042 -0.4764 -0.8404 -0.1990
  596TIP3    H1 1794   2.646  -0.007   1.049 -1.7865 -1.5540  3.5576
  596TIP3    H2 1795   2.506   0.049   1.068 -1.3639  1.4748 -0.7571
  597TIP3   OH2 1796   4.341   1.943   2.907 -0.3449 -0.3622  0.2338
  597TIP3    H1 1797   4.375   2.006   2.971  0.0436 -0.1433 -0.1819
  597TIP3    H2 1798   4.395   1.957   2.829 -0.5174 -0.9420  0.0090
  598TIP3   OH2 1799   0.725   0.354   5.008  0.5159 -0.0098 -0.3609
  598TIP3    H1 1800   0.794   0.362   4.942  0.6423 -2.1410 -0.5395
  598TIP3    H2 1801   0.745   0.424   5.071  2.6973 -0.3872 -0.5484
  599TIP3   OH2 1802   5.102   4.438   2.585  0.0158  0.2699 -0.5865
  599TIP3    H1 1803   5.037   4.391   2.637  2.1511 -2.1768  0.0525
  599TIP3    H2 1804   5.096   4.529   2.616 -1.5589 -0.3153  1.0044
  600TIP3   OH2 1805   0.775   1.114   1.804 -0.0638 -0.1988  0.3701
  600TIP3    H1 1806   0.810   1.186   1.752 -0.7494  1.7269  2.4091
  600TIP3    H2 1807   0.684   1.107   1.777 -0.7395  1.5608  1.9451
  601TIP3   OH2 1808   2.335   4.556   0.829  0.5954 -0.1347  0.2159
  601TIP3    H1 1809   2.419   4.532   0.790  0.0533 -0.0579 -1.0638
  601TIP3    H2 1810   2.270   4.530   0.763 -0.2087  2.5368 -0.1751
  602TIP3   OH2 1811   4.111   0.800   0.256  0.0459 -0.5593 -0.5029
  602TIP3    H1 1812   4.122   0.894   0.240 -0.1714 -0.1575  1.4808
  602TIP3    H2 1813   4.201   0.766   0.260  0.1172 -0.6935 -2.3691
  603TIP3   OH2 1814   0.330   0.124   1.162  0.3844 -0.2667 -0.3229
  603TIP3    H1 1815   0.266   0.059   1.134 -0.6602 -0.2953  1.8743
  603TIP3    H2 1816   0.283   0.179   1.224  1.8652  1.2070 -0.4206
  604TIP3   OH2 1817   4.965   5.930   1.273  0.2672  0.0373  0.5292
  604TIP3    H1 1818   4.997   5.849   1.312  0.2858  0.0632  0.5678
  604TIP3    H2 1819   4.950   5.908   1.181  2.1867  0.5031  0.0509
  605TIP3   OH2 1820   4.818   2.081   3.042 -0.0281 -0.7753 -0.3668
  605TIP3    H1 1821   4.823   2.148   3.110 -2.0659 -0.7702 -0.1510
  605TIP3    H2 1822   4.880   2.014   3.070  1.9553  0.9174 -0.5268
  606TIP3   OH2 1823   5.729   3.991   1.457 -0.2757  0.3059  0.3149
  606TIP3    H1 1824   5.712   4.055   1.388  1.9722  0.2855 -0.3639
  606TIP3    H2 1825   5.823   3.998   1.473 -0.4037 -1.1118  1.9777
  607TIP3   OH2 1826   1.253   3.789   0.314  0.5605 -0.2759 -0.3298
  607TIP3    H1 1827   1.167   3.816   0.283  0.7529 -0.2160 -0.8261
  607TIP3    H2 1828   1.311   3.806   0.239  0.7203 -1.9378 -0.6131
  608TIP3   OH2 1829   3.914   1.433   5.082  0.3430  0.6166  0.6492
  608TIP3    H1 1830   3.923   1.395   4.995  0.0740  3.2087 -0.6077
  608TIP3    H2 1831   3.822   1.423   5.104  0.6346 -1.1446  1.2496
  609TIP3   OH2 1832   2.935   0.776   0.852 -0.7258  0.2311  0.1328
  609TIP3    H1 1833   2.974   0.861   0.830  0.0991  0.0088  0.6528
  609TIP3    H2 1834   2.844   0.796   0.875 -0.9456  0.7674 -1.1156
  610TIP3   OH2 1835   1.900   1.339   1.564 -0.4363  0.5869  0.0991
  610TIP3    H1 1836   1.820   1.354   1.514 -1.3240 -2.0315  0.5577
  610TIP3    H2 1837   1.872   1.290   1.641  1.6064 -0.6910  0.1310
  611TIP3   OH2 1838   3.936   5.256   4.221 -0.1038  0.2244 -0.6210
  611TIP3    H1 1839   3.884   5.233   4.298 -0.4564  0.8952 -0.6544
  611TIP3    H2 1840   4.010   5.305   4.256  1.6607 -2.3996 -0.3409
  612TIP3   OH2 1841   1.690   3.115   0.644  0.1389  0.2389 -0.7119
  612TIP3    H1 1842   1.723   3.080   0.727  0.9487  0.4600 -0.9227
  612TIP3    H2 1843   1.686   3.210   0.658  0.8708  0.3377 -1.1144
  613TIP3   OH2 1844   6.054   3.026   4.125 -0.3018  0.0757  0.1585
  613TIP3    H1 1845   6.037   2.934   4.145 -1.1669  0.2043  0.0430
  613TIP3    H2 1846   5.968   3.062   4.101 -0.0318  1.0009  0.5453
  614TIP3   OH2 1847   1.719   2.536   4.015 -0.0004 -0.0392  0.1946
  614TIP3    H1 1848   1.755   2.604   4.073 -1.2137  1.3086 -0.5566
  614TIP3    H2 1849   1.795   2.489   3.983  1.1927  2.7556 -1.4146
  615TIP3   OH2 1850   3.120   4.027   1.929 -0.2413 -0.7171  0.0701
  615TIP3    H1 1851   3.108   3.988   2.016 -0.5184  0.4666  0.5816
  615TIP3    H2 1852   3.031   4.044   1.898 -0.1718 -1.7853 -0.7697
  616TIP3   OH2 1853   0.272   0.594   3.911 -0.1184  0.1039 -0.4962
  616TIP3    H1 1854   0.323   0.573   3.833  0.3683 -2.5550  0.4279
  616TIP3    H2 1855   0.188   0.550   3.897 -0.2926  0.2037  0.1717
  617TIP3   OH2 1856   3.918   5.145   2.253 -0.5220  0.3500  0.0166
  617TIP3    H1 1857   3.888   5.233   2.277 -2.1868 -0.1640 -0.0802
  617TIP3    H2 1858   3.946   5.154   2.162 -1.2078  0.6711 -0.1720
  618TIP3   OH2 1859   6.020   2.882   4.854  0.5084 -0.5828 -0.1160
  618TIP3    H1 1860   5.932   2.900   4.886  0.7644  0.7989 -0.1233
  618TIP3    H2 1861   6.078   2.931   4.913  1.3437 -2.0619  0.3479
  619TIP3   OH2 1862   0.125   2.057   0.253 -0.5117 -0.0554  0.1167
  619TIP3    H1 1863   0.118   2.040   0.346 -2.8327 -2.1666 -0.3454
  619TIP3    H2 1864   0.067   2.132   0.238 -2.2602 -1.3644  0.0565
  620TIP3   OH2 1865   2.739   0.682   0.372 -0.3521 -0.2171  0.1382
  620TIP3    H1 1866   2.713   0.626   0.299 -0.5293  0.2275 -0.1473
  620TIP3    H2 1867   2.762   0.622   0.442 -0.2491 -0.6475 -0.2646
  621TIP3   OH2 1868   4.379   4.435   3.248  0.1536  0.0480 -0.2141
  621TIP3    H1 1869   4.360   4.427   3.154 -1.4892 -1.2388  0.1848
  621TIP3    H2 1870   4.397   4.345   3.276  0.0909  0.3440  0.8196
  622TIP3   OH2 1871   4.192   5.259   0.016  0.3169 -0.1562 -0.5997
  622TIP3    H1 1872   4.274   5.242  -0.031  2.9507  1.4892  2.9541
  622TIP3    H2 1873   4.180   5.183   0.072  1.9540  1.2748  1.9299
  623TIP3   OH2 1874   4.653   1.731   4.472 -0.0683 -0.3031 -0.4785
  623TIP3    H1 1875   4.660   1.813   4.521  3.5066 -0.8470  0.1808
  623TIP3    H2 1876   4.650   1.758   4.380 -0.0501  0.5977 -0.2256
  624TIP3   OH2 1877   1.390   2.221   1.740  0.6369  0.0794 -0.4669
  624TIP3    H1 1878   1.356   2.311   1.740 -0.7670 -0.3589  1.9343
  624TIP3    H2 1879   1.317   2.168   1.708  0.6435 -0.4143  0.3124
  625TIP3   OH2 1880   5.364   4.713   3.630  0.0720  0.3898 -0.0550
  625TIP3    H1 1881   5.384   4.756   3.713 -0.2713  1.0524 -0.3116
  625TIP3    H2 1882   5.419   4.758   3.565 -0.4292  0.5771 -0.3545
  626TIP3   OH2 1883   3.352   0.610   1.615  0.3804 -0.1280  0.1356
  626TIP3    H1 1884   3.405   0.681   1.579 -0.0382 -0.6406 -1.5384
  626TIP3    H2 1885   3.300   0.579   1.542 -1.6266 -0.2319  1.5307
  627TIP3   OH2 1886   6.025   2.314   2.342 -0.3302  0.0676  0.1201
  627TIP3    H1 1887   6.013   2.237   2.397  0.8955 -0.4896 -0.3714
  627TIP3    H2 1888   6.006   2.388   2.400 -2.4919 -0.5941  0.3430
  628TIP3   OH2 1889   4.693   4.082   0.462  0.4295 -0.0384  0.1817
  628TIP3    H1 1890   4.663   3.992   0.477 -0.9615  0.4098  0.2231
  628TIP3    H2 1891   4.617   4.136   0.482  0.2261  0.9752 -2.8638
  629TIP3   OH2 1892   6.331   4.716   1.894 -0.4399  0.0368 -0.5306
  629TIP3    H1 1893   6.291   4.803   1.901  0.0992  0.2507 -0.0102
  629TIP3    H2 1894   6.295   4.679   1.814 -1.2292  0.4558 -0.3777
  630TIP3   OH2 1895   1.130   5.988   0.101 -0.0748  0.3384  0.0660
  630TIP3    H1 1896   1.101   5.951   0.018 -1.1395  0.8785  0.1748
  630TIP3    H2 1897   1.164   5.913   0.150 -0.7498 -0.2382 -0.3175
  631TIP3   OH2 1898   6.104   1.952   3.354  0.2965 -0.0368 -0.1069
  631TIP3    H1 1899   6.103   1.968   3.259  1.7117 -1.3078 -0.3696
  631TIP3    H2 1900   6.067   1.864   3.364 -0.1871  0.2381  0.5637
  632TIP3   OH2 1901   1.658   5.558   1.155  0.1015  0.2078 -0.1633
  632TIP3    H1 1902   1.751   5.580   1.160  0.1761  0.5649 -2.1308
  632TIP3    H2 1903   1.655   5.463   1.167  0.9405 -0.0422 -1.6582
  633TIP3   OH2 1904   0.500   0.097   3.145  0.0023 -0.0506  0.6010
  633TIP3    H1 1905   0.485   0.064   3.057 -2.0201 -0.0575  0.9133
  633TIP3    H2 1906   0.573   0.045   3.178  0.1970 -0.6619 -0.7440
  634TIP3   OH2 1907   3.522   1.506   1.143  0.0896  0.0970  0.2212
  634TIP3    H1 1908   3.610   1.485   1.110  1.0196  1.5883  1.5749
  634TIP3    H2 1909   3.465   1.443   1.100  1.6264 -0.0856 -1.7475
  635TIP3   OH2 1910   1.020   2.185   2.783 -0.2503 -0.0887  0.4544
  635TIP3    H1 1911   0.965   2.121   2.828  0.6539 -2.1196 -1.1530
  635TIP3    H2 1912   0.960   2.231   2.724 -0.9746  0.8369  1.8746
  636TIP3   OH2 1913   3.494   5.403   2.221  0.4241 -0.2061 -0.0359
  636TIP3    H1 1914   3.446   5.321   2.217  1.5108 -0.8704  0.1973
  636TIP3    H2 1915   3.563   5.388   2.285  0.1533  1.1555  0.6105
  637TIP3   OH2 1916   1.927   0.360   3.576  0.3049 -0.6026  0.2125
  637TIP3    H1 1917   1.893   0.271   3.572  1.3053 -1.0653  1.3378
  637TIP3    H2 1918   1.874   0.402   3.644  0.8168 -0.8124  0.7545
  638TIP3   OH2 1919   3.107   5.009   4.064 -0.5698 -0.5766 -0.5557
  638TIP3    H1 1920   3.115   4.988   3.972 -1.9042 -0.1793 -0.7845
  638TIP3    H2 1921   3.157   5.090   4.075  1.0847 -1.5779 -0.5351
  639TIP3   OH2 1922   3.621   5.361   2.451 -0.3124 -0.1702 -0.4538
  639TIP3    H1 1923   3.631   5.444   2.498 -0.1358 -0.2265 -0.3915
  639TIP3    H2 1924   3.603   5.297   2.519 -0.1262 -0.2393 -0.4701
  640TIP3   OH2 1925   1.910   5.578   0.690 -0.1678  0.1345  0.6202
  640TIP3    H1 1926   1.900   5.668   0.657 -0.6974 -0.6054 -1.3586
  640TIP3    H2 1927   1.975   5.539   0.631 -1.7174 -1.4755 -0.0843
  641TIP3   OH2 1928   5.966   3.717   4.919  0.3483  0.4467  0.1003
  641TIP3    H1 1929   5.936   3.757   4.838 -0.7405  0.0482  0.2827
  641TIP3    H2 1930   6.036   3.775   4.950 -0.7564  1.8793  0.0438
  642TIP3   OH2 1931   2.867   4.173   3.910  0.0309  0.0994  0.0210
  642TIP3    H1 1932   2.851   4.242   3.975  0.1015 -1.9195  2.3457
  642TIP3    H2 1933   2.952   4.195   3.871  0.1822  1.1765  0.9132
  643TIP3   OH2 1934   2.012   0.706   3.525 -0.2665 -0.9664  0.0670
  643TIP3    H1 1935   1.955   0.676   3.454 -0.0657  1.8718 -1.4817
  643TIP3    H2 1936   2.091   0.652   3.518 -0.4646 -1.0915 -1.5967
  644TIP3   OH2 1937   1.383   4.703   5.088  0.3752  0.1257  0.5034
  644TIP3    H1 1938   1.478   4.708   5.097  0.5514  0.7023 -1.2685
  644TIP3    H2 1939   1.353   4.665   5.170  2.2551 -1.3516  0.5731
  645TIP3   OH2 1940   2.518   5.138   1.887  0.3547 -0.2308  0.1403
  645TIP3    H1 1941   2.448   5.200   1.909 -0.4464 -0.8889 -0.4702
  645TIP3    H2 1942   2.520   5.078   1.961 -0.1074 -0.5250 -0.0788
  646TIP3   OH2 1943   0.642   2.270   1.112  0.2212 -0.0399  0.5166
  646TIP3    H1 1944   0.626   2.193   1.057  1.6620 -0.1133  0.1767
  646TIP3    H2 1945   0.736   2.272   1.124  0.1418  1.3053  1.0890
  647TIP3   OH2 1946   0.503   1.285   0.618 -0.4268 -0.3015 -0.4527
  647TIP3    H1 1947   0.581   1.303   0.671 -1.7450 -0.7216  1.7232
  647TIP3    H2 1948   0.537   1.276   0.529  2.0339 -0.6282  0.4371
  648TIP3   OH2 1949   1.384   0.708   4.448 -0.1532 -0.0465 -0.9276
  648TIP3    H1 1950   1.317   0.665   4.394 -1.6414  0.2205  0.6025
  648TIP3    H2 1951   1.406   0.643   4.514 -1.4060  0.9836  0.5739
  649TIP3   OH2 1952   5.475   5.000   0.453  0.2980  0.0241  0.2948
  649TIP3    H1 1953   5.426   4.924   0.484 -3.5596  2.5057  0.9710
  649TIP3    H2 1954   5.451   5.008   0.361  2.8079 -0.9509 -0.5198
  650TIP3   OH2 1955   0.749   2.100   1.910 -0.1643 -0.0056 -1.0262
  650TIP3    H1 1956   0.664   2.137   1.932 -0.3125 -0.5765 -0.6185
  650TIP3    H2 1957   0.747   2.011   1.946  1.0775  0.3912  0.1192
  651TIP3   OH2 1958   3.458   2.702   2.578 -0.1835 -0.1832 -0.2973
  651TIP3    H1 1959   3.373   2.741   2.601  0.2062  1.0320 -0.8148
  651TIP3    H2 1960   3.436   2.627   2.523 -0.9365 -0.2027  0.0156
  652TIP3   OH2 1961   3.789   3.493   2.214  0.1007 -0.1480 -0.4284
  652TIP3    H1 1962   3.831   3.520   2.296  2.1891 -1.3052 -1.0404
  652TIP3    H2 1963   3.851   3.519   2.146 -0.8266 -0.7005 -1.5172
  653TIP3   OH2 1964   5.236   2.884   3.815  0.2249 -0.5444 -0.2539
  653TIP3    H1 1965   5.147   2.911   3.837  1.1806  1.8397  1.0084
  653TIP3    H2 1966   5.265   2.832   3.890 -0.1076 -1.4603 -0.7364
  654TIP3   OH2 1967   6.022   3.218   3.824  0.5819 -0.1951  0.0723
  654TIP3    H1 1968   6.068   3.137   3.843 -0.1884 -0.8788 -0.8741
  654TIP3    H2 1969   6.080   3.266   3.765  1.1810  0.1110  0.8875
  655TIP3   OH2 1970   3.450   1.779   1.142  0.4079  0.4942 -0.1597
  655TIP3    H1 1971   3.446   1.683   1.140  0.0921  0.4566  1.4206
  655TIP3    H2 1972   3.531   1.799   1.187 -1.0523  0.8895  2.4679
  656TIP3   OH2 1973   5.348   4.472   1.482 -0.1239  0.0835  0.0909
  656TIP3    H1 1974   5.386   4.466   1.570  0.8511  1.1611 -0.2411
  656TIP3    H2 1975   5.409   4.527   1.433 -1.3748  0.6558 -0.8744
  657TIP3   OH2 1976   2.549   5.201   4.622 -0.4577 -0.6846 -0.9604
  657TIP3    H1 1977   2.614   5.172   4.559  0.7144  1.4961 -0.8806
  657TIP3    H2 1978   2.582   5.170   4.707  0.8005  0.7944 -0.8646
  658TIP3   OH2 1979   5.123   5.305   2.237 -0.6440  0.5207  0.1571
  658TIP3    H1 1980   5.055   5.238   2.241 -0.4636  0.2896 -0.6128
  658TIP3    H2 1981   5.148   5.319   2.329 -0.9847 -0.1506  0.3593
  659TIP3   OH2 1982   4.263   4.747   4.048 -0.1513 -0.6559 -0.0293
  659TIP3    H1 1983   4.250   4.822   3.990 -2.6270 -0.2499  0.9573
  659TIP3    H2 1984   4.304   4.681   3.992  1.3114  1.0858 -1.1353
  660TIP3   OH2 1985   4.320   2.524   4.120 -0.3823 -0.5033 -0.3397
  660TIP3    H1 1986   4.399   2.484   4.085 -0.3108 -2.7380  2.0773
  660TIP3    H2 1987   4.279   2.566   4.044  1.5852 -1.8453 -2.2768
  661TIP3   OH2 1988   4.224   0.500   4.660 -0.0135 -0.4956 -0.0841
  661TIP3    H1 1989   4.129   0.512   4.656 -0.2616 -1.4836  1.7050
  661TIP3    H2 1990   4.240   0.417   4.617 -0.2201 -1.2371  1.2143
  662TIP3   OH2 1991   3.373   4.792   1.495  0.1474 -0.1934 -0.4826
  662TIP3    H1 1992   3.344   4.702   1.510  0.4530 -0.3308 -0.7015
  662TIP3    H2 1993   3.441   4.785   1.428  0.5261  0.1450 -0.1479
  663TIP3   OH2 1994   5.312   5.242   1.632  0.2408  0.0139  0.0543
  663TIP3    H1 1995   5.270   5.256   1.716 -0.9698  0.8967 -0.6536
  663TIP3    H2 1996   5.245   5.201   1.577  0.1961  1.6158 -1.1655
  664TIP3   OH2 1997   3.266   1.296   0.624 -0.2277 -0.0004 -0.3688
  664TIP3    H1 1998   3.197   1.305   0.689 -0.6988 -3.3458 -0.2280
  664TIP3    H2 1999   3.226   1.324   0.542 -1.0270  0.1733  0.0729
  665TIP3   OH2 2000   2.793   3.833   1.022  0.1498  0.0583  0.3614
  665TIP3    H1 2001   2.872   3.883   1.042  0.5158 -0.9678  1.6223
  665TIP3    H2 2002   2.728   3.899   0.996  0.9285  1.0667  0.9210
  666TIP3   OH2 2003   2.509   5.599   0.658 -0.0407 -0.5142 -0.3021
  666TIP3    H1 2004   2.499   5.636   0.746  1.6334 -0.8793  0.0791
  666TIP3    H2 2005   2.519   5.674   0.601  2.1642 -0.2985  0.3021
  667TIP3   OH2 2006   2.477   4.218   0.586  0.4048 -0.2046 -0.1586
  667TIP3    H1 2007   2.414   4.147   0.574 -0.2014 -0.0346  1.7516
  667TIP3    H2 2008   2.486   4.228   0.681  2.4009  0.6014 -0.3697
  668TIP3   OH2 2009   5.009   0.701   4.036  0.4326  0.2812  0.5251
  668TIP3    H1 2010   4.975   0.633   3.978  0.5882 -0.1885  0.9765
  668TIP3    H2 2011   4.932   0.750   4.064  0.4390  1.0465 -0.7366
  669TIP3   OH2 2012   2.367   4.618   3.380  0.5349 -0.0329  0.5698
  669TIP3    H1 2013   2.382   4.534   3.337  1.0607  0.4996 -0.3081
  669TIP3    H2 2014   2.307   4.665   3.322  0.4884  0.3130  0.8935
  670TIP3   OH2 2015   4.409   1.826   1.614 -0.2529  0.2272  0.1952
  670TIP3    H1 2016   4.338   1.876   1.654 -1.2080 -1.0318  0.1421
  670TIP3    H2 2017   4.389   1.825   1.521  1.2205  1.9678 -0.1998
  671TIP3   OH2 2018   3.776   5.307   4.494  0.2281  0.3609 -0.0862
  671TIP3    H1 2019   3.764   5.367   4.420  2.3146  0.9627 -0.0166
  671TIP3    H2 2020   3.794   5.364   4.568 -1.5372 -0.2527  0.8547
  672TIP3   OH2 2021   3.989   2.789   4.305  0.3213 -0.2562  0.0354
  672TIP3    H1 2022   3.968   2.769   4.214 -0.2083 -0.7518  0.2664
  672TIP3    H2 2023   3.914   2.759   4.355  0.6443 -0.0625  0.6514
  673TIP3   OH2 2024   5.543   2.808   4.358 -0.7317  1.1260  0.4326
  673TIP3    H1 2025   5.626   2.763   4.374  0.0170  2.1699 -0.3660
  673TIP3    H2 2026   5.495   2.802   4.441 -0.7993 -1.3564  0.2833
  674TIP3   OH2 2027   0.541   2.070   4.807  0.0805 -0.7523 -0.0265
  674TIP3    H1 2028   0.542   2.103   4.897 -0.7825  0.4688 -0.4240
  674TIP3    H2 2029   0.452   2.037   4.795  0.1866 -0.8965 -0.4374
  675TIP3   OH2 2030   0.308   3.533   4.357  0.6343 -0.7810  0.2679
  675TIP3    H1 2031   0.325   3.464   4.422  0.3429 -0.9311  0.1867
  675TIP3    H2 2032   0.247   3.592   4.400  0.3314 -0.9555  0.0838
  676TIP3   OH2 2033   0.189   1.424   0.127 -0.0727 -0.2375  0.3708
  676TIP3    H1 2034   0.173   1.467   0.043  2.3926 -1.1586 -0.6798
  676TIP3    H2 2035   0.125   1.462   0.187  0.2492  2.9561 -1.1123
  677TIP3   OH2 2036   3.976   4.670   1.434  0.3959  0.1433  0.9990
  677TIP3    H1 2037   3.995   4.742   1.375 -1.7493 -0.0329 -0.0354
  677TIP3    H2 2038   3.980   4.592   1.379  0.8009 -0.3125  1.6593
  678TIP3   OH2 2039   0.526   5.260   3.193 -0.3200 -0.5506  0.7981
  678TIP3    H1 2040   0.616   5.226   3.190  0.0330  0.3983 -0.7974
  678TIP3    H2 2041   0.532   5.340   3.245  0.3669  0.9814 -1.4852
  679TIP3   OH2 2042   1.684   2.226   0.605 -0.0860  0.2770 -0.2268
  679TIP3    H1 2043   1.750   2.272   0.658 -1.8161  1.1005  1.2904
  679TIP3    H2 2044   1.701   2.133   0.622  0.5092  0.4823  0.3600
  680TIP3   OH2 2045   0.719   5.949   3.581 -0.0964 -0.2451 -0.8002
  680TIP3    H1 2046   0.652   5.966   3.647  0.1788 -3.2454  0.4156
  680TIP3    H2 2047   0.695   6.005   3.507 -1.6987  1.5822  0.9896
  681TIP3   OH2 2048   0.247   5.393   3.894 -0.0494  0.3392 -0.1322
  681TIP3    H1 2049   0.219   5.462   3.955 -0.0850 -0.0027  0.2468
  681TIP3    H2 2050   0.333   5.422   3.863  0.1513  0.3283  0.3962
  682TIP3   OH2 2051   1.980   1.004   4.007 -0.4576 -0.2308 -0.2972
  682TIP3    H1 2052   1.995   0.943   3.936 -2.3683 -1.8290  0.6075
  682TIP3    H2 2053   2.016   0.961   4.085 -0.4805  0.4597  0.1136
  683TIP3   OH2 2054   6.202   1.798   1.756 -0.3895 -0.3826  0.2876
  683TIP3    H1 2055   6.279   1.818   1.810  1.5012  0.0518 -2.3761
  683TIP3    H2 2056   6.213   1.707   1.731 -1.3538 -0.6364  0.7527
  684TIP3   OH2 2057   1.419   1.812   0.506  0.4385  0.0652 -0.1130
  684TIP3    H1 2058   1.476   1.735   0.509  0.6544 -0.1308 -4.2582
  684TIP3    H2 2059   1.333   1.777   0.482 -0.8625  0.7135  3.0628
  685TIP3   OH2 2060   0.025   4.624   3.065  0.4607 -0.1884 -0.0462
  685TIP3    H1 2061   0.001   4.546   3.017 -2.3468 -0.6982  1.9517
  685TIP3    H2 2062  -0.008   4.697   3.013 -0.1822 -0.5727 -0.1817
  686TIP3   OH2 2063   0.109   0.304   5.123  0.0075 -0.1727  0.1943
  686TIP3    H1 2064   0.069   0.322   5.038 -0.2305  0.4848  0.4297
  686TIP3    H2 2065   0.148   0.217   5.115 -0.4196 -0.3088 -0.4340
  687TIP3   OH2 2066   2.104   1.498   0.934 -0.1173 -0.1445  0.1770
  687TIP3    H1 2067   2.047   1.567   0.968 -0.1057 -0.5963  1.1255
  687TIP3    H2 2068   2.061   1.417   0.958  0.1283 -0.4774 -0.4938
  688TIP3   OH2 2069   1.187   4.565   1.506 -0.0886 -0.6152 -0.3730
  688TIP3    H1 2070   1.146   4.577   1.591  0.4991 -0.8830 -0.0407
  688TIP3    H2 2071   1.273   4.527   1.526  0.6347  0.6422 -0.9883
  689TIP3   OH2 2072   5.398   4.870   2.516  0.1498  0.0269  0.3806
  689TIP3    H1 2073   5.422   4.778   2.506  0.3674  0.1589 -0.3316
  689TIP3    H2 2074   5.402   4.885   2.611 -0.5329 -0.8617  0.5749
  690TIP3   OH2 2075   1.847   5.143   3.035 -0.6465 -0.4766 -0.0502
  690TIP3    H1 2076   1.932   5.122   3.075 -0.6064 -1.3676 -0.5637
  690TIP3    H2 2077   1.808   5.207   3.094 -0.4996 -1.5766  1.2939
  691TIP3   OH2 2078   4.882   3.345   4.137 -0.3762  0.3700  0.6583
  691TIP3    H1 2079   4.907   3.435   4.161  2.0440 -0.3593  1.0995
  691TIP3    H2 2080   4.933   3.326   4.058 -2.0744 -0.1092 -0.3667
  692TIP3   OH2 2081   0.445   2.683   3.650  0.0941  0.6420 -0.5853
  692TIP3    H1 2082   0.480   2.745   3.585  0.7180 -0.9574 -1.8333
  692TIP3    H2 2083   0.356   2.664   3.620 -0.0833  0.8860 -0.2245
  693TIP3   OH2 2084   5.297   5.824   4.742 -0.4074 -0.0045  0.1350
  693TIP3    H1 2085   5.355   5.846   4.815  0.5436  0.3135 -0.6895
  693TIP3    H2 2086   5.343   5.753   4.697 -0.2184  0.8342 -1.0334
  694TIP3   OH2 2087   2.074   5.251   2.427 -0.3369 -0.3549 -0.4136
  694TIP3    H1 2088   2.024   5.291   2.356 -2.8796 -0.9253  0.9305
  694TIP3    H2 2089   2.052   5.158   2.421 -0.0260 -0.5070  0.6767
  695TIP3   OH2 2090   2.327   5.441   3.201  0.1042  0.0500  0.2624
  695TIP3    H1 2091   2.333   5.389   3.281 -0.8774  0.2671  0.4804
  695TIP3    H2 2092   2.242   5.484   3.205  0.5741  1.0905 -0.2747
  696TIP3   OH2 2093   5.691   1.527   1.697 -0.0973 -0.0954 -0.3196
  696TIP3    H1 2094   5.757   1.497   1.760  1.0115  0.2840 -1.2665
  696TIP3    H2 2095   5.707   1.475   1.619  0.2300  1.1998 -1.1439
  697TIP3   OH2 2096   3.713   1.751   1.281 -0.3482  0.3780 -0.6378
  697TIP3    H1 2097   3.774   1.777   1.211 -1.5410  0.1390 -1.8027
  697TIP3    H2 2098   3.735   1.660   1.300  0.6272  0.7380  0.0048
  698TIP3   OH2 2099   3.075   5.935   3.109 -0.1455 -0.1090 -0.1367
  698TIP3    H1 2100   3.080   6.030   3.093  1.6324 -0.1616 -0.1079
  698TIP3    H2 2101   3.072   5.896   3.022 -0.4427 -0.0403 -0.1571
  699TIP3   OH2 2102   0.283   2.677   1.476 -0.0494 -0.2950  0.1604
  699TIP3    H1 2103   0.231   2.754   1.498 -1.6862 -1.4583  0.5038
  699TIP3    H2 2104   0.356   2.712   1.425 -0.5079  1.5264  0.6736
  700TIP3   OH2 2105   1.928   5.518   1.021  0.4901 -0.4417  0.5103
  700TIP3    H1 2106   1.945   5.591   0.961 -0.0397 -0.5792  0.1845
  700TIP3    H2 2107   1.957   5.440   0.973  1.7553 -0.3961  1.1447
  701TIP3   OH2 2108   2.338   5.087   3.096 -0.1508  0.3653 -0.2804
  701TIP3    H1 2109   2.399   5.134   3.152 -0.4920  0.0454  0.3819
  701TIP3    H2 2110   2.392   5.026   3.046  0.1404  0.5286 -0.1657
  702TIP3   OH2 2111   3.302   3.970   1.717  0.3633 -0.3836 -0.1439
  702TIP3    H1 2112   3.370   3.933   1.774  0.7080  1.4135  0.7117
  702TIP3    H2 2113   3.229   3.989   1.776  0.3814  0.6726 -0.4271
  703TIP3   OH2 2114   4.098   1.233   2.077  0.8977 -0.3080 -0.0821
  703TIP3    H1 2115   4.132   1.244   1.988  1.6556  1.0294  0.3454
  703TIP3    H2 2116   4.018   1.181   2.066  1.1313 -0.4034 -1.5037
  704TIP3   OH2 2117   3.219   0.640   4.964  0.6165 -0.2991  0.2228
  704TIP3    H1 2118   3.136   0.594   4.949  0.3888  0.0615  0.3728
  704TIP3    H2 2119   3.273   0.615   4.888 -0.3767  1.1568 -1.0302
  705TIP3   OH2 2120   0.112   4.531   2.429  0.3951 -0.2978 -0.5121
  705TIP3    H1 2121   0.043   4.565   2.371  1.6595  0.9747 -1.3459
  705TIP3    H2 2122   0.191   4.533   2.375  1.6099  0.8476  1.2287
  706TIP3   OH2 2123   2.900   4.302   1.992  0.4132 -0.2556  0.6231
  706TIP3    H1 2124   2.832   4.368   1.976 -1.1802 -1.4631  2.0698
  706TIP3    H2 2125   2.954   4.339   2.061 -0.2373 -0.2786  1.1524
  707TIP3   OH2 2126   1.283   5.594   1.468 -0.0800  0.4581  0.3227
  707TIP3    H1 2127   1.372   5.595   1.504  0.2078  0.4526 -0.3724
  707TIP3    H2 2128   1.228   5.627   1.539  0.7166  2.3185  0.1306
  708TIP3   OH2 2129   1.176   0.390   3.474  0.4787  0.1955 -0.3317
  708TIP3    H1 2130   1.188   0.478   3.440 -0.9642  1.2242  1.6340
  708TIP3    H2 2131   1.227   0.389   3.555  3.5205 -2.0567 -2.0279
  709TIP3   OH2 2132   4.016   1.427   0.739  0.5924  0.0125 -0.0424
  709TIP3    H1 2133   4.109   1.439   0.761  0.3731  0.3885  0.7345
  709TIP3    H2 2134   4.016   1.392   0.650  1.4410  1.1346 -0.5039
  710TIP3   OH2 2135   4.705   2.024   3.374  0.3734  0.6631 -0.0653
  710TIP3    H1 2136   4.645   2.077   3.426  0.8455  2.2132 -1.0298
  710TIP3    H2 2137   4.783   2.078   3.365  1.7844 -1.1179  0.7849
  711TIP3   OH2 2138   5.472   1.008   3.890 -0.4211  0.2909 -0.4454
  711TIP3    H1 2139   5.399   0.953   3.919 -0.2793 -0.1750 -0.9575
  711TIP3    H2 2140   5.481   1.074   3.959  0.3616 -1.2004  0.9534
  712TIP3   OH2 2141   6.079   0.736   4.796  0.1279  0.0453  0.4125
  712TIP3    H1 2142   6.136   0.813   4.805  0.2998  0.0719 -0.8039
  712TIP3    H2 2143   6.022   0.740   4.872  1.0583  0.6047  1.1086
  713TIP3   OH2 2144   3.216   2.252   0.709 -0.6532 -0.4342 -0.2849
  713TIP3    H1 2145   3.248   2.326   0.762 -2.3046 -0.4235  0.7433
  713TIP3    H2 2146   3.151   2.209   0.764 -0.6020 -1.9407 -1.3600
  714TIP3   OH2 2147   2.078   0.189   3.986  0.9039 -0.0143 -0.0516
  714TIP3    H1 2148   2.120   0.130   4.049  2.1699  0.0105 -0.8336
  714TIP3    H2 2149   2.074   0.273   4.031  1.3603 -0.1083  0.1688
  715TIP3   OH2 2150   2.386   0.277   0.425 -0.2039 -0.1285  0.2674
  715TIP3    H1 2151   2.425   0.198   0.388  1.9837  0.4751  1.1232
  715TIP3    H2 2152   2.381   0.259   0.519 -2.4100 -0.3056  0.1651
  716TIP3   OH2 2153   5.245   5.485   2.043 -0.0005 -0.1156  0.0136
  716TIP3    H1 2154   5.321   5.530   2.080  1.2170 -2.3324  0.4060
  716TIP3    H2 2155   5.226   5.416   2.106 -2.5025  0.4880 -0.0001
  717TIP3   OH2 2156   4.546   1.726   0.961 -0.2235 -0.5052  0.1677
  717TIP3    H1 2157   4.455   1.740   0.937  0.0952 -0.5293 -1.1390
  717TIP3    H2 2158   4.559   1.631   0.951  0.1806 -0.3790 -0.5826
  718TIP3   OH2 2159   1.002   2.513   3.029  0.1461  0.2498  0.1425
  718TIP3    H1 2160   1.055   2.530   3.106  1.2000 -1.5994 -0.1140
  718TIP3    H2 2161   1.000   2.596   2.981  2.6251  0.4489  0.2818
  719TIP3   OH2 2162   5.754   5.890   4.749 -0.1323 -0.0980 -0.3417
  719TIP3    H1 2163   5.777   5.911   4.839 -0.2991 -2.3125  0.2538
  719TIP3    H2 2164   5.833   5.910   4.699 -0.3293  2.0262  0.0888
  720TIP3   OH2 2165   0.318   1.560   1.147 -0.4222 -0.0512 -0.0085
  720TIP3    H1 2166   0.273   1.612   1.080  0.1319 -1.6909 -1.7447
  720TIP3    H2 2167   0.284   1.471   1.136  2.4082 -1.1748 -0.7668
  721TIP3   OH2 2168   1.082   5.066   1.625 -0.0781  0.1288 -0.6999
  721TIP3    H1 2169   1.136   5.079   1.547  1.7260  0.4316  0.5454
  721TIP3    H2 2170   1.074   4.971   1.633  1.4016  0.0260 -0.1819
  722TIP3   OH2 2171   0.208   4.986   2.967  0.0088  0.3712 -0.1672
  722TIP3    H1 2172   0.210   4.949   3.055 -2.9921  2.1736  0.8164
  722TIP3    H2 2173   0.233   5.078   2.979  1.8470  0.1300 -1.6529
  723TIP3   OH2 2174   2.214   0.876   1.674  0.2273 -0.0968  0.2711
  723TIP3    H1 2175   2.230   0.967   1.701 -0.9884  0.0737  0.4527
  723TIP3    H2 2176   2.288   0.827   1.711  0.9705  0.8271  0.0569
  724TIP3   OH2 2177   5.311   3.234   4.788  0.3557 -0.2530 -0.2540
  724TIP3    H1 2178   5.383   3.243   4.725 -1.0282 -0.5205 -1.9567
  724TIP3    H2 2179   5.250   3.305   4.764  1.1839  1.7281  2.8675
  725TIP3   OH2 2180   4.177   3.770   4.618 -0.1040  0.3360  0.2631
  725TIP3    H1 2181   4.135   3.687   4.641  0.4266 -0.0983 -0.3013
  725TIP3    H2 2182   4.243   3.782   4.686 -0.1197  0.2460  0.2954
  726TIP3   OH2 2183   4.274   4.980   4.975 -0.1068 -0.0108  0.1308
  726TIP3    H1 2184   4.355   4.970   5.026  0.1280 -0.4424 -0.3101
  726TIP3    H2 2185   4.303   4.970   4.884 -0.2937  2.0601 -0.2038
  727TIP3   OH2 2186   5.050   5.898   3.963  0.4063 -0.3479 -0.0011
  727TIP3    H1 2187   5.001   5.963   4.014  0.5398 -0.5853  0.4429
  727TIP3    H2 2188   5.138   5.936   3.953  0.6331 -0.6710  0.6916
  728TIP3   OH2 2189   4.378   4.860   4.724 -0.3444 -0.1192 -0.3272
  728TIP3    H1 2190   4.315   4.790   4.705  1.2150 -1.7673  0.1803
  728TIP3    H2 2191   4.462   4.814   4.730  0.5154  1.5647  1.7158
  729TIP3   OH2 2192   4.402   1.918   3.842 -0.0258 -0.2930 -0.0900
  729TIP3    H1 2193   4.372   1.888   3.756 -3.3264  2.6627 -0.2012
  729TIP3    H2 2194   4.477   1.974   3.823 -0.6723  0.2677 -1.1078
  730TIP3   OH2 2195   6.310   4.291   0.543 -1.0271 -0.5545 -0.0280
  730TIP3    H1 2196   6.253   4.215   0.551 -0.4743 -1.0469 -0.6291
  730TIP3    H2 2197   6.396   4.259   0.573 -0.4443 -0.6052 -1.6503
  731TIP3   OH2 2198   0.547   2.675   3.026 -0.1252  0.0105  0.3677
  731TIP3    H1 2199   0.615   2.608   3.017 -0.0943 -0.1882  1.8516
  731TIP3    H2 2200   0.514   2.688   2.937  1.4734 -0.2861 -0.3097
  732TIP3   OH2 2201   2.892   1.898   1.457 -0.6583 -0.1540 -0.0826
  732TIP3    H1 2202   2.879   1.823   1.399  1.1360  2.0592 -3.7113
  732TIP3    H2 2203   2.961   1.869   1.517 -0.7685 -1.7482 -0.6651
  733TIP3   OH2 2204   1.830   2.177   3.933  0.2035 -0.3885  0.7441
  733TIP3    H1 2205   1.869   2.136   4.010 -0.1621  1.0455  1.7493
  733TIP3    H2 2206   1.858   2.123   3.860  1.2319 -1.3436  1.7979
  734TIP3   OH2 2207   3.726   2.444   2.562 -0.0751 -0.0073  0.1458
  734TIP3    H1 2208   3.794   2.434   2.629  0.4409  0.8055 -0.2429
  734TIP3    H2 2209   3.771   2.485   2.488 -0.3637 -1.8710 -1.1335
  735TIP3   OH2 2210   3.806   2.465   0.199 -0.1861 -0.3554 -0.2127
  735TIP3    H1 2211   3.751   2.536   0.232 -0.2950 -0.5055 -0.0727
  735TIP3    H2 2212   3.856   2.506   0.128 -0.4165 -0.1966 -0.2866
  736TIP3   OH2 2213   3.975   1.991   0.701  0.3779  0.0328  0.2997
  736TIP3    H1 2214   4.058   2.039   0.706  0.8815 -0.9272  2.6738
  736TIP3    H2 2215   4.000   1.899   0.709 -0.8416 -0.3463 -0.0750
  737TIP3   OH2 2216   1.568   3.470   3.149  0.4781  0.0231 -0.4471
  737TIP3    H1 2217   1.561   3.520   3.230  1.1424 -0.7909  0.1297
  737TIP3    H2 2218   1.533   3.384   3.171 -2.3887  0.7085 -1.9256
  738TIP3   OH2 2219   1.871   2.151   2.304 -0.8434 -0.3342 -0.2976
  738TIP3    H1 2220   1.821   2.151   2.385 -3.1242 -0.3751 -1.6323
  738TIP3    H2 2221   1.922   2.069   2.307 -1.2019 -0.5201  0.8997
  739TIP3   OH2 2222   2.764   4.585   0.765  0.5397  0.1445 -0.1169
  739TIP3    H1 2223   2.692   4.538   0.722  2.2517 -1.8847 -0.9825
  739TIP3    H2 2224   2.803   4.638   0.695 -0.1036  1.2592  0.3542
  740TIP3   OH2 2225   2.607   2.391   0.949 -0.4683 -0.5334 -0.1818
  740TIP3    H1 2226   2.607   2.388   1.045  1.5554 -0.2304 -0.1325
  740TIP3    H2 2227   2.686   2.344   0.923 -1.6148 -1.6878 -1.7887
  741TIP3   OH2 2228   4.565   1.373   4.705  0.4982  0.2456  0.4848
  741TIP3    H1 2229   4.483   1.422   4.692  0.0895 -0.4901  0.2392
  741TIP3    H2 2230   4.540   1.282   4.694  1.5417  0.0611 -0.5396
  742TIP3   OH2 2231   4.980   4.776   1.932  0.5479 -1.1736  0.1462
  742TIP3    H1 2232   4.910   4.733   1.981  1.7571 -4.2611 -0.5428
  742TIP3    H2 2233   4.991   4.861   1.974 -2.0426 -1.5090  1.7000
  743TIP3   OH2 2234   4.030   3.249   0.345  0.6672  0.0038  0.3122
  743TIP3    H1 2235   3.962   3.235   0.279 -0.1906  1.3504  0.8844
  743TIP3    H2 2236   4.020   3.176   0.406  0.2214 -0.2097 -0.0157
  744TIP3   OH2 2237   4.507   3.365   0.447 -0.1455  0.1992 -0.4876
  744TIP3    H1 2238   4.530   3.298   0.512  3.8196  0.1430 -1.6328
  744TIP3    H2 2239   4.502   3.446   0.497  1.5801 -0.0312  0.1284
  745TIP3   OH2 2240   3.311   3.031   0.661 -0.0028  0.6633  0.3140
  745TIP3    H1 2241   3.319   2.938   0.681 -0.1290  0.5555 -0.1435
  745TIP3    H2 2242   3.394   3.069   0.691  1.0123  0.0432 -1.5811
  746TIP3   OH2 2243   1.530   1.327   3.653  0.9497 -0.3499 -0.3608
  746TIP3    H1 2244   1.456   1.310   3.712  0.3253  0.0912 -0.9959
  746TIP3    H2 2245   1.607   1.326   3.710  0.5380 -1.5163  0.2054
  747TIP3   OH2 2246   3.434   2.642   4.181 -0.4582 -0.0924 -0.0852
  747TIP3    H1 2247   3.458   2.563   4.133  0.4951 -0.3543  0.7840
  747TIP3    H2 2248   3.375   2.689   4.122 -0.7832 -1.2887 -0.7426
  748TIP3   OH2 2249   4.990   3.154   3.615  0.0107 -0.1403  0.0507
  748TIP3    H1 2250   5.068   3.156   3.670  0.3667 -0.8181 -0.4222
  748TIP3    H2 2251   4.958   3.245   3.616  1.1826  0.2884 -0.3095
  749TIP3   OH2 2252   1.179   1.267   4.651 -0.1907 -0.1772  0.0899
  749TIP3    H1 2253   1.085   1.250   4.653 -0.1223 -0.5751 -0.1150
  749TIP3    H2 2254   1.219   1.181   4.636  0.0623  0.4422 -3.4789
  750TIP3   OH2 2255   1.004   0.610   4.999  0.3756 -0.0005 -0.3240
  750TIP3    H1 2256   1.039   0.699   4.996  1.4672 -0.4120 -0.2574
  750TIP3    H2 2257   0.988   0.594   5.092 -2.6143  1.1415 -0.5470
  751TIP3   OH2 2258   5.804   0.746   4.448  0.6009 -0.0006 -0.7732
  751TIP3    H1 2259   5.772   0.800   4.375  1.0785  1.0273 -0.2337
  751TIP3    H2 2260   5.840   0.808   4.510  1.5917 -0.9826 -0.3399
  752TIP3   OH2 2261   2.299   2.765   1.023  0.3876  0.1846  0.0497
  752TIP3    H1 2262   2.381   2.747   0.978  1.8317  0.4454  2.3760
  752TIP3    H2 2263   2.264   2.678   1.044  1.7208 -0.0134  1.7161
  753TIP3   OH2 2264   4.480   4.902   3.321  0.0690 -0.0002  0.1004
  753TIP3    H1 2265   4.444   4.844   3.388  0.0227  0.0309  0.1017
  753TIP3    H2 2266   4.464   4.856   3.239 -1.8697  0.9729 -0.1035
  754TIP3   OH2 2267   1.178   5.459   4.643 -0.0006 -0.0152  0.3075
  754TIP3    H1 2268   1.270   5.481   4.630 -0.1546  0.1946 -0.4631
  754TIP3    H2 2269   1.177   5.410   4.725  0.5741  1.3742  1.1786
  755TIP3   OH2 2270   3.880   4.187   2.121  0.1414 -0.5397 -0.4285
  755TIP3    H1 2271   3.937   4.231   2.184  0.5450 -1.1313 -0.3695
  755TIP3    H2 2272   3.793   4.221   2.139  0.6720  1.5675 -1.5439
  756TIP3   OH2 2273   2.522   5.928   3.137  0.3094 -0.9381 -0.2130
  756TIP3    H1 2274   2.533   5.871   3.061  0.2524 -0.2489 -0.7447
  756TIP3    H2 2275   2.600   5.912   3.191  1.1642 -0.2558 -1.1987
  757TIP3   OH2 2276   2.539   4.496   2.915 -0.4702  0.0540 -0.1103
  757TIP3    H1 2277   2.474   4.450   2.863 -0.6720  0.3126 -0.0902
  757TIP3    H2 2278   2.613   4.509   2.856 -0.9363  0.8913 -0.5289
  758TIP3   OH2 2279   2.656   2.789   4.010 -0.5379  0.5373 -0.0445
  758TIP3    H1 2280   2.620   2.775   4.098 -3.2533  1.9047 -0.8023
  758TIP3    H2 2281   2.586   2.836   3.964  1.6100  1.6691 -2.3370
  759TIP3   OH2 2282   2.835   0.446   0.870 -0.1659  0.4439 -0.0888
  759TIP3    H1 2283   2.759   0.504   0.883  0.3587  1.1302 -0.0391
  759TIP3    H2 2284   2.857   0.456   0.777  1.4369  2.2605  0.4179
  760TIP3   OH2 2285   4.905   3.675   1.661 -0.2481  1.0301 -0.3983
  760TIP3    H1 2286   4.817   3.707   1.646  0.3967  2.3250 -1.7043
  760TIP3    H2 2287   4.923   3.619   1.585  0.2786  1.2848 -0.4648
  761TIP3   OH2 2288   4.808   5.288   0.583 -0.5544 -0.6003 -0.2222
  761TIP3    H1 2289   4.770   5.213   0.628  0.2236 -0.8661  0.0049
  761TIP3    H2 2290   4.775   5.282   0.494 -0.1244 -1.4870 -0.3303
  762TIP3   OH2 2291   3.385   5.552   2.686  0.1704 -0.0348 -0.2758
  762TIP3    H1 2292   3.408   5.504   2.766  1.5894  1.7564  0.4877
  762TIP3    H2 2293   3.470   5.581   2.651 -0.5939  1.7518 -0.7534
  763TIP3   OH2 2294   4.915   4.915   1.211  0.0902 -0.0289 -0.0520
  763TIP3    H1 2295   4.989   4.915   1.150  0.1093 -0.0850 -0.0293
  763TIP3    H2 2296   4.849   4.970   1.169 -0.4990 -1.3107 -0.8610
  764TIP3   OH2 2297   6.297   4.435   3.851  0.4646 -0.4815  0.1560
  764TIP3    H1 2298   6.334   4.359   3.895  1.9285 -1.0065 -1.8398
  764TIP3    H2 2299   6.229   4.466   3.910  2.1632 -1.2225  2.6594
  765TIP3   OH2 2300   2.502   3.594   2.258  0.8303 -0.1988  0.5661
  765TIP3    H1 2301   2.433   3.535   2.229 -0.0085 -0.4453  2.8773
  765TIP3    H2 2302   2.583   3.552   2.228  0.1541 -1.5562  0.5671
  766TIP3   OH2 2303   4.867   3.531   1.887  0.1384 -0.9550 -0.7359
  766TIP3    H1 2304   4.881   3.584   1.808  0.6741  1.6219  0.9647
  766TIP3    H2 2305   4.930   3.566   1.950 -1.3703 -1.8182  1.3563
  767TIP3   OH2 2306   2.785   0.396   4.860 -0.1644 -0.3327 -0.2245
  767TIP3    H1 2307   2.716   0.385   4.926 -0.9374  2.5039 -0.4422
  767TIP3    H2 2308   2.841   0.465   4.895  0.2589  0.2167 -1.8905
  768TIP3   OH2 2309   1.529   1.339   0.740 -0.0440 -0.6743  0.3454
  768TIP3    H1 2310   1.562   1.256   0.705 -0.4922 -0.9142  0.4841
  768TIP3    H2 2311   1.441   1.347   0.703 -0.2882 -0.6324  0.9193
  769TIP3   OH2 2312   4.132   2.105   3.775  0.3560 -0.5127 -0.2090
  769TIP3    H1 2313   4.117   2.011   3.766 -0.5486 -0.3348 -0.6634
  769TIP3    H2 2314   4.201   2.112   3.842  0.0128 -1.4649  0.2638
  770TIP3   OH2 2315   0.618   1.454   2.239  0.0699 -0.0612  0.0661
  770TIP3    H1 2316   0.544   1.402   2.208 -0.6342  0.7378  0.3830
  770TIP3    H2 2317   0.640   1.510   2.165  1.0370 -0.9967 -0.3898
  771TIP3   OH2 2318   3.048   3.080   2.575 -0.1194  0.2523 -0.3092
  771TIP3    H1 2319   3.059   3.152   2.512  1.0876  0.7501  0.4306
  771TIP3    H2 2320   3.137   3.048   2.590 -0.6362 -1.4181 -0.6241
  772TIP3   OH2 2321   5.316   1.296   5.118 -0.4283 -0.1041 -0.0550
  772TIP3    H1 2322   5.400   1.327   5.150 -1.1646  2.2861 -0.2086
  772TIP3    H2 2323   5.332   1.207   5.088  1.8138 -0.0134  0.7398
  773TIP3   OH2 2324   2.658   1.990   2.329 -0.2991  0.3176 -0.3445
  773TIP3    H1 2325   2.582   1.997   2.387  0.9004  1.4451  1.1821
  773TIP3    H2 2326   2.726   2.041   2.373  0.6806  1.2622 -2.7644
  774TIP3   OH2 2327   0.368   4.808   0.027  0.3218  0.1005  0.0437
  774TIP3    H1 2328   0.312   4.733   0.045  0.7222  0.1524  1.6611
  774TIP3    H2 2329   0.457   4.772   0.026  0.4285  0.3641 -0.3756
  775TIP3   OH2 2330   5.617   2.713   4.887  0.1803 -0.3284 -0.4283
  775TIP3    H1 2331   5.689   2.677   4.939  0.1468  2.6388  1.9699
  775TIP3    H2 2332   5.540   2.662   4.914  0.5915 -0.4246  0.6108
  776TIP3   OH2 2333   6.016   1.127   1.265  0.3741 -0.3275 -0.4371
  776TIP3    H1 2334   5.996   1.203   1.210  1.1898 -0.5687 -1.0970
  776TIP3    H2 2335   5.982   1.052   1.217 -1.3552 -0.3210  0.6981
  777TIP3   OH2 2336   0.366   3.359   1.932  0.1607 -0.3771 -0.0986
  777TIP3    H1 2337   0.443   3.312   1.962 -1.0735 -1.1185  2.1187
  777TIP3    H2 2338   0.374   3.446   1.973 -0.2798 -0.5469  0.3644
  778TIP3   OH2 2339   5.092   3.153   4.972 -0.4891  0.0686  0.1029
  778TIP3    H1 2340   5.055   3.064   4.978 -1.2542  0.1060 -2.6788
  778TIP3    H2 2341   5.181   3.140   4.939  0.2339  0.2723  1.8666
  779TIP3   OH2 2342   5.734   2.527   2.334  0.1800  0.7907 -0.0636
  779TIP3    H1 2343   5.820   2.540   2.294 -0.0040  2.0821 -0.0964
  779TIP3    H2 2344   5.677   2.589   2.288 -0.9390 -0.5367 -0.5183
  780TIP3   OH2 2345   5.860   0.628   0.638  0.0996 -0.1888  0.4875
  780TIP3    H1 2346   5.895   0.678   0.564 -1.8783 -0.4729 -0.6967
  780TIP3    H2 2347   5.896   0.671   0.715  3.7721 -0.9699 -0.5484
  781TIP3   OH2 2348   1.217   0.386   3.059  0.2838 -0.3535 -0.0105
  781TIP3    H1 2349   1.199   0.464   3.112  0.1119  0.8488 -1.7416
  781TIP3    H2 2350   1.193   0.412   2.970  0.8013 -2.2061 -0.7305
  782TIP3   OH2 2351   1.570   2.215   1.167  0.5144  0.3046  0.2271
  782TIP3    H1 2352   1.544   2.259   1.086 -0.9339 -0.4193  0.2647
  782TIP3    H2 2353   1.635   2.150   1.139 -1.9363 -1.8603 -0.8876
  783TIP3   OH2 2354   3.754   1.175   0.085 -0.0733  0.5762  0.0133
  783TIP3    H1 2355   3.679   1.235   0.090  0.3209  1.0084  1.5205
  783TIP3    H2 2356   3.730   1.103   0.143 -0.0026 -0.1091 -0.7953
  784TIP3   OH2 2357   1.907   4.271   4.134  0.5318 -0.2649  0.2489
  784TIP3    H1 2358   1.989   4.306   4.169  0.4543 -0.4997  0.6782
  784TIP3    H2 2359   1.930   4.184   4.101  0.4391 -0.3767  0.4709
  785TIP3   OH2 2360   0.424   3.549   1.633 -0.4710  0.1169 -1.0843
  785TIP3    H1 2361   0.483   3.587   1.568  0.6962  2.0115  0.9459
  785TIP3    H2 2362   0.476   3.478   1.673 -0.4260  0.2691 -0.8703
  786TIP3   OH2 2363   0.114   3.871   5.030  0.1144  0.4050 -0.3687
  786TIP3    H1 2364   0.178   3.905   4.967  0.1527  0.8711 -0.0762
  786TIP3    H2 2365   0.049   3.941   5.038 -1.2957 -0.6604 -1.8553
  787TIP3   OH2 2366   3.689   4.507   4.928 -0.3823  0.1484  0.5622
  787TIP3    H1 2367   3.767   4.537   4.881  0.6084 -0.0007  2.0423
  787TIP3    H2 2368   3.615   4.535   4.873  0.6702  1.1810 -0.3771
  788TIP3   OH2 2369   6.321   2.122   1.339 -0.3340  0.4525 -0.0737
  788TIP3    H1 2370   6.379   2.078   1.276 -0.2868 -1.1221  1.0009
  788TIP3    H2 2371   6.289   2.051   1.395 -2.7274  1.3859 -0.1568
  789TIP3   OH2 2372   1.898   1.701   4.829  0.0596 -0.5895 -0.4102
  789TIP3    H1 2373   1.903   1.794   4.848  2.0457 -0.7524  0.0369
  789TIP3    H2 2374   1.811   1.689   4.790  0.0994  1.5698 -1.2628
  790TIP3   OH2 2375   5.836   2.779   2.757  0.9787  0.1831  0.2822
  790TIP3    H1 2376   5.888   2.804   2.680  0.7295  1.5156  0.5095
  790TIP3    H2 2377   5.772   2.717   2.723  1.3614  0.1568 -0.4281
  791TIP3   OH2 2378   6.238   0.447   2.967 -0.4041 -0.3495  0.1682
  791TIP3    H1 2379   6.282   0.530   2.946  2.3323 -1.2593  1.7269
  791TIP3    H2 2380   6.168   0.440   2.903 -0.5854  3.0350 -0.1606
  792TIP3   OH2 2381   4.138   1.353   3.896 -0.2558 -0.0913 -0.2849
  792TIP3    H1 2382   4.214   1.408   3.877 -1.3196  1.6664  0.3161
  792TIP3    H2 2383   4.149   1.277   3.839  0.7748  1.1953 -1.9038
  793TIP3   OH2 2384   3.723   2.779   3.566  0.3760  0.1280 -0.4053
  793TIP3    H1 2385   3.633   2.793   3.594  0.2614 -0.4175 -0.4990
  793TIP3    H2 2386   3.776   2.818   3.636  0.0721  0.2933 -0.2661
  794TIP3   OH2 2387   4.566   1.319   2.671 -0.4237  0.1499  0.0491
  794TIP3    H1 2388   4.489   1.342   2.619 -0.9383  0.2054  0.8092
  794TIP3    H2 2389   4.595   1.236   2.635 -1.2450 -0.2055  0.1683
  795TIP3   OH2 2390   3.340   3.923   0.886 -0.5406  0.1809 -0.3809
  795TIP3    H1 2391   3.269   3.899   0.946  0.0902 -0.2487  0.2192
  795TIP3    H2 2392   3.299   3.923   0.800 -1.2353 -0.2238 -0.0674
  796TIP3   OH2 2393   2.156   4.533   1.318  0.6060 -0.0238  0.5850
  796TIP3    H1 2394   2.170   4.604   1.256  1.4926  0.9070  1.7909
  796TIP3    H2 2395   2.065   4.543   1.346 -0.1223 -1.0780 -1.2640
  797TIP3   OH2 2396   5.446   1.866   0.982  0.1096 -0.4531 -0.0909
  797TIP3    H1 2397   5.445   1.789   0.924  2.9168 -0.2887 -0.5303
  797TIP3    H2 2398   5.475   1.937   0.925 -0.9304  0.6095  0.6771
  798TIP3   OH2 2399   5.256   0.407   1.577 -0.2190  0.1367 -1.1910
  798TIP3    H1 2400   5.341   0.392   1.536  0.3668  2.5749 -0.9997
  798TIP3    H2 2401   5.266   0.488   1.626 -1.5174 -1.5278  2.1699
  799TIP3   OH2 2402   3.966   1.719   0.726  0.0338 -0.6236 -0.4637
  799TIP3    H1 2403   3.897   1.672   0.772 -1.1171 -0.5085 -2.0311
  799TIP3    H2 2404   4.012   1.651   0.676  0.6489 -0.5930  0.0409
  800TIP3   OH2 2405   3.566   3.384   1.453  0.1665  0.4580 -0.0893
  800TIP3    H1 2406   3.652   3.410   1.419 -0.0716  1.2457 -0.1139
  800TIP3    H2 2407   3.504   3.415   1.387  0.0117 -3.2227 -1.8827
  801TIP3   OH2 2408   5.412   5.638   4.613 -0.5973 -0.2588 -0.4785
  801TIP3    H1 2409   5.489   5.592   4.579 -0.4331  0.2275 -0.7861
  801TIP3    H2 2410   5.385   5.588   4.689  0.3077 -0.1908 -0.1022
  802TIP3   OH2 2411   1.896   3.274   4.819 -0.3746 -0.1893 -0.2517
  802TIP3    H1 2412   1.972   3.251   4.871 -0.3338  0.1409 -0.1594
  802TIP3    H2 2413   1.884   3.368   4.834 -0.1685 -0.0128 -1.0862
  803TIP3   OH2 2414   2.224   1.015   0.144  0.0585  0.5059 -0.5718
  803TIP3    H1 2415   2.210   0.920   0.143 -0.2984  0.5178  1.1472
  803TIP3    H2 2416   2.137   1.053   0.136 -0.1680  0.6327  1.8926
  804TIP3   OH2 2417   2.576   4.735   2.216 -0.2925  0.6420 -0.0654
  804TIP3    H1 2418   2.640   4.668   2.189 -2.5712 -0.7956 -2.4895
  804TIP3    H2 2419   2.609   4.816   2.177  0.7865  0.2621  0.0084
  805TIP3   OH2 2420   3.043   5.607   4.937 -0.2824  0.4082  0.2183
  805TIP3    H1 2421   3.040   5.605   5.033 -0.0900 -0.3621  0.2136
  805TIP3    H2 2422   3.078   5.521   4.912  2.3242  1.5545 -0.4453
  806TIP3   OH2 2423   2.171   1.680   4.896  0.4594  0.3271  0.3480
  806TIP3    H1 2424   2.220   1.599   4.879 -0.8609  0.0082 -2.6085
  806TIP3    H2 2425   2.079   1.654   4.890 -0.0728  1.4958  2.6239
  807TIP3   OH2 2426   0.908   0.824   1.853 -0.1774  0.2810 -0.0222
  807TIP3    H1 2427   0.962   0.750   1.881 -0.0161 -0.2097 -1.5481
  807TIP3    H2 2428   0.930   0.894   1.915 -0.6070 -1.0228  1.6720
  808TIP3   OH2 2429   0.759   3.527   2.923 -0.0703 -0.1929 -0.1339
  808TIP3    H1 2430   0.675   3.547   2.882  0.4870  1.4325 -0.5582
  808TIP3    H2 2431   0.789   3.448   2.879 -0.0035  0.8762 -2.1240
  809TIP3   OH2 2432   2.559   4.334   2.256  0.2161  0.3116 -1.6120
  809TIP3    H1 2433   2.599   4.307   2.338  1.3372  3.1714 -1.0845
  809TIP3    H2 2434   2.530   4.252   2.214 -0.1490 -1.2479  1.4431
  810TIP3   OH2 2435   5.935   0.795   2.556  0.2007  0.7248  0.2036
  810TIP3    H1 2436   5.991   0.763   2.485 -0.3128 -0.1957  0.1947
  810TIP3    H2 2437   5.846   0.790   2.520  0.0841  1.9765  0.2855
  811TIP3   OH2 2438   4.810   0.830   4.223  0.5212 -0.1999  0.3783
  811TIP3    H1 2439   4.736   0.873   4.181  0.3110  0.1916  1.1340
  811TIP3    H2 2440   4.787   0.737   4.225  1.1964 -0.4507 -1.7158
  812TIP3   OH2 2441   5.092   4.994   4.864  0.1472  0.0592 -0.3173
  812TIP3    H1 2442   5.123   5.026   4.949  0.1580 -0.8252  0.0221
  812TIP3    H2 2443   5.069   5.073   4.816 -0.3204  0.5521  0.6894
  813TIP3   OH2 2444   1.054   1.232   4.937 -0.3953  0.1996  0.3340
  813TIP3    H1 2445   1.116   1.167   4.904  0.5203  0.9715  0.4928
  813TIP3    H2 2446   1.016   1.271   4.858 -0.1851  0.1843  0.2247
  814TIP3   OH2 2447   3.929   0.222   3.477 -0.2934 -0.3988 -0.2988
  814TIP3    H1 2448   3.911   0.129   3.485 -2.0074 -0.0536  0.3271
  814TIP3    H2 2449   3.892   0.247   3.393  0.2933 -0.2897 -0.5337
  815TIP3   OH2 2450   4.984   2.908   5.027  0.4834  0.1060  0.1493
  815TIP3    H1 2451   4.991   2.890   5.121  0.3089  1.0950  0.3646
  815TIP3    H2 2452   4.946   2.828   4.990  2.7835 -1.2508  0.5317
  816TIP3   OH2 2453   2.256   4.438   1.617  0.6413 -0.1489 -0.1662
  816TIP3    H1 2454   2.281   4.360   1.665  0.7330 -1.3900 -2.1208
  816TIP3    H2 2455   2.271   4.416   1.525 -1.0350  1.5263 -0.9144
  817TIP3   OH2 2456   1.875   2.386   1.437 -0.6900 -0.0805 -0.4510
  817TIP3    H1 2457   1.912   2.300   1.457  0.4322  0.9874  2.6240
  817TIP3    H2 2458   1.782   2.377   1.459 -0.9456 -0.8974 -1.7315
  818TIP3   OH2 2459   5.464   1.126   4.949 -0.2325  0.3495 -0.3876
  818TIP3    H1 2460   5.546   1.079   4.933  0.2434  1.2188 -0.5783
  818TIP3    H2 2461   5.464   1.195   4.883  0.2326  2.0769  1.3273
  819TIP3   OH2 2462   4.639   2.919   0.765 -0.2324  0.5429  0.1610
  819TIP3    H1 2463   4.679   2.958   0.843 -2.8394  2.6945  0.5924
  819TIP3    H2 2464   4.545   2.919   0.784 -0.7615 -1.1241 -2.0568
  820TIP3   OH2 2465   0.533   0.722   4.122  0.2923 -0.1900 -0.0183
  820TIP3    H1 2466   0.608   0.681   4.166 -0.4738 -0.9357  0.6210
  820TIP3    H2 2467   0.481   0.759   4.194 -0.3924 -0.4391 -0.3813
  821TIP3   OH2 2468   0.993   3.953   1.789  0.1031 -0.0736  0.1188
  821TIP3    H1 2469   0.963   3.967   1.699  3.5162 -4.3856 -2.0855
  821TIP3    H2 2470   0.940   3.880   1.820  0.1374  0.2589  0.9863
  822TIP3   OH2 2471   2.892   4.611   3.278  0.3030  0.4473 -0.3369
  822TIP3    H1 2472   2.930   4.547   3.218 -0.1477  0.6637 -0.8544
  822TIP3    H2 2473   2.882   4.563   3.360 -0.1616 -0.1960 -0.7601
  823TIP3   OH2 2474   0.304   4.366   0.244  0.1078  0.4617 -0.1740
  823TIP3    H1 2475   0.216   4.401   0.237 -0.6611 -1.2099  0.6091
  823TIP3    H2 2476   0.336   4.361   0.154 -1.5263 -1.0858 -0.7326
  824TIP3   OH2 2477   4.283   1.949   1.339  0.4989  0.2631 -0.1353
  824TIP3    H1 2478   4.277   1.978   1.248  1.3686 -0.9038 -0.5892
  824TIP3    H2 2479   4.267   2.028   1.390 -0.8121  0.7928 -1.2769
  825TIP3   OH2 2480   0.700   1.381   0.760  0.2592 -0.0862 -0.1012
  825TIP3    H1 2481   0.775   1.439   0.769  0.9465 -0.9398 -0.2502
  825TIP3    H2 2482   0.633   1.421   0.816  0.3614  1.3927 -0.9717
  826TIP3   OH2 2483   4.601   1.572   4.955  0.5242  0.8748 -0.9542
  826TIP3    H1 2484   4.629   1.480   4.957 -2.0711  0.0113  0.4747
  826TIP3    H2 2485   4.679   1.621   4.981  1.3878 -1.1356  0.5601
  827TIP3   OH2 2486   0.387   5.105   0.971 -0.4026 -0.1939  0.4232
  827TIP3    H1 2487   0.372   5.041   0.901 -0.3937  0.8165 -0.5358
  827TIP3    H2 2488   0.299   5.134   0.996 -0.4474 -1.0762  1.3650
  828TIP3   OH2 2489   0.982   2.312   3.600  0.4374  0.2618  0.5120
  828TIP3    H1 2490   1.070   2.349   3.598  0.9346 -0.8911  0.1168
  828TIP3    H2 2491   0.937   2.354   3.526  1.1773 -0.3342 -0.3014
  829TIP3   OH2 2492   5.898   3.101   0.097 -0.2972 -0.1637  0.4059
  829TIP3    H1 2493   5.879   3.131   0.185 -0.1771 -1.2216  0.8062
  829TIP3    H2 2494   5.839   3.151   0.041 -0.4972  0.3906  1.0998
  830TIP3   OH2 2495   6.136   5.937   4.695  0.1075  0.2151  0.0449
  830TIP3    H1 2496   6.093   5.947   4.780 -0.4629 -0.4928 -0.1515
  830TIP3    H2 2497   6.066   5.909   4.636  1.0450 -2.2499 -0.0101
  831TIP3   OH2 2498   2.504   5.363   3.774  0.5673 -0.2909 -0.0443
  831TIP3    H1 2499   2.488   5.409   3.691 -1.1536 -0.0822  0.3687
  831TIP3    H2 2500   2.498   5.431   3.841  2.0757 -0.4364  0.2783
  832TIP3   OH2 2501   3.248   1.625   1.505  0.1214 -0.7772  0.2665
  832TIP3    H1 2502   3.231   1.671   1.423 -0.8498 -0.9226  0.3768
  832TIP3    H2 2503   3.314   1.559   1.482 -0.8507 -1.4774 -0.6385
  833TIP3   OH2 2504   3.508   1.841   3.961 -0.3114 -0.0900 -0.1255
  833TIP3    H1 2505   3.437   1.852   4.025  0.8080  1.3400  0.9461
  833TIP3    H2 2506   3.566   1.776   4.000 -0.0068  0.2398 -0.0189
  834TIP3   OH2 2507   2.337   2.618   3.721  0.1303  0.5620  0.4052
  834TIP3    H1 2508   2.323   2.528   3.751 -2.3989  0.3526 -1.0997
  834TIP3    H2 2509   2.317   2.615   3.627  1.5965  2.4050 -0.0249
  835TIP3   OH2 2510   4.996   4.130   4.335 -0.7911 -0.9888 -0.5201
  835TIP3    H1 2511   4.966   4.194   4.270 -0.7076 -0.3422  0.0780
  835TIP3    H2 2512   5.081   4.102   4.302  0.2830  0.9739  0.4124
  836TIP3   OH2 2513   3.115   2.122   3.855 -0.3561 -0.3690  0.0521
  836TIP3    H1 2514   3.128   2.169   3.772  0.2699  0.7524  0.7500
  836TIP3    H2 2515   3.148   2.183   3.921  0.6769 -1.8937  0.9986
  837TIP3   OH2 2516   4.249   5.771   4.236 -0.3537 -0.2396 -0.2407
  837TIP3    H1 2517   4.173   5.805   4.283 -0.8423 -0.6402 -0.7421
  837TIP3    H2 2518   4.276   5.694   4.287 -0.1208  0.0531  0.0837
  838TIP3   OH2 2519   6.249   2.190   2.585  0.2240 -0.0808  0.3517
  838TIP3    H1 2520   6.250   2.271   2.534  1.3297  0.1513  0.7321
  838TIP3    H2 2521   6.184   2.135   2.540 -0.7267  1.1001  0.2365
  839TIP3   OH2 2522   2.950   2.272   4.609  0.4441 -0.5214 -0.2132
  839TIP3    H1 2523   2.903   2.318   4.539 -0.3757 -3.9623 -2.1418
  839TIP3    H2 2524   2.954   2.336   4.681  1.0717  3.1482 -3.1613
  840TIP3   OH2 2525   0.446   0.822   2.620 -0.0928  0.2608 -0.4844
  840TIP3    H1 2526   0.449   0.851   2.529  0.1309  0.0660 -0.5386
  840TIP3    H2 2527   0.367   0.863   2.655 -0.2318  0.2599 -0.7911
  841TIP3   OH2 2528   4.414   1.689   1.271  0.3070 -0.7381 -0.5701
  841TIP3    H1 2529   4.509   1.683   1.277  0.4425  1.1460 -0.1691
  841TIP3    H2 2530   4.396   1.783   1.272 -1.5951 -1.0631 -0.1447
  842TIP3   OH2 2531   3.462   4.013   4.661  0.5435  0.3001  0.1862
  842TIP3    H1 2532   3.555   3.991   4.651  0.2515 -0.7844 -0.2395
  842TIP3    H2 2533   3.416   3.929   4.656 -0.4563  0.8075  0.5285
  843TIP3   OH2 2534   2.433   3.156   2.269  0.0090  0.4701 -0.0170
  843TIP3    H1 2535   2.348   3.159   2.312  0.0115  0.6511 -0.0210
  843TIP3    H2 2536   2.462   3.065   2.277 -0.5051  0.2473 -0.6341
  844TIP3   OH2 2537   5.037   1.468   2.151 -0.0895  0.1002  0.6381
  844TIP3    H1 2538   5.064   1.388   2.195 -0.1245 -0.3637 -0.1509
  844TIP3    H2 2539   5.030   1.533   2.220  1.5224 -0.1568  1.0826
  845TIP3   OH2 2540   0.625   4.789   0.842  0.3592 -0.1510 -0.1164
  845TIP3    H1 2541   0.670   4.741   0.911 -0.6557  1.0109  1.4087
  845TIP3    H2 2542   0.660   4.752   0.761  1.6413 -1.5023  0.9940
  846TIP3   OH2 2543   3.192   2.657   4.337  0.5278 -0.0274  0.4522
  846TIP3    H1 2544   3.143   2.609   4.270 -1.5719 -0.1878  1.9986
  846TIP3    H2 2545   3.281   2.623   4.330  0.1074 -0.8983 -1.4303
  847TIP3   OH2 2546   3.414   0.845   4.791  0.0358  0.7856  0.7560
  847TIP3    H1 2547   3.363   0.899   4.851 -1.3881  2.8625 -2.0833
  847TIP3    H2 2548   3.502   0.883   4.793 -0.3073  1.6078  0.6539
  848TIP3   OH2 2549   4.455   5.201   1.026  0.1914  0.1365  0.0920
  848TIP3    H1 2550   4.403   5.211   0.947  0.0330  0.1421  0.1963
  848TIP3    H2 2551   4.402   5.143   1.082  0.4751 -0.1754  0.0406
  849TIP3   OH2 2552   3.861   4.595   2.102  0.2913  0.3108  0.2090
  849TIP3    H1 2553   3.848   4.689   2.101  1.3032  0.4726 -0.9528
  849TIP3    H2 2554   3.854   4.569   2.009  0.7976 -0.6348  0.4201
  850TIP3   OH2 2555   1.488   0.808   3.869 -0.0831 -0.2353 -0.1739
  850TIP3    H1 2556   1.551   0.753   3.823 -0.9781 -1.2142 -0.2717
  850TIP3    H2 2557   1.425   0.834   3.801  0.9266  1.8718 -0.3771
  851TIP3   OH2 2558   3.645   2.633   4.943 -0.0769 -0.3521 -0.1186
  851TIP3    H1 2559   3.586   2.707   4.960  1.4625  1.5820 -2.6011
  851TIP3    H2 2560   3.724   2.653   4.993 -0.2001 -1.1571  0.4225
  852TIP3   OH2 2561   0.729   3.107   4.797  0.5075  0.3430 -0.1249
  852TIP3    H1 2562   0.689   3.021   4.783 -1.3835  0.9535  1.0887
  852TIP3    H2 2563   0.771   3.128   4.713 -0.2131 -1.1470 -0.9019
  853TIP3   OH2 2564   5.429   3.175   3.205 -0.1862  0.8598  0.1586
  853TIP3    H1 2565   5.514   3.139   3.233 -1.1448 -0.6353  1.2670
  853TIP3    H2 2566   5.425   3.155   3.111  0.7517  1.0777  0.0621
  854TIP3   OH2 2567   2.417   5.047   2.630 -0.0308  0.0351 -0.2916
  854TIP3    H1 2568   2.491   5.004   2.587  1.2669  1.4522  0.4379
  854TIP3    H2 2569   2.400   4.994   2.708 -1.3441 -1.6145 -1.6096
  855TIP3   OH2 2570   2.668   3.374   2.186  0.4126 -0.3622  0.3431
  855TIP3    H1 2571   2.711   3.344   2.106  0.9361  0.1416  0.4291
  855TIP3    H2 2572   2.605   3.305   2.207  2.2214 -1.9022  1.0618
  856TIP3   OH2 2573   3.884   3.916   2.777 -0.2021 -0.8295 -0.4303
  856TIP3    H1 2574   3.950   3.968   2.730  1.5847 -0.0517  2.6691
  856TIP3    H2 2575   3.919   3.827   2.776 -0.1324 -0.8017 -0.5105
  857TIP3   OH2 2576   3.155   4.975   1.517  0.2764 -0.0282  1.0477
  857TIP3    H1 2577   3.229   4.917   1.496  0.2663  0.0152  0.8904
  857TIP3    H2 2578   3.111   4.932   1.590  0.9399  0.3617  1.6993
  858TIP3   OH2 2579   0.448   2.039   4.246 -0.2068 -0.6214 -0.2964
  858TIP3    H1 2580   0.396   2.102   4.196 -1.8983 -0.8582  1.0950
  858TIP3    H2 2581   0.388   1.968   4.266  0.7705 -1.1433  0.9525
  859TIP3   OH2 2582   4.053   4.180   3.143 -0.1751  0.3616 -0.1087
  859TIP3    H1 2583   4.075   4.152   3.232 -1.1446 -1.3124 -0.3518
  859TIP3    H2 2584   3.968   4.222   3.151  0.3564  1.4534 -0.0580
  860TIP3   OH2 2585   6.309   1.192   0.105 -0.0344  0.4192  0.3535
  860TIP3    H1 2586   6.231   1.188   0.161 -0.3225  2.5442  0.2083
  860TIP3    H2 2587   6.355   1.270   0.136  0.6855  0.6632 -1.2437
  861TIP3   OH2 2588   6.103   4.381   3.008  0.0519  0.4955  0.8237
  861TIP3    H1 2589   6.067   4.344   3.089  0.2864  1.8105  1.5622
  861TIP3    H2 2590   6.040   4.449   2.983  1.9695  2.9428  2.2227
  862TIP3   OH2 2591   3.039   3.441   1.714 -0.0882  0.1479 -0.4253
  862TIP3    H1 2592   3.119   3.488   1.692  0.8844 -0.7679  1.0146
  862TIP3    H2 2593   3.068   3.353   1.736 -1.5263 -0.2587 -0.0440
  863TIP3   OH2 2594   0.423   3.410   0.631  0.3748 -0.2104 -0.3805
  863TIP3    H1 2595   0.432   3.422   0.725 -0.5206  0.1633 -0.3335
  863TIP3    H2 2596   0.500   3.452   0.594  0.8918 -0.6358  0.1974
  864TIP3   OH2 2597   5.125   2.264   4.592 -0.5183  0.3351 -0.0818
  864TIP3    H1 2598   5.097   2.281   4.502  0.6778  0.4612 -0.4436
  864TIP3    H2 2599   5.217   2.287   4.594 -0.0648 -1.3644  0.7163
  865TIP3   OH2 2600   3.447   2.354  -0.008 -0.2642  0.3113 -0.2747
  865TIP3    H1 2601   3.508   2.329   0.062  0.2342 -1.5252 -1.2850
  865TIP3    H2 2602   3.385   2.281  -0.012 -0.8765  0.8655 -1.0927
  866TIP3   OH2 2603   4.522   3.688   5.117  0.0920 -1.1297  0.3854
  866TIP3    H1 2604   4.490   3.717   5.202  1.4812 -0.1241  0.6009
  866TIP3    H2 2605   4.444   3.658   5.071 -1.1964  1.2837  0.8568
  867TIP3   OH2 2606   0.638   1.029   3.233 -0.2678 -0.3748  0.1392
  867TIP3    H1 2607   0.575   1.018   3.304  0.4901 -0.6553  0.7861
  867TIP3    H2 2608   0.716   1.064   3.276  0.4442 -1.2304 -0.4191
  868TIP3   OH2 2609   2.991   0.124   4.815 -0.4420  0.0030  0.2140
  868TIP3    H1 2610   2.952   0.078   4.740 -0.9087 -3.8616  2.5194
  868TIP3    H2 2611   2.929   0.108   4.887  0.4616  2.6885  1.7348
  869TIP3   OH2 2612   3.822   0.540   3.348 -0.2471 -0.4354  0.1471
  869TIP3    H1 2613   3.801   0.465   3.294 -2.2726  0.8642 -0.9912
  869TIP3    H2 2614   3.751   0.546   3.412 -1.1414  1.4758 -0.9230
  870TIP3   OH2 2615   0.255   3.677   2.759  0.1080 -1.3406  0.8394
  870TIP3    H1 2616   0.231   3.585   2.747 -0.6604 -0.9834 -0.7058
  870TIP3    H2 2617   0.235   3.718   2.674 -1.1439  0.5835  1.9686
  871TIP3   OH2 2618   6.323   2.677   4.614  0.7539  0.6544  0.1944
  871TIP3    H1 2619   6.367   2.670   4.529 -0.4713  0.3657 -0.4425
  871TIP3    H2 2620   6.239   2.719   4.594 -0.3938 -1.1805  0.9181
  872TIP3   OH2 2621   5.707   1.198   1.033  0.2346  0.5494  0.5641
  872TIP3    H1 2622   5.765   1.269   1.063 -0.6002  1.4271  0.1303
  872TIP3    H2 2623   5.627   1.242   1.007 -0.5469 -0.6313  0.9010
  873TIP3   OH2 2624   2.185   4.429   2.965 -0.0203 -0.3459 -0.3058
  873TIP3    H1 2625   2.112   4.412   3.025  0.3764 -0.7988  0.0587
  873TIP3    H2 2626   2.229   4.506   3.002 -0.2760 -0.1030 -0.4980
  874TIP3   OH2 2627   2.519   3.666   2.853  0.4886  0.8923 -0.2777
  874TIP3    H1 2628   2.492   3.751   2.819  2.6412  1.0880 -1.7044
  874TIP3    H2 2629   2.612   3.660   2.831  0.6588 -1.3775  0.7732
  875TIP3   OH2 2630   3.125   2.788   0.147  0.1476  0.2996 -0.1670
  875TIP3    H1 2631   3.144   2.852   0.079  0.6616  1.5766  1.1241
  875TIP3    H2 2632   3.210   2.753   0.173  0.0544  0.5102  0.4491
  876TIP3   OH2 2633   0.962   0.568   1.936  0.1549  0.0593 -0.0569
  876TIP3    H1 2634   0.886   0.527   1.895  0.3677  1.0820 -1.5425
  876TIP3    H2 2635   0.996   0.502   1.996 -1.9067 -0.4088  0.6516
  877TIP3   OH2 2636   5.796   5.563   3.310  0.0419  0.1178 -0.1712
  877TIP3    H1 2637   5.878   5.606   3.284 -0.3944  0.3302 -1.2612
  877TIP3    H2 2638   5.731   5.632   3.310 -0.4807 -0.3485 -1.0469
  878TIP3   OH2 2639   5.626   2.628   2.637  0.3140  0.1617 -0.4168
  878TIP3    H1 2640   5.678   2.561   2.594 -0.4707 -0.0215 -1.0998
  878TIP3    H2 2641   5.565   2.658   2.570 -0.7026  0.1213  0.4647
  879TIP3   OH2 2642   3.494   0.516   1.142  0.0524  0.2070  0.2555
  879TIP3    H1 2643   3.569   0.470   1.106 -0.3054 -1.6411  1.7727
  879TIP3    H2 2644   3.420   0.484   1.090 -0.0424 -0.0360  0.5406
  880TIP3   OH2 2645   0.627   1.272   0.369  0.0857 -0.1388 -0.1148
  880TIP3    H1 2646   0.654   1.353   0.327  2.7770  0.0344  1.7063
  880TIP3    H2 2647   0.597   1.216   0.297 -0.3860  1.8772 -1.5682
  881TIP3   OH2 2648   0.938   2.606   0.025  0.2450  0.2410 -0.6289
  881TIP3    H1 2649   0.959   2.516   0.050  0.7376  0.6180  0.3773
  881TIP3    H2 2650   0.997   2.660   0.078 -0.9281  1.2110 -0.2698
  882TIP3   OH2 2651   1.236   2.932   3.846 -0.0156  0.1501 -0.0313
  882TIP3    H1 2652   1.305   2.973   3.898 -0.4033 -0.4743  1.0047
  882TIP3    H2 2653   1.255   2.838   3.850  0.0777  0.0968 -1.2296
  883TIP3   OH2 2654   0.071   3.206   0.286  0.0424  0.7225 -0.4649
  883TIP3    H1 2655   0.165   3.188   0.298 -0.0793 -1.2977 -1.9380
  883TIP3    H2 2656   0.069   3.287   0.235  1.2750 -1.1823 -3.9033
  884TIP3   OH2 2657   4.727   2.366   3.525 -0.3173 -0.2043  0.3048
  884TIP3    H1 2658   4.798   2.322   3.479 -0.2896  0.0355  0.1156
  884TIP3    H2 2659   4.754   2.458   3.529 -0.2398 -0.2479  0.9531
  885TIP3   OH2 2660   5.297   0.583   0.775  0.2098 -0.0859 -0.2451
  885TIP3    H1 2661   5.360   0.516   0.748 -1.5570 -2.8478  2.0003
  885TIP3    H2 2662   5.212   0.542   0.762 -0.9748  1.8980  0.8801
  886TIP3   OH2 2663   4.215   2.523   4.991 -0.1468 -0.2208  0.1905
  886TIP3    H1 2664   4.242   2.463   5.061  1.7033  1.2283  0.7825
  886TIP3    H2 2665   4.290   2.525   4.931 -0.6165  0.6814 -0.3868
  887TIP3   OH2 2666   3.045   4.212   3.245  0.0582 -0.2890 -0.0299
  887TIP3    H1 2667   3.015   4.283   3.188  0.6844 -2.0350 -2.7674
  887TIP3    H2 2668   3.136   4.198   3.220  0.6109 -0.6533  2.0251
  888TIP3   OH2 2669   2.152   3.219   2.305 -0.0847 -0.4615  0.2336
  888TIP3    H1 2670   2.146   3.313   2.289 -0.6104 -0.4833  0.2792
  888TIP3    H2 2671   2.158   3.212   2.400  0.1633 -0.4669  0.2186
  889TIP3   OH2 2672   0.371   2.264   2.563 -0.3987 -0.2438  0.3092
  889TIP3    H1 2673   0.387   2.281   2.655 -2.7253 -2.1101  1.1677
  889TIP3    H2 2674   0.398   2.172   2.551  0.7143  0.2290 -1.1309
  890TIP3   OH2 2675   1.252   0.788   2.209 -1.0454  0.4395 -0.1727
  890TIP3    H1 2676   1.192   0.836   2.267 -0.0377 -0.7348  1.9834
  890TIP3    H2 2677   1.333   0.781   2.259  0.4191  0.6614 -2.3980
  891TIP3   OH2 2678   3.190   2.060   1.322  0.2036 -0.3960 -0.2564
  891TIP3    H1 2679   3.125   2.112   1.277  1.0232  0.5308 -0.3924
  891TIP3    H2 2680   3.274   2.088   1.286  0.9673  0.8599  2.2231
  892TIP3   OH2 2681   3.464   3.337   0.692  0.0393 -0.0740  0.0813
  892TIP3    H1 2682   3.472   3.395   0.616 -1.6438 -1.4917 -1.2795
  892TIP3    H2 2683   3.530   3.269   0.677 -0.6615 -0.6590 -0.4577
  893TIP3   OH2 2684   4.021   1.415   1.155 -0.1311  0.0426 -0.1643
  893TIP3    H1 2685   4.057   1.343   1.104 -0.2055 -1.7250  2.1007
  893TIP3    H2 2686   4.077   1.489   1.135  1.1997 -1.1550 -1.0764
  894TIP3   OH2 2687   0.658   2.015   1.322  0.0816  0.3698 -0.3733
  894TIP3    H1 2688   0.578   1.995   1.273  0.2914  0.7005 -0.8634
  894TIP3    H2 2689   0.648   1.969   1.405 -0.4681  0.1359 -0.5661
  895TIP3   OH2 2690   3.941   5.601   4.193  0.0082  0.1069 -0.5475
  895TIP3    H1 2691   3.947   5.605   4.288  0.6083 -0.3213 -0.5607
  895TIP3    H2 2692   3.921   5.690   4.166  0.4125  0.3522 -0.0518
  896TIP3   OH2 2693   3.871   5.598   1.122 -0.1795  0.4961  0.2141
  896TIP3    H1 2694   3.909   5.685   1.139 -1.1743  0.4740  3.1331
  896TIP3    H2 2695   3.777   5.610   1.137 -0.4685 -0.8748 -0.3776
  897TIP3   OH2 2696   1.217   5.642   2.958  0.2649 -1.0097  0.3156
  897TIP3    H1 2697   1.214   5.557   3.001 -1.9926 -0.2092  1.9825
  897TIP3    H2 2698   1.271   5.696   3.015 -1.9257 -0.2160  1.7841
  898TIP3   OH2 2699   4.411   4.083   1.703  0.5432  0.7874  0.1861
  898TIP3    H1 2700   4.493   4.056   1.663  0.4723  1.6650 -0.5944
  898TIP3    H2 2701   4.411   4.178   1.695 -0.2875  0.8369  0.6917
  899TIP3   OH2 2702   0.484   3.734   1.184  0.2536  0.6071 -0.0838
  899TIP3    H1 2703   0.555   3.679   1.150  0.0580  0.6206 -0.5248
  899TIP3    H2 2704   0.421   3.673   1.221 -0.0559  0.5164 -0.7491
  900TIP3   OH2 2705   5.888   3.226   3.414  0.5604  0.2977 -0.0749
  900TIP3    H1 2706   5.844   3.233   3.498 -1.5321  1.7191 -1.2126
  900TIP3    H2 2707   5.910   3.316   3.390  0.3059  0.0292 -1.4541
  901TIP3   OH2 2708   3.623   1.076   0.756  0.0569 -0.0910  0.4335
  901TIP3    H1 2709   3.693   1.012   0.765 -0.5035 -0.6061  1.2289
  901TIP3    H2 2710   3.602   1.102   0.846  0.0451  0.9584  0.1449
  902TIP3   OH2 2711   0.597   3.779   3.383  0.2033  0.7935  0.2649
  902TIP3    H1 2712   0.549   3.825   3.315  0.3411  0.5215 -0.0213
  902TIP3    H2 2713   0.569   3.820   3.465 -1.6246 -0.2923  0.2398
  903TIP3   OH2 2714   4.752   4.594   0.852 -0.6900 -0.6785  0.2970
  903TIP3    H1 2715   4.778   4.568   0.940  0.3912  1.4676  0.6891
  903TIP3    H2 2716   4.808   4.543   0.794  1.0557  0.3564  1.0026
  904TIP3   OH2 2717   0.916   3.247   3.031 -0.0664 -0.1467  0.3590
  904TIP3    H1 2718   0.851   3.313   3.055 -0.7831 -0.2200 -1.2379
  904TIP3    H2 2719   0.988   3.296   2.991 -1.0147 -0.3276 -1.7089
  905TIP3   OH2 2720   3.919   3.830   0.662 -0.5049  1.3376  0.1573
  905TIP3    H1 2721   3.931   3.887   0.586  0.4129  1.5847  0.4870
  905TIP3    H2 2722   3.974   3.867   0.730  1.2560 -0.7251 -0.0465
  906TIP3   OH2 2723   3.541   2.821   1.256  0.2151 -0.1219  0.1844
  906TIP3    H1 2724   3.500   2.907   1.247  0.5671 -0.0255 -0.5114
  906TIP3    H2 2725   3.484   2.774   1.318  0.3334  0.8027  1.0305
  907TIP3   OH2 2726   0.330   4.171   1.298  0.5097 -0.0768 -0.3452
  907TIP3    H1 2727   0.286   4.111   1.358 -0.2084  1.0871  0.3273
  907TIP3    H2 2728   0.329   4.126   1.213 -0.0134 -1.0017  0.1443
  908TIP3   OH2 2729   4.789   0.321   2.669  0.2129 -0.1376 -0.3496
  908TIP3    H1 2730   4.879   0.289   2.657  0.1911 -0.1545 -0.4732
  908TIP3    H2 2731   4.743   0.249   2.710  0.4098  0.0957  0.2909
  909TIP3   OH2 2732  -0.014   5.482   1.818  0.3681  0.2303  0.1823
  909TIP3    H1 2733   0.019   5.473   1.728 -0.4348 -1.3341  0.0218
  909TIP3    H2 2734   0.036   5.556   1.854  1.5029  0.1711 -1.1753
  910TIP3   OH2 2735   3.637   5.375   1.721 -0.1466 -0.4153  0.0501
  910TIP3    H1 2736   3.601   5.306   1.777  0.3200 -0.2151  0.6080
  910TIP3    H2 2737   3.729   5.380   1.746  0.2237 -0.7484 -1.1800
  911TIP3   OH2 2738   0.432   1.016   0.562 -0.5394 -0.2532 -0.2409
  911TIP3    H1 2739   0.368   1.012   0.633  0.2140 -1.2986  0.4142
  911TIP3    H2 2740   0.462   1.107   0.562 -1.0643 -0.0716  0.3081
  912TIP3   OH2 2741   0.999   5.737   2.133 -0.5081 -0.2143 -0.3903
  912TIP3    H1 2742   0.979   5.645   2.116 -2.2461 -0.0887  0.7118
  912TIP3    H2 2743   0.922   5.770   2.179 -0.2964  2.0357 -1.5328
  913TIP3   OH2 2744   2.375   3.900   1.398  0.3839 -0.1244 -0.0241
  913TIP3    H1 2745   2.335   3.827   1.447  0.5933 -0.7126 -0.7051
  913TIP3    H2 2746   2.437   3.857   1.339 -0.2248  0.5170 -1.1528
  914TIP3   OH2 2747   4.606   3.881   1.934  0.0930  0.4497 -0.0225
  914TIP3    H1 2748   4.630   3.839   1.852 -0.0612  2.4201 -1.1463
  914TIP3    H2 2749   4.687   3.883   1.985  1.0038  1.9232 -1.4286
  915TIP3   OH2 2750   3.644   5.633   2.533  0.1010 -0.4734 -0.0893
  915TIP3    H1 2751   3.734   5.627   2.502  0.4193  0.2023  0.6893
  915TIP3    H2 2752   3.644   5.704   2.596 -0.0678 -3.0476  3.0674
  916TIP3   OH2 2753   3.101   2.457   3.045  0.1779 -0.0427  0.2566
  916TIP3    H1 2754   3.048   2.498   2.977  0.4714  1.9280  1.1476
  916TIP3    H2 2755   3.178   2.513   3.052 -0.1605  0.2402  2.6554
  917TIP3   OH2 2756   3.822   2.317   3.464  0.1903  0.1176 -0.0710
  917TIP3    H1 2757   3.758   2.388   3.474  1.5562  1.2368  1.2342
  917TIP3    H2 2758   3.900   2.360   3.430  0.7369 -0.9589 -0.2152
  918TIP3   OH2 2759   4.087   4.177   3.420  0.0406 -0.4365  0.2353
  918TIP3    H1 2760   4.037   4.113   3.470  0.7521 -1.6689 -0.5752
  918TIP3    H2 2761   4.176   4.171   3.456 -0.1695  1.1550  1.1244
  919TIP3   OH2 2762   0.121   3.833   1.759  0.2118  0.6364  0.1695
  919TIP3    H1 2763   0.086   3.893   1.825 -1.7200  0.5101 -0.7003
  919TIP3    H2 2764   0.106   3.746   1.796 -2.6052  0.4630 -1.1310
  920TIP3   OH2 2765   1.326   3.579   4.368 -0.6480 -0.0217  0.0293
  920TIP3    H1 2766   1.256   3.612   4.423  0.2468  2.6260 -0.2963
  920TIP3    H2 2767   1.332   3.641   4.295  1.2749 -0.8056 -0.5620
  921TIP3   OH2 2768   4.656   4.817   4.737  0.4530  0.0668 -0.0644
  921TIP3    H1 2769   4.670   4.743   4.679  1.6531  0.4197 -0.2593
  921TIP3    H2 2770   4.716   4.803   4.810 -1.5463 -0.7410  1.5029
  922TIP3   OH2 2771   0.942   5.226   5.069 -0.1353  0.6119  0.5417
  922TIP3    H1 2772   0.902   5.283   5.134 -0.8749  0.6083  0.0968
  922TIP3    H2 2773   0.868   5.183   5.026  0.3600  0.3607 -0.0707
  923TIP3   OH2 2774   3.072   5.527   3.140 -0.0654  0.0943 -0.0237
  923TIP3    H1 2775   3.119   5.565   3.215  0.6840  2.0238 -1.3950
  923TIP3    H2 2776   2.980   5.550   3.156 -0.0848 -0.5718  0.8932
  924TIP3   OH2 2777   5.851   2.634   0.733  0.3873 -0.1174 -0.5240
  924TIP3    H1 2778   5.891   2.555   0.771 -0.5968 -0.8069 -0.8502
  924TIP3    H2 2779   5.758   2.610   0.724  0.2109  0.8313 -1.3003
  925TIP3   OH2 2780   2.102   4.713   0.850  0.0798  0.5109  0.0846
  925TIP3    H1 2781   2.168   4.656   0.890  0.4735  0.5182 -0.5468
  925TIP3    H2 2782   2.123   4.800   0.883  1.8626  0.9124 -1.9209
  926TIP3   OH2 2783   2.714   1.062   0.074  0.0933 -0.1801  0.1433
  926TIP3    H1 2784   2.804   1.071   0.042 -0.2917 -2.2098 -1.7985
  926TIP3    H2 2785   2.660   1.104   0.007 -0.5164 -0.9374  0.1432
  927TIP3   OH2 2786   2.133   4.782   1.557  0.0409  0.0998 -0.1716
  927TIP3    H1 2787   2.211   4.768   1.503  0.0464 -1.2617  0.1694
  927TIP3    H2 2788   2.140   4.718   1.628 -0.1420  1.6094  1.2829
  928TIP3   OH2 2789   6.260   5.574   1.131 -0.2871 -0.0608 -0.0250
  928TIP3    H1 2790   6.318   5.650   1.118 -0.3116  0.3624  2.0822
  928TIP3    H2 2791   6.185   5.609   1.178 -0.6131 -1.2656  0.3747
  929TIP3   OH2 2792   2.792   4.403   2.505  0.3981 -0.1270  0.2915
  929TIP3    H1 2793   2.787   4.471   2.438  0.2143 -0.7603 -0.3532
  929TIP3    H2 2794   2.866   4.348   2.477 -1.1417 -1.7788 -0.7394
  930TIP3   OH2 2795   5.768   4.989   2.242  0.4431  0.1924  0.2687
  930TIP3    H1 2796   5.813   5.044   2.178 -1.0369  0.8333 -0.2527
  930TIP3    H2 2797   5.839   4.943   2.287  1.5635  0.0744 -1.4922
  931TIP3   OH2 2798   2.000   0.858   3.753 -0.5445  0.7977  0.3778
  931TIP3    H1 2799   2.058   0.932   3.735 -0.4728  0.7092  0.2459
  931TIP3    H2 2800   1.996   0.810   3.671 -1.4083  1.2161  0.1648
  932TIP3   OH2 2801   5.202   4.432   4.562 -0.1061 -0.1990  0.3183
  932TIP3    H1 2802   5.153   4.511   4.584 -3.3297 -1.3533 -1.8304
  932TIP3    H2 2803   5.162   4.364   4.616  1.1235 -0.7340  0.5706
  933TIP3   OH2 2804   1.261   5.117   0.744 -0.0705  0.0465 -0.1283
  933TIP3    H1 2805   1.288   5.032   0.709 -0.0737  0.4635 -1.1807
  933TIP3    H2 2806   1.176   5.133   0.704 -1.0541 -0.3746  1.6699
  934TIP3   OH2 2807   1.902   0.159   2.711 -0.3171 -0.7418  0.2071
  934TIP3    H1 2808   1.820   0.195   2.677 -0.0907  0.4753  0.8742
  934TIP3    H2 2809   1.879   0.125   2.798  0.0247  0.3844  0.7648
  935TIP3   OH2 2810   4.172   4.160   0.326 -0.0287 -0.3218  0.2796
  935TIP3    H1 2811   4.129   4.192   0.405 -0.3565 -0.1809  0.0474
  935TIP3    H2 2812   4.197   4.070   0.346  1.1307  0.1429  1.0356
  936TIP3   OH2 2813   4.268   2.246   3.556 -0.7455  0.4065 -0.4925
  936TIP3    H1 2814   4.206   2.197   3.610  0.6078 -0.9758 -0.1188
  936TIP3    H2 2815   4.235   2.235   3.466 -1.5325  0.4558 -0.2161
  937TIP3   OH2 2816   3.987   3.649   3.299  0.3208  0.1947 -0.3588
  937TIP3    H1 2817   4.043   3.571   3.298  0.1066  0.0308  0.0999
  937TIP3    H2 2818   4.047   3.722   3.309  0.4206 -0.0299  0.8868
  938TIP3   OH2 2819   4.832   4.506   1.313  0.5170  0.7386 -0.2533
  938TIP3    H1 2820   4.830   4.504   1.409 -0.2039  1.0946 -0.2528
  938TIP3    H2 2821   4.742   4.489   1.287  0.8237  0.0489 -0.8903
  939TIP3   OH2 2822   0.352   1.260   3.686  0.1853  0.1474  0.5081
  939TIP3    H1 2823   0.414   1.331   3.668  0.0611  0.0768 -0.1966
  939TIP3    H2 2824   0.404   1.194   3.733  0.9671 -0.4554 -1.1410
  940TIP3   OH2 2825   2.955   5.571   3.672  0.2441  0.1275 -0.3989
  940TIP3    H1 2826   2.905   5.639   3.627  0.5124 -0.5181 -1.7199
  940TIP3    H2 2827   2.956   5.599   3.763 -0.4586  1.3985 -0.7507
  941TIP3   OH2 2828   4.150   1.262   4.960  0.2934  0.3661  0.0747
  941TIP3    H1 2829   4.156   1.335   5.022  0.3489 -0.4575  1.0687
  941TIP3    H2 2830   4.240   1.232   4.950  0.2448  0.2987 -0.1595
  942TIP3   OH2 2831   1.263   5.188   5.166 -0.2212  0.2500 -0.3529
  942TIP3    H1 2832   1.223   5.110   5.127 -0.2336  1.0644 -2.0838
  942TIP3    H2 2833   1.276   5.248   5.092  2.9007  0.6006  0.3266
  943TIP3   OH2 2834   2.225   2.141   1.765  0.1080  0.0466  0.0413
  943TIP3    H1 2835   2.265   2.059   1.736 -0.7697 -0.5733  0.5432
  943TIP3    H2 2836   2.164   2.115   1.833 -1.6828  0.8737 -1.1728
  944TIP3   OH2 2837   0.207   1.319   1.785 -0.1590  0.2030  0.3533
  944TIP3    H1 2838   0.209   1.414   1.781 -0.4390  0.1953 -0.1314
  944TIP3    H2 2839   0.134   1.294   1.728  1.2488 -0.3789 -1.2836
  945TIP3   OH2 2840   5.868   3.587   3.691 -0.4395  0.1317  0.3508
  945TIP3    H1 2841   5.834   3.510   3.646  0.4736  0.1290 -0.3694
  945TIP3    H2 2842   5.844   3.574   3.783 -2.9159  0.4474 -0.1682
  946TIP3   OH2 2843   0.559   5.076   0.504 -0.2467  0.4380  0.3524
  946TIP3    H1 2844   0.520   4.993   0.480  0.5476  0.2390 -0.2957
  946TIP3    H2 2845   0.618   5.097   0.431  1.4662  0.3230  1.6328
  947TIP3   OH2 2846   4.344   2.648   1.103  0.6886 -0.1190  0.3964
  947TIP3    H1 2847   4.433   2.629   1.076  0.5110 -1.1018  0.4623
  947TIP3    H2 2848   4.298   2.564   1.098 -0.5844  0.5982 -0.9422
  948TIP3   OH2 2849   1.290   2.227   2.091 -0.1243  0.1591 -0.1945
  948TIP3    H1 2850   1.242   2.305   2.065  0.5728  0.8142  0.4401
  948TIP3    H2 2851   1.308   2.239   2.184  0.6848 -0.3772 -0.2711
  949TIP3   OH2 2852   4.222   4.135   1.029  0.1112 -0.0122 -0.2039
  949TIP3    H1 2853   4.285   4.161   0.962 -1.3481  2.7238 -0.7081
  949TIP3    H2 2854   4.273   4.128   1.110  0.9927  3.7554 -0.2421
  950TIP3   OH2 2855   6.089   3.916   0.978 -0.1215  0.2276 -0.6734
  950TIP3    H1 2856   6.170   3.867   0.966  1.0450  2.2917 -1.7851
  950TIP3    H2 2857   6.089   3.940   1.071  0.6277  0.3773 -0.7066
  951TIP3   OH2 2858   2.479   4.247   2.535 -0.0888  0.3231  0.7104
  951TIP3    H1 2859   2.423   4.316   2.570  0.5038  1.3439 -0.2800
  951TIP3    H2 2860   2.534   4.220   2.608 -0.4173  0.8182  1.1431
  952TIP3   OH2 2861   5.117   5.604   3.132  0.2338 -0.5470 -0.1403
  952TIP3    H1 2862   5.201   5.560   3.128 -0.7285 -2.6861  1.2930
  952TIP3    H2 2863   5.059   5.552   3.076 -0.4529  0.1113 -0.0704
  953TIP3   OH2 2864   4.896   3.181   3.228 -0.4337 -0.2177  0.3125
  953TIP3    H1 2865   4.822   3.232   3.259  0.0879  0.4491  0.4888
  953TIP3    H2 2866   4.894   3.100   3.280 -1.2356 -0.3638  0.0654
  954TIP3   OH2 2867   2.055   4.314   0.857 -0.3098 -0.1532  0.5473
  954TIP3    H1 2868   2.005   4.345   0.933 -0.8362 -0.5178  0.3538
  954TIP3    H2 2869   2.022   4.226   0.841  1.1623 -0.8339  1.0729
  955TIP3   OH2 2870   3.001   1.492   1.538  0.1676 -0.1039  0.0048
  955TIP3    H1 2871   2.931   1.542   1.496 -2.2809 -0.4707  3.2658
  955TIP3    H2 2872   3.061   1.559   1.570  1.4402  0.2227 -2.7184
  956TIP3   OH2 2873   1.484   5.631   0.286 -0.0527 -0.0221 -0.1661
  956TIP3    H1 2874   1.498   5.637   0.380  2.0322  0.0173 -0.4261
  956TIP3    H2 2875   1.509   5.541   0.264 -0.9175 -0.1578 -0.6303
  957TIP3   OH2 2876   3.180   5.182   1.683 -0.3366  0.2369  0.1337
  957TIP3    H1 2877   3.213   5.131   1.757  1.7226  1.8461  0.4124
  957TIP3    H2 2878   3.175   5.119   1.611 -1.5951 -1.1721  1.3847
  958TIP3   OH2 2879   0.184   1.329   0.796 -0.6190 -0.0882  0.4489
  958TIP3    H1 2880   0.217   1.298   0.712 -1.7664 -2.7599  0.8719
  958TIP3    H2 2881   0.098   1.368   0.775 -0.8186 -0.5765  0.3553
  959TIP3   OH2 2882   3.923   1.702   4.958  0.5243  0.0331  0.0734
  959TIP3    H1 2883   3.906   1.751   5.039 -0.0903 -0.0527 -0.0023
  959TIP3    H2 2884   3.922   1.610   4.984 -1.8579 -0.1296 -0.3856
  960TIP3   OH2 2885   3.257   3.647   1.661 -0.5694 -0.4672 -0.2169
  960TIP3    H1 2886   3.265   3.686   1.574 -1.9494  1.1027  0.3111
  960TIP3    H2 2887   3.272   3.720   1.721  0.5911 -1.5712  0.9023
  961TIP3   OH2 2888   6.058   4.147   0.521  0.0283  0.2321  0.3243
  961TIP3    H1 2889   5.996   4.143   0.594  0.8835  0.3792  1.0776
  961TIP3    H2 2890   6.045   4.065   0.473 -0.7566  0.2765  0.4538
  962TIP3   OH2 2891   5.582   2.887   1.945 -0.0998 -0.4475 -0.2960
  962TIP3    H1 2892   5.642   2.960   1.963 -1.4539  0.9297 -1.1290
  962TIP3    H2 2893   5.599   2.865   1.853 -0.6325 -0.2713 -0.4376
  963TIP3   OH2 2894   4.522   2.104   4.192  0.6020  0.2233  0.1210
  963TIP3    H1 2895   4.610   2.076   4.167  0.1159 -1.6221  0.3232
  963TIP3    H2 2896   4.519   2.091   4.287 -0.5242 -1.8284 -0.1285
  964TIP3   OH2 2897   3.616   0.106   4.350  0.4973  0.7356  0.1540
  964TIP3    H1 2898   3.675   0.106   4.275  0.7235  1.9428  0.3008
  964TIP3    H2 2899   3.547   0.168   4.326  0.4345  0.9401  0.8327
  965TIP3   OH2 2900   1.226   2.660   3.856 -0.5593  0.6269 -0.2994
  965TIP3    H1 2901   1.282   2.583   3.863 -0.1041  1.0106  0.2916
  965TIP3    H2 2902   1.186   2.653   3.769 -0.0304  0.0582 -0.4972
  966TIP3   OH2 2903   3.437   2.279   5.102 -0.6708 -0.0416 -0.6071
  966TIP3    H1 2904   3.492   2.215   5.056 -0.0890  0.1938 -0.2499
  966TIP3    H2 2905   3.401   2.334   5.033 -0.6106 -0.3145 -0.8597
  967TIP3   OH2 2906   3.375   1.442   4.000 -0.5749  0.3597 -0.6805
  967TIP3    H1 2907   3.417   1.488   4.073 -0.1765 -1.8488  0.5751
  967TIP3    H2 2908   3.407   1.486   3.922 -0.2176  2.1610  0.4312
  968TIP3   OH2 2909   1.791   5.787   0.284  0.2766  0.5201  0.6585
  968TIP3    H1 2910   1.882   5.758   0.293 -0.3223 -1.6207  0.2820
  968TIP3    H2 2911   1.751   5.769   0.370 -0.7212 -2.2805 -0.2905
  969TIP3   OH2 2912   2.011   4.283   4.880  0.1839 -0.2366 -0.5870
  969TIP3    H1 2913   2.100   4.275   4.915  0.1661  0.2007 -0.4301
  969TIP3    H2 2914   1.956   4.237   4.942  0.3693 -1.0589 -1.0118
  970TIP3   OH2 2915   6.045   3.001   3.381  0.1994  0.5191 -0.2185
  970TIP3    H1 2916   6.098   3.015   3.302 -1.3327 -0.6827 -1.5592
  970TIP3    H2 2917   6.010   3.088   3.402  2.0681  1.1855  0.2618
  971TIP3   OH2 2918   2.316   1.133   0.652 -0.0248  0.1504  0.9354
  971TIP3    H1 2919   2.334   1.096   0.566  2.7531 -1.0548  1.8940
  971TIP3    H2 2920   2.244   1.080   0.687 -0.7580  0.2554 -0.3737
  972TIP3   OH2 2921   4.042   4.995   0.934 -0.1570  0.0474 -0.3373
  972TIP3    H1 2922   4.051   4.913   0.982  1.8046 -1.8935 -3.5907
  972TIP3    H2 2923   4.130   5.034   0.936 -1.1974  2.5612  1.7157
  973TIP3   OH2 2924   4.104   4.361   2.800 -0.3994  0.3183 -0.1540
  973TIP3    H1 2925   4.097   4.284   2.857  1.3743  0.2816  0.0727
  973TIP3    H2 2926   4.016   4.372   2.764 -0.8068 -1.5460  0.1528
  974TIP3   OH2 2927   5.256   1.188   0.307  0.1491  0.7669 -0.4653
  974TIP3    H1 2928   5.247   1.251   0.235  1.8986  2.3010  0.5675
  974TIP3    H2 2929   5.345   1.153   0.298  0.3317  0.8492  0.8137
  975TIP3   OH2 2930   1.942   0.867   1.785 -0.0874  0.1180 -0.4181
  975TIP3    H1 2931   2.012   0.878   1.850  1.9357  1.3069 -2.6446
  975TIP3    H2 2932   1.987   0.840   1.705 -2.2760  0.2566 -1.7832
  976TIP3   OH2 2933   3.708   4.548   1.568  0.2589 -0.3997 -0.1313
  976TIP3    H1 2934   3.613   4.542   1.576  0.3485 -0.2940  1.3189
  976TIP3    H2 2935   3.728   4.640   1.587  0.6811 -0.4936 -0.1078
  977TIP3   OH2 2936   5.904   5.880   1.840  0.0714  0.0657  0.5853
  977TIP3    H1 2937   5.895   5.870   1.935  1.1000  0.3274  0.7268
  977TIP3    H2 2938   5.888   5.974   1.825  0.1504  0.0708  0.5329
  978TIP3   OH2 2939   3.896   1.834   1.502  0.0318  0.4592 -0.6630
  978TIP3    H1 2940   3.836   1.870   1.436 -0.6070  1.6892  0.5457
  978TIP3    H2 2941   3.888   1.894   1.577  1.8518 -0.0556 -0.0111
  979TIP3   OH2 2942   4.846   2.197   2.710 -0.0158 -0.1855 -0.2751
  979TIP3    H1 2943   4.897   2.253   2.651  3.0584 -0.3172  2.0203
  979TIP3    H2 2944   4.881   2.109   2.697 -1.8976 -0.9021 -0.8331
  980TIP3   OH2 2945   5.454   2.649   1.668  0.5565 -0.3621  0.2601
  980TIP3    H1 2946   5.426   2.561   1.690  1.0668 -0.3912  0.8003
  980TIP3    H2 2947   5.438   2.657   1.574 -2.7668  0.1523  0.7343
  981TIP3   OH2 2948   1.190   3.637   4.644 -0.1283  0.0025  0.6695
  981TIP3    H1 2949   1.270   3.656   4.693  0.3277 -0.2055  0.0207
  981TIP3    H2 2950   1.126   3.700   4.677  0.7681  1.2937  0.0528
  982TIP3   OH2 2951   0.091   5.996   4.725  0.2459  0.4252 -0.1378
  982TIP3    H1 2952   0.102   5.985   4.630  0.7490 -0.6960  0.0367
  982TIP3    H2 2953   0.006   5.956   4.743  0.8869 -0.8635  0.1108
  983TIP3   OH2 2954   4.317   5.938   3.099 -0.6111 -0.4254 -0.0484
  983TIP3    H1 2955   4.235   5.985   3.082 -0.3425 -0.1178 -0.5014
  983TIP3    H2 2956   4.377   5.968   3.031  0.4988  0.8554  1.4116
  984TIP3   OH2 2957   2.023   5.795   4.689  0.3612 -0.3353 -0.1601
  984TIP3    H1 2958   1.968   5.726   4.727 -0.4995  0.5786  0.3324
  984TIP3    H2 2959   2.103   5.794   4.741 -0.0378 -0.3498  0.4695
  985TIP3   OH2 2960   1.871   4.473   1.333  0.7121 -0.2894 -0.0863
  985TIP3    H1 2961   1.804   4.414   1.299  1.2733 -0.4480 -0.9651
  985TIP3    H2 2962   1.823   4.539   1.383 -0.1584 -0.0952 -1.1476
  986TIP3   OH2 2963   4.780   4.078   4.864 -0.3232  0.0388 -0.7116
  986TIP3    H1 2964   4.808   4.156   4.816 -1.0872 -0.5360 -2.1614
  986TIP3    H2 2965   4.856   4.053   4.916 -0.6383  2.8061  1.2916
  987TIP3   OH2 2966   4.644   5.800   3.180  0.6952 -0.0844  0.2738
  987TIP3    H1 2967   4.656   5.875   3.238 -1.2835  0.4888  0.0026
  987TIP3    H2 2968   4.656   5.836   3.092 -1.1868  0.1863  0.0818
  988TIP3   OH2 2969   5.583   3.515   1.434 -0.3054  0.2197  0.0426
  988TIP3    H1 2970   5.582   3.455   1.360 -1.5342  1.2973 -0.8602
  988TIP3    H2 2971   5.671   3.505   1.471 -0.5631 -2.3208  0.1335
  989TIP3   OH2 2972   1.122   2.015   4.714  0.0381  0.0250  0.2123
  989TIP3    H1 2973   1.028   2.000   4.711 -0.2565  1.7277 -0.5187
  989TIP3    H2 2974   1.143   2.016   4.808 -0.4635 -1.3842  0.3592
  990TIP3   OH2 2975   5.982   3.505   4.480 -0.5311  0.2302 -0.6583
  990TIP3    H1 2976   5.927   3.428   4.495 -0.1029 -0.1577 -1.0555
  990TIP3    H2 2977   5.949   3.570   4.542 -0.9289 -0.2545 -0.3539
  991TIP3   OH2 2978   1.860   1.071   2.468 -0.4669 -0.0940  0.3591
  991TIP3    H1 2979   1.811   1.054   2.548 -1.3177 -1.1748 -0.3546
  991TIP3    H2 2980   1.800   1.121   2.413 -0.5265 -0.8061 -0.2453
  992TIP3   OH2 2981   3.758   2.208   2.360  0.2406 -0.6803  0.0016
  992TIP3    H1 2982   3.717   2.249   2.436 -0.8501  0.1614 -1.0032
  992TIP3    H2 2983   3.844   2.250   2.354  0.4017 -0.8665  0.8388
  993TIP3   OH2 2984   6.157   4.210   2.742 -0.2445 -0.2132  0.1864
  993TIP3    H1 2985   6.101   4.280   2.708 -1.2063 -1.3981 -0.7611
  993TIP3    H2 2986   6.141   4.210   2.836 -1.3288 -0.0971  0.0096
  994TIP3   OH2 2987   3.294   2.678   3.335  0.5814 -0.5758  0.0459
  994TIP3    H1 2988   3.205   2.711   3.325  0.9221 -0.0659 -1.7487
  994TIP3    H2 2989   3.284   2.585   3.350 -0.2702 -0.9268 -2.2578
  995TIP3   OH2 2990   5.266   3.005   0.700  0.1800  0.6484 -0.1296
  995TIP3    H1 2991   5.213   3.073   0.739 -0.7841 -0.2759  0.2183
  995TIP3    H2 2992   5.290   2.947   0.773  1.5937  0.9781 -0.2900
  996TIP3   OH2 2993   2.541   1.759   0.902 -0.2456  0.2440  0.1109
  996TIP3    H1 2994   2.588   1.840   0.921 -1.2766  0.9457 -0.2233
  996TIP3    H2 2995   2.489   1.780   0.824  0.6321 -1.2193 -0.9158
  997TIP3   OH2 2996   1.611   1.974   4.233 -0.7370  0.0085 -0.0627
  997TIP3    H1 2997   1.664   1.955   4.155 -0.1798  2.9048 -0.5078
  997TIP3    H2 2998   1.671   2.017   4.293 -1.7169 -0.0662  1.0105
  998TIP3   OH2 2999   5.300   2.134   3.343 -0.1699 -0.1628  0.1096
  998TIP3    H1 3000   5.334   2.216   3.308  0.6045 -0.5251 -0.0145
  998TIP3    H2 3001   5.235   2.160   3.408 -1.4368  0.5295 -1.3764
  999TIP3   OH2 3002   3.434   5.346   3.943  0.2475 -0.2014 -0.1448
  999TIP3    H1 3003   3.430   5.251   3.930 -0.1971 -0.0263 -1.3980
  999TIP3    H2 3004   3.418   5.358   4.037  0.2452 -1.3556  0.0192
 1000TIP3   OH2 3005   1.178   5.378   0.317 -0.5356  0.3455 -0.0756
 1000TIP3    H1 3006   1.086   5.372   0.342 -0.2589  1.6612  1.4461
 1000TIP3    H2 3007   1.226   5.374   0.400  0.7745  0.1220 -0.8003
 1001TIP3   OH2 3008   1.415   5.768   5.009 -0.5070 -0.6459 -0.1047
 1001TIP3    H1 3009   1.339   5.812   4.970  0.4152  1.1228  0.0013
 1001TIP3    H2 3010   1.410   5.789   5.102 -0.0200 -0.7402 -0.0563
 1002TIP3   OH2 3011   3.047   3.056   1.280  0.2311 -0.6432  0.2786
 1002TIP3    H1 3012   3.089   2.973   1.303 -0.0128 -1.2947 -1.4839
 1002TIP3    H2 3013   3.023   3.094   1.364  1.4304 -1.7767  1.1895
 1003TIP3   OH2 3014   2.129   4.671   4.117  0.2967 -0.3752  0.1256
 1003TIP3    H1 3015   2.156   4.753   4.076 -0.5347 -0.4037 -0.5047
 1003TIP3    H2 3016   2.129   4.691   4.211  3.2598 -0.6312  0.2679
 1004TIP3   OH2 3017   5.207   2.108   1.350 -0.0942 -0.2873 -0.0599
 1004TIP3    H1 3018   5.217   2.105   1.445  0.4215  0.7276 -0.0718
 1004TIP3    H2 3019   5.294   2.128   1.317  0.0482 -2.0164 -0.8522
 1005TIP3   OH2 3020   5.981   5.943   1.177  0.5060 -0.0992 -0.2295
 1005TIP3    H1 3021   5.962   5.886   1.252 -2.1312  2.0306  0.9081
 1005TIP3    H2 3022   5.959   5.890   1.101  0.4855 -1.3989  0.6461
 1006TIP3   OH2 3023   0.149   2.184   2.786 -0.4674  0.0028 -0.5794
 1006TIP3    H1 3024   0.072   2.211   2.737  0.0117  1.5608 -0.5099
 1006TIP3    H2 3025   0.120   2.107   2.835 -1.4043 -0.6374 -2.0439
 1007TIP3   OH2 3026   5.706   5.097   3.072 -0.4098 -0.2552  0.2009
 1007TIP3    H1 3027   5.764   5.152   3.021  0.1936 -0.7384  0.3461
 1007TIP3    H2 3028   5.756   5.076   3.151 -0.9443 -0.3298  0.5246
 1008TIP3   OH2 3029   5.644   2.734   2.181 -0.9126 -0.3490 -0.8114
 1008TIP3    H1 3030   5.642   2.800   2.111  2.4890 -0.5419 -1.3047
 1008TIP3    H2 3031   5.641   2.785   2.262  2.0644  0.6185 -1.1765
 1009TIP3   OH2 3032   1.758   5.351   0.584  0.6092 -0.0654  0.2316
 1009TIP3    H1 3033   1.810   5.422   0.621  0.3628  0.1471  0.1706
 1009TIP3    H2 3034   1.800   5.332   0.500 -0.5150  1.3784 -0.6957
 1010TIP3   OH2 3035   1.553   1.137   1.641  0.3642  0.7422  0.0109
 1010TIP3    H1 3036   1.487   1.120   1.574 -0.5319 -0.7234  1.2170
 1010TIP3    H2 3037   1.633   1.098   1.605 -0.3468 -0.9909  0.1975
 1011TIP3   OH2 3038   4.896   1.183   1.053 -0.0860  0.0689  0.3443
 1011TIP3    H1 3039   4.970   1.232   1.015 -0.1900  1.0555  1.3798
 1011TIP3    H2 3040   4.918   1.175   1.146 -1.3486  0.5163  0.6994
 1012TIP3   OH2 3041   5.892   5.841   0.923  0.2197 -0.4025  0.5575
 1012TIP3    H1 3042   5.821   5.848   0.860 -0.0585 -0.3923  0.8674
 1012TIP3    H2 3043   5.929   5.753   0.909  0.4296 -0.2442  0.1037
 1013TIP3   OH2 3044   4.239   2.751   4.645  0.0480 -0.3018  0.1949
 1013TIP3    H1 3045   4.176   2.680   4.651 -2.0651  1.2647 -1.5455
 1013TIP3    H2 3046   4.276   2.744   4.557  0.9359 -0.1045  0.5380
 1014TIP3   OH2 3047   5.980   1.202   1.742  0.1977 -0.1951  0.4344
 1014TIP3    H1 3048   6.005   1.224   1.831  0.2684 -2.2716  0.9740
 1014TIP3    H2 3049   5.888   1.177   1.748 -0.4202  1.6630 -0.4908
 1015TIP3   OH2 3050   4.686   4.003   0.778  0.3557  0.1705  0.4951
 1015TIP3    H1 3051   4.679   3.908   0.782  0.2994  0.1762  0.5483
 1015TIP3    H2 3052   4.765   4.020   0.728 -1.3657  0.1078 -2.4501
 1016TIP3   OH2 3053   5.873   1.566   2.298  0.2371  0.8365  0.3014
 1016TIP3    H1 3054   5.967   1.554   2.305  0.0315  0.0104  2.0103
 1016TIP3    H2 3055   5.842   1.574   2.388 -1.7301 -2.3280  0.0612
 1017TIP3   OH2 3056   3.975   2.115   1.302 -0.1807 -0.4434 -0.3984
 1017TIP3    H1 3057   4.032   2.069   1.240  1.2769  3.1726 -2.0435
 1017TIP3    H2 3058   4.035   2.147   1.370 -0.5878  1.3767 -0.8485
 1018TIP3   OH2 3059   4.819   0.616   0.999 -0.4948 -0.1609  0.5892
 1018TIP3    H1 3060   4.876   0.577   1.066 -0.4595 -0.3786  0.4329
 1018TIP3    H2 3061   4.762   0.545   0.972 -1.3078  0.2218  1.2330
 1019TIP3   OH2 3062   3.095   0.526   1.442  0.2101 -0.2082  0.4201
 1019TIP3    H1 3063   3.073   0.603   1.495 -0.9681 -0.7560  0.7658
 1019TIP3    H2 3064   3.121   0.460   1.506 -1.0617 -0.8221  0.3269
 1020TIP3   OH2 3065   1.542   3.002   2.959  0.5676  0.4119  0.4524
 1020TIP3    H1 3066   1.554   2.977   2.867  0.2400  0.5242  0.3780
 1020TIP3    H2 3067   1.566   3.094   2.962 -0.9080  0.8205  0.1653
 1021TIP3   OH2 3068   5.086   3.518   4.810  0.7579 -0.3839  0.6034
 1021TIP3    H1 3069   5.019   3.449   4.813  0.6346 -0.3447 -0.7764
 1021TIP3    H2 3070   5.062   3.572   4.735  1.8405  0.1591  0.6276
 1022TIP3   OH2 3071   2.734   2.561   3.842 -0.5783 -0.0558  0.1339
 1022TIP3    H1 3072   2.693   2.628   3.897 -0.6342  0.1374 -0.1366
 1022TIP3    H2 3073   2.749   2.606   3.758  1.0181  0.1586  0.5025
 1023TIP3   OH2 3074   2.358   3.429   2.093 -0.4494  0.3305 -0.2317
 1023TIP3    H1 3075   2.416   3.452   2.021  0.8026 -0.6925  0.3995
 1023TIP3    H2 3076   2.364   3.334   2.100  0.8513  0.4958  2.2745
 1024TIP3   OH2 3077   4.317   2.448   2.090  0.4010  0.8173 -0.4566
 1024TIP3    H1 3078   4.319   2.542   2.068  0.4026  0.9637  0.1614
 1024TIP3    H2 3079   4.324   2.445   2.185  0.2456  0.1909 -0.4586
 1025TIP3   OH2 3080   0.966   1.105   2.038  0.1643 -0.4872  0.2770
 1025TIP3    H1 3081   0.905   1.169   2.001  2.4367  1.2706 -0.7314
 1025TIP3    H2 3082   0.936   1.091   2.128 -1.1730  0.9785  0.0925
 1026TIP3   OH2 3083   0.003   2.229   4.980  0.0134  0.0006  1.0075
 1026TIP3    H1 3084   0.064   2.234   5.054  1.9367 -0.6368 -0.4791
 1026TIP3    H2 3085   0.016   2.312   4.933  2.2630 -1.4505 -1.1473
 1027TIP3   OH2 3086   2.733   1.052   3.046 -0.2765 -0.1180  0.9374
 1027TIP3    H1 3087   2.720   1.138   3.085  0.4027  0.5656 -0.2863
 1027TIP3    H2 3088   2.818   1.057   3.003 -1.3800 -0.4529 -1.5005
 1028TIP3   OH2 3089   6.231   1.009   4.834 -0.1428 -0.9462  0.1779
 1028TIP3    H1 3090   6.279   1.060   4.770 -0.3298 -1.2514 -0.2055
 1028TIP3    H2 3091   6.172   1.071   4.875  2.0802 -0.0176  2.2406
 1029TIP3   OH2 3092   4.091   0.824   2.360  0.5731  0.3281 -0.3812
 1029TIP3    H1 3093   4.160   0.780   2.409  0.9090  1.4894  0.2179
 1029TIP3    H2 3094   4.124   0.913   2.346 -0.8007  0.9160 -0.0676
 1030TIP3   OH2 3095   4.859   2.092   4.725 -0.1364  0.0975 -0.3522
 1030TIP3    H1 3096   4.806   2.171   4.738 -1.8196 -1.1981  1.1572
 1030TIP3    H2 3097   4.851   2.073   4.632 -0.1030  1.4002 -0.6482
 1031TIP3   OH2 3098   5.948   1.686   3.102 -0.1320 -0.1769 -0.7970
 1031TIP3    H1 3099   5.862   1.646   3.115 -0.7908  1.6179  0.8598
 1031TIP3    H2 3100   6.010   1.619   3.132 -1.0923 -0.6688  0.1594
 1032TIP3   OH2 3101   2.780   5.871   3.995  0.4451  0.2883 -0.2680
 1032TIP3    H1 3102   2.694   5.830   4.009  0.4109  0.3720 -0.2283
 1032TIP3    H2 3103   2.803   5.907   4.081  0.7769 -0.2146 -0.1412
 1033TIP3   OH2 3104   0.741   0.349   1.534  0.1408 -0.2950 -0.0495
 1033TIP3    H1 3105   0.732   0.443   1.549 -1.9261 -0.1196 -1.8044
 1033TIP3    H2 3106   0.748   0.341   1.438  1.5171 -1.8799  0.1367
 1034TIP3   OH2 3107   3.146   4.166   2.654 -0.1239 -0.6522 -0.1469
 1034TIP3    H1 3108   3.073   4.110   2.627  0.3395 -1.1707 -0.3557
 1034TIP3    H2 3109   3.222   4.108   2.653  0.3000 -0.1121  0.0348
 1035TIP3   OH2 3110   5.356   3.406   3.770 -0.8071 -0.4449  0.9652
 1035TIP3    H1 3111   5.284   3.454   3.730  0.5555  2.5177  1.7743
 1035TIP3    H2 3112   5.343   3.315   3.743 -2.9790  0.5072 -1.5589
 1036TIP3   OH2 3113   4.655   1.331   1.655 -0.4543  0.0881  0.0048
 1036TIP3    H1 3114   4.723   1.268   1.630  2.2628  3.3641 -1.7078
 1036TIP3    H2 3115   4.703   1.411   1.676 -3.7313  2.1086  0.5112
 1037TIP3   OH2 3116   3.772   2.512   4.299 -0.0418 -0.3166 -0.3312
 1037TIP3    H1 3117   3.756   2.425   4.262  1.5820 -1.3273  1.1461
 1037TIP3    H2 3118   3.788   2.568   4.223  2.0948 -2.0559 -1.2851
 1038TIP3   OH2 3119   4.680   4.319   3.983  0.4568 -0.1674  0.3253
 1038TIP3    H1 3120   4.614   4.344   4.046 -1.0835  0.4416 -1.4388
 1038TIP3    H2 3121   4.636   4.325   3.898  2.5575 -0.4811 -0.8615
 1039TIP3   OH2 3122   1.580   1.021   3.606 -0.1937  0.1112  0.5149
 1039TIP3    H1 3123   1.552   1.097   3.556 -0.4097  1.1826  2.1990
 1039TIP3    H2 3124   1.504   0.998   3.660 -0.2008 -1.4410 -0.0966
 1040TIP3   OH2 3125   5.139   5.550   1.485  0.7209 -0.0830 -0.4461
 1040TIP3    H1 3126   5.135   5.642   1.509  0.6766  0.0430 -0.9326
 1040TIP3    H2 3127   5.059   5.535   1.435 -0.0543 -0.7660  0.9222
 1041TIP3   OH2 3128   2.858   5.745   4.229  0.6997 -0.4247  0.3037
 1041TIP3    H1 3129   2.838   5.825   4.277  0.6164 -1.3284  1.8358
 1041TIP3    H2 3130   2.783   5.688   4.244  0.2776 -0.4467 -1.6268
 1042TIP3   OH2 3131   2.974   1.895   4.808  0.2572 -0.1351 -0.0988
 1042TIP3    H1 3132   3.060   1.926   4.779 -0.1056  1.5836  0.5909
 1042TIP3    H2 3133   2.994   1.817   4.860  1.4017  0.2134  0.0276
 1043TIP3   OH2 3134   0.862   1.200   2.455 -0.0214  0.3507  0.1254
 1043TIP3    H1 3135   0.833   1.180   2.365  1.4194  1.1050 -0.5337
 1043TIP3    H2 3136   0.875   1.115   2.495  0.6852 -0.0215 -0.8517
 1044TIP3   OH2 3137   0.994   3.922   0.264  0.5295 -0.3688 -0.6896
 1044TIP3    H1 3138   1.030   3.963   0.185 -1.0008 -1.1395 -1.8199
 1044TIP3    H2 3139   0.914   3.971   0.282  0.6476 -0.4725  0.1435
 1045TIP3   OH2 3140   3.730   3.388   4.604  0.3566  0.1941 -0.3780
 1045TIP3    H1 3141   3.755   3.378   4.696  1.2989  1.4625 -0.4715
 1045TIP3    H2 3142   3.637   3.410   4.606  0.4339  0.4857  0.2907
 1046TIP3   OH2 3143   0.198   3.715   2.499  0.0981  0.1084  0.8976
 1046TIP3    H1 3144   0.107   3.741   2.492 -0.9437 -2.8449  1.8653
 1046TIP3    H2 3145   0.216   3.667   2.418  0.2920 -0.6133  1.3577
 1047TIP3   OH2 3146   4.557   0.718   1.640  0.2999  0.0222  0.1498
 1047TIP3    H1 3147   4.554   0.813   1.652  2.0311  0.3076 -1.1508
 1047TIP3    H2 3148   4.648   0.701   1.615  1.3196 -2.5451  4.5020
 1048TIP3   OH2 3149   1.895   2.435   2.244  0.4497 -0.4181 -0.3694
 1048TIP3    H1 3150   1.813   2.472   2.277  1.1111  1.9277 -1.1461
 1048TIP3    H2 3151   1.888   2.341   2.262 -1.7005 -0.0682  1.0210
 1049TIP3   OH2 3152   0.281   3.914   4.519  0.3009 -0.0757  0.3342
 1049TIP3    H1 3153   0.370   3.937   4.544  0.2863  1.6393 -1.0096
 1049TIP3    H2 3154   0.267   3.827   4.556  2.3206 -0.1400  1.0412
 1050TIP3   OH2 3155   3.390   2.324   4.480  0.2391 -0.4338 -0.3528
 1050TIP3    H1 3156   3.465   2.293   4.429 -1.3304  0.0690 -3.1557
 1050TIP3    H2 3157   3.320   2.262   4.458 -0.5798 -0.0494  1.0697
 1051TIP3   OH2 3158   6.176   0.656   1.698 -0.0971 -0.0567  0.0675
 1051TIP3    H1 3159   6.173   0.752   1.697  0.3081  0.0240  2.0991
 1051TIP3    H2 3160   6.085   0.629   1.685 -0.2657  0.6150 -0.1923
 1052TIP3   OH2 3161   2.429   2.787   2.756  0.4606  0.5082  0.1925
 1052TIP3    H1 3162   2.336   2.764   2.757  0.5378 -0.1086 -1.9696
 1052TIP3    H2 3163   2.457   2.779   2.847 -1.3904 -0.1523  0.7391
 1053TIP3   OH2 3164   3.457   5.934   1.589 -0.0195  0.2531  0.0559
 1053TIP3    H1 3165   3.543   5.896   1.573 -0.7597 -1.0923 -0.9456
 1053TIP3    H2 3166   3.400   5.859   1.606 -1.2192  1.0270 -0.3866
 1054TIP3   OH2 3167   5.439   2.201   2.720  0.0349 -0.2956 -0.1114
 1054TIP3    H1 3168   5.425   2.294   2.703  0.0847 -0.0177  1.1954
 1054TIP3    H2 3169   5.529   2.197   2.753 -0.1564 -0.7151  0.3732
 1055TIP3   OH2 3170   5.618   3.764   2.090  0.5498  0.1614  0.5480
 1055TIP3    H1 3171   5.617   3.848   2.135 -1.1097 -0.0302  0.9457
 1055TIP3    H2 3172   5.614   3.785   1.997 -1.7039  0.5425  0.6907
 1056TIP3   OH2 3173   3.948   2.686   2.882  0.3119  0.1619 -0.0290
 1056TIP3    H1 3174   3.996   2.616   2.838 -0.9315 -0.8765  0.1967
 1056TIP3    H2 3175   3.878   2.641   2.929  0.0358  1.4836  0.8932
 1057TIP3   OH2 3176   0.614   5.028   3.467 -0.2374  0.8377  0.0319
 1057TIP3    H1 3177   0.698   5.073   3.477  0.0079  0.4635 -0.3178
 1057TIP3    H2 3178   0.602   4.981   3.549  0.9582 -0.8796 -0.7212
 1058TIP3   OH2 3179   6.290   1.742   2.032  0.4145  0.5463 -0.2110
 1058TIP3    H1 3180   6.195   1.729   2.040 -0.3790  2.2209 -4.2481
 1058TIP3    H2 3181   6.321   1.665   1.984  1.4029 -0.5197  2.0119
 1059TIP3   OH2 3182   1.649   3.223   2.702 -0.1423  0.2316 -0.0175
 1059TIP3    H1 3183   1.577   3.223   2.766 -0.0874  0.0327  0.0473
 1059TIP3    H2 3184   1.634   3.144   2.650  0.3707 -0.1390  0.3895
 1060TIP3   OH2 3185   5.522   4.978   4.854  0.1186 -0.1440 -0.3521
 1060TIP3    H1 3186   5.446   4.951   4.802  0.0270  0.9194 -0.7858
 1060TIP3    H2 3187   5.555   5.056   4.810  0.9832 -0.1265  0.2992
 1061TIP3   OH2 3188   0.973   3.827   2.542  0.2567  0.1237  0.0787
 1061TIP3    H1 3189   0.959   3.812   2.636 -0.5107  1.0301  0.1319
 1061TIP3    H2 3190   0.893   3.872   2.514  1.1386  1.2600 -0.6760
 1062TIP3   OH2 3191   5.121   2.693   3.619  0.4779 -0.6420 -0.0656
 1062TIP3    H1 3192   5.076   2.736   3.691  1.3316  1.5224 -0.7580
 1062TIP3    H2 3193   5.214   2.700   3.642  0.6703 -2.1451 -0.2301
 1063TIP3   OH2 3194   3.381   4.434   1.314  0.0442 -0.4016  0.8177
 1063TIP3    H1 3195   3.463   4.462   1.271 -0.4044 -0.1710  0.0946
 1063TIP3    H2 3196   3.320   4.507   1.299 -0.2324 -0.4814  1.5423
 1064TIP3   OH2 3197   5.470   1.142   2.017 -0.1762 -0.0041  0.0136
 1064TIP3    H1 3198   5.553   1.187   2.031  0.3744 -1.1483  0.5111
 1064TIP3    H2 3199   5.434   1.184   1.938  1.0675  0.2199 -0.4642
 1065TIP3   OH2 3200   4.509   1.443   0.242  0.0462  0.3870 -0.5720
 1065TIP3    H1 3201   4.463   1.403   0.167 -0.2288 -0.7034  0.1601
 1065TIP3    H2 3202   4.559   1.372   0.280 -1.4360  0.3740  1.5348
 1066TIP3   OH2 3203   4.396   1.013   0.473  0.2001 -0.6516  0.4796
 1066TIP3    H1 3204   4.353   0.950   0.531 -0.4073 -0.2692  0.4502
 1066TIP3    H2 3205   4.380   1.098   0.513 -0.4800 -0.3581 -0.4015
 1067TIP3   OH2 3206   1.686   1.346   3.182 -0.4880  0.1151 -0.8041
 1067TIP3    H1 3207   1.706   1.402   3.107  0.4642 -0.6998 -1.1831
 1067TIP3    H2 3208   1.746   1.375   3.251  0.4796 -0.8332 -1.2120
 1068TIP3   OH2 3209   2.922   0.956   2.465  0.2655  0.5401  0.5269
 1068TIP3    H1 3210   2.995   1.011   2.494  2.2962 -1.0483 -1.3335
 1068TIP3    H2 3211   2.921   0.966   2.370 -0.2431 -1.4799  0.2794
 1069TIP3   OH2 3212   5.323   5.770   4.170 -0.5005  0.0575  0.2480
 1069TIP3    H1 3213   5.370   5.709   4.228 -0.7772 -0.0271  0.3866
 1069TIP3    H2 3214   5.231   5.757   4.192 -0.7340 -0.9841 -1.1876
 1070TIP3   OH2 3215   3.356   5.482   3.032 -0.5284  0.7467  0.3730
 1070TIP3    H1 3216   3.268   5.516   3.048  0.0803  2.2316  0.8103
 1070TIP3    H2 3217   3.366   5.410   3.093 -1.4935  0.4658  0.2113
 1071TIP3   OH2 3218   0.110   5.743   2.635 -0.0711  0.3506  0.5568
 1071TIP3    H1 3219   0.118   5.728   2.729 -1.1154 -0.0953  0.5880
 1071TIP3    H2 3220   0.081   5.659   2.599 -0.3690  0.7081 -0.0642
 1072TIP3   OH2 3221   2.281   0.522   0.653 -0.1088 -0.6385 -0.0169
 1072TIP3    H1 3222   2.312   0.437   0.684  0.5170  0.4271  2.5954
 1072TIP3    H2 3223   2.211   0.501   0.592  0.3831 -3.0231  0.1292
 1073TIP3   OH2 3224   2.158   1.644   2.273 -0.4476  0.7903 -0.1367
 1073TIP3    H1 3225   2.099   1.569   2.289 -0.4572  0.9175  0.4724
 1073TIP3    H2 3226   2.241   1.604   2.249 -0.2789  0.5502  0.7771
 1074TIP3   OH2 3227   2.582   1.660   2.324  0.9046 -0.1005  0.0221
 1074TIP3    H1 3228   2.508   1.716   2.346 -0.3390 -1.2073 -1.1253
 1074TIP3    H2 3229   2.637   1.659   2.403 -1.1329 -0.5227  1.5128
 1075TIP3   OH2 3230   1.422   5.218   2.511  0.0135 -0.3328 -0.3556
 1075TIP3    H1 3231   1.508   5.257   2.528 -0.3517  0.6343 -0.6754
 1075TIP3    H2 3232   1.405   5.236   2.419 -0.7102 -0.1748 -0.1918
 1076TIP3   OH2 3233   0.980   3.026   3.829  0.8914 -0.1843  0.1115
 1076TIP3    H1 3234   1.070   2.995   3.837  0.9988  0.3034  0.8971
 1076TIP3    H2 3235   0.931   2.950   3.799  1.5951 -0.4048 -0.4943
 1077TIP3   OH2 3236   4.068   1.314   2.849 -0.4175  0.1740 -0.2188
 1077TIP3    H1 3237   4.027   1.241   2.803 -0.6475  0.4793 -0.4979
 1077TIP3    H2 3238   4.063   1.290   2.942 -0.9129  0.0481 -0.2787
 1078TIP3   OH2 3239   2.419   2.960   4.868  0.2546 -0.4222  0.1105
 1078TIP3    H1 3240   2.419   2.985   4.960  1.2340  1.3561 -0.3394
 1078TIP3    H2 3241   2.329   2.972   4.840  0.3314  0.8348  0.3779
 1079TIP3   OH2 3242   0.570   4.172   2.591 -0.2681 -0.2712 -0.2449
 1079TIP3    H1 3243   0.497   4.111   2.599 -0.0576 -0.5564 -0.4552
 1079TIP3    H2 3244   0.530   4.255   2.566 -0.4691 -0.5679 -0.9328
 1080TIP3   OH2 3245   1.003   1.381   3.677  0.3296 -1.0341 -0.0463
 1080TIP3    H1 3246   0.944   1.306   3.672 -0.2471 -0.5266 -1.7899
 1080TIP3    H2 3247   1.063   1.370   3.603 -0.9924  1.1346 -1.5841
 1081TIP3   OH2 3248   2.468   3.716   4.102  0.6221  0.1590 -0.4689
 1081TIP3    H1 3249   2.539   3.767   4.063  0.7530  1.1689  0.9798
 1081TIP3    H2 3250   2.499   3.696   4.191 -0.5624 -0.0705 -0.0853
 1082TIP3   OH2 3251   3.601   2.356   2.846  0.1417  0.0561  0.2819
 1082TIP3    H1 3252   3.683   2.309   2.831 -0.0106  0.0460 -0.5399
 1082TIP3    H2 3253   3.564   2.369   2.759  0.3293  1.9842  0.4600
 1083TIP3   OH2 3254   4.218   5.198   1.811 -0.3557  0.3946 -0.3890
 1083TIP3    H1 3255   4.198   5.115   1.768 -1.6282  1.0768 -1.1678
 1083TIP3    H2 3256   4.196   5.265   1.746  0.3171  1.3690  0.3506
 1084TIP3   OH2 3257   4.878   1.611   1.510  0.0767  0.0820  0.3590
 1084TIP3    H1 3258   4.878   1.694   1.462  0.4737  0.5467  1.1574
 1084TIP3    H2 3259   4.787   1.600   1.538 -0.1135 -0.0862 -0.3005
 1085TIP3   OH2 3260   0.372   0.893   4.291 -0.0921  0.1404  0.5909
 1085TIP3    H1 3261   0.324   0.976   4.290  2.2356  1.5982  0.3861
 1085TIP3    H2 3262   0.435   0.904   4.363  0.0799 -1.5885  0.7244
 1086TIP3   OH2 3263   2.793   0.714   4.388 -0.1893  0.0721  0.3291
 1086TIP3    H1 3264   2.772   0.650   4.320 -4.5421 -0.9089  2.2365
 1086TIP3    H2 3265   2.743   0.792   4.363 -0.3843  0.3205  1.4733
 1087TIP3   OH2 3266  -0.014   1.893   2.437  0.6064 -0.2114  0.3926
 1087TIP3    H1 3267   0.071   1.858   2.411  0.8418  0.6367 -0.0404
 1087TIP3    H2 3268   0.005   1.983   2.466 -0.0859 -0.1386  0.6372
 1088TIP3   OH2 3269   1.655   1.279   3.920 -0.3693  0.1849  0.3133
 1088TIP3    H1 3270   1.749   1.270   3.936 -0.0265  0.1020 -1.5401
 1088TIP3    H2 3271   1.621   1.190   3.928  0.0354 -0.0839 -0.7089
 1089TIP3   OH2 3272   5.685   1.307   2.107 -0.0012 -0.3172 -0.2378
 1089TIP3    H1 3273   5.732   1.281   2.186 -1.0517  0.5430  0.7025
 1089TIP3    H2 3274   5.645   1.391   2.128  0.1440  0.2168 -1.8874
 1090TIP3   OH2 3275   4.524   1.174   2.347  0.4553 -0.1266  0.2514
 1090TIP3    H1 3276   4.466   1.223   2.406 -0.7539 -1.2851  0.0592
 1090TIP3    H2 3277   4.543   1.235   2.276  1.4445  1.0865  1.4936
 1091TIP3   OH2 3278   3.254   3.626   3.559  0.3111  0.0129 -0.1759
 1091TIP3    H1 3279   3.293   3.545   3.527  0.1315 -0.2936  0.3621
 1091TIP3    H2 3280   3.187   3.649   3.495 -1.7354 -1.8858  1.1453
 1092TIP3   OH2 3281   1.019   5.644   1.327  0.0985 -0.0064 -0.2913
 1092TIP3    H1 3282   0.945   5.602   1.373  0.2246  0.1622  0.0646
 1092TIP3    H2 3283   1.097   5.601   1.363  0.1630 -0.5369 -1.0193
 1093TIP3   OH2 3284   6.242   5.074   4.247  0.2189  0.5651  0.1216
 1093TIP3    H1 3285   6.160   5.063   4.198  0.9094 -0.7824 -0.8048
 1093TIP3    H2 3286   6.285   5.149   4.206 -0.6154  1.4107  0.7475
 1094TIP3   OH2 3287   1.118   1.235   0.149  0.3875 -0.1358 -0.2909
 1094TIP3    H1 3288   1.033   1.272   0.125  1.9286  3.4519 -0.8599
 1094TIP3    H2 3289   1.124   1.251   0.244  1.1736  1.6147 -0.5839
 1095TIP3   OH2 3290   5.272   0.810   4.562  0.2053  0.1096 -0.2936
 1095TIP3    H1 3291   5.342   0.858   4.519  0.6204  1.1768  1.4801
 1095TIP3    H2 3292   5.192   0.839   4.518  0.5819  1.3943 -0.1578
 1096TIP3   OH2 3293   1.666   4.434   4.088  0.3077 -0.0666  0.4601
 1096TIP3    H1 3294   1.747   4.383   4.094  0.6796  0.4460 -0.1448
 1096TIP3    H2 3295   1.636   4.443   4.179  1.0989  0.0160  0.7142
 1097TIP3   OH2 3296   1.370   0.080   2.130  0.6226  0.1324 -0.3823
 1097TIP3    H1 3297   1.447   0.136   2.130  0.9146 -0.1992 -2.1736
 1097TIP3    H2 3298   1.296   0.140   2.124  0.8033  0.4023  0.0651
 1098TIP3   OH2 3299   5.863   3.141   5.020 -0.0967 -0.2268 -0.1379
 1098TIP3    H1 3300   5.807   3.109   5.090 -0.5609  0.6721 -0.0745
 1098TIP3    H2 3301   5.828   3.101   4.940 -0.6302  0.0623 -0.0557
 1099TIP3   OH2 3302   1.383   0.155   3.673  0.0770 -0.5307 -0.0268
 1099TIP3    H1 3303   1.326   0.121   3.604  0.7295 -0.5672 -0.5571
 1099TIP3    H2 3304   1.342   0.127   3.755 -0.4134 -0.9516 -0.4166
 1100TIP3   OH2 3305   0.985   5.500   3.508 -0.1139 -0.4451  0.1322
 1100TIP3    H1 3306   1.058   5.557   3.531  0.4316 -0.1871 -2.0311
 1100TIP3    H2 3307   1.027   5.419   3.479 -0.5447  0.1801 -2.4390
 1101TIP3   OH2 3308   4.633   2.739   3.032  0.3154 -0.0402  0.0580
 1101TIP3    H1 3309   4.549   2.761   3.072  0.7822  0.3752  0.8279
 1101TIP3    H2 3310   4.680   2.822   3.025 -0.0610  0.0555 -2.1612
 1102TIP3   OH2 3311   3.491   0.854   2.334 -0.0508  0.2419 -0.2817
 1102TIP3    H1 3312   3.420   0.791   2.324 -0.1528 -0.7933  4.5050
 1102TIP3    H2 3313   3.448   0.939   2.339 -0.7583 -0.1319  0.2436
 1103TIP3   OH2 3314   2.789   5.639   2.400 -0.2758  0.2053 -0.2484
 1103TIP3    H1 3315   2.763   5.628   2.309  1.1121  0.0031 -0.6407
 1103TIP3    H2 3316   2.855   5.709   2.398  1.2229 -1.1342  0.2943
 1104TIP3   OH2 3317   0.365   5.458   4.825  0.4430  0.1910 -0.4479
 1104TIP3    H1 3318   0.303   5.384   4.823  1.3749 -0.6075 -0.5682
 1104TIP3    H2 3319   0.319   5.529   4.781 -1.7862  0.7561  2.4578
 1105TIP3   OH2 3320   4.614   0.400   2.125  0.4338  0.6577  0.1938
 1105TIP3    H1 3321   4.567   0.382   2.206  0.9289 -0.1839  0.3111
 1105TIP3    H2 3322   4.696   0.351   2.134  0.5143  0.5999 -0.7958
 1106TIP3   OH2 3323   0.157   1.367   3.505 -0.0293 -0.3135  0.2691
 1106TIP3    H1 3324   0.189   1.410   3.426 -0.6469 -0.8545 -0.2855
 1106TIP3    H2 3325   0.229   1.309   3.531  0.1108 -0.2554  0.0160
 1107TIP3   OH2 3326   3.712   4.280   2.477 -0.2339  0.2839  0.4575
 1107TIP3    H1 3327   3.766   4.203   2.492 -0.8789 -0.2179  0.2764
 1107TIP3    H2 3328   3.774   4.350   2.459  0.3371 -0.7399 -1.9727
 1108TIP3   OH2 3329   3.749   2.972   4.185 -0.0359  0.1882 -0.6226
 1108TIP3    H1 3330   3.692   3.025   4.240  1.2782  0.1578  0.8304
 1108TIP3    H2 3331   3.692   2.940   4.115 -1.9631 -0.3586  1.0874
 1109TIP3   OH2 3332   1.493   1.672   2.620 -0.3223 -0.1894  0.1792
 1109TIP3    H1 3333   1.462   1.654   2.709 -0.0375  1.4591  0.6400
 1109TIP3    H2 3334   1.582   1.705   2.631 -0.8819  1.6988 -0.5299
 1110TIP3   OH2 3335   3.867   2.839   1.619  0.3614 -0.1132 -0.3977
 1110TIP3    H1 3336   3.843   2.859   1.528 -0.0575 -0.7270 -0.4251
 1110TIP3    H2 3337   3.954   2.799   1.612 -0.7396 -2.6186 -0.8205
 1111TIP3   OH2 3338   4.954   5.899   1.836  0.2964 -0.4442 -0.5906
 1111TIP3    H1 3339   4.949   5.805   1.849  0.1615 -0.3748 -0.0968
 1111TIP3    H2 3340   5.046   5.920   1.846  0.2556 -0.4554 -0.1367
 1112TIP3   OH2 3341   1.192   2.520   1.586  0.2555 -0.0990  0.3332
 1112TIP3    H1 3342   1.232   2.517   1.499 -2.8672 -0.8172 -1.2398
 1112TIP3    H2 3343   1.181   2.613   1.604  1.6537  0.0826  0.3841
 1113TIP3   OH2 3344   4.065   5.778   3.211 -0.4061 -0.3592  0.0710
 1113TIP3    H1 3345   4.001   5.711   3.188 -0.6852  0.7370 -2.7586
 1113TIP3    H2 3346   4.013   5.846   3.253 -2.0440  1.8989 -4.8073
 1114TIP3   OH2 3347   4.438   4.932   4.406 -0.1316  0.7183  0.1216
 1114TIP3    H1 3348   4.412   4.976   4.487 -1.4922  0.6387 -0.2547
 1114TIP3    H2 3349   4.367   4.951   4.345  1.1138  1.2039 -1.2272
 1115TIP3   OH2 3350   0.768   5.971   4.609 -0.4795  0.4377 -0.0652
 1115TIP3    H1 3351   0.827   5.951   4.536 -0.6931 -1.8782  0.3410
 1115TIP3    H2 3352   0.680   5.959   4.573 -0.5845 -2.3084  0.8914
 1116TIP3   OH2 3353   2.359   3.498   3.941  0.1026 -0.4647 -0.0588
 1116TIP3    H1 3354   2.403   3.508   3.857  0.8643 -0.5625  0.3148
 1116TIP3    H2 3355   2.393   3.571   3.994  0.0826 -0.7501  0.3498
 1117TIP3   OH2 3356   3.123   0.344   1.634  0.1849  0.2588 -0.2353
 1117TIP3    H1 3357   3.097   0.327   1.724 -0.3785  0.1304 -0.4171
 1117TIP3    H2 3358   3.082   0.274   1.583 -1.2719  1.4886 -0.8606
 1118TIP3   OH2 3359   4.367   0.853   3.732  0.1276  0.1508  0.2484
 1118TIP3    H1 3360   4.451   0.896   3.718  0.4017 -0.7247 -0.9788
 1118TIP3    H2 3361   4.311   0.885   3.661 -0.9735  1.6182  1.7171
 1119TIP3   OH2 3362   0.791   2.663   2.175  0.2928  0.2836 -0.2556
 1119TIP3    H1 3363   0.727   2.592   2.179  0.2903  0.3032  0.0358
 1119TIP3    H2 3364   0.763   2.715   2.100  0.8444 -0.5494 -1.0703
 1120TIP3   OH2 3365   2.640   4.088   3.767 -0.2000 -0.1966  0.3558
 1120TIP3    H1 3366   2.671   4.000   3.748  0.4973 -0.3579  2.1380
 1120TIP3    H2 3367   2.697   4.121   3.836 -1.3626  1.1004  0.7655
 1121TIP3   OH2 3368   4.110   5.193   0.574 -0.5382 -0.0360  0.2523
 1121TIP3    H1 3369   4.087   5.252   0.503  0.8012 -0.5681 -0.6675
 1121TIP3    H2 3370   4.093   5.105   0.540  1.9053 -0.4086 -0.2039
 1122TIP3   OH2 3371   4.227   4.626   2.742 -0.4874 -0.0694  0.1490
 1122TIP3    H1 3372   4.197   4.536   2.729 -1.3955  0.2599 -0.1088
 1122TIP3    H2 3373   4.157   4.667   2.793  0.2822  0.2808  0.9411
 1123TIP3   OH2 3374   4.130   2.736   1.589  0.0661  0.4250  0.1145
 1123TIP3    H1 3375   4.119   2.643   1.569 -0.7700  0.9032 -1.8160
 1123TIP3    H2 3376   4.190   2.737   1.664  1.3103 -1.6115 -0.7702
 1124TIP3   OH2 3377   0.873   3.472   1.118  0.4637  0.7190  0.3059
 1124TIP3    H1 3378   0.928   3.394   1.112 -0.3771  0.0346  1.1594
 1124TIP3    H2 3379   0.820   3.458   1.197 -0.7013  1.5012 -0.3100
 1125TIP3   OH2 3380   5.106   3.775   4.911  0.0967  0.1987 -0.3955
 1125TIP3    H1 3381   5.106   3.742   5.001  0.8108  0.6567 -0.2202
 1125TIP3    H2 3382   5.098   3.696   4.857 -1.1176 -0.0189  0.0761
 1126TIP3   OH2 3383   0.260   0.702   0.288  0.1282  0.4147 -0.0695
 1126TIP3    H1 3384   0.326   0.676   0.224 -0.5261 -0.1202 -0.5394
 1126TIP3    H2 3385   0.255   0.797   0.280 -0.2456  0.3245 -1.1348
 1127TIP3   OH2 3386   3.117   4.798   3.024 -0.4141 -0.0148 -0.0537
 1127TIP3    H1 3387   3.091   4.864   2.960  1.8984  0.6628 -0.4071
 1127TIP3    H2 3388   3.105   4.841   3.109  0.7628  0.7881 -0.2676
 1128TIP3   OH2 3389   2.632   0.320   2.577 -0.2667  0.1639 -0.5766
 1128TIP3    H1 3390   2.691   0.395   2.570  0.4283 -0.1152  1.4917
 1128TIP3    H2 3391   2.550   0.357   2.608 -0.3360  0.2129 -0.8132
 1129TIP3   OH2 3392   0.375   1.720   2.139 -0.1244 -0.8744  0.8336
 1129TIP3    H1 3393   0.329   1.672   2.071  0.6742 -0.1733 -0.2397
 1129TIP3    H2 3394   0.468   1.708   2.117  0.1000  1.8198  0.0108
 1130TIP3   OH2 3395   3.134   2.454   0.240 -0.1415  0.7594  0.3153
 1130TIP3    H1 3396   3.123   2.486   0.150  0.1190  1.4219  0.5162
 1130TIP3    H2 3397   3.073   2.507   0.291  0.9366  1.5690  0.7918
 1131TIP3   OH2 3398   4.222   1.035   4.300 -0.2804 -0.3487  0.5268
 1131TIP3    H1 3399   4.229   1.127   4.275 -1.7089 -0.0104  1.2985
 1131TIP3    H2 3400   4.305   0.996   4.272  0.4745  1.2382  0.4786
 1132TIP3   OH2 3401   0.325   0.189   3.687 -0.1930  0.4149 -0.1586
 1132TIP3    H1 3402   0.317   0.245   3.610 -1.5180  0.8228  0.2524
 1132TIP3    H2 3403   0.237   0.156   3.702  0.3710 -1.0454  0.1731
 1133TIP3   OH2 3404   3.313   0.496   2.161 -0.4490  0.7765  0.0572
 1133TIP3    H1 3405   3.292   0.586   2.187  0.5023  0.9374  0.2936
 1133TIP3    H2 3406   3.333   0.502   2.068 -3.2171  0.3070 -0.6549
 1134TIP3   OH2 3407   0.686   3.932   1.644  0.1624  0.0583  0.5278
 1134TIP3    H1 3408   0.716   3.913   1.555 -2.1403  1.3361 -0.6259
 1134TIP3    H2 3409   0.616   3.869   1.659 -2.0048  2.1763 -0.1326
 1135TIP3   OH2 3410   5.359   5.000   3.439 -0.0521 -0.2768 -0.5638
 1135TIP3    H1 3411   5.425   5.064   3.413 -0.0212  0.0309  0.2448
 1135TIP3    H2 3412   5.388   4.918   3.399  1.4741 -0.4066  0.7426
 1136TIP3   OH2 3413   3.515   1.896   2.997 -0.4879 -0.3696  0.9058
 1136TIP3    H1 3414   3.425   1.926   2.986 -0.4464  0.5585  2.7301
 1136TIP3    H2 3415   3.562   1.933   2.922 -1.6345 -1.0253 -0.1711
 1137TIP3   OH2 3416   2.322   0.063   2.516  0.0866  0.0027 -0.2409
 1137TIP3    H1 3417   2.280   0.129   2.571 -0.6869 -0.0596 -0.7536
 1137TIP3    H2 3418   2.289  -0.020   2.550 -0.1357 -0.0508 -0.5922
 1138TIP3   OH2 3419   4.270   1.310   2.270  0.5947 -0.2021 -0.3670
 1138TIP3    H1 3420   4.195   1.308   2.212  0.8006  0.1415 -0.6480
 1138TIP3    H2 3421   4.312   1.394   2.253  0.8954 -0.2791 -0.0278
 1139TIP3   OH2 3422   2.316   2.272   5.044  0.0026  0.1079  0.5225
 1139TIP3    H1 3423   2.374   2.196   5.036 -1.5400 -1.2675  1.6629
 1139TIP3    H2 3424   2.376   2.347   5.052  1.5957 -1.0998  0.4954
 1140TIP3   OH2 3425   1.297   0.130   3.051  0.3272  0.3050 -0.5276
 1140TIP3    H1 3426   1.279   0.222   3.071  0.1355  0.0866  0.3529
 1140TIP3    H2 3427   1.217   0.098   3.008 -0.7327 -0.1511  1.6340
 1141TIP3   OH2 3428   6.084   2.830   4.571  0.1031  0.8287  0.1509
 1141TIP3    H1 3429   6.023   2.832   4.645 -2.2406 -0.3014 -1.6025
 1141TIP3    H2 3430   6.097   2.923   4.548 -3.4273  1.1656 -1.1792
 1142TIP3   OH2 3431   0.471   3.353   1.194  0.0852 -0.5698 -0.0736
 1142TIP3    H1 3432   0.531   3.339   1.267 -0.3648 -0.2221  0.3743
 1142TIP3    H2 3433   0.409   3.281   1.199 -0.6401  0.0831  0.6085
 1143TIP3   OH2 3434   2.701   3.107   1.543 -0.5689  0.2871 -0.2141
 1143TIP3    H1 3435   2.644   3.041   1.582  0.8011 -0.0702  1.3436
 1143TIP3    H2 3436   2.650   3.188   1.546 -0.5987  0.2584  2.3667
 1144TIP3   OH2 3437   1.445   5.211   3.743  0.4054  0.3155  0.5936
 1144TIP3    H1 3438   1.432   5.164   3.661  0.4101 -2.4635  2.0698
 1144TIP3    H2 3439   1.365   5.195   3.793  0.0652  2.6288  0.9027
 1145TIP3   OH2 3440   4.420   1.514   2.097 -0.2938 -0.3798 -0.0998
 1145TIP3    H1 3441   4.507   1.474   2.096 -0.2826 -0.3571  0.0030
 1145TIP3    H2 3442   4.391   1.510   2.005  0.7019  1.5572 -0.5573
 1146TIP3   OH2 3443   5.155   1.416   1.887 -0.0337  0.1847 -0.3560
 1146TIP3    H1 3444   5.207   1.496   1.878  0.0087  0.0641 -1.2771
 1146TIP3    H2 3445   5.108   1.428   1.970  2.0078 -0.0372  0.9005
 1147TIP3   OH2 3446   4.559   3.359   5.186 -0.2378 -0.4464 -0.4077
 1147TIP3    H1 3447   4.636   3.338   5.134  0.7638 -1.4211  1.3685
 1147TIP3    H2 3448   4.538   3.449   5.161  3.4989  1.1412  1.2841
 1148TIP3   OH2 3449   0.654   2.849   0.940 -0.3776  0.2974 -0.0053
 1148TIP3    H1 3450   0.596   2.908   0.988  0.7871  0.2777  1.5367
 1148TIP3    H2 3451   0.710   2.810   1.009  0.1022 -1.2003 -1.1815
 1149TIP3   OH2 3452   1.043   0.602   0.896 -0.0815 -0.1771  0.6749
 1149TIP3    H1 3453   1.088   0.685   0.878 -1.1694 -0.0011 -1.6088
 1149TIP3    H2 3454   0.967   0.627   0.948 -0.5661  0.3299 -0.2557
 1150TIP3   OH2 3455   0.386   2.019   2.415  0.2691 -0.5761 -0.2604
 1150TIP3    H1 3456   0.447   1.971   2.472 -0.4223  1.3042  2.1931
 1150TIP3    H2 3457   0.316   1.956   2.397  1.7975 -2.0709 -1.3776
 1151TIP3   OH2 3458   2.174   2.750   3.890 -0.8193 -0.0972  0.2016
 1151TIP3    H1 3459   2.219   2.709   3.816  1.6455 -0.0007  1.5475
 1151TIP3    H2 3460   2.152   2.838   3.859  2.6787  0.9732  0.3265
 1152TIP3   OH2 3461   1.563   1.561   3.444 -0.2233  1.1314  0.5649
 1152TIP3    H1 3462   1.584   1.497   3.512  0.2604  1.4219  0.6942
 1152TIP3    H2 3463   1.511   1.628   3.489 -0.1611  1.1707  0.5775
 1153TIP3   OH2 3464   5.503   5.077   1.160 -0.0037 -0.0938  0.5505
 1153TIP3    H1 3465   5.416   5.108   1.185  0.5547  1.0446  1.1333
 1153TIP3    H2 3466   5.556   5.089   1.239 -0.0841 -4.0773  1.4633
 1154TIP3   OH2 3467   0.806   5.867   1.808  0.2338  0.0961  0.3017
 1154TIP3    H1 3468   0.788   5.816   1.887  0.3956  0.7479  0.7743
 1154TIP3    H2 3469   0.897   5.893   1.817  0.7345 -1.1689 -0.9016
 1155TIP3   OH2 3470   1.219   5.765   2.601  0.2780 -0.1660 -0.0329
 1155TIP3    H1 3471   1.165   5.827   2.651  1.2931  1.1603 -0.5396
 1155TIP3    H2 3472   1.301   5.761   2.649  0.5757 -0.3530 -0.5501
 1156TIP3   OH2 3473   3.331   4.183   2.351 -0.1543  0.1521 -0.0542
 1156TIP3    H1 3474   3.424   4.166   2.368 -0.6844 -1.4519  1.6726
 1156TIP3    H2 3475   3.307   4.252   2.412 -0.3055 -0.1023  0.1754
 1157TIP3   OH2 3476   1.071   0.785   4.143  0.4720 -0.0811  0.4259
 1157TIP3    H1 3477   1.164   0.786   4.122  0.3635 -0.2734 -0.0899
 1157TIP3    H2 3478   1.029   0.820   4.064  0.2059  1.4381  1.2111
 1158TIP3   OH2 3479   3.689   0.422   2.149 -0.2984 -0.2772 -0.3121
 1158TIP3    H1 3480   3.765   0.480   2.143 -1.0346  0.7160 -0.3978
 1158TIP3    H2 3481   3.680   0.385   2.061 -0.1224 -0.1215 -0.3947
 1159TIP3   OH2 3482   5.017   3.219   4.355 -0.5941  0.7244 -0.7377
 1159TIP3    H1 3483   4.978   3.268   4.283 -0.1208 -0.3204 -1.7397
 1159TIP3    H2 3484   5.098   3.182   4.318  0.7562  1.8440  0.9194
 1160TIP3   OH2 3485   5.306   5.564   2.876  0.1990  0.1153  0.3007
 1160TIP3    H1 3486   5.354   5.510   2.938  0.8870 -0.4596 -0.7017
 1160TIP3    H2 3487   5.342   5.652   2.887 -0.1805  0.1722  1.1865
 1161TIP3   OH2 3488   3.295   1.686   0.766 -0.1921  0.5135 -0.0229
 1161TIP3    H1 3489   3.387   1.707   0.750 -0.0039  0.8205  1.3189
 1161TIP3    H2 3490   3.297   1.624   0.839 -1.0072 -0.3602 -0.7167
 1162TIP3   OH2 3491   3.347   2.904   2.148  0.0383  0.2780 -0.0759
 1162TIP3    H1 3492   3.368   2.835   2.084 -0.4751  2.4240 -2.7698
 1162TIP3    H2 3493   3.403   2.885   2.223 -0.4512 -3.3185 -0.4251
 1163TIP3   OH2 3494   1.295   4.430   3.678 -0.1144  0.2376  0.0257
 1163TIP3    H1 3495   1.339   4.445   3.762  0.4640  0.0695 -0.2462
 1163TIP3    H2 3496   1.333   4.348   3.645 -1.0732 -0.2379  0.0746
 1164TIP3   OH2 3497   1.423   2.363   3.574  0.0305 -0.5967 -0.4929
 1164TIP3    H1 3498   1.406   2.418   3.498  1.9647  1.5360  0.4780
 1164TIP3    H2 3499   1.339   2.356   3.619 -0.6329  0.0535 -1.5977
 1165TIP3   OH2 3500   3.301   2.118   0.504 -0.0911 -0.2497 -0.3322
 1165TIP3    H1 3501   3.312   2.202   0.459 -0.0287 -0.3272 -0.4637
 1165TIP3    H2 3502   3.292   2.141   0.596  1.4643 -0.1820 -0.1567
 1166TIP3   OH2 3503   0.926   1.773   0.259 -0.3382 -0.2481 -0.3063
 1166TIP3    H1 3504   0.844   1.743   0.220  0.2535 -2.4489  0.0438
 1166TIP3    H2 3505   0.994   1.745   0.199  0.2393  0.7817 -0.1542
 1167TIP3   OH2 3506   0.723   0.482   1.832  0.4380 -0.4878  0.5987
 1167TIP3    H1 3507   0.633   0.504   1.856  0.6796 -0.2516  1.3132
 1167TIP3    H2 3508   0.732   0.514   1.742  0.6684  2.1671  1.4717
 1168TIP3   OH2 3509   4.669   5.223   2.378 -0.4332 -0.7534  0.5241
 1168TIP3    H1 3510   4.666   5.188   2.289  1.8769  0.3795 -0.0650
 1168TIP3    H2 3511   4.628   5.309   2.370  1.3687  0.1121  0.0977
 1169TIP3   OH2 3512   4.912   2.220   4.132  0.0679  0.0978 -0.6247
 1169TIP3    H1 3513   4.918   2.202   4.038 -0.7216 -0.1223 -0.6436
 1169TIP3    H2 3514   4.985   2.172   4.171  0.6324  0.5081 -1.1663
 1170TIP3   OH2 3515   3.291   1.745   0.140  0.0367  0.2110  0.4729
 1170TIP3    H1 3516   3.269   1.776   0.052  1.4324  0.3355  0.1498
 1170TIP3    H2 3517   3.346   1.815   0.176  1.7141 -1.0452  0.4211
 1171TIP3   OH2 3518   3.725   1.943   3.815 -0.6842  0.0960 -0.0636
 1171TIP3    H1 3519   3.640   1.909   3.841 -0.2058 -1.0657  0.0530
 1171TIP3    H2 3520   3.705   2.017   3.757 -1.7972 -1.2627 -1.5083
 1172TIP3   OH2 3521   5.551   3.745   1.254 -0.5368 -0.1976 -0.7366
 1172TIP3    H1 3522   5.463   3.759   1.290 -0.1592  2.2152 -0.5667
 1172TIP3    H2 3523   5.578   3.660   1.288 -1.5982  0.3972  1.8134
 1173TIP3   OH2 3524   3.009   4.798   4.911 -0.5886 -0.4552  0.2486
 1173TIP3    H1 3525   3.040   4.830   4.826 -0.2673  0.3887  0.6676
 1173TIP3    H2 3526   2.918   4.774   4.895 -0.7741  0.4567 -0.1683
 1174TIP3   OH2 3527   6.161   4.612   4.282  0.0992  0.4414  0.9672
 1174TIP3    H1 3528   6.202   4.564   4.354  0.5788  0.3935  0.6631
 1174TIP3    H2 3529   6.233   4.654   4.237  0.1865 -1.7977 -1.1926
 1175TIP3   OH2 3530   2.056   4.483   3.941  0.0186 -0.0368 -0.0202
 1175TIP3    H1 3531   2.140   4.447   3.911  0.1093  0.6088 -0.5692
 1175TIP3    H2 3532   2.080   4.560   3.992 -0.2664  1.0058 -1.3865
 1176TIP3   OH2 3533   2.533   5.382   1.404 -0.4659  0.2264  0.3364
 1176TIP3    H1 3534   2.531   5.286   1.398 -1.4424  0.2881 -0.8068
 1176TIP3    H2 3535   2.517   5.401   1.496 -0.8980 -0.7086  0.4693
 1177TIP3   OH2 3536   2.675   3.307   3.620 -0.0859 -0.1304 -0.1748
 1177TIP3    H1 3537   2.766   3.312   3.648  0.4332 -2.6629 -1.1435
 1177TIP3    H2 3538   2.678   3.312   3.525 -0.6451 -2.4430 -0.3880
 1178TIP3   OH2 3539   0.814   1.467   0.224  0.2166 -0.4733 -0.1700
 1178TIP3    H1 3540   0.748   1.527   0.260 -0.4807 -1.1688 -0.2513
 1178TIP3    H2 3541   0.856   1.517   0.154 -0.4449 -0.1125 -0.3203
 1179TIP3   OH2 3542   0.830   0.266   2.113 -0.1700 -0.5970  1.2428
 1179TIP3    H1 3543   0.781   0.209   2.172 -1.6401  0.5328  1.1699
 1179TIP3    H2 3544   0.821   0.226   2.027 -0.8152 -0.5046  1.2623
 1180TIP3   OH2 3545   4.279   1.902   4.434 -0.0630  0.2673  0.7794
 1180TIP3    H1 3546   4.207   1.954   4.398 -0.4796 -1.4203 -1.0371
 1180TIP3    H2 3547   4.237   1.822   4.466  1.0075 -1.2542 -1.3372
 1181TIP3   OH2 3548   4.040   5.876   3.556 -0.6291 -0.2363  0.4445
 1181TIP3    H1 3549   4.123   5.829   3.561  1.3527  2.9452  0.0935
 1181TIP3    H2 3550   4.045   5.924   3.473 -4.1818 -2.0561 -1.0621
 1182TIP3   OH2 3551   2.399   5.601   4.825  0.2917  0.2611  0.0311
 1182TIP3    H1 3552   2.460   5.577   4.894  1.5590 -0.8141 -1.3768
 1182TIP3    H2 3553   2.326   5.642   4.870  1.8269  1.1464  1.8292
 1183TIP3   OH2 3554   5.331   5.118   0.843  0.1099 -0.1305 -0.3435
 1183TIP3    H1 3555   5.314   5.103   0.750 -0.7504  0.8378 -0.3567
 1183TIP3    H2 3556   5.379   5.040   0.871  0.7960 -0.2363 -1.6985
 1184TIP3   OH2 3557   4.726   4.096   4.374 -0.7098  0.3625  0.0270
 1184TIP3    H1 3558   4.701   4.005   4.385  0.8643 -0.4291 -2.1881
 1184TIP3    H2 3559   4.820   4.097   4.393 -0.8893  1.7347  0.9720
 1185TIP3   OH2 3560   4.971   5.654   0.199 -0.2933 -0.2453 -0.1769
 1185TIP3    H1 3561   4.955   5.582   0.260 -0.9013 -0.7784 -0.9392
 1185TIP3    H2 3562   4.962   5.733   0.252  0.1823 -0.7171  0.6293
 1186TIP3   OH2 3563   2.352   3.436   3.196 -0.0113  0.6948 -0.2759
 1186TIP3    H1 3564   2.407   3.451   3.119 -0.2841 -1.2139 -0.8942
 1186TIP3    H2 3565   2.271   3.485   3.178  0.3066  1.0581 -0.7399
 1187TIP3   OH2 3566   3.757   5.784   4.811 -0.0819 -0.0856 -0.1219
 1187TIP3    H1 3567   3.707   5.784   4.892  0.2611  0.7339  0.0979
 1187TIP3    H2 3568   3.846   5.807   4.837 -0.1539  1.1045 -0.8319
 1188TIP3   OH2 3569   5.540   0.326   3.254 -0.7545 -0.0724  0.3383
 1188TIP3    H1 3570   5.595   0.362   3.185  0.8329 -1.5344  0.7892
 1188TIP3    H2 3571   5.543   0.392   3.323 -0.4187  0.3289 -0.0491
 1189TIP3   OH2 3572   5.084   3.139   4.612 -0.2595 -0.3636  0.1816
 1189TIP3    H1 3573   5.043   3.075   4.670 -0.7706 -0.4977 -0.3244
 1189TIP3    H2 3574   5.030   3.139   4.533 -0.6119  1.1256  0.4056
 1190TIP3   OH2 3575   2.349   2.944   0.149 -0.2626  0.0420  0.2498
 1190TIP3    H1 3576   2.373   2.885   0.078  0.1290  1.3717 -0.7514
 1190TIP3    H2 3577   2.424   2.942   0.209  0.5552  0.8984 -0.7103
 1191TIP3   OH2 3578   3.346   0.590   4.697 -0.1747  0.1406  0.1048
 1191TIP3    H1 3579   3.410   0.551   4.637 -0.6339  1.5513 -1.3600
 1191TIP3    H2 3580   3.389   0.668   4.732 -0.4538  0.1342  0.4700
 1192TIP3   OH2 3581   3.514   0.388   0.765  0.4304 -0.1158 -0.2603
 1192TIP3    H1 3582   3.533   0.447   0.692  1.3400  1.4666  1.1822
 1192TIP3    H2 3583   3.419   0.379   0.765  0.3312  0.8331 -0.9266
 1193TIP3   OH2 3584   4.415   0.085   2.944 -0.8166  0.1628  0.1840
 1193TIP3    H1 3585   4.465   0.031   3.006 -0.3989 -0.0934 -0.3729
 1193TIP3    H2 3586   4.342   0.028   2.918 -1.6478  0.6753  1.2969
 1194TIP3   OH2 3587   6.066   5.586   5.185 -0.0002  0.6911 -0.3086
 1194TIP3    H1 3588   6.053   5.572   5.091  2.4628 -0.1200 -0.6028
 1194TIP3    H2 3589   6.080   5.680   5.193  3.0633  0.4150 -1.3199
 1195TIP3   OH2 3590   5.250   5.412   0.601  0.3211  0.7633  0.6980
 1195TIP3    H1 3591   5.243   5.317   0.585  0.5231  0.6241  1.3998
 1195TIP3    H2 3592   5.194   5.427   0.677  1.4275  0.9639  1.4866
 1196TIP3   OH2 3593   4.639   1.698   3.846 -0.0068  0.1870  0.2798
 1196TIP3    H1 3594   4.726   1.716   3.811  0.2477  2.3464  1.7629
 1196TIP3    H2 3595   4.579   1.720   3.775  0.6084  0.1545 -0.2566
 1197TIP3   OH2 3596   4.890   2.084   0.665 -0.6610  0.6242  0.3093
 1197TIP3    H1 3597   4.885   2.082   0.570 -2.2494  2.0612  0.3121
 1197TIP3    H2 3598   4.809   2.040   0.694 -0.0818 -0.0050  1.0043
 1198TIP3   OH2 3599   5.882   2.632   4.710 -0.3978  0.0986  0.5454
 1198TIP3    H1 3600   5.896   2.538   4.723 -3.2055 -0.3864  0.5425
 1198TIP3    H2 3601   5.864   2.666   4.797  1.6269  0.9209  0.7134
 1199TIP3   OH2 3602   5.023   0.892   4.477  0.3507  0.0518  0.0908
 1199TIP3    H1 3603   5.024   0.915   4.384  1.2117 -0.1928  0.0300
 1199TIP3    H2 3604   4.932   0.870   4.495 -0.1611  1.6794 -0.2945
 1200TIP3   OH2 3605   1.044   2.965   3.355  0.2230  0.1946 -0.1576
 1200TIP3    H1 3606   1.104   2.971   3.429  0.8311 -2.9809 -0.2362
 1200TIP3    H2 3607   0.956   2.965   3.394  0.5134 -0.5534  0.5175
 1201TIP3   OH2 3608   2.588   0.865   1.382 -0.0338 -0.1272  0.6475
 1201TIP3    H1 3609   2.541   0.834   1.305 -0.2944 -0.1204  0.7990
 1201TIP3    H2 3610   2.547   0.818   1.455 -0.6843  0.8169  0.9193
 1202TIP3   OH2 3611   2.228   1.701   5.175  0.0456 -0.5012 -0.3217
 1202TIP3    H1 3612   2.204   1.701   5.083 -1.7596 -0.3098  0.1148
 1202TIP3    H2 3613   2.216   1.611   5.204 -0.8436 -0.2620  0.0699
 1203TIP3   OH2 3614   5.615   5.658   0.001 -0.3970  0.1698  0.4135
 1203TIP3    H1 3615   5.682   5.696   0.058 -1.1372 -1.0303  2.1376
 1203TIP3    H2 3616   5.651   5.574  -0.027 -1.1768 -0.5214  1.4160
 1204TIP3   OH2 3617   5.198   1.629   1.424  0.4346 -0.2129 -0.5689
 1204TIP3    H1 3618   5.138   1.570   1.470  0.1667  1.0058  0.7315
 1204TIP3    H2 3619   5.141   1.694   1.383  0.7245 -0.8250 -1.9845
 1205TIP3   OH2 3620   3.109   2.979   1.026  0.5160 -1.0599  0.1004
 1205TIP3    H1 3621   3.037   2.918   1.041  2.0851 -2.4852  2.3139
 1205TIP3    H2 3622   3.101   3.043   1.096 -0.8122  1.1446 -1.9137
 1206TIP3   OH2 3623   2.811   3.689   4.340  0.9856  0.2950  0.1166
 1206TIP3    H1 3624   2.784   3.777   4.312  0.1600  0.4454  1.2753
 1206TIP3    H2 3625   2.905   3.696   4.355  1.4077  0.2823 -2.1973
 1207TIP3   OH2 3626   1.343   4.150   1.565  0.5420 -0.1762  0.3777
 1207TIP3    H1 3627   1.361   4.099   1.645 -2.8746 -1.4236  0.5285
 1207TIP3    H2 3628   1.340   4.084   1.495  0.4248  0.4499 -0.2164
 1208TIP3   OH2 3629   1.216   1.972   2.684  0.4553 -0.1069 -0.0595
 1208TIP3    H1 3630   1.192   2.061   2.708  0.2231 -0.1869  0.0109
 1208TIP3    H2 3631   1.134   1.933   2.652 -0.0318 -1.0482  2.1562
 1209TIP3   OH2 3632   3.478   4.279   0.029  0.0033  0.1033  0.4870
 1209TIP3    H1 3633   3.555   4.320   0.069  1.9447 -0.6167 -2.2556
 1209TIP3    H2 3634   3.490   4.185   0.043 -1.1979  0.0439  1.3067
 1210TIP3   OH2 3635   5.610   3.988   2.242 -0.1603  0.1231 -0.0012
 1210TIP3    H1 3636   5.632   3.981   2.334 -1.3546  0.0410  0.2978
 1210TIP3    H2 3637   5.515   4.000   2.241 -0.5433 -2.4040 -1.3256
 1211TIP3   OH2 3638   5.407   4.100   0.858  0.1554 -0.5003 -0.4274
 1211TIP3    H1 3639   5.482   4.159   0.867 -0.0488 -0.1905 -0.7233
 1211TIP3    H2 3640   5.410   4.070   0.767 -0.2974 -0.1798 -0.5543
 1212TIP3   OH2 3641   3.958   0.690   2.937  0.3060 -0.1998  0.1655
 1212TIP3    H1 3642   3.925   0.710   3.025 -1.0272  1.7472 -0.7257
 1212TIP3    H2 3643   4.034   0.747   2.927 -1.5084  2.1768 -1.1089
 1213TIP3   OH2 3644   0.281   1.067   3.304  0.1340 -0.2114 -0.2079
 1213TIP3    H1 3645   0.307   1.051   3.395 -0.2468 -0.9981 -0.2293
 1213TIP3    H2 3646   0.192   1.031   3.298 -0.3993  1.1316 -0.5212
 1214TIP3   OH2 3647   1.117   4.627   4.967 -0.4494  0.2772 -0.2702
 1214TIP3    H1 3648   1.092   4.577   4.889  0.6495  3.1657 -2.6997
 1214TIP3    H2 3649   1.211   4.640   4.958 -0.5639  2.0616  0.6311
 1215TIP3   OH2 3650   1.687   1.266   5.017 -0.7054 -0.2579 -0.0357
 1215TIP3    H1 3651   1.677   1.360   5.034 -0.1916 -0.0251 -0.9600
 1215TIP3    H2 3652   1.753   1.237   5.080 -2.2812 -0.4556  1.6449
 1216TIP3   OH2 3653   2.518   4.291   0.838 -0.0031  0.5105 -0.0602
 1216TIP3    H1 3654   2.612   4.279   0.835  0.1569  1.7562 -0.7067
 1216TIP3    H2 3655   2.493   4.264   0.927  0.6731 -1.4862 -0.4222
 1217TIP3   OH2 3656   0.804   4.419   4.907 -0.7523  0.5447  0.4187
 1217TIP3    H1 3657   0.867   4.485   4.879 -1.7287  0.2461 -2.9076
 1217TIP3    H2 3658   0.833   4.338   4.864 -0.4349 -0.9365  3.1970
 1218TIP3   OH2 3659   5.323   0.401   4.423  0.1073  0.3918 -0.0704
 1218TIP3    H1 3660   5.283   0.467   4.366 -1.5275 -0.8854 -0.4937
 1218TIP3    H2 3661   5.277   0.411   4.507  0.1526  0.0567 -0.0053
 1219TIP3   OH2 3662   1.991   3.579   1.538  0.6105 -0.5523 -0.2208
 1219TIP3    H1 3663   2.015   3.546   1.625  0.3051  0.1595  0.1417
 1219TIP3    H2 3664   2.074   3.581   1.490  0.7939 -0.8814  0.0740
 1220TIP3   OH2 3665   2.078   0.743   4.462 -0.1939 -0.4538  0.0088
 1220TIP3    H1 3666   2.107   0.757   4.552 -0.4201 -0.8231  0.1415
 1220TIP3    H2 3667   2.001   0.687   4.470 -2.0978  1.9562 -0.2243
 1221TIP3   OH2 3668   0.101   3.942   4.099  0.0962 -0.0979  0.3551
 1221TIP3    H1 3669   0.173   3.961   4.160 -0.1136  1.5766  0.1280
 1221TIP3    H2 3670   0.143   3.942   4.013 -0.5900  4.9549 -0.2957
 1222TIP3   OH2 3671   4.095   2.167   3.107 -0.2292 -0.6307  0.4812
 1222TIP3    H1 3672   4.161   2.232   3.132 -0.0374 -0.1424 -1.1885
 1222TIP3    H2 3673   4.128   2.085   3.143  1.2777 -0.3863 -0.2585
 1223TIP3   OH2 3674   5.935   2.355   0.328 -0.0390 -0.0969  0.1962
 1223TIP3    H1 3675   5.895   2.280   0.372  0.9093 -0.9049 -0.2675
 1223TIP3    H2 3676   5.937   2.331   0.236  1.6185 -0.1791  0.2111
 1224TIP3   OH2 3677   2.369   1.063   3.989  0.2280 -0.6121 -0.1570
 1224TIP3    H1 3678   2.368   0.979   4.035  0.1715  0.1029  1.1884
 1224TIP3    H2 3679   2.331   1.125   4.051  2.1918  0.8210 -0.2895
 1225TIP3   OH2 3680   0.033   2.193   1.752  0.0136 -0.2916 -0.2138
 1225TIP3    H1 3681   0.098   2.178   1.683 -0.4638 -1.1657 -0.4912
 1225TIP3    H2 3682   0.056   2.130   1.820 -1.4200 -1.6871 -0.9566
 1226TIP3   OH2 3683   4.553   5.021   2.162 -0.0601 -0.1799  0.1495
 1226TIP3    H1 3684   4.501   5.032   2.242 -0.5492 -0.9490 -0.0542
 1226TIP3    H2 3685   4.534   5.099   2.110  1.5847  1.1879  1.4935
 1227TIP3   OH2 3686   6.114   5.485   2.003 -0.1562 -0.3973  0.5137
 1227TIP3    H1 3687   6.049   5.554   1.992  0.9016  0.3372 -1.7333
 1227TIP3    H2 3688   6.189   5.514   1.951  0.1620 -3.4307 -0.9136
 1228TIP3   OH2 3689   1.579   0.467   0.506  0.4356 -0.3895 -0.4330
 1228TIP3    H1 3690   1.625   0.398   0.552  1.1338  2.4165  3.5910
 1228TIP3    H2 3691   1.486   0.446   0.517  0.6358 -1.3645 -0.5399
 1229TIP3   OH2 3692   1.556   0.330   1.279 -0.0470 -0.0087 -0.0254
 1229TIP3    H1 3693   1.476   0.324   1.330 -0.6177 -1.2260 -1.0235
 1229TIP3    H2 3694   1.545   0.266   1.209  0.0036  2.6108 -2.6220
 1230TIP3   OH2 3695   4.929   3.532   4.571 -0.0213  0.1468  0.4570
 1230TIP3    H1 3696   4.911   3.568   4.484  0.1547 -1.0169 -0.0805
 1230TIP3    H2 3697   5.009   3.480   4.559 -0.8459 -1.2834  0.9441
 1231TIP3   OH2 3698   1.996   1.307   1.312  0.0012  0.3179  0.2376
 1231TIP3    H1 3699   1.996   1.307   1.408 -0.9040  0.1379  0.2481
 1231TIP3    H2 3700   2.028   1.221   1.287 -0.9534 -0.0946  0.3997
 1232TIP3   OH2 3701   4.223   0.673   2.535 -0.0837 -0.0941  0.4458
 1232TIP3    H1 3702   4.301   0.651   2.585 -0.4075 -0.8128  0.6520
 1232TIP3    H2 3703   4.219   0.606   2.466 -0.0553  0.4409 -0.0814
 1233TIP3   OH2 3704   5.943   2.517   1.206  0.3499 -0.6302  0.1205
 1233TIP3    H1 3705   6.035   2.497   1.187  0.4095 -1.0195  0.7827
 1233TIP3    H2 3706   5.944   2.608   1.236  0.4983 -0.5885 -0.0094
 1234TIP3   OH2 3707   4.639   3.904   0.147 -0.5870  0.0268  0.6790
 1234TIP3    H1 3708   4.617   3.976   0.088 -0.0783 -1.5895 -1.6191
 1234TIP3    H2 3709   4.569   3.840   0.133 -1.0381  0.0310  2.6880
 1235TIP3   OH2 3710   0.378   4.840   2.811 -0.2850 -0.1575 -0.0075
 1235TIP3    H1 3711   0.458   4.881   2.845  0.0823 -1.1370  0.3472
 1235TIP3    H2 3712   0.307   4.894   2.845  0.2494  1.7431 -1.7017
 1236TIP3   OH2 3713   5.831   1.572   2.576  0.0284 -0.0144  0.2024
 1236TIP3    H1 3714   5.900   1.564   2.641 -0.1313 -2.7995  0.1724
 1236TIP3    H2 3715   5.751   1.584   2.628  0.3209  1.7815  0.2920
 1237TIP3   OH2 3716   2.673   2.059   1.800 -0.2905 -0.0031 -0.0329
 1237TIP3    H1 3717   2.680   1.974   1.755 -1.5700  0.1838 -0.6301
 1237TIP3    H2 3718   2.763   2.092   1.803  0.6574 -2.4513  2.3877
 1238TIP3   OH2 3719   1.642   5.331   3.551  0.4071  0.2100 -0.3844
 1238TIP3    H1 3720   1.587   5.260   3.583 -1.9307  2.1164  0.1548
 1238TIP3    H2 3721   1.652   5.314   3.457 -0.8097 -0.4112 -0.4206
 1239TIP3   OH2 3722   6.096   3.000   2.931  0.6336  0.3597 -0.5200
 1239TIP3    H1 3723   6.127   3.012   3.021 -0.8556  0.3457  0.0229
 1239TIP3    H2 3724   6.075   2.907   2.925 -2.2335  0.8800  0.1674
 1240TIP3   OH2 3725   1.333   2.501   0.177  0.3710 -0.1086 -0.4101
 1240TIP3    H1 3726   1.418   2.543   0.163 -0.5157  2.0542  0.2373
 1240TIP3    H2 3727   1.354   2.409   0.192  2.4592  0.0678 -1.7394
 1241TIP3   OH2 3728   2.832   5.273   1.102 -0.4161 -0.2170  0.3355
 1241TIP3    H1 3729   2.825   5.337   1.173 -2.1421  0.8180 -0.7103
 1241TIP3    H2 3730   2.773   5.202   1.128 -1.0959  0.1904 -0.0694
 1242TIP3   OH2 3731   0.289   5.520   0.066 -0.6844 -0.4784 -0.3572
 1242TIP3    H1 3732   0.230   5.444   0.062 -1.8600  0.4008 -0.4724
 1242TIP3    H2 3733   0.230   5.595   0.065  0.2706  0.4372  2.2137
 1243TIP3   OH2 3734   2.539   3.223   0.713  0.4504 -0.0771  0.4200
 1243TIP3    H1 3735   2.613   3.267   0.671 -0.4590  0.7044 -0.4030
 1243TIP3    H2 3736   2.572   3.136   0.735  2.4504  1.0925  2.4747
 1244TIP3   OH2 3737   4.797   3.861   3.808 -0.3897 -0.4493 -0.3364
 1244TIP3    H1 3738   4.741   3.932   3.778  1.4460  1.3271  0.2098
 1244TIP3    H2 3739   4.837   3.895   3.889  2.5942 -0.9588 -1.4775
 1245TIP3   OH2 3740   3.702   5.089   1.161  0.2986 -0.1596  0.0525
 1245TIP3    H1 3741   3.744   5.003   1.147  1.7122  0.4543  0.3180
 1245TIP3    H2 3742   3.664   5.082   1.248 -1.0003 -1.0485 -0.5583
 1246TIP3   OH2 3743   4.605   4.134   2.083  0.1714 -0.2327  0.1032
 1246TIP3    H1 3744   4.663   4.086   2.142  0.8054 -0.7779 -0.9528
 1246TIP3    H2 3745   4.595   4.078   2.006 -0.6887  0.4421 -0.2999
 1247TIP3   OH2 3746   1.566   4.624   2.123  0.2156 -0.4764  0.4647
 1247TIP3    H1 3747   1.651   4.669   2.126 -0.4497  0.9165 -0.4892
 1247TIP3    H2 3748   1.588   4.531   2.126  1.8574 -0.1994 -1.0759
 1248TIP3   OH2 3749   1.852   1.279   4.718 -0.0144  0.1787  0.5658
 1248TIP3    H1 3750   1.772   1.292   4.770  0.0979 -0.5916  0.9516
 1248TIP3    H2 3751   1.863   1.360   4.670 -1.0747  0.2726  0.4593
 1249TIP3   OH2 3752   0.443   4.667   1.092 -0.0358  0.8376  0.0820
 1249TIP3    H1 3753   0.415   4.708   1.174 -0.2435 -0.3590  0.6216
 1249TIP3    H2 3754   0.537   4.687   1.087 -0.4593  2.9093 -0.5914
 1250TIP3   OH2 3755   0.078   2.940   0.082  0.1375  0.5636 -0.1158
 1250TIP3    H1 3756   0.107   3.031   0.088  0.0810  0.6555 -1.0987
 1250TIP3    H2 3757  -0.017   2.945   0.072  0.2200  0.4335 -0.9925
 1251TIP3   OH2 3758   1.614   5.900   2.801 -0.3155  0.0955  0.1770
 1251TIP3    H1 3759   1.632   5.913   2.708  0.3779  1.7729  0.4964
 1251TIP3    H2 3760   1.549   5.830   2.804 -1.2279  0.7978 -1.6421
 1252TIP3   OH2 3761   4.764   4.144   1.189 -0.0599 -0.3782 -0.3288
 1252TIP3    H1 3762   4.688   4.101   1.152 -0.5409 -0.1213  0.3324
 1252TIP3    H2 3763   4.753   4.237   1.167  1.6177 -0.6728 -2.8653
 1253TIP3   OH2 3764   4.617   1.190   1.106 -0.2823 -0.6917 -0.2877
 1253TIP3    H1 3765   4.582   1.205   1.194  1.6796  0.0090  0.4202
 1253TIP3    H2 3766   4.711   1.204   1.115 -0.1126  0.1498 -2.6557
 1254TIP3   OH2 3767   0.706   3.522   4.415 -0.0385 -0.0101  0.1422
 1254TIP3    H1 3768   0.651   3.445   4.428 -1.0758  0.3332 -1.8954
 1254TIP3    H2 3769   0.789   3.488   4.383  0.6751 -0.4626  2.3327
 1255TIP3   OH2 3770   4.174   5.944   1.166  0.3831  1.0444 -0.3137
 1255TIP3    H1 3771   4.195   5.965   1.075  0.3116 -0.7176 -0.7747
 1255TIP3    H2 3772   4.145   6.027   1.204  0.1582  1.7598 -1.9671
 1256TIP3   OH2 3773   1.220   0.484   4.647 -0.0033 -0.2297 -0.1471
 1256TIP3    H1 3774   1.174   0.402   4.668  0.0371 -0.1113  0.4096
 1256TIP3    H2 3775   1.161   0.553   4.678  0.2389 -0.0613 -0.0612
 1257TIP3   OH2 3776   6.302   2.555   2.566  0.1737  0.1979  0.1776
 1257TIP3    H1 3777   6.353   2.519   2.639 -0.4515  0.8145  0.9430
 1257TIP3    H2 3778   6.365   2.608   2.517  0.2468  1.1198  1.2270
 1258TIP3   OH2 3779   0.675   0.289   3.441  0.0404  0.6675 -0.0921
 1258TIP3    H1 3780   0.662   0.376   3.479  0.0108  0.0691  1.3280
 1258TIP3    H2 3781   0.761   0.293   3.399  1.0301  0.7689  1.8469
 1259TIP3   OH2 3782   0.427   5.536   3.769 -0.2451  0.2475  0.2716
 1259TIP3    H1 3783   0.478   5.470   3.723  0.4880 -0.6917  2.2954
 1259TIP3    H2 3784   0.491   5.602   3.795  0.0933 -1.0018  2.9407
 1260TIP3   OH2 3785   0.149   0.034   2.065  0.0850 -0.2075  0.3730
 1260TIP3    H1 3786   0.222   0.008   2.122 -1.2220 -0.1675  2.1382
 1260TIP3    H2 3787   0.175   0.120   2.031  0.9523 -0.2755  0.8340
 1261TIP3   OH2 3788   1.369   2.731   2.719 -0.6335  0.4534  0.3807
 1261TIP3    H1 3789   1.304   2.730   2.790 -1.6266  1.6337 -0.4674
 1261TIP3    H2 3790   1.360   2.818   2.680 -0.5550 -0.3697 -1.5877
 1262TIP3   OH2 3791   4.898   2.805   0.694  0.1088  0.0381 -0.3037
 1262TIP3    H1 3792   4.906   2.761   0.610 -0.2829 -0.2175 -0.2063
 1262TIP3    H2 3793   4.804   2.819   0.706  0.0225 -1.3427  0.8223
 1263TIP3   OH2 3794   4.783   4.349   1.781 -0.0305 -0.3894  0.0160
 1263TIP3    H1 3795   4.712   4.409   1.758 -0.5662 -1.0517 -0.0950
 1263TIP3    H2 3796   4.806   4.307   1.699  1.0142  0.3494 -0.0941
 1264TIP3   OH2 3797   1.467   5.639   3.984 -0.3693 -0.1294  0.1396
 1264TIP3    H1 3798   1.381   5.652   3.944 -0.0625  1.0368 -0.1800
 1264TIP3    H2 3799   1.488   5.547   3.966 -1.6237 -0.4906  0.4109
 1265TIP3   OH2 3800   0.104   5.060   3.533  0.0055 -0.0485 -0.2960
 1265TIP3    H1 3801   0.112   4.966   3.548  0.2302  0.0111 -0.0282
 1265TIP3    H2 3802   0.170   5.099   3.590 -1.3289  0.3859  1.0028
 1266TIP3   OH2 3803   5.722   0.815   3.336  0.1899  0.6538  1.1459
 1266TIP3    H1 3804   5.657   0.878   3.306 -0.4084  0.5434  2.1649
 1266TIP3    H2 3805   5.805   0.862   3.332  0.1693  0.6046 -0.7433
 1267TIP3   OH2 3806   2.163   2.863   5.178 -1.0440  0.0838  0.1295
 1267TIP3    H1 3807   2.148   2.958   5.172  0.9542  0.3656 -2.0053
 1267TIP3    H2 3808   2.146   2.831   5.090 -0.8102 -1.4230  0.6088
 1268TIP3   OH2 3809   0.093   2.805   2.912  0.0405  0.4374 -0.0333
 1268TIP3    H1 3810   0.107   2.797   3.006  0.4575 -0.4354 -0.1572
 1268TIP3    H2 3811   0.014   2.858   2.904 -0.6297 -0.4028  0.8240
 1269TIP3   OH2 3812   2.252   3.345   2.853  0.5196 -0.3268  0.0116
 1269TIP3    H1 3813   2.341   3.369   2.881 -0.5264  2.1389  1.5562
 1269TIP3    H2 3814   2.263   3.310   2.765  2.9772  0.2085  0.0420
 1270TIP3   OH2 3815   1.369   1.825   4.515 -0.2139 -0.0980  0.1855
 1270TIP3    H1 3816   1.384   1.917   4.537 -1.0661 -0.0410  0.5436
 1270TIP3    H2 3817   1.343   1.784   4.598  1.5428 -0.9871  0.3507
 1271TIP3   OH2 3818   1.322   0.655   4.883 -0.2161 -0.3288  0.1663
 1271TIP3    H1 3819   1.342   0.631   4.793 -0.2099  0.3956 -0.0241
 1271TIP3    H2 3820   1.230   0.631   4.894  0.1152 -1.6239  0.3785
 1272TIP3   OH2 3821   5.093   5.898   4.930 -0.4287 -0.1020 -0.3852
 1272TIP3    H1 3822   5.016   5.849   4.957 -0.2706  0.0313  0.3298
 1272TIP3    H2 3823   5.120   5.858   4.848 -1.2507 -0.1518 -0.6340
 1273TIP3   OH2 3824   3.400   4.651   4.426 -0.1588 -0.2018 -0.1197
 1273TIP3    H1 3825   3.465   4.720   4.441  0.0388 -0.2228 -0.8711
 1273TIP3    H2 3826   3.438   4.597   4.357 -0.8599 -0.3561 -0.3891
 1274TIP3   OH2 3827   5.171   1.873   1.019  0.3907  0.2115 -0.5127
 1274TIP3    H1 3828   5.126   1.925   0.953  1.6972  0.0626 -1.5521
 1274TIP3    H2 3829   5.264   1.891   1.005  0.6967  0.3910  1.4698
 1275TIP3   OH2 3830   4.235   4.353   2.469  0.1278  0.4503  0.0230
 1275TIP3    H1 3831   4.288   4.352   2.389 -0.1937 -0.7910 -0.1874
 1275TIP3    H2 3832   4.166   4.417   2.450 -1.1427 -1.2761 -1.5251
 1276TIP3   OH2 3833   4.208   2.094   5.095 -0.2684 -0.0944  0.3131
 1276TIP3    H1 3834   4.171   2.091   5.007 -0.3220  2.4946  0.1677
 1276TIP3    H2 3835   4.140   2.134   5.148  0.5854  0.4130  1.0470
 1277TIP3   OH2 3836   0.648   3.778   3.044  0.0190  0.2767 -0.2253
 1277TIP3    H1 3837   0.568   3.774   3.096 -0.0094  0.6657 -0.2311
 1277TIP3    H2 3838   0.711   3.724   3.093 -0.7506 -1.5376 -1.1682
 1278TIP3   OH2 3839   4.278   0.334   0.967 -0.0722 -1.0711 -0.3515
 1278TIP3    H1 3840   4.366   0.302   0.948  1.1449  1.3709  0.7003
 1278TIP3    H2 3841   4.242   0.354   0.881  1.0863 -0.5056 -0.7365
 1279TIP3   OH2 3842   0.563   1.199   4.046  0.6534  0.0205  0.1829
 1279TIP3    H1 3843   0.601   1.234   4.127 -2.1548 -1.3065  2.2705
 1279TIP3    H2 3844   0.485   1.253   4.032  0.2327 -0.8065 -0.7306
 1280TIP3   OH2 3845   0.046   3.129   3.668 -0.6243  0.3615  0.0837
 1280TIP3    H1 3846   0.112   3.072   3.631 -0.4911  0.4143  0.2406
 1280TIP3    H2 3847  -0.034   3.076   3.669 -0.0984 -0.4631  1.9459
 1281TIP3   OH2 3848   6.066   5.640   0.897 -0.1105  0.1319 -0.3491
 1281TIP3    H1 3849   6.143   5.649   0.841 -0.2095  0.1140 -0.4878
 1281TIP3    H2 3850   6.074   5.552   0.934  1.5273  1.1618  2.0023
 1282TIP3   OH2 3851   1.967   4.027   1.933 -0.1611 -1.0111 -0.0266
 1282TIP3    H1 3852   2.055   3.989   1.935 -0.2235 -1.1290  0.4724
 1282TIP3    H2 3853   1.974   4.098   1.869  0.9601  0.5921  1.7665
 1283TIP3   OH2 3854   0.039   0.661   3.261  0.0007 -0.0216  0.7393
 1283TIP3    H1 3855  -0.045   0.638   3.221  1.0596 -1.5198 -0.7583
 1283TIP3    H2 3856   0.091   0.581   3.254  1.1329  0.4684  2.8429
 1284TIP3   OH2 3857   3.780   3.323   1.656 -0.1644  0.1379 -0.2015
 1284TIP3    H1 3858   3.784   3.417   1.635  0.3502  0.1223 -0.1902
 1284TIP3    H2 3859   3.871   3.298   1.668 -0.4088  0.0571  1.6867
 1285TIP3   OH2 3860   1.815   5.639   4.811 -0.7120  0.0756  0.5423
 1285TIP3    H1 3861   1.762   5.602   4.741 -1.1469  0.7408  0.5071
 1285TIP3    H2 3862   1.773   5.723   4.831 -0.2770  0.1372  1.2285
 1286TIP3   OH2 3863   2.889   1.034   4.026  0.0485 -0.4463 -0.0103
 1286TIP3    H1 3864   2.795   1.020   4.015  0.2654 -1.8110 -0.3063
 1286TIP3    H2 3865   2.922   0.951   4.059  0.9363  0.5132  1.6192
 1287TIP3   OH2 3866   1.610   2.095   1.833  0.0084  0.1227 -0.3318
 1287TIP3    H1 3867   1.634   2.108   1.924 -1.0164  1.8580 -0.2776
 1287TIP3    H2 3868   1.530   2.145   1.821  0.4408  0.4386 -2.3373
 1288TIP3   OH2 3869   0.020   1.973   4.431  0.2927 -0.2488 -0.3343
 1288TIP3    H1 3870   0.089   2.039   4.440  1.1559 -0.9105 -1.5970
 1288TIP3    H2 3871   0.042   1.907   4.496 -0.7093  0.7774  1.0963
 1289TIP3   OH2 3872   1.600   5.818   2.509 -0.3940 -0.0634  0.7271
 1289TIP3    H1 3873   1.615   5.802   2.416 -2.9010 -0.4245  0.3159
 1289TIP3    H2 3874   1.529   5.882   2.511 -0.5018 -0.1883  2.3913
 1290TIP3   OH2 3875   3.329   5.782   0.670 -0.0342 -0.1583  0.4016
 1290TIP3    H1 3876   3.360   5.745   0.588 -0.1179 -1.1424  0.7979
 1290TIP3    H2 3877   3.406   5.824   0.708  0.0948 -0.0358  0.0110
 1291TIP3   OH2 3878   1.814   3.012   4.751 -0.0300  0.2434 -0.0517
 1291TIP3    H1 3879   1.860   3.091   4.781 -0.0650 -0.4676  2.0764
 1291TIP3    H2 3880   1.723   3.028   4.775 -0.4470  0.4603 -1.6774
 1292TIP3   OH2 3881   0.091   3.234   3.335  0.1111  1.0662 -1.2199
 1292TIP3    H1 3882   0.121   3.268   3.251 -0.5259 -0.6407 -2.1833
 1292TIP3    H2 3883  -0.002   3.258   3.339 -0.3532 -0.4869 -1.9231
 1293TIP3   OH2 3884   2.734   4.291   4.426 -0.0707  0.2891  0.1131
 1293TIP3    H1 3885   2.809   4.231   4.431  0.6885  1.0805 -1.2878
 1293TIP3    H2 3886   2.771   4.373   4.393 -1.8291  0.1034 -2.6198
 1294TIP3   OH2 3887   4.571   5.696   1.579  0.3354 -0.4914  0.5191
 1294TIP3    H1 3888   4.505   5.763   1.598 -0.5102 -1.4965  1.2856
 1294TIP3    H2 3889   4.636   5.705   1.648  1.3121  0.8264 -0.5146
 1295TIP3   OH2 3890   3.645   1.658   2.952 -0.3000 -0.0507 -0.4662
 1295TIP3    H1 3891   3.702   1.647   3.028  0.3669 -1.5603 -1.1259
 1295TIP3    H2 3892   3.603   1.743   2.964  1.7206  0.8999  0.3029
 1296TIP3   OH2 3893   4.460   4.704   3.132 -0.3147  0.2692  0.4195
 1296TIP3    H1 3894   4.455   4.756   3.052 -2.7579  0.4951  0.6182
 1296TIP3    H2 3895   4.425   4.619   3.108  1.2361 -0.4854  0.7129
 1297TIP3   OH2 3896   4.044   4.818   3.570  0.1350 -0.5958  0.9112
 1297TIP3    H1 3897   3.950   4.834   3.561  0.4421  0.7004 -0.1768
 1297TIP3    H2 3898   4.055   4.726   3.543 -0.6254 -0.2957 -0.5330
 1298TIP3   OH2 3899   3.139   1.184   1.887  0.6655  0.3548  0.0752
 1298TIP3    H1 3900   3.105   1.108   1.839 -2.2138  0.2010  2.0659
 1298TIP3    H2 3901   3.223   1.155   1.922  0.3320 -1.3655 -0.4442
 1299TIP3   OH2 3902   4.745   4.840   1.801  0.0380 -0.4939 -0.1472
 1299TIP3    H1 3903   4.829   4.794   1.806  0.8188  0.9001  0.1361
 1299TIP3    H2 3904   4.689   4.795   1.864  0.4917 -1.5964 -0.5187
 1300TIP3   OH2 3905   4.987   5.381   2.576 -0.8966 -0.2449 -0.1419
 1300TIP3    H1 3906   4.960   5.418   2.660 -0.8364 -0.8090  0.1272
 1300TIP3    H2 3907   4.926   5.419   2.513 -2.3750 -1.5321  0.4539
 1301TIP3   OH2 3908   5.068   1.061   1.651  0.0840 -0.3139  0.0338
 1301TIP3    H1 3909   5.105   1.030   1.569  0.3281 -1.7203  0.6565
 1301TIP3    H2 3910   4.974   1.067   1.633 -0.0223 -1.7926 -0.0077
 1302TIP3   OH2 3911   0.184   3.187   1.359 -0.4285  0.5857 -0.6213
 1302TIP3    H1 3912   0.270   3.185   1.400 -1.0032  1.2368  0.6865
 1302TIP3    H2 3913   0.161   3.095   1.347 -0.3537  0.3663  0.8038
 1303TIP3   OH2 3914   5.631   2.531   1.157  0.1562  0.1351  0.3946
 1303TIP3    H1 3915   5.668   2.597   1.215 -0.7647 -0.4742  1.7269
 1303TIP3    H2 3916   5.698   2.462   1.154  0.3498  0.3193  0.4673
 1304TIP3   OH2 3917   5.517   0.622   4.336 -0.2512 -0.1279 -0.1610
 1304TIP3    H1 3918   5.442   0.632   4.395  1.0019  0.8012  1.3463
 1304TIP3    H2 3919   5.576   0.563   4.383  0.0317 -0.7851 -1.2975
 1305TIP3   OH2 3920   4.852   2.131   4.419 -0.0259  0.1855  0.1927
 1305TIP3    H1 3921   4.850   2.060   4.354 -0.3997 -0.7062  1.1414
 1305TIP3    H2 3922   4.784   2.192   4.389  0.0805 -0.0045 -0.4678
 1306TIP3   OH2 3923   2.462   4.877   3.590 -0.5159 -0.1095  0.0611
 1306TIP3    H1 3924   2.462   4.969   3.615 -0.0395 -0.0296 -0.2217
 1306TIP3    H2 3925   2.549   4.845   3.612  0.4958  0.3621 -2.8147
 1307TIP3   OH2 3926   3.677   2.290   3.873  0.0854  0.2184  0.0514
 1307TIP3    H1 3927   3.772   2.300   3.864 -0.0907  3.0885  0.6180
 1307TIP3    H2 3928   3.650   2.249   3.791  1.8144 -0.8850 -0.0217
 1308TIP3   OH2 3929   1.281   1.255   2.319 -0.2532  0.9212  0.5593
 1308TIP3    H1 3930   1.202   1.300   2.287 -0.3955  0.6090  0.4598
 1308TIP3    H2 3931   1.252   1.211   2.400 -1.1236 -1.9421 -1.1532
 1309TIP3   OH2 3932   1.406   2.982   1.199 -0.3515 -0.3287  0.1798
 1309TIP3    H1 3933   1.481   2.926   1.177 -0.3090 -0.6660  1.1372
 1309TIP3    H2 3934   1.443   3.051   1.254 -0.5178  0.2841 -0.4728
 1310TIP3   OH2 3935   1.663   0.879   2.097  0.9339 -0.0893 -0.5408
 1310TIP3    H1 3936   1.649   0.936   2.022 -0.1211 -0.6024 -0.7571
 1310TIP3    H2 3937   1.757   0.884   2.115  1.4662 -1.0456 -2.7884
 1311TIP3   OH2 3938   2.113   1.595   3.781 -0.4876 -0.0826  0.5299
 1311TIP3    H1 3939   2.192   1.604   3.728 -1.5583 -0.4869 -1.2171
 1311TIP3    H2 3940   2.064   1.676   3.765 -1.3268 -0.6783  0.0128
 1312TIP3   OH2 3941   2.573   1.895   2.818 -0.3579 -0.4049  0.0775
 1312TIP3    H1 3942   2.628   1.830   2.862  0.0961 -0.2671 -0.2891
 1312TIP3    H2 3943   2.494   1.899   2.872  0.0869 -0.4234  0.7418
 1313TIP3   OH2 3944   1.429   0.464   2.281  0.3050  0.3180 -0.5600
 1313TIP3    H1 3945   1.519   0.442   2.258  0.7390  3.2517 -2.2520
 1313TIP3    H2 3946   1.437   0.535   2.344 -0.8833 -0.4673  0.5175
 1314TIP3   OH2 3947   6.170   4.877   1.048 -0.2150  0.1784 -0.1018
 1314TIP3    H1 3948   6.100   4.933   1.014  0.8881  0.5756 -1.8037
 1314TIP3    H2 3949   6.134   4.788   1.042 -0.6399  0.3877 -0.8064
 1315TIP3   OH2 3950   5.859   4.463   5.007  0.1298  0.4305  0.3227
 1315TIP3    H1 3951   5.859   4.488   5.100  0.8093  2.9698 -0.2661
 1315TIP3    H2 3952   5.770   4.434   4.990 -1.1778  3.6059  0.9686
 1316TIP3   OH2 3953   4.820   4.732   2.821  0.4569  0.1441 -0.3691
 1316TIP3    H1 3954   4.752   4.666   2.806  1.0797 -0.5676 -0.1356
 1316TIP3    H2 3955   4.817   4.788   2.743 -0.3011  0.0495 -0.4209
 1317TIP3   OH2 3956   1.824   0.605   0.514 -0.2025  0.4209  0.1467
 1317TIP3    H1 3957   1.737   0.566   0.526 -0.1860 -0.1809 -1.4902
 1317TIP3    H2 3958   1.807   0.698   0.500 -0.5191  0.4293  0.5705
 1318TIP3   OH2 3959   3.987   0.106   2.551  0.0648  0.0172 -0.2771
 1318TIP3    H1 3960   3.975   0.011   2.556 -1.7002  0.1997 -0.3194
 1318TIP3    H2 3961   4.054   0.118   2.485 -0.3093 -1.1808 -0.9146
 1319TIP3   OH2 3962   1.831   0.606   4.456 -0.5876  0.2027 -0.6092
 1319TIP3    H1 3963   1.753   0.658   4.441 -0.0858  0.9330 -0.7105
 1319TIP3    H2 3964   1.831   0.590   4.551 -1.9645 -1.5913 -0.8513
 1320TIP3   OH2 3965   0.565   2.055   2.701 -0.5397  0.0551  0.0943
 1320TIP3    H1 3966   0.554   2.031   2.793 -1.0094 -1.1085 -0.2443
 1320TIP3    H2 3967   0.574   1.971   2.655  1.7686  0.6471 -0.6874
 1321TIP3   OH2 3968   2.749   3.081   4.439  0.1627  0.0897  0.2709
 1321TIP3    H1 3969   2.827   3.067   4.494  1.3202 -2.0492 -1.7320
 1321TIP3    H2 3970   2.770   3.160   4.389  1.0391 -0.3916 -0.1568
 1322TIP3   OH2 3971   0.041   5.102   3.262  0.0939 -0.1158 -0.5096
 1322TIP3    H1 3972   0.013   5.194   3.264 -0.1450 -0.1930  0.0039
 1322TIP3    H2 3973   0.048   5.078   3.355  2.5559  0.0954 -0.5813
 1323TIP3   OH2 3974   0.697   0.286   0.575  0.2077  0.4770 -0.6592
 1323TIP3    H1 3975   0.696   0.381   0.584 -0.6160  0.4815 -0.7517
 1323TIP3    H2 3976   0.780   0.259   0.616  0.0134  1.1497  0.2121
 1324TIP3   OH2 3977   6.124   2.953   1.054 -0.2276  0.0489 -0.3701
 1324TIP3    H1 3978   6.096   3.043   1.073  0.1615  0.1482 -0.2731
 1324TIP3    H2 3979   6.048   2.913   1.012 -0.2155  0.5814 -0.8959
 1325TIP3   OH2 3980   3.873   4.067   2.488 -0.0501 -0.0489  0.2444
 1325TIP3    H1 3981   3.959   4.041   2.456  1.2662  2.6178  1.1978
 1325TIP3    H2 3982   3.846   3.995   2.545  1.5041 -1.0119 -0.1589
 1326TIP3   OH2 3983   4.892   0.677   1.822  0.9203 -0.0451  0.3463
 1326TIP3    H1 3984   4.924   0.587   1.816  1.9011  0.2587  0.8324
 1326TIP3    H2 3985   4.848   0.692   1.738 -1.0639 -1.6233  1.0235
 1327TIP3   OH2 3986   2.086   4.920   0.510  0.4798  0.2079 -0.0225
 1327TIP3    H1 3987   2.108   4.917   0.417 -1.2242 -1.4993 -0.4092
 1327TIP3    H2 3988   2.151   4.863   0.552  0.4666 -0.0428 -0.3424
 1328TIP3   OH2 3989   3.592   0.004   2.291 -0.3822 -0.1482  0.2632
 1328TIP3    H1 3990   3.551   0.090   2.285  1.3454  0.6759 -0.7174
 1328TIP3    H2 3991   3.686   0.023   2.296 -0.0593 -1.9371  2.0606
 1329TIP3   OH2 3992   1.842   5.880   3.601 -0.8670  0.6534  0.3409
 1329TIP3    H1 3993   1.920   5.936   3.601  0.3217 -0.8153  2.6783
 1329TIP3    H2 3994   1.812   5.880   3.510  1.8261  1.3636 -0.6588
 1330TIP3   OH2 3995   5.834   0.169   1.228 -0.0130  0.2182 -0.1662
 1330TIP3    H1 3996   5.844   0.218   1.310 -0.0529  0.1666 -0.1302
 1330TIP3    H2 3997   5.878   0.223   1.162 -2.1396  1.5376 -0.6131
 1331TIP3   OH2 3998   2.395   1.004   2.684 -0.1992  0.0326 -0.3074
 1331TIP3    H1 3999   2.464   1.017   2.619 -0.5564 -0.3866 -0.7743
 1331TIP3    H2 4000   2.318   1.047   2.646  0.1322  1.7729  0.8426
 1332TIP3   OH2 4001   0.374   4.954   0.277 -0.2030  0.2082 -0.1255
 1332TIP3    H1 4002   0.371   4.905   0.360  1.4115  0.9196  0.3921
 1332TIP3    H2 4003   0.363   4.887   0.210  0.7420 -0.7310  0.6118
 1333TIP3   OH2 4004   1.689   0.647   2.400 -0.5135 -0.1498 -0.9784
 1333TIP3    H1 4005   1.616   0.708   2.391 -0.1980  1.3133  3.5015
 1333TIP3    H2 4006   1.765   0.696   2.369 -0.6864  0.7372 -0.0772
 1334TIP3   OH2 4007   0.863   3.376   2.062 -0.5428 -0.1711  0.4779
 1334TIP3    H1 4008   0.936   3.363   2.121 -1.7604 -0.2895  2.0171
 1334TIP3    H2 4009   0.903   3.382   1.975  1.3461  0.5989  1.3435
 1335TIP3   OH2 4010   4.278   4.550   3.843 -0.4263 -0.2535  0.6906
 1335TIP3    H1 4011   4.366   4.518   3.826 -0.3499  0.4822 -0.3972
 1335TIP3    H2 4012   4.221   4.486   3.800 -0.3367  0.1691 -0.0857
 1336TIP3   OH2 4013   3.978   3.525   4.518  0.4329 -0.3858 -0.0693
 1336TIP3    H1 4014   3.895   3.483   4.539 -0.6933  0.4093 -2.5854
 1336TIP3    H2 4015   3.995   3.501   4.427  0.9099  2.6805 -0.8814
 1337TIP3   OH2 4016   5.208   1.660   4.918  0.1296 -0.5059 -0.0117
 1337TIP3    H1 4017   5.132   1.695   4.872  0.4105  0.3019  0.1255
 1337TIP3    H2 4018   5.280   1.718   4.895  0.0701  0.5777  2.2497
 1338TIP3   OH2 4019   0.365   4.870   0.820 -0.1397  0.3807 -0.3964
 1338TIP3    H1 4020   0.453   4.836   0.833 -0.3028  0.9501  2.9208
 1338TIP3    H2 4021   0.309   4.811   0.870 -1.7080  0.1423 -2.2747
 1339TIP3   OH2 4022   1.494   5.968   0.051 -0.3143 -0.1315  0.1004
 1339TIP3    H1 4023   1.481   5.947   0.143  0.7634  1.5501  0.6954
 1339TIP3    H2 4024   1.553   5.900   0.019  0.8705  0.3358  1.1938
 1340TIP3   OH2 4025   5.574   4.609   1.876  0.3804 -0.2784  0.3040
 1340TIP3    H1 4026   5.547   4.701   1.878 -0.0034 -0.3922  0.6070
 1340TIP3    H2 4027   5.615   4.594   1.961 -1.2762 -0.8748  1.0490
 1341TIP3   OH2 4028   6.288   2.489   2.967  0.2168  0.4758 -0.1325
 1341TIP3    H1 4029   6.249   2.405   2.988  0.4256 -0.2446 -2.3706
 1341TIP3    H2 4030   6.382   2.473   2.966  0.2327  0.5412 -1.1994
 1342TIP3   OH2 4031   2.059   3.736   1.840 -0.1689 -0.6512 -0.1471
 1342TIP3    H1 4032   1.985   3.682   1.813  0.2889 -0.9148 -0.9283
 1342TIP3    H2 4033   2.129   3.673   1.860 -0.4755 -0.4646  1.6853
 1343TIP3   OH2 4034   1.977   0.124   2.271 -0.2402  0.3126 -0.0740
 1343TIP3    H1 4035   2.068   0.096   2.276 -1.2530 -3.5011  0.9088
 1343TIP3    H2 4036   1.970   0.195   2.334  1.9436  0.3563  0.1971
 1344TIP3   OH2 4037   3.019   2.101   4.179  0.0962  0.2493  0.2053
 1344TIP3    H1 4038   3.063   2.063   4.103  0.2341  0.2613  0.2773
 1344TIP3    H2 4039   2.928   2.110   4.153  0.5118  2.3174 -0.7976
 1345TIP3   OH2 4040   4.559   5.424   1.160  0.3024  0.5622  0.6617
 1345TIP3    H1 4041   4.599   5.421   1.247 -0.9817 -0.3496  1.2613
 1345TIP3    H2 4042   4.536   5.333   1.141  0.1057  0.8246 -0.4193
 1346TIP3   OH2 4043   6.243   0.960   1.372 -0.4802 -0.1369  0.2197
 1346TIP3    H1 4044   6.184   0.885   1.385 -1.5703  0.1960 -2.0990
 1346TIP3    H2 4045   6.184   1.033   1.353  0.5830  1.2610  2.0625
 1347TIP3   OH2 4046   0.716   0.620   2.943  0.3237 -0.4370 -0.2678
 1347TIP3    H1 4047   0.716   0.714   2.962  1.8084 -0.1609 -1.4903
 1347TIP3    H2 4048   0.662   0.611   2.865  0.6356 -0.5318 -0.4715
 1348TIP3   OH2 4049   4.140   1.658   4.469 -0.3274  0.3619  0.0428
 1348TIP3    H1 4050   4.161   1.672   4.377  0.2858  1.0254  0.2707
 1348TIP3    H2 4051   4.049   1.687   4.478 -1.0429 -1.4890 -0.7279
 1349TIP3   OH2 4052   3.038   1.382   0.101  0.2129  0.5228  0.5556
 1349TIP3    H1 4053   2.966   1.427   0.145 -0.6497 -0.2683 -0.0130
 1349TIP3    H2 4054   3.005   1.366   0.012  1.3566  0.7689  0.0698
 1350TIP3   OH2 4055   4.206   3.728   3.585 -0.1707  0.4948  0.3824
 1350TIP3    H1 4056   4.260   3.734   3.664  0.6777 -0.6284 -0.0918
 1350TIP3    H2 4057   4.139   3.663   3.606 -0.5089  0.8761  0.4928
 1351TIP3   OH2 4058   4.520   1.682   2.811  0.2661  0.1031  0.0167
 1351TIP3    H1 4059   4.581   1.746   2.847  1.2302 -0.2805 -0.9070
 1351TIP3    H2 4060   4.570   1.601   2.805 -1.0145 -0.8370  1.4020
 1352TIP3   OH2 4061   3.954   2.588   2.044 -0.3879 -0.0024 -0.8183
 1352TIP3    H1 4062   3.909   2.603   1.961 -1.7267 -0.8411 -0.2700
 1352TIP3    H2 4063   3.971   2.494   2.045  2.6200  0.4294 -1.5866
 1353TIP3   OH2 4064   5.799   3.977   0.626  0.1487  0.4426  0.3623
 1353TIP3    H1 4065   5.874   3.919   0.628  0.2679  0.5671 -0.3522
 1353TIP3    H2 4066   5.752   3.954   0.545 -0.7414  0.1664  0.9354
 1354TIP3   OH2 4067   4.474   0.658   4.055 -0.2624  0.3899  0.2849
 1354TIP3    H1 4068   4.436   0.581   4.013  0.1376 -0.0552  0.7177
 1354TIP3    H2 4069   4.476   0.635   4.148  3.4140 -0.7241  0.1066
 1355TIP3   OH2 4070   0.108   5.207   2.606  0.0750 -0.2517 -0.1365
 1355TIP3    H1 4071   0.197   5.217   2.641 -0.3439  2.1071  0.4127
 1355TIP3    H2 4072   0.121   5.178   2.515  1.5938  2.3864 -0.8814
 1356TIP3   OH2 4073   1.613   4.559   3.122  0.7379  0.0465 -0.1005
 1356TIP3    H1 4074   1.661   4.519   3.050  1.0628  1.0877 -0.4723
 1356TIP3    H2 4075   1.676   4.617   3.165  0.4565 -0.3181  0.8243
 1357TIP3   OH2 4076   1.363   2.861   2.465 -0.7169  0.1778  0.1379
 1357TIP3    H1 4077   1.439   2.809   2.440 -0.3673  0.3717  0.7796
 1357TIP3    H2 4078   1.290   2.800   2.461 -0.1481 -0.6871  1.9644
 1358TIP3   OH2 4079   3.177   4.103   4.608 -0.8196 -0.1036  0.5175
 1358TIP3    H1 4080   3.140   4.022   4.645  0.5531 -1.6542 -1.2930
 1358TIP3    H2 4081   3.265   4.108   4.646 -0.2032 -0.5345 -0.7813
 1359TIP3   OH2 4082   6.265   4.190   1.702 -0.0897  0.6663 -0.0102
 1359TIP3    H1 4083   6.241   4.225   1.788 -1.2058 -0.4846  0.1814
 1359TIP3    H2 4084   6.317   4.259   1.661 -1.7266  2.2866  0.5542
 1360TIP3   OH2 4085   2.221   1.032   3.748  0.6456 -0.2171 -0.0098
 1360TIP3    H1 4086   2.190   1.100   3.688 -1.0517 -0.0707  0.9568
 1360TIP3    H2 4087   2.239   1.079   3.830 -1.3021 -0.9387  0.9226
 1361TIP3   OH2 4088   0.160   1.368   2.516  0.0566  0.1843 -0.1210
 1361TIP3    H1 4089   0.101   1.439   2.540 -1.5863 -0.5115 -1.8789
 1361TIP3    H2 4090   0.241   1.412   2.489 -0.8034  1.3614 -0.8290
 1362TIP3   OH2 4091   0.932   4.349   2.802  0.2629 -0.2917  0.2143
 1362TIP3    H1 4092   0.912   4.256   2.789 -0.3415 -0.2075  0.5400
 1362TIP3    H2 4093   1.025   4.350   2.825  0.8711 -0.6352 -1.9792
 1363TIP3   OH2 4094   3.512   2.766   0.693 -0.1216 -0.1957 -0.2652
 1363TIP3    H1 4095   3.503   2.679   0.654 -0.3753 -1.1396  1.7417
 1363TIP3    H2 4096   3.524   2.749   0.787 -0.2272  1.9382  0.1906
 1364TIP3   OH2 4097   1.490   0.293   3.455  0.1565 -0.2130  0.6802
 1364TIP3    H1 4098   1.479   0.269   3.547 -0.4792 -0.8596  0.4383
 1364TIP3    H2 4099   1.422   0.245   3.409  1.8916 -1.7592 -0.4302
 1365TIP3   OH2 4100   0.895   4.997   4.327  0.2183 -0.4545 -0.2892
 1365TIP3    H1 4101   0.906   5.091   4.336  0.1784 -0.3874 -0.8696
 1365TIP3    H2 4102   0.822   4.975   4.384  1.6374 -0.4976  1.6029
 1366TIP3   OH2 4103   2.055   3.247   1.635 -0.1378  0.0293  0.8040
 1366TIP3    H1 4104   1.974   3.196   1.631  0.7388 -1.3626 -0.2720
 1366TIP3    H2 4105   2.040   3.311   1.705 -2.4415  0.3456  0.1060
 1367TIP3   OH2 4106   1.131   0.232   2.145  0.5461 -0.2573  0.3365
 1367TIP3    H1 4107   1.133   0.327   2.159 -1.4024 -0.2868  1.1465
 1367TIP3    H2 4108   1.075   0.219   2.069 -0.8547 -0.7907  1.3922
 1368TIP3   OH2 4109   5.764   0.346   2.184  0.3032  0.1976 -1.0156
 1368TIP3    H1 4110   5.759   0.367   2.090 -0.8769 -2.9860 -1.7950
 1368TIP3    H2 4111   5.774   0.251   2.186  0.1757  0.1714  2.1415
 1369TIP3   OH2 4112   0.663   0.142   0.145  0.2161  0.4468 -0.2672
 1369TIP3    H1 4113   0.665   0.117   0.052 -0.4141 -0.1734 -0.1207
 1369TIP3    H2 4114   0.672   0.237   0.144  0.2812  0.4412 -0.9643
 1370TIP3   OH2 4115   2.051   2.686   2.092 -0.2786 -0.5195 -0.4678
 1370TIP3    H1 4116   1.960   2.704   2.115  0.1538  1.7980 -0.3373
 1370TIP3    H2 4117   2.057   2.710   1.999  0.1959 -0.6599 -0.4729
 1371TIP3   OH2 4118   5.282   1.913   1.938 -0.7972 -0.1133  0.1117
 1371TIP3    H1 4119   5.279   2.001   1.899 -3.6218 -0.7392 -1.2966
 1371TIP3    H2 4120   5.233   1.921   2.019  1.5268  0.2127  1.5753
 1372TIP3   OH2 4121   5.535   0.071   2.130 -0.2877 -0.7176 -0.3756
 1372TIP3    H1 4122   5.509   0.138   2.194  0.4198  0.3215 -1.1515
 1372TIP3    H2 4123   5.616   0.034   2.166 -0.6620 -1.1631  0.0369
 1373TIP3   OH2 4124   3.018   5.782   2.356  0.1981 -0.2345  0.3393
 1373TIP3    H1 4125   3.079   5.793   2.429 -0.5516 -0.7377  1.0594
 1373TIP3    H2 4126   3.061   5.825   2.282  0.4512  1.3295  1.3507
 1374TIP3   OH2 4127   2.210   1.371   0.258  0.3393 -0.3468  0.0410
 1374TIP3    H1 4128   2.282   1.311   0.238  0.5406  0.1143 -0.6671
 1374TIP3    H2 4129   2.236   1.454   0.217 -0.5255 -0.1392 -0.1064
 1375TIP3   OH2 4130   5.288   2.597   3.083 -0.2174 -0.4303  0.1244
 1375TIP3    H1 4131   5.217   2.640   3.035 -0.7533 -0.1017  1.1795
 1375TIP3    H2 4132   5.367   2.647   3.060 -0.7233  0.7325  0.7955
 1376TIP3   OH2 4133   1.198   4.264   2.345 -0.0544 -0.2812 -0.2394
 1376TIP3    H1 4134   1.281   4.309   2.361 -0.7407  0.8587  0.2071
 1376TIP3    H2 4135   1.189   4.204   2.419  0.0947  0.0173  0.0257
 1377TIP3   OH2 4136   6.287   2.336   3.520  0.0773 -0.2822 -0.2822
 1377TIP3    H1 4137   6.301   2.358   3.612  0.5513  1.1809 -0.6799
 1377TIP3    H2 4138   6.204   2.290   3.519  0.8066 -1.7577  1.0760
 1378TIP3   OH2 4139   2.011   4.697   3.667  0.3763 -0.0343  0.1732
 1378TIP3    H1 4140   2.007   4.790   3.688  1.6506 -0.1807  1.1647
 1378TIP3    H2 4141   2.101   4.671   3.687  0.2647 -1.3179 -0.8301
 1379TIP3   OH2 4142   1.350   5.454   2.709 -0.2721 -0.1793 -0.1192
 1379TIP3    H1 4143   1.258   5.456   2.737 -0.0170  1.2260  0.7217
 1379TIP3    H2 4144   1.358   5.372   2.661 -2.1095 -0.0941 -0.6835
 1380TIP3   OH2 4145   1.682   3.015   4.109  0.5584  0.3976 -0.1138
 1380TIP3    H1 4146   1.697   2.983   4.198  0.6588  0.4126 -0.1250
 1380TIP3    H2 4147   1.753   2.977   4.058 -1.0039 -1.8829 -0.7473
 1381TIP3   OH2 4148   0.574   1.520   1.030  0.5393 -0.3568 -0.3448
 1381TIP3    H1 4149   0.639   1.583   1.062 -0.0806 -0.3227  0.9253
 1381TIP3    H2 4150   0.490   1.556   1.059 -0.0230 -0.6069 -1.6081
 1382TIP3   OH2 4151   5.893   0.738   5.018  0.0949 -0.2219  0.0441
 1382TIP3    H1 4152   5.905   0.796   5.093 -0.5725  0.1538 -0.1268
 1382TIP3    H2 4153   5.872   0.653   5.056 -1.3912  0.2289  0.2995
 1383TIP3   OH2 4154   5.712   5.895   3.413 -0.2247 -0.0874 -0.0292
 1383TIP3    H1 4155   5.622   5.913   3.440 -0.6100 -0.5462 -0.9507
 1383TIP3    H2 4156   5.707   5.888   3.317  0.5311 -1.4905  0.0011
 1384TIP3   OH2 4157   5.220   5.442   0.285  0.0656 -0.4425 -0.5715
 1384TIP3    H1 4158   5.159   5.374   0.313 -1.1535  0.2383 -1.4411
 1384TIP3    H2 4159   5.286   5.396   0.233  0.1954 -1.1698  0.2256
 1385TIP3   OH2 4160   0.190   2.903   2.293  0.7350  0.4440 -0.9265
 1385TIP3    H1 4161   0.111   2.922   2.242  0.5883 -0.0084 -0.8713
 1385TIP3    H2 4162   0.227   2.989   2.311 -1.0143  0.8604  1.0933
 1386TIP3   OH2 4163   4.101   3.197   2.944 -0.8585 -0.4637 -0.7550
 1386TIP3    H1 4164   4.011   3.198   2.977 -0.3949  0.3768  0.5652
 1386TIP3    H2 4165   4.124   3.289   2.934 -0.0744 -0.6716 -0.8872
 1387TIP3   OH2 4166   2.333   1.737   2.656 -0.6660  0.1103  0.3616
 1387TIP3    H1 4167   2.384   1.659   2.678 -0.3591 -0.1323 -1.1190
 1387TIP3    H2 4168   2.384   1.781   2.588 -1.6567  0.7011 -0.0203
 1388TIP3   OH2 4169   1.029   5.927   0.841  0.0399 -0.5402  0.4709
 1388TIP3    H1 4170   1.101   5.868   0.818  0.1077 -0.6624  0.9868
 1388TIP3    H2 4171   0.962   5.911   0.774 -1.0723 -3.1717  2.0388
 1389TIP3   OH2 4172   2.682   1.131   1.848  0.0419 -0.0655 -0.0977
 1389TIP3    H1 4173   2.739   1.204   1.873 -0.3980  0.6004 -0.9900
 1389TIP3    H2 4174   2.677   1.137   1.753  1.6825 -2.5392 -0.4170
 1390TIP3   OH2 4175   5.492   2.439   4.286 -0.4627 -0.2223 -0.1747
 1390TIP3    H1 4176   5.587   2.424   4.293 -0.6831 -1.2107  1.1765
 1390TIP3    H2 4177   5.477   2.457   4.193  0.6820 -2.8787 -0.9676
 1391TIP3   OH2 4178   1.519   2.575   4.495 -0.5528 -0.4326 -0.0404
 1391TIP3    H1 4179   1.449   2.516   4.466 -0.4499 -1.2671  1.3303
 1391TIP3    H2 4180   1.597   2.520   4.497 -0.2742 -0.0286  0.3866
 1392TIP3   OH2 4181   1.249   2.260   1.432 -0.2957 -0.3834 -0.7307
 1392TIP3    H1 4182   1.176   2.275   1.492  0.1871  3.3480 -0.8101
 1392TIP3    H2 4183   1.207   2.232   1.350 -1.2607 -1.8402  0.2090
 1393TIP3   OH2 4184   2.436   3.757   3.135  0.1145  0.1528 -0.2151
 1393TIP3    H1 4185   2.430   3.700   3.058  2.7803 -0.3021 -0.1979
 1393TIP3    H2 4186   2.498   3.712   3.193  0.8735  2.1807  0.6313
 1394TIP3   OH2 4187   0.168   3.549   1.688 -0.2207 -0.4714  0.1630
 1394TIP3    H1 4188   0.149   3.455   1.679 -0.9369 -0.3811  0.6269
 1394TIP3    H2 4189   0.263   3.555   1.682 -0.2515 -1.0220 -1.7363
 1395TIP3   OH2 4190   1.348   2.078   4.175  0.4659 -0.0392  0.7686
 1395TIP3    H1 4191   1.431   2.048   4.212 -0.0320 -0.4308  1.5886
 1395TIP3    H2 4192   1.315   2.002   4.127  0.6911  0.1967  0.2251
 1396TIP3   OH2 4193   4.649   0.492   5.093  0.2691 -0.0536 -0.3884
 1396TIP3    H1 4194   4.597   0.415   5.116 -0.0250 -0.5244 -2.4604
 1396TIP3    H2 4195   4.598   0.566   5.127 -0.6529 -0.6414 -0.4728
 1397TIP3   OH2 4196   2.575   4.358   1.173  0.5470 -0.2527 -0.6384
 1397TIP3    H1 4197   2.651   4.343   1.229 -0.7750  1.2714  1.7201
 1397TIP3    H2 4198   2.599   4.432   1.118  0.8823  0.0683 -0.0670
 1398TIP3   OH2 4199   4.477   4.645   0.664 -0.5856  0.5177 -0.4457
 1398TIP3    H1 4200   4.465   4.675   0.754 -2.3216  1.7378 -1.0229
 1398TIP3    H2 4201   4.390   4.618   0.635  0.1387 -0.9495 -1.4192
 1399TIP3   OH2 4202   3.208   1.339   3.553  0.4091  0.4531 -0.9077
 1399TIP3    H1 4203   3.284   1.391   3.526  0.1300  1.7522  0.6772
 1399TIP3    H2 4204   3.219   1.328   3.647 -1.7492  1.3502 -0.5021
 1400TIP3   OH2 4205   3.620   2.774   2.783  0.1769  0.3652 -0.3811
 1400TIP3    H1 4206   3.612   2.753   2.690 -1.0563  2.4097 -0.7948
 1400TIP3    H2 4207   3.673   2.703   2.819  0.3332 -0.6984 -2.5500
 1401TIP3   OH2 4208   1.136   5.840   0.390 -0.5421  0.0611 -0.4814
 1401TIP3    H1 4209   1.198   5.797   0.331 -1.2754  0.7300 -1.7866
 1401TIP3    H2 4210   1.191   5.883   0.455  0.3232 -0.2006 -1.0251
 1402TIP3   OH2 4211   1.266   5.082   4.127 -0.4704  0.7673  0.0468
 1402TIP3    H1 4212   1.225   5.161   4.161 -0.1338  0.0726  2.2408
 1402TIP3    H2 4213   1.223   5.011   4.175  0.8983 -0.1973 -0.1072
 1403TIP3   OH2 4214   0.916   4.819   4.956 -0.1013  0.5886  0.9008
 1403TIP3    H1 4215   0.990   4.760   4.939  1.5354  2.2192  2.0389
 1403TIP3    H2 4216   0.849   4.762   4.993 -0.5851 -1.4685 -2.6506
 1404TIP3   OH2 4217   2.563   1.468   3.927  0.4619  0.2410  0.8075
 1404TIP3    H1 4218   2.556   1.465   4.022 -1.2475  0.1138  0.7086
 1404TIP3    H2 4219   2.579   1.560   3.906  0.5210  0.3184  1.1867
 1405TIP3   OH2 4220   1.672   1.935   4.621 -0.5319 -0.5238 -0.3063
 1405TIP3    H1 4221   1.743   1.936   4.685  1.6697 -4.0917 -2.3821
 1405TIP3    H2 4222   1.686   2.014   4.568  1.2428 -0.5900  0.0185
 1406TIP3   OH2 4223   3.866   5.424   3.022 -0.6712 -0.7298 -0.0514
 1406TIP3    H1 4224   3.925   5.368   3.072  0.5320  0.6612  0.1456
 1406TIP3    H2 4225   3.828   5.366   2.956  1.4112 -1.5630 -0.6002
 1407TIP3   OH2 4226   5.492   5.177   2.866  0.4878  0.5686  0.0305
 1407TIP3    H1 4227   5.562   5.154   2.927  1.7719  1.0938 -1.1905
 1407TIP3    H2 4228   5.537   5.210   2.789 -1.1192  0.8571 -0.8345
 1408TIP3   OH2 4229   4.173   1.591   0.548 -0.3046 -0.5833 -0.1521
 1408TIP3    H1 4230   4.267   1.587   0.563 -0.2633 -0.7984 -0.4713
 1408TIP3    H2 4231   4.159   1.542   0.467 -0.4461  1.1866 -1.2351
 1409TIP3   OH2 4232   1.351   1.581   0.258 -0.2016 -0.4501 -0.1086
 1409TIP3    H1 4233   1.425   1.532   0.293 -0.7404 -1.6689 -0.6303
 1409TIP3    H2 4234   1.274   1.535   0.290 -0.7388  0.5058  0.0129
 1410TIP3   OH2 4235   5.447   5.294   2.473  1.1887  0.1472 -0.3187
 1410TIP3    H1 4236   5.487   5.207   2.472  0.8356 -0.0928  1.8094
 1410TIP3    H2 4237   5.472   5.330   2.558 -1.1618  0.9144  0.0997
 1411TIP3   OH2 4238   5.909   3.407   0.467  0.6712 -0.5529 -0.7050
 1411TIP3    H1 4239   5.945   3.338   0.412  0.6127  0.4288 -2.0386
 1411TIP3    H2 4240   5.927   3.488   0.418  0.3766  0.3387  0.6032
 1412TIP3   OH2 4241   5.566   4.100   1.702  0.1663 -0.1114 -0.3424
 1412TIP3    H1 4242   5.505   4.064   1.767 -0.0062  1.8690  0.6813
 1412TIP3    H2 4243   5.598   4.023   1.654 -2.3522 -1.3167 -0.2604
 1413TIP3   OH2 4244   3.869   0.129   1.157 -0.0203 -0.2611 -0.2399
 1413TIP3    H1 4245   3.955   0.170   1.163 -0.1150 -0.2178  1.3498
 1413TIP3    H2 4246   3.885   0.042   1.122  0.6883 -0.3041  0.1907
 1414TIP3   OH2 4247   5.036   4.803   3.622 -0.3648 -0.7648  0.0463
 1414TIP3    H1 4248   5.108   4.862   3.597 -0.1007 -0.3980  1.5639
 1414TIP3    H2 4249   5.052   4.784   3.715 -1.5078 -1.7269  0.0656
 1415TIP3   OH2 4250   2.113   3.571   2.440  0.0744  1.2825  0.2877
 1415TIP3    H1 4251   2.024   3.606   2.444 -1.1733 -1.2854 -1.7123
 1415TIP3    H2 4252   2.125   3.526   2.523 -1.4797 -0.2797 -0.2673
 1416TIP3   OH2 4253   3.812   0.803   3.470  0.6483  0.3558  0.2128
 1416TIP3    H1 4254   3.870   0.831   3.540 -1.8085  0.1529  2.4756
 1416TIP3    H2 4255   3.852   0.722   3.438  1.1121 -0.3742  2.4328
 1417TIP3   OH2 4256   4.377   2.303   2.341 -0.1643  0.4512 -0.2138
 1417TIP3    H1 4257   4.440   2.248   2.387 -2.7096 -0.5501  2.4390
 1417TIP3    H2 4258   4.327   2.243   2.286 -0.0269  0.9240 -0.8753
 1418TIP3   OH2 4259   0.370   4.452   3.747 -0.4566  0.2024 -0.6104
 1418TIP3    H1 4260   0.305   4.522   3.742 -0.7365 -0.1328 -2.2821
 1418TIP3    H2 4261   0.323   4.379   3.787 -0.9173  0.1939 -1.1477
 1419TIP3   OH2 4262   5.120   0.960   0.790 -0.5540  0.2886 -0.2697
 1419TIP3    H1 4263   5.069   0.993   0.716  3.1620  1.5325 -2.6136
 1419TIP3    H2 4264   5.168   0.886   0.755  0.3174  0.0501  1.3169
 1420TIP3   OH2 4265   3.194   2.420   1.217  0.1226 -0.8454 -0.5261
 1420TIP3    H1 4266   3.235   2.388   1.297 -0.5093 -0.5961 -0.0902
 1420TIP3    H2 4267   3.109   2.454   1.245  0.4536  0.5189 -1.0857
 1421TIP3   OH2 4268   5.101   0.704   4.820  0.3367  0.3631  0.1139
 1421TIP3    H1 4269   5.194   0.706   4.795  0.5402 -1.7581  0.4808
 1421TIP3    H2 4270   5.068   0.622   4.782 -0.2326 -1.1954  3.6393
 1422TIP3   OH2 4271   1.584   3.560   2.255 -0.0001  0.0850 -0.3290
 1422TIP3    H1 4272   1.574   3.490   2.319  0.6718 -0.6701 -1.0234
 1422TIP3    H2 4273   1.612   3.636   2.306  1.2543 -0.7044  0.2016
 1423TIP3   OH2 4274   3.072   3.364   1.011 -0.0156 -0.1999  0.5659
 1423TIP3    H1 4275   2.977   3.363   1.010 -0.0237 -0.8499 -1.1686
 1423TIP3    H2 4276   3.098   3.299   0.945  1.6242  0.0173  0.9474
 1424TIP3   OH2 4277   2.761   0.464   3.110  0.5652 -0.0042 -0.5672
 1424TIP3    H1 4278   2.824   0.395   3.088  2.7095  1.7413 -0.2461
 1424TIP3    H2 4279   2.738   0.504   3.026 -1.0748 -1.3380 -0.8129
 1425TIP3   OH2 4280   1.839   4.706   1.019  0.4952 -0.5413  0.1664
 1425TIP3    H1 4281   1.887   4.704   0.936 -0.2797  1.1967 -0.3789
 1425TIP3    H2 4282   1.878   4.778   1.068 -0.5323 -0.0777  0.3348
 1426TIP3   OH2 4283   3.625   5.583   0.052 -0.1629 -0.0559 -0.4095
 1426TIP3    H1 4284   3.648   5.577  -0.041  3.0912 -0.8719  0.3353
 1426TIP3    H2 4285   3.679   5.654   0.086  0.9643 -1.7010  1.4116
 1427TIP3   OH2 4286   3.752   3.360   4.889  0.0386 -0.0649 -0.2672
 1427TIP3    H1 4287   3.751   3.452   4.915  0.9745  0.3462 -1.6221
 1427TIP3    H2 4288   3.692   3.317   4.951  1.9751  0.8651  2.4473
 1428TIP3   OH2 4289   1.814   4.789   3.357  0.0079 -0.0902  0.0997
 1428TIP3    H1 4290   1.768   4.712   3.391 -0.1335 -0.2859 -0.5152
 1428TIP3    H2 4291   1.746   4.856   3.351 -0.0648 -0.1862 -0.1954
 1429TIP3   OH2 4292   2.423   5.918   3.734 -0.3185  0.0920 -0.0651
 1429TIP3    H1 4293   2.393   6.000   3.695 -1.3596 -0.2552 -0.0264
 1429TIP3    H2 4294   2.519   5.925   3.734 -0.3942  1.4226  0.1924
 1430TIP3   OH2 4295   0.209   1.576   1.745  0.0126 -0.0031  0.1746
 1430TIP3    H1 4296   0.281   1.634   1.771 -0.7022  1.4546 -0.9699
 1430TIP3    H2 4297   0.192   1.599   1.654 -0.9823 -1.3184  0.0070
 1431TIP3   OH2 4298   0.839   1.675   4.994  0.2038 -0.2459  0.0179
 1431TIP3    H1 4299   0.931   1.653   4.980  0.0345 -2.8057  2.0879
 1431TIP3    H2 4300   0.793   1.638   4.918  0.5818 -2.2368  0.6928
 1432TIP3   OH2 4301   3.592   4.741   0.057 -0.4774  0.4345 -0.6867
 1432TIP3    H1 4302   3.504   4.707   0.069 -0.7010  1.1961 -0.0610
 1432TIP3    H2 4303   3.613   4.785   0.140  0.7789 -0.3613 -0.5594
 1433TIP3   OH2 4304   0.925   4.611   2.449 -0.0811  0.1059 -0.5097
 1433TIP3    H1 4305   0.919   4.515   2.453  2.0129 -0.0254  0.9049
 1433TIP3    H2 4306   0.962   4.629   2.362  0.0848 -0.4023 -0.5466
 1434TIP3   OH2 4307   3.650   0.665   1.914  0.1931  0.4548  0.4580
 1434TIP3    H1 4308   3.664   0.599   1.846 -1.3882 -0.4332  0.9282
 1434TIP3    H2 4309   3.671   0.748   1.871  1.7266 -0.2786 -0.3073
 1435TIP3   OH2 4310   1.147   2.357   1.792 -0.2257  0.2255  0.1483
 1435TIP3    H1 4311   1.185   2.397   1.870  0.4508 -0.8926  0.4186
 1435TIP3    H2 4312   1.170   2.417   1.721  0.9740  0.2294  0.5062
 1436TIP3   OH2 4313   5.275   1.115   0.932  0.3791  0.1708 -0.1868
 1436TIP3    H1 4314   5.215   1.185   0.959  0.6289  0.6657 -0.8647
 1436TIP3    H2 4315   5.227   1.068   0.863  0.9693  0.9293 -1.1434
 1437TIP3   OH2 4316   2.418   3.543   1.058  0.2282 -0.2687 -0.6694
 1437TIP3    H1 4317   2.410   3.546   0.962  0.4912 -0.3770 -0.6967
 1437TIP3    H2 4318   2.431   3.451   1.078  2.0815 -0.0606 -0.7001
 1438TIP3   OH2 4319   0.158   1.890   1.396 -0.6055 -0.0652  0.8002
 1438TIP3    H1 4320   0.136   1.904   1.304 -2.8677  1.9281  1.5409
 1438TIP3    H2 4321   0.126   1.802   1.416  1.1955 -1.1037 -0.5890
 1439TIP3   OH2 4322   3.888   4.025   0.059 -0.0200  0.0719  0.1015
 1439TIP3    H1 4323   3.984   4.026   0.060  0.1538  3.9777  2.1650
 1439TIP3    H2 4324   3.865   3.991  -0.027  3.4155  2.7686 -2.1604
 1440TIP3   OH2 4325   3.492   2.321   2.604  0.7759 -0.2871  0.0932
 1440TIP3    H1 4326   3.572   2.373   2.592  1.3538 -1.2674 -0.5345
 1440TIP3    H2 4327   3.440   2.338   2.526  1.1098 -0.8700 -0.2663
 1441TIP3   OH2 4328   4.658   1.375   3.093  0.0235 -0.1055  0.3893
 1441TIP3    H1 4329   4.606   1.309   3.047  3.4718 -0.9305 -2.8536
 1441TIP3    H2 4330   4.749   1.345   3.083  1.4728  3.0600  2.4416
 1442TIP3   OH2 4331   4.011   5.235   1.604 -0.0854 -0.3036  0.2632
 1442TIP3    H1 4332   4.057   5.241   1.520  1.0411 -2.1413  0.7028
 1442TIP3    H2 4333   4.026   5.146   1.633  0.4455  0.5806  2.9239
 1443TIP3   OH2 4334   0.210   3.334   3.794  0.7702  0.2516  0.0250
 1443TIP3    H1 4335   0.161   3.254   3.772  0.3404  0.5282 -0.0442
 1443TIP3    H2 4336   0.189   3.395   3.722 -2.6990  2.0882  2.2973
 1444TIP3   OH2 4337   4.595   2.506   2.144 -0.0065  0.2237  0.6098
 1444TIP3    H1 4338   4.646   2.457   2.208  0.2964 -0.2482  0.0133
 1444TIP3    H2 4339   4.537   2.441   2.105  0.6114  0.2574 -0.4041
 1445TIP3   OH2 4340   4.851   4.717   4.161 -0.5389 -0.0484 -0.2253
 1445TIP3    H1 4341   4.882   4.789   4.106  0.9504 -0.6976 -0.2717
 1445TIP3    H2 4342   4.816   4.761   4.239  2.1981  0.7377  0.6810
 1446TIP3   OH2 4343   3.958   3.103   0.588 -0.6419  0.7240 -0.0259
 1446TIP3    H1 4344   4.041   3.132   0.627  0.6178 -0.2724 -1.8254
 1446TIP3    H2 4345   3.901   3.180   0.593  0.7633  1.7877  0.2410
 1447TIP3   OH2 4346   0.912   3.316   1.738 -0.4436 -0.1369 -0.0817
 1447TIP3    H1 4347   0.952   3.370   1.669 -1.1161  0.6923  0.1512
 1447TIP3    H2 4348   0.977   3.249   1.757  0.4128  0.5697 -0.4183
 1448TIP3   OH2 4349   2.505   4.111   1.502  0.1975  0.3215  0.7449
 1448TIP3    H1 4350   2.454   4.033   1.480  1.3812 -0.2533 -0.0266
 1448TIP3    H2 4351   2.450   4.184   1.475  0.2099 -0.3094 -1.1233
 1449TIP3   OH2 4352   1.753   3.891   4.891 -0.0838 -0.3732  0.4237
 1449TIP3    H1 4353   1.845   3.910   4.872  0.1079 -0.6784  1.0367
 1449TIP3    H2 4354   1.707   3.916   4.811  0.2130  2.1690  0.9363
 1450TIP3   OH2 4355   4.718   4.821   2.277  0.3603 -0.2650 -0.3923
 1450TIP3    H1 4356   4.743   4.749   2.219  1.4007 -0.7947  0.6756
 1450TIP3    H2 4357   4.694   4.892   2.218 -0.5106 -1.4086 -1.4779
 1451TIP3   OH2 4358   5.549   3.737   1.825  0.5184  0.4340 -0.2921
 1451TIP3    H1 4359   5.531   3.755   1.733 -0.3521  0.4961 -0.1244
 1451TIP3    H2 4360   5.499   3.657   1.843  0.4001  0.6189  0.2102
 1452TIP3   OH2 4361   5.578   3.712   3.861  0.9179 -0.4680  0.2564
 1452TIP3    H1 4362   5.603   3.803   3.846 -1.0808 -0.2079 -2.1528
 1452TIP3    H2 4363   5.550   3.710   3.953  0.1665  1.6054  0.1300
 1453TIP3   OH2 4364   2.313   1.636   1.359 -0.1617 -0.1403  1.0198
 1453TIP3    H1 4365   2.333   1.725   1.388 -0.0955  0.1472  0.1142
 1453TIP3    H2 4366   2.306   1.642   1.264  0.1918 -1.1754  0.9120
 1454TIP3   OH2 4367   6.004   4.016   1.446  0.1734 -0.2646 -0.2544
 1454TIP3    H1 4368   6.096   3.991   1.454  0.1901 -0.2309 -0.3408
 1454TIP3    H2 4369   5.989   4.022   1.352 -0.3867 -2.0177 -0.3080
 1455TIP3   OH2 4370   0.566   5.496   1.831 -0.2563  0.3871 -0.0956
 1455TIP3    H1 4371   0.603   5.467   1.748  0.9002 -0.3908  0.6694
 1455TIP3    H2 4372   0.574   5.420   1.889  1.5426  1.7212  1.5493
 1456TIP3   OH2 4373   3.795   0.963   3.016  0.6731 -0.1556  0.3722
 1456TIP3    H1 4374   3.781   1.046   3.061  0.1620 -0.5671  1.0004
 1456TIP3    H2 4375   3.852   0.913   3.076 -3.0377 -2.2075  2.5650
 1457TIP3   OH2 4376   6.167   2.558   0.933 -0.0108  0.2159  0.3196
 1457TIP3    H1 4377   6.230   2.499   0.893 -0.9399 -1.8876  1.7868
 1457TIP3    H2 4378   6.193   2.562   1.025  0.7320  3.1274  0.1002
 1458TIP3   OH2 4379   3.904   0.432   0.038 -0.2836  0.3284  0.0854
 1458TIP3    H1 4380   3.994   0.463   0.026 -0.3409  0.0468 -1.2976
 1458TIP3    H2 4381   3.875   0.408  -0.050 -1.5459 -0.0672  0.5789
 1459TIP3   OH2 4382   0.651   2.141   3.427 -0.1617  0.3361  0.3328
 1459TIP3    H1 4383   0.742   2.125   3.402  0.3915  1.0350  1.7481
 1459TIP3    H2 4384   0.623   2.213   3.371 -0.3542 -0.8450 -1.1372
 1460TIP3   OH2 4385   5.170   0.672   1.151  0.5645  0.0936  0.6423
 1460TIP3    H1 4386   5.247   0.616   1.159 -0.4181 -1.1743  1.4993
 1460TIP3    H2 4387   5.205   0.761   1.160  2.0654 -0.3787 -0.1416
 1461TIP3   OH2 4388   0.390   2.776   2.134  0.0637  0.1756  0.1032
 1461TIP3    H1 4389   0.334   2.830   2.190 -0.7399 -0.5276 -0.0058
 1461TIP3    H2 4390   0.363   2.686   2.152  0.3916 -0.1099 -0.7834
 1462TIP3   OH2 4391   3.692   5.703   3.856  0.0611  0.5010 -0.2222
 1462TIP3    H1 4392   3.740   5.728   3.935  0.2009  1.5581 -0.6315
 1462TIP3    H2 4393   3.737   5.748   3.785 -0.9674  0.7639 -0.7294
 1463TIP3   OH2 4394   5.227   5.383   3.308  0.3947  0.1404 -0.2339
 1463TIP3    H1 4395   5.132   5.388   3.322  0.5338 -0.6672  1.1149
 1463TIP3    H2 4396   5.242   5.294   3.276  0.7082  0.2723 -0.4600
 1464TIP3   OH2 4397   0.714   5.031   4.113 -0.1868 -0.0528 -0.5001
 1464TIP3    H1 4398   0.794   5.029   4.166 -1.1025 -0.5123  0.9120
 1464TIP3    H2 4399   0.741   5.071   4.030  1.1874  1.1063  0.4624
 1465TIP3   OH2 4400   2.952   3.195   4.024 -0.5005 -0.5419 -0.7884
 1465TIP3    H1 4401   3.024   3.140   4.055 -1.4959 -2.3538 -1.5672
 1465TIP3    H2 4402   2.880   3.135   4.009 -1.6387  0.9784 -1.7637
 1466TIP3   OH2 4403   0.676   1.493   3.848  0.5084 -0.8410  0.3680
 1466TIP3    H1 4404   0.690   1.504   3.942  0.7054  0.0650  0.2430
 1466TIP3    H2 4405   0.740   1.550   3.807  0.4052 -1.2065 -0.3214
 1467TIP3   OH2 4406   3.053   1.609   3.395 -0.4995 -0.6077  0.2438
 1467TIP3    H1 4407   3.028   1.521   3.423  1.1119 -0.7426  1.3621
 1467TIP3    H2 4408   3.055   1.660   3.476  0.4116 -0.0169 -0.1344
 1468TIP3   OH2 4409   2.664   1.994   0.945  0.4927 -0.2079 -0.2135
 1468TIP3    H1 4410   2.600   2.058   0.975 -1.0402 -1.7884  0.0548
 1468TIP3    H2 4411   2.735   1.999   1.009  0.4292  1.2080 -0.2225
 1469TIP3   OH2 4412   4.308   3.802   0.647 -0.0811 -0.2058 -0.1993
 1469TIP3    H1 4413   4.300   3.887   0.690  0.3648  0.4393 -1.3503
 1469TIP3    H2 4414   4.231   3.796   0.591  1.0286  0.5189 -1.8997
 1470TIP3   OH2 4415   0.688   5.086   1.706 -0.8048  0.2941  0.1230
 1470TIP3    H1 4416   0.777   5.114   1.727 -0.2384 -1.0871 -0.3344
 1470TIP3    H2 4417   0.686   4.993   1.729 -1.8758  0.1108 -0.6442
 1471TIP3   OH2 4418   0.481   3.789   1.480  0.2000 -0.0950  0.3330
 1471TIP3    H1 4419   0.479   3.778   1.385 -1.7653  0.9459  0.2099
 1471TIP3    H2 4420   0.426   3.866   1.496  0.1776 -0.4930  2.3619
 1472TIP3   OH2 4421   2.166   3.011   2.075  0.8463 -0.0310  0.0954
 1472TIP3    H1 4422   2.100   2.942   2.064  0.0209  0.8593 -0.7390
 1472TIP3    H2 4423   2.115   3.091   2.083  1.8267  0.9070 -2.2469
 1473TIP3   OH2 4424   0.971   0.587   0.637  0.1385  0.1286 -0.7526
 1473TIP3    H1 4425   1.009   0.603   0.723  0.3972 -0.8523 -0.6791
 1473TIP3    H2 4426   1.042   0.549   0.585 -0.1602  0.2280 -1.2469
 1474TIP3   OH2 4427   3.164   0.130   3.586  0.6032 -0.3493  0.0810
 1474TIP3    H1 4428   3.181   0.128   3.491  0.8743  0.1362  0.1159
 1474TIP3    H2 4429   3.247   0.106   3.625  0.6486  0.0008  0.2057
 1475TIP3   OH2 4430   4.887   0.714   3.755  0.3327 -0.5057 -0.1892
 1475TIP3    H1 4431   4.840   0.798   3.745 -0.7588 -1.2552 -1.8465
 1475TIP3    H2 4432   4.967   0.726   3.703 -0.1340 -0.6821 -0.9720
 1476TIP3   OH2 4433   4.288   1.532   4.949 -0.2760 -0.3967  0.4018
 1476TIP3    H1 4434   4.294   1.615   4.997  2.2190 -1.5654  2.3950
 1476TIP3    H2 4435   4.356   1.538   4.882 -2.5585  0.5094 -1.9915
 1477TIP3   OH2 4436   1.075   1.996   4.448 -0.3271 -0.4807 -0.0098
 1477TIP3    H1 4437   1.111   2.013   4.536 -1.8031 -0.2464  0.5738
 1477TIP3    H2 4438   1.062   1.901   4.446 -0.2467 -0.4925  0.0034
 1478TIP3   OH2 4439   3.982   1.126   0.536  0.5815 -0.6002  0.0114
 1478TIP3    H1 4440   3.992   1.168   0.451  0.6054 -2.1718 -0.7920
 1478TIP3    H2 4441   3.926   1.050   0.520 -2.9111  1.2668  2.1680
 1479TIP3   OH2 4442   5.880   1.929   2.966  0.4256  0.0364  0.4935
 1479TIP3    H1 4443   5.936   2.000   2.998 -0.7768  0.0738  2.6915
 1479TIP3    H2 4444   5.918   1.849   3.003  2.0670 -0.6318 -2.3734
 1480TIP3   OH2 4445   3.874   2.585   3.843 -0.5204 -0.1351 -0.0535
 1480TIP3    H1 4446   3.860   2.642   3.767 -1.5099 -1.9541 -1.3225
 1480TIP3    H2 4447   3.889   2.498   3.805 -1.0994 -1.1173  1.8253
 1481TIP3   OH2 4448   6.133   0.956   1.761  0.2228 -0.4579  0.3124
 1481TIP3    H1 4449   6.098   1.039   1.728  1.5693  0.7637  1.7909
 1481TIP3    H2 4450   6.227   0.961   1.744  0.1429 -2.4038 -0.9833
 1482TIP3   OH2 4451   0.549   4.135   3.333 -0.3197  0.2457  0.4239
 1482TIP3    H1 4452   0.531   4.082   3.255 -0.4977  0.5991  0.2201
 1482TIP3    H2 4453   0.468   4.131   3.384 -0.3812  0.4307  0.3418
 1483TIP3   OH2 4454   0.279   4.625   1.648  0.2074 -0.1134  0.6224
 1483TIP3    H1 4455   0.187   4.610   1.625  0.5276 -0.3123 -0.5942
 1483TIP3    H2 4456   0.311   4.684   1.581  0.9418  0.0861  1.1333
 1484TIP3   OH2 4457   6.207   2.603   3.706 -0.0295  0.3667 -1.1880
 1484TIP3    H1 4458   6.155   2.544   3.760  3.6220 -1.0570  1.1918
 1484TIP3    H2 4459   6.151   2.679   3.691 -2.8001 -1.1160  0.8607
 1485TIP3   OH2 4460   0.393   3.099   0.521  0.3305 -0.0959  0.1568
 1485TIP3    H1 4461   0.382   3.154   0.443  0.5815 -0.0024  0.1864
 1485TIP3    H2 4462   0.485   3.108   0.544  0.1835  0.1427  0.6618
 1486TIP3   OH2 4463   3.803   4.328   3.727  0.2360 -0.3131  0.4514
 1486TIP3    H1 4464   3.765   4.249   3.766 -1.1315  0.6284  1.0949
 1486TIP3    H2 4465   3.733   4.365   3.674  0.6052  0.8925  0.7758
 1487TIP3   OH2 4466   1.339   3.909   4.475  0.2594  1.0056  0.4177
 1487TIP3    H1 4467   1.323   4.000   4.450  0.9800  0.7895 -0.9248
 1487TIP3    H2 4468   1.308   3.903   4.565  0.7469  2.7371  0.7383
 1488TIP3   OH2 4469   5.692   5.182   2.692 -0.4165  0.6665 -0.0001
 1488TIP3    H1 4470   5.675   5.168   2.599  0.6336 -0.3549 -0.0495
 1488TIP3    H2 4471   5.771   5.235   2.695 -0.9896  1.5231  0.3064
 1489TIP3   OH2 4472   4.296   0.720   4.536  0.0495 -0.0878  0.3635
 1489TIP3    H1 4473   4.293   0.657   4.608  1.1084  0.3144  0.7743
 1489TIP3    H2 4474   4.238   0.683   4.470 -0.4967 -0.7493  1.1925
 1490TIP3   OH2 4475   3.442   5.860   4.324 -0.4712 -0.2396  0.8822
 1490TIP3    H1 4476   3.361   5.889   4.283  0.6461 -0.9400 -2.0090
 1490TIP3    H2 4477   3.452   5.919   4.399 -3.4115  0.1003  1.1318
 1491TIP3   OH2 4478   4.258   2.156   2.135  0.5234 -1.0661 -0.5234
 1491TIP3    H1 4479   4.271   2.240   2.090 -1.0991 -0.7756 -0.5274
 1491TIP3    H2 4480   4.308   2.093   2.084  1.4700 -0.1647 -0.7367
 1492TIP3   OH2 4481   3.126   3.985   3.502 -0.0961  0.1652 -0.4254
 1492TIP3    H1 4482   3.098   4.060   3.556  1.2498  0.2765  0.1628
 1492TIP3    H2 4483   3.063   3.983   3.430 -0.6371  1.3686 -0.0260
 1493TIP3   OH2 4484   0.496   2.518   0.542  0.2092  0.5881  0.1821
 1493TIP3    H1 4485   0.446   2.512   0.460 -0.2689  0.1400  0.5002
 1493TIP3    H2 4486   0.566   2.581   0.523  1.1489 -0.7599 -1.1107
 1494TIP3   OH2 4487   3.963   4.175   4.007 -0.3129  0.1284  0.6720
 1494TIP3    H1 4488   4.017   4.101   4.035  0.4598  0.1596 -0.6373
 1494TIP3    H2 4489   3.890   4.134   3.960 -0.7011  0.1423  1.2587
 1495TIP3   OH2 4490   1.714   4.670   0.245  0.7959  0.2192 -0.4065
 1495TIP3    H1 4491   1.788   4.610   0.237 -0.1031 -1.0157  0.0686
 1495TIP3    H2 4492   1.637   4.613   0.240 -0.0789  0.9342  2.5663
 1496TIP3   OH2 4493   5.657   5.294   1.712 -0.2137 -0.6951 -0.2226
 1496TIP3    H1 4494   5.649   5.358   1.641 -0.1205 -1.3700 -0.8519
 1496TIP3    H2 4495   5.584   5.313   1.771 -2.1191 -2.0096 -2.0378
 1497TIP3   OH2 4496   6.250   0.358   3.508  0.0660 -0.0974 -0.1306
 1497TIP3    H1 4497   6.306   0.425   3.548 -0.6956  0.6339 -0.2562
 1497TIP3    H2 4498   6.174   0.352   3.566 -1.0591  0.9785 -1.3992
 1498TIP3   OH2 4499   1.725   4.460   2.877 -0.4338 -0.2398 -0.6017
 1498TIP3    H1 4500   1.816   4.458   2.847 -0.2530  3.2411 -0.6456
 1498TIP3    H2 4501   1.679   4.514   2.813 -1.3048  2.5043  2.1103
 1499TIP3   OH2 4502   2.533   1.633   0.441  0.4727  0.1657 -0.1647
 1499TIP3    H1 4503   2.438   1.632   0.451  0.6419  0.4960  1.7374
 1499TIP3    H2 4504   2.566   1.583   0.515  1.8352  1.7385  0.3557
 1500TIP3   OH2 4505   2.977   4.072   4.158 -0.0917  0.2384  0.4338
 1500TIP3    H1 4506   2.939   4.116   4.082 -1.1283  1.6686  1.7187
 1500TIP3    H2 4507   3.026   3.998   4.122  1.3267  2.1561 -1.8023
 1501TIP3   OH2 4508   3.279   4.618   0.744  0.1168 -0.1929 -0.2256
 1501TIP3    H1 4509   3.301   4.658   0.828 -0.5102  0.9016 -0.5598
 1501TIP3    H2 4510   3.261   4.526   0.765  0.0130  0.0540  0.8214
 1502TIP3   OH2 4511   1.868   0.964   1.355  0.3334  0.1070 -0.2396
 1502TIP3    H1 4512   1.807   1.026   1.313  0.0063 -0.0407  0.0097
 1502TIP3    H2 4513   1.948   0.971   1.304 -0.2615 -0.5480 -1.3090
 1503TIP3   OH2 4514   4.839   3.875   2.068  0.4284  0.1204 -0.5189
 1503TIP3    H1 4515   4.928   3.840   2.061  1.4859  2.6264 -0.5894
 1503TIP3    H2 4516   4.843   3.937   2.141 -1.3726  0.0022 -0.2780
 1504TIP3   OH2 4517   3.899   1.314   4.324  0.4434 -0.2546 -0.0337
 1504TIP3    H1 4518   3.839   1.244   4.349 -0.1012  0.3406  0.3546
 1504TIP3    H2 4519   3.926   1.353   4.407  0.7677 -0.0177 -0.2481
 1505TIP3   OH2 4520   2.236   0.085   0.909 -0.0604 -0.0466 -0.3275
 1505TIP3    H1 4521   2.227   0.056   0.999  1.4092  1.8651  0.5064
 1505TIP3    H2 4522   2.164   0.042   0.862 -0.3036 -1.7947  1.5349
 1506TIP3   OH2 4523   3.372   5.132   2.200 -0.3077  0.3775 -0.1749
 1506TIP3    H1 4524   3.343   5.103   2.286 -0.4852 -1.9487 -0.9492
 1506TIP3    H2 4525   3.451   5.081   2.182 -0.0077  1.1602 -1.1878
 1507TIP3   OH2 4526   5.588   4.497   3.191  0.3486 -0.5583  0.3588
 1507TIP3    H1 4527   5.641   4.448   3.254  0.9993 -1.3330 -0.7639
 1507TIP3    H2 4528   5.640   4.575   3.172  0.9791 -1.1640 -0.5017
 1508TIP3   OH2 4529   5.699   0.423   3.612 -0.4344  0.4349  0.3189
 1508TIP3    H1 4530   5.728   0.469   3.533  0.6739 -1.9099 -0.7472
 1508TIP3    H2 4531   5.610   0.396   3.592 -0.1085 -0.2783 -0.2267
 1509TIP3   OH2 4532   2.722   3.815   4.722 -0.1130  0.1738  0.0970
 1509TIP3    H1 4533   2.645   3.759   4.728 -0.0178  0.1249  0.9085
 1509TIP3    H2 4534   2.707   3.884   4.786  0.4438  0.2593  0.1370
 1510TIP3   OH2 4535   3.443   2.578   3.687 -0.1566  0.0818  0.2496
 1510TIP3    H1 4536   3.390   2.655   3.666  1.1118  1.5243  2.0120
 1510TIP3    H2 4537   3.387   2.503   3.666 -1.5241  1.4555 -1.2864
 1511TIP3   OH2 4538   5.591   1.731   3.477  1.1384 -0.0581  0.4030
 1511TIP3    H1 4539   5.527   1.802   3.467  1.9663  0.8058  1.0261
 1511TIP3    H2 4540   5.540   1.651   3.465  0.4451  0.6411 -1.8483
 1512TIP3   OH2 4541   4.853   4.494   5.099  0.3523  0.7323  0.1729
 1512TIP3    H1 4542   4.806   4.496   5.016  0.2802 -0.2747  0.1851
 1512TIP3    H2 4543   4.788   4.465   5.163  0.8782 -0.3328  0.2482
 1513TIP3   OH2 4544   0.233   0.639   4.896  0.0303  0.3138  0.2250
 1513TIP3    H1 4545   0.155   0.584   4.901 -0.0740  0.2190 -1.6477
 1513TIP3    H2 4546   0.306   0.577   4.900 -0.0513  0.1924 -0.0831
 1514TIP3   OH2 4547   4.451   3.393   3.163 -0.1815  0.1250 -0.3345
 1514TIP3    H1 4548   4.382   3.343   3.206 -1.1440  1.3354 -0.3924
 1514TIP3    H2 4549   4.456   3.356   3.075  1.3881 -1.9645  0.5704
 1515TIP3   OH2 4550   2.208   1.341   3.291  0.2435 -0.4450  0.1384
 1515TIP3    H1 4551   2.189   1.424   3.334 -1.3271 -0.0959 -1.1318
 1515TIP3    H2 4552   2.278   1.302   3.344  1.1573  1.7396  0.6576
 1516TIP3   OH2 4553   4.553   5.732   4.494  0.0645  0.1283  0.6167
 1516TIP3    H1 4554   4.572   5.803   4.433 -0.8163  0.7410  1.0229
 1516TIP3    H2 4555   4.475   5.690   4.459 -0.2956  0.3218  1.1753
 1517TIP3   OH2 4556   4.834   1.697   0.693  0.3250  0.2919  0.0604
 1517TIP3    H1 4557   4.774   1.768   0.717 -0.1855  0.4177 -1.4980
 1517TIP3    H2 4558   4.837   1.642   0.771 -0.0471  1.4933  0.9518
 1518TIP3   OH2 4559   1.497   0.074   2.891 -0.3764  0.0321  0.1334
 1518TIP3    H1 4560   1.421   0.102   2.942 -1.1226  0.2925 -1.0703
 1518TIP3    H2 4561   1.466  -0.002   2.841  0.6115 -0.7923  0.7454
 1519TIP3   OH2 4562   5.536   2.512   2.036  0.1695  0.1390 -0.0143
 1519TIP3    H1 4563   5.513   2.450   2.106 -0.0357 -0.0379 -0.2380
 1519TIP3    H2 4564   5.598   2.572   2.078 -0.7915  0.7035  0.6380
 1520TIP3   OH2 4565   4.526   3.544   3.503 -0.0952  0.1767  0.9667
 1520TIP3    H1 4566   4.512   3.633   3.535 -1.3457 -0.2693  1.7609
 1520TIP3    H2 4567   4.465   3.535   3.430  1.4290  0.5801 -0.4143
 1521TIP3   OH2 4568   2.952   4.468   3.782 -0.2526  0.2532 -0.3837
 1521TIP3    H1 4569   3.011   4.538   3.811  0.6697 -0.7376  0.1777
 1521TIP3    H2 4570   3.005   4.389   3.786 -1.3437 -0.5191 -0.8291
 1522TIP3   OH2 4571   0.610   0.481   4.453 -0.4235 -0.1941 -0.3159
 1522TIP3    H1 4572   0.659   0.560   4.475 -0.0837  0.1292 -2.0792
 1522TIP3    H2 4573   0.665   0.409   4.484 -0.5507  0.2197  0.9415
 1523TIP3   OH2 4574   4.595   3.988   4.672  0.4189 -0.0610  0.1007
 1523TIP3    H1 4575   4.635   4.006   4.757 -1.1239  0.7073  0.7123
 1523TIP3    H2 4576   4.662   3.940   4.624  0.6577 -2.3750  2.4785
 1524TIP3   OH2 4577   5.608   0.388   5.109 -0.3491  0.1579  0.1768
 1524TIP3    H1 4578   5.533   0.416   5.161 -1.2044 -0.3628 -0.7538
 1524TIP3    H2 4579   5.682   0.435   5.148 -1.0897  0.4360  1.3109
 1525TIP3   OH2 4580   6.237   3.328   4.889  0.4439 -0.0478 -0.1184
 1525TIP3    H1 4581   6.246   3.320   4.794  0.5872 -1.1711 -0.0302
 1525TIP3    H2 4582   6.224   3.238   4.919 -1.4479  0.4648  0.7542
 1526TIP3   OH2 4583   2.420   0.226   1.612 -0.3748  0.3210  0.1060
 1526TIP3    H1 4584   2.359   0.160   1.579 -0.4056  0.1505  0.4864
 1526TIP3    H2 4585   2.478   0.177   1.671 -1.3453  0.8948  1.5825
 1527TIP3   OH2 4586   2.379   0.446   2.705  0.2034  0.4619  0.4085
 1527TIP3    H1 4587   2.307   0.422   2.764 -0.2028 -1.3397 -0.7462
 1527TIP3    H2 4588   2.373   0.541   2.698 -1.7804  0.4109  0.7313
 1528TIP3   OH2 4589   0.019   1.261   1.589  0.4151  0.2706  0.1349
 1528TIP3    H1 4590   0.082   1.204   1.545  0.4623 -0.2804  0.8840
 1528TIP3    H2 4591  -0.066   1.231   1.557  0.4950  0.4846 -0.2762
 1529TIP3   OH2 4592   3.066   3.320   3.222 -0.0474 -0.1761  0.3365
 1529TIP3    H1 4593   3.068   3.376   3.300  0.0465  1.3079 -0.6872
 1529TIP3    H2 4594   2.984   3.344   3.178  1.2824  1.2367 -1.5394
 1530TIP3   OH2 4595   4.401   5.750   3.299  0.4332  0.6745  0.0878
 1530TIP3    H1 4596   4.331   5.752   3.234 -1.1288  1.5722  1.6938
 1530TIP3    H2 4597   4.480   5.772   3.251 -0.0172 -1.9961 -2.1397
 1531TIP3   OH2 4598   0.267   5.077   4.107 -0.2601  0.0908  0.1416
 1531TIP3    H1 4599   0.330   5.022   4.155 -0.2132  0.5454  0.6148
 1531TIP3    H2 4600   0.320   5.129   4.048 -0.2715 -0.1111 -0.0485
 1532TIP3   OH2 4601   4.826   4.905   2.576 -0.0446 -0.3466 -0.1619
 1532TIP3    H1 4602   4.916   4.934   2.561 -0.2143  0.7898  0.8329
 1532TIP3    H2 4603   4.792   4.887   2.488  0.3124  1.8902 -0.8411
 1533TIP3   OH2 4604  -0.003   1.822   0.479 -0.1097 -0.3098  0.4753
 1533TIP3    H1 4605  -0.039   1.733   0.469  0.2181 -0.3168 -0.8565
 1533TIP3    H2 4606   0.092   1.809   0.479 -0.0542 -0.0992  1.9908
 1534TIP3   OH2 4607   5.850   3.672   0.363  0.1609  0.2612  0.5550
 1534TIP3    H1 4608   5.767   3.656   0.408  1.0887 -0.7232  2.0147
 1534TIP3    H2 4609   5.842   3.625   0.280 -1.2340  1.3262  0.0511
 1535TIP3   OH2 4610   6.046   3.597   0.997  0.8711 -0.4801  0.1325
 1535TIP3    H1 4611   6.097   3.585   1.077  0.5682 -1.8381  0.1503
 1535TIP3    H2 4612   6.008   3.511   0.979  1.9509 -0.5610 -2.1673
 1536TIP3   OH2 4613   3.328   3.069   1.935 -0.1719 -0.1786  0.2611
 1536TIP3    H1 4614   3.420   3.092   1.947 -0.1127 -0.4259  0.2849
 1536TIP3    H2 4615   3.311   3.003   2.001 -0.3247 -0.2520  0.1498
 1537TIP3   OH2 4616   0.163   1.661   2.688 -0.5868 -0.0734  0.5778
 1537TIP3    H1 4617   0.186   1.606   2.763  0.5760 -1.0617 -0.4707
 1537TIP3    H2 4618   0.204   1.745   2.706 -0.7343 -0.1428  1.2674
 1538TIP3   OH2 4619   3.327   3.581   4.248  0.0343 -0.4478  0.1867
 1538TIP3    H1 4620   3.414   3.614   4.273 -0.4177  1.2459 -0.3600
 1538TIP3    H2 4621   3.287   3.554   4.331 -0.5865  2.9787  1.1494
 1539TIP3   OH2 4622   1.672   5.842   4.894 -0.1122 -0.2793  0.0060
 1539TIP3    H1 4623   1.591   5.827   4.943  0.7855 -3.3963  0.8366
 1539TIP3    H2 4624   1.728   5.891   4.955 -0.8758  0.6839 -0.0506
 1540TIP3   OH2 4625   6.169   3.812   3.390 -0.2472  0.4298 -0.2319
 1540TIP3    H1 4626   6.178   3.898   3.431 -1.4229  0.4880 -0.0673
 1540TIP3    H2 4627   6.244   3.762   3.423  2.2531  2.2476 -2.6631
 1541TIP3   OH2 4628   1.308   0.131   4.311 -0.7425 -0.2263 -0.2515
 1541TIP3    H1 4629   1.352   0.202   4.357 -0.5985 -0.4013 -0.1147
 1541TIP3    H2 4630   1.313   0.057   4.371 -1.4958 -0.1685 -0.1068
 1542TIP3   OH2 4631   1.839   0.553   2.620  0.2382  0.1301 -0.2906
 1542TIP3    H1 4632   1.806   0.566   2.531 -0.7874 -0.2080  0.0212
 1542TIP3    H2 4633   1.764   0.574   2.676  1.1344  1.2426  0.5388
 1543TIP3   OH2 4634   2.346   1.864   4.658 -0.1539 -0.4981 -0.0023
 1543TIP3    H1 4635   2.345   1.794   4.593 -0.5558 -0.3870 -0.1173
 1543TIP3    H2 4636   2.368   1.943   4.609  1.4011 -0.7063  0.3022
 1544TIP3   OH2 4637  -0.008   5.180   2.836 -0.1824 -0.3400 -0.0412
 1544TIP3    H1 4638   0.012   5.184   2.742  0.4739 -0.4345  0.0914
 1544TIP3    H2 4639   0.061   5.124   2.873  1.1257  1.8069  0.9248
 1545TIP3   OH2 4640   3.479   3.670   5.106  0.6591  0.0544 -0.1593
 1545TIP3    H1 4641   3.499   3.709   5.191 -1.9651 -0.6218  0.8818
 1545TIP3    H2 4642   3.411   3.605   5.125 -0.8685  0.6828 -2.9292
 1546TIP3   OH2 4643   6.125   5.272   2.406 -0.6572  0.1641 -0.2844
 1546TIP3    H1 4644   6.130   5.249   2.313  0.3660  0.3962 -0.3047
 1546TIP3    H2 4645   6.141   5.189   2.452 -0.1006  0.2386 -0.3329
 1547TIP3   OH2 4646   6.273   3.035   4.461 -0.1498 -0.1572 -0.0040
 1547TIP3    H1 4647   6.361   3.071   4.453 -1.1891  2.7325  0.4378
 1547TIP3    H2 4648   6.262   2.979   4.384  2.1024 -0.7659  0.0510
 1548TIP3   OH2 4649   0.349   3.215   4.251 -0.0021  0.2655  0.3413
 1548TIP3    H1 4650   0.437   3.176   4.254  0.3045  0.4537 -2.6347
 1548TIP3    H2 4651   0.350   3.268   4.171 -2.4742  1.2022  0.8555
 1549TIP3   OH2 4652   5.462   1.301   0.913  0.2843  0.4664 -0.2995
 1549TIP3    H1 4653   5.445   1.332   0.824  0.5874  1.0165 -0.1739
 1549TIP3    H2 4654   5.412   1.220   0.921  0.0443  0.5542 -0.8823
 1550TIP3   OH2 4655   5.274   4.664   0.542 -0.5779 -0.2002 -0.0871
 1550TIP3    H1 4656   5.236   4.728   0.603  0.7991  0.1929  0.4142
 1550TIP3    H2 4657   5.209   4.655   0.473 -2.5554 -1.2655  1.8103
 1551TIP3   OH2 4658   5.994   5.271   3.542  0.0587  0.2813 -0.3243
 1551TIP3    H1 4659   5.904   5.299   3.559  0.4634  1.2967  0.2487
 1551TIP3    H2 4660   6.048   5.336   3.587  1.0792 -2.2006  2.4128
 1552TIP3   OH2 4661   4.058   2.382   1.763 -0.0062 -0.4202 -0.1442
 1552TIP3    H1 4662   4.026   2.342   1.844  0.6348 -0.8553 -0.0986
 1552TIP3    H2 4663   3.983   2.432   1.730 -0.3381 -0.4010  0.6076
 1553TIP3   OH2 4664   5.235   1.318   4.665 -0.5642  0.3713 -0.7904
 1553TIP3    H1 4665   5.306   1.296   4.726  0.3734  1.4152 -1.4637
 1553TIP3    H2 4666   5.193   1.235   4.646  2.2767 -0.8005 -2.5663
 1554TIP3   OH2 4667   2.173   4.802   1.231  0.7624  0.1508 -0.3161
 1554TIP3    H1 4668   2.186   4.889   1.193 -1.0862  0.6875  0.1383
 1554TIP3    H2 4669   2.237   4.797   1.302  0.9486  1.1062 -0.4010
 1555TIP3   OH2 4670   4.523   0.945   0.230 -0.1055  0.4614  0.2547
 1555TIP3    H1 4671   4.617   0.960   0.223  0.2795 -1.1548  1.4077
 1555TIP3    H2 4672   4.501   0.972   0.319 -0.5174 -0.1731  0.3553
 1556TIP3   OH2 4673   4.467   2.705   2.422 -0.4851  0.4385 -0.6211
 1556TIP3    H1 4674   4.467   2.771   2.492 -0.5662  0.4168 -0.6001
 1556TIP3    H2 4675   4.509   2.748   2.348 -1.8243  1.0099 -1.0745
 1557TIP3   OH2 4676   2.843   4.151   0.515  0.6579 -0.0907  0.5489
 1557TIP3    H1 4677   2.906   4.081   0.531  0.5003 -0.8786 -1.8830
 1557TIP3    H2 4678   2.789   4.153   0.594  1.5854 -1.7110  1.2713
 1558TIP3   OH2 4679   5.133   1.208   2.286  0.3292 -0.1441 -0.1244
 1558TIP3    H1 4680   5.176   1.124   2.272 -0.8225 -0.8348  0.3717
 1558TIP3    H2 4681   5.198   1.262   2.330  0.8179 -1.0346  0.2615
 1559TIP3   OH2 4682   5.382   1.634   1.655 -0.0624  0.4836  0.5826
 1559TIP3    H1 4683   5.461   1.590   1.622 -0.6104  1.2291 -1.8767
 1559TIP3    H2 4684   5.328   1.648   1.578 -2.2463  0.7994  2.0795
 1560TIP3   OH2 4685   2.660   2.273   3.782  0.3682  0.2414 -0.0747
 1560TIP3    H1 4686   2.623   2.330   3.849 -0.5676  2.1789 -2.0985
 1560TIP3    H2 4687   2.721   2.329   3.733 -0.9457 -0.2646 -2.4519
 1561TIP3   OH2 4688   4.402   2.918   1.559  0.0044 -0.4207  0.3176
 1561TIP3    H1 4689   4.415   2.852   1.491 -0.0442 -0.4051  0.2928
 1561TIP3    H2 4690   4.361   2.871   1.631 -2.4565  0.0950 -0.6692
 1562TIP3   OH2 4691   0.926   4.748   0.876  0.4177 -0.2241 -0.3896
 1562TIP3    H1 4692   1.016   4.778   0.891 -0.0631  0.4869  1.3885
 1562TIP3    H2 4693   0.908   4.770   0.785  2.4121 -1.4569 -1.1633
 1563TIP3   OH2 4694   1.512   2.368   2.013 -0.1342  0.1495  0.2818
 1563TIP3    H1 4695   1.424   2.332   2.027 -0.2255  0.6820  1.1897
 1563TIP3    H2 4696   1.570   2.310   2.063 -0.0681  0.2637  0.3373
 1564TIP3   OH2 4697   3.469   2.063   0.875 -0.8806  0.5577 -0.3775
 1564TIP3    H1 4698   3.543   2.012   0.907 -1.1930  0.6339  0.5048
 1564TIP3    H2 4699   3.476   2.147   0.920 -2.3468  0.0315  0.9675
 1565TIP3   OH2 4700   4.788   5.677   2.108 -0.4288 -0.3381  0.5993
 1565TIP3    H1 4701   4.855   5.734   2.071 -1.6015 -0.8249 -2.5471
 1565TIP3    H2 4702   4.721   5.736   2.141 -0.6801  0.1525 -0.7439
 1566TIP3   OH2 4703   0.630   4.959   2.930  0.2038 -0.3396  0.2200
 1566TIP3    H1 4704   0.638   4.969   3.025  1.6446  1.4852 -0.0469
 1566TIP3    H2 4705   0.703   4.904   2.905 -0.1690 -0.8098  0.1565
 1567TIP3   OH2 4706   3.862   2.974   1.932  0.4098 -0.3754 -0.1559
 1567TIP3    H1 4707   3.888   2.924   2.009 -1.4298 -0.6838  0.3259
 1567TIP3    H2 4708   3.943   3.010   1.898  1.4413 -1.4197  1.0923
 1568TIP3   OH2 4709   5.969   5.803   3.043  0.5659  0.4653 -0.0953
 1568TIP3    H1 4710   6.013   5.785   3.126 -0.3564 -0.9886  0.1130
 1568TIP3    H2 4711   6.034   5.780   2.976  1.1510  1.2093  0.2037
 1569TIP3   OH2 4712   2.967   4.781   1.412 -0.0493 -0.3000 -0.5150
 1569TIP3    H1 4713   2.969   4.876   1.416 -0.9297 -0.2378 -1.3027
 1569TIP3    H2 4714   2.987   4.753   1.502 -1.4347  0.6468  0.1178
 1570TIP3   OH2 4715   5.925   4.226   4.781 -0.1140  0.4170 -0.0460
 1570TIP3    H1 4716   5.831   4.214   4.797 -0.1093 -1.3534 -1.0650
 1570TIP3    H2 4717   5.966   4.211   4.866 -0.7617  1.4725  0.4622
 1571TIP3   OH2 4718   4.230   0.458   0.427  0.0621 -0.3323 -0.0497
 1571TIP3    H1 4719   4.169   0.435   0.358 -0.6706  2.4068 -0.4328
 1571TIP3    H2 4720   4.308   0.490   0.381  0.1954 -0.0075  0.3913
 1572TIP3   OH2 4721   0.659   1.825   0.555 -0.1142  0.1876  0.2425
 1572TIP3    H1 4722   0.664   1.865   0.642  1.4457 -0.2362  0.3821
 1572TIP3    H2 4723   0.699   1.889   0.496 -0.8639  0.3289 -0.1364
 1573TIP3   OH2 4724   2.706   2.593   2.699  0.5783  0.1316  0.2763
 1573TIP3    H1 4725   2.744   2.581   2.612 -0.7681 -1.6813 -0.1382
 1573TIP3    H2 4726   2.626   2.643   2.684  1.5974  2.0352  0.8590
 1574TIP3   OH2 4727   5.067   3.512   2.481 -0.2582  0.2175 -0.2078
 1574TIP3    H1 4728   5.015   3.433   2.467 -1.3736  0.8938  0.0018
 1574TIP3    H2 4729   5.128   3.488   2.551 -0.0404 -0.6961 -0.6958
 1575TIP3   OH2 4730   0.815   3.895   1.415 -0.0938 -0.2353  0.5796
 1575TIP3    H1 4731   0.891   3.954   1.416  0.1741 -0.5214 -0.6835
 1575TIP3    H2 4732   0.771   3.915   1.332 -1.0997 -0.4595  1.0424
 1576TIP3   OH2 4733   3.510   4.276   4.549  0.2471  0.3271 -0.1655
 1576TIP3    H1 4734   3.463   4.320   4.621  0.4355  0.0521  0.1281
 1576TIP3    H2 4735   3.514   4.185   4.576  1.0509  0.3676 -0.1328
 1577TIP3   OH2 4736   1.049   4.024   4.101  0.1451 -0.6251  0.0547
 1577TIP3    H1 4737   1.066   4.069   4.018 -1.2562 -0.3378 -0.1000
 1577TIP3    H2 4738   1.034   3.933   4.076  1.7449 -0.9637  0.2349
 1578TIP3   OH2 4739   1.347   2.420   3.869 -0.1898  0.2259 -0.4012
 1578TIP3    H1 4740   1.295   2.364   3.811  0.3679 -0.7291 -0.0158
 1578TIP3    H2 4741   1.433   2.377   3.872 -0.0047  0.6444  0.5677
 1579TIP3   OH2 4742   5.361   3.665   0.070  0.1450 -0.1941 -0.3664
 1579TIP3    H1 4743   5.346   3.604  -0.002  1.8120 -2.0520  0.7515
 1579TIP3    H2 4744   5.430   3.723   0.038  1.9836 -1.9729  0.1683
 1580TIP3   OH2 4745   5.125   3.770   1.184 -0.5690 -0.1711  0.0396
 1580TIP3    H1 4746   5.073   3.844   1.217 -0.8437 -0.0792 -0.5896
 1580TIP3    H2 4747   5.146   3.794   1.094  0.7033 -0.1413  0.3220
 1581TIP3   OH2 4748   3.802   5.330   1.454  0.4766 -0.6254 -0.6651
 1581TIP3    H1 4749   3.727   5.327   1.513 -0.3757  0.4396 -1.6563
 1581TIP3    H2 4750   3.870   5.281   1.499 -0.4242 -0.5575  0.8154
 1582TIP3   OH2 4751   1.320   3.405   1.678  0.0541  0.1416 -0.3771
 1582TIP3    H1 4752   1.349   3.326   1.723 -2.0292  0.3499  1.5299
 1582TIP3    H2 4753   1.382   3.473   1.707  0.7183 -0.4083 -0.5007
 1583TIP3   OH2 4754   3.379   3.788   3.171  0.1055  0.1875  0.3813
 1583TIP3    H1 4755   3.360   3.872   3.214 -0.8952  1.9373 -3.1155
 1583TIP3    H2 4756   3.442   3.809   3.103 -1.7575 -1.3471 -1.9996
 1584TIP3   OH2 4757   3.620   4.713   1.355  0.1582 -0.2483 -0.2240
 1584TIP3    H1 4758   3.692   4.764   1.318  0.4588 -0.9152 -0.5789
 1584TIP3    H2 4759   3.664   4.640   1.400 -0.2753 -0.3885 -0.0269
 1585TIP3   OH2 4760   1.386   4.642   2.861  0.0724  0.0708  0.1782
 1585TIP3    H1 4761   1.378   4.569   2.799 -0.2462  0.1983  0.0671
 1585TIP3    H2 4762   1.438   4.607   2.933 -1.5261 -0.8176  0.9642
 1586TIP3   OH2 4763   4.029   3.524   1.448  0.0636 -0.1882  0.1855
 1586TIP3    H1 4764   4.023   3.620   1.449  1.3186 -0.0943  0.8560
 1586TIP3    H2 4765   4.077   3.502   1.529  0.4815 -1.3212 -0.3502
 1587TIP3   OH2 4766   4.244   5.278   4.206 -0.0355 -0.1375 -0.1147
 1587TIP3    H1 4767   4.285   5.248   4.287 -2.6675 -3.6262  0.1436
 1587TIP3    H2 4768   4.308   5.259   4.138 -0.0749 -3.1491  0.5366
 1588TIP3   OH2 4769   5.650   0.700   0.983 -0.4555 -0.3823  0.3301
 1588TIP3    H1 4770   5.570   0.716   1.033 -0.3364 -0.2102  0.4700
 1588TIP3    H2 4771   5.666   0.782   0.937 -0.2449 -0.3472  0.4671
 1589TIP3   OH2 4772   2.285   3.230   0.814 -0.3480 -0.1851 -0.2349
 1589TIP3    H1 4773   2.364   3.250   0.763 -0.5439  2.1058  0.2626
 1589TIP3    H2 4774   2.213   3.256   0.757 -0.6428  0.4355  0.4121
 1590TIP3   OH2 4775   2.061   1.890   2.381  0.3155  0.2122 -0.0958
 1590TIP3    H1 4776   2.099   1.928   2.302  1.2408  0.4145  0.4239
 1590TIP3    H2 4777   2.050   1.797   2.360  2.6096 -0.1985  0.2304
 1591TIP3   OH2 4778   5.941   2.783   1.254 -0.3514 -0.1403 -0.3441
 1591TIP3    H1 4779   5.854   2.787   1.215 -0.0306  0.5508 -1.0055
 1591TIP3    H2 4780   6.000   2.810   1.184  0.4885 -1.3962 -0.1664
 1592TIP3   OH2 4781   5.718   0.015   4.102 -0.1262 -0.3312 -0.3020
 1592TIP3    H1 4782   5.687  -0.024   4.183  0.1674 -0.8618 -0.4408
 1592TIP3    H2 4783   5.638   0.039   4.055 -0.3113 -0.7642 -0.2140
 1593TIP3   OH2 4784   5.622   2.121   3.273  0.3523 -0.3224  0.3876
 1593TIP3    H1 4785   5.598   2.035   3.236 -1.3128  0.0365  0.5393
 1593TIP3    H2 4786   5.607   2.182   3.201 -1.2043  0.1643  1.0909
 1594TIP3   OH2 4787   4.925   0.570   3.120  0.6202  0.0324  0.3876
 1594TIP3    H1 4788   4.991   0.638   3.108  1.1103 -0.2312  1.4408
 1594TIP3    H2 4789   4.851   0.615   3.159  0.1446  0.3306 -0.8035
 1595TIP3   OH2 4790   6.181   5.037   1.281  0.1097 -0.6639 -0.4567
 1595TIP3    H1 4791   6.182   4.999   1.193 -0.5553  1.2539 -1.3368
 1595TIP3    H2 4792   6.233   5.117   1.274 -1.7720  0.6869  0.3000
 1596TIP3   OH2 4793   0.216   2.609   2.779 -0.5937  0.0914  0.3069
 1596TIP3    H1 4794   0.250   2.671   2.714 -0.9437 -1.3442 -1.3389
 1596TIP3    H2 4795   0.154   2.660   2.831 -0.7274  1.1694 -0.8655
 1597TIP3   OH2 4796   1.276   5.490   1.854  0.2976 -0.6496 -0.0659
 1597TIP3    H1 4797   1.299   5.501   1.946 -3.8224 -1.2412  1.2220
 1597TIP3    H2 4798   1.262   5.396   1.844 -1.7808 -0.3268 -0.5527
 1598TIP3   OH2 4799   1.956   3.423   1.047  0.2643 -0.2131 -0.0168
 1598TIP3    H1 4800   1.923   3.336   1.026 -0.7575  0.1589  0.0138
 1598TIP3    H2 4801   2.006   3.411   1.128 -1.8314 -0.3998  1.3358
 1599TIP3   OH2 4802   2.776   5.254   3.269  0.0373 -0.2370 -0.4208
 1599TIP3    H1 4803   2.791   5.272   3.361  0.4176 -1.1461 -0.2992
 1599TIP3    H2 4804   2.756   5.340   3.231 -1.1500  0.0135  0.6888
 1600TIP3   OH2 4805   2.394   1.857   3.773 -0.1166  0.5008 -0.4952
 1600TIP3    H1 4806   2.418   1.844   3.681 -2.7645 -0.4562 -1.1363
 1600TIP3    H2 4807   2.320   1.918   3.770 -0.4874  0.1672  0.9759
 1601TIP3   OH2 4808   1.153   3.368   4.600 -0.5512  0.5763 -0.8668
 1601TIP3    H1 4809   1.173   3.456   4.630 -2.6931  0.3879  1.4934
 1601TIP3    H2 4810   1.087   3.380   4.531 -0.1161  0.8352 -1.2396
 1602TIP3   OH2 4811   0.817   5.361   3.196 -0.4433  0.3467  0.4550
 1602TIP3    H1 4812   0.816   5.341   3.103 -0.9516 -0.8423  0.6919
 1602TIP3    H2 4813   0.850   5.451   3.202 -1.8754  1.0179 -0.9659
 1603TIP3   OH2 4814   4.243   1.355   0.070  0.4549 -0.1141  0.2055
 1603TIP3    H1 4815   4.286   1.273   0.094 -0.4633 -0.4776  0.6447
 1603TIP3    H2 4816   4.210   1.389   0.153 -4.4641 -2.3269 -0.5091
 1604TIP3   OH2 4817   4.440   5.708   2.253  0.3398  0.3838 -0.0345
 1604TIP3    H1 4818   4.501   5.781   2.248  1.4240 -0.5270 -0.6021
 1604TIP3    H2 4819   4.437   5.674   2.163 -2.9899  1.9454 -0.6664
 1605TIP3   OH2 4820   2.182   1.885   4.129  0.5929 -0.0797  0.0495
 1605TIP3    H1 4821   2.139   1.841   4.202  0.6245 -0.9047 -0.4172
 1605TIP3    H2 4822   2.236   1.817   4.088  0.0734  0.1969 -1.1350
 1606TIP3   OH2 4823   4.373   1.691   2.565  0.2890  0.3845  0.1368
 1606TIP3    H1 4824   4.362   1.621   2.629  1.2266 -0.1230 -0.2344
 1606TIP3    H2 4825   4.459   1.728   2.584 -0.0488  1.2148  0.1027
 1607TIP3   OH2 4826   2.678   1.248   5.149  0.1840 -0.9319  0.0659
 1607TIP3    H1 4827   2.686   1.207   5.236  0.4453 -1.0533 -0.0134
 1607TIP3    H2 4828   2.764   1.285   5.132  0.3277 -1.4703 -0.4182
 1608TIP3   OH2 4829   1.929   0.694   4.881 -0.5129 -0.2910  0.2674
 1608TIP3    H1 4830   1.964   0.649   4.958 -1.1480  1.3191  1.5610
 1608TIP3    H2 4831   1.972   0.779   4.882  1.0306 -0.9318 -2.3968
 1609TIP3   OH2 4832   0.924   4.927   3.266 -0.4345  0.4547 -0.1096
 1609TIP3    H1 4833   0.923   5.003   3.323 -1.7292  1.7157 -1.6988
 1609TIP3    H2 4834   0.993   4.946   3.202 -1.3375  0.7564 -1.0304
 1610TIP3   OH2 4835   6.234   1.698   5.031  0.3964 -0.5772  0.1152
 1610TIP3    H1 4836   6.185   1.755   5.090  2.7562  1.1618  0.5310
 1610TIP3    H2 4837   6.276   1.758   4.969  2.4338 -1.8583  0.1469
 1611TIP3   OH2 4838   4.037   0.052   0.096 -0.0718 -0.2828  0.4952
 1611TIP3    H1 4839   3.956   0.055   0.147 -1.1557 -1.4955 -1.0630
 1611TIP3    H2 4840   4.097   0.108   0.145 -1.6428  0.1919  2.0236
 1612TIP3   OH2 4841   1.306   4.404   1.873  0.5460  0.3994 -0.4221
 1612TIP3    H1 4842   1.293   4.327   1.818  0.4233  1.1773 -1.5095
 1612TIP3    H2 4843   1.219   4.425   1.907  0.4187  0.6096 -0.8778
 1613TIP3   OH2 4844   5.352   4.056   1.212  0.2424  0.1233 -0.3534
 1613TIP3    H1 4845   5.383   4.108   1.286 -1.4042  0.7740 -0.0682
 1613TIP3    H2 4846   5.271   4.099   1.185  1.4763  0.8117 -3.5055
 1614TIP3   OH2 4847   5.869   2.627   0.257 -0.2317 -0.3778  0.3650
 1614TIP3    H1 4848   5.879   2.681   0.335  2.1363 -1.2206  0.7381
 1614TIP3    H2 4849   5.896   2.539   0.285  1.0616 -0.6267 -1.4489
 1615TIP3   OH2 4850   1.120   3.045   4.706 -0.5184  0.2415 -0.2253
 1615TIP3    H1 4851   1.209   3.015   4.722 -0.2395  0.1795 -1.7262
 1615TIP3    H2 4852   1.065   2.968   4.718 -0.3171  0.1558  0.1643
 1616TIP3   OH2 4853   4.845   4.533   3.761  0.4164  0.6995 -0.0655
 1616TIP3    H1 4854   4.763   4.499   3.796 -0.1409  3.7120  1.9190
 1616TIP3    H2 4855   4.820   4.580   3.682  0.3732  0.7739 -0.0078
 1617TIP3   OH2 4856   2.237   5.775   2.120 -0.6260  0.5161 -0.0553
 1617TIP3    H1 4857   2.317   5.827   2.112 -0.6931  0.5443 -0.5486
 1617TIP3    H2 4858   2.223   5.739   2.033 -0.7599 -0.0691  0.2034
 1618TIP3   OH2 4859   6.223   4.078   3.468  0.1707 -0.3120  0.5991
 1618TIP3    H1 4860   6.267   4.131   3.401 -1.5373 -0.6828 -0.8775
 1618TIP3    H2 4861   6.145   4.128   3.491  1.4261  0.5290  3.4850
 1619TIP3   OH2 4862   6.281   2.979   0.381 -0.0693 -0.2732 -0.4860
 1619TIP3    H1 4863   6.307   3.054   0.328  0.8410  0.0448  0.3867
 1619TIP3    H2 4864   6.330   2.989   0.463 -0.5860 -1.3592 -0.0268
 1620TIP3   OH2 4865   0.691   5.676   0.383 -0.5532  0.1299 -0.4342
 1620TIP3    H1 4866   0.608   5.663   0.336  0.2916  1.3711 -2.3963
 1620TIP3    H2 4867   0.718   5.765   0.359  0.5486  0.3670  1.5004
 1621TIP3   OH2 4868   5.670   0.585   3.836  0.2074 -0.2903  0.9154
 1621TIP3    H1 4869   5.687   0.518   3.770  0.8945  0.9458 -0.1973
 1621TIP3    H2 4870   5.756   0.604   3.873  0.4192  1.6620 -0.4681
 1622TIP3   OH2 4871   3.721   4.072   4.611 -0.1767 -0.2144 -0.1015
 1622TIP3    H1 4872   3.756   4.113   4.532 -2.5763  0.8906 -0.6880
 1622TIP3    H2 4873   3.689   4.145   4.664 -2.3474 -1.1264 -0.0477
 1623TIP3   OH2 4874   4.022   3.644   2.059  0.3800 -0.2300 -0.2350
 1623TIP3    H1 4875   4.089   3.615   2.121 -1.0256  0.0342  1.5142
 1623TIP3    H2 4876   3.973   3.712   2.106 -0.3143  0.5094 -1.9239
 1624TIP3   OH2 4877   2.915   1.225   2.797 -0.0579  0.5716  0.4386
 1624TIP3    H1 4878   2.846   1.242   2.733 -0.5752  4.6145  1.7518
 1624TIP3    H2 4879   2.991   1.201   2.744 -1.1729  0.9635 -1.4569
 1625TIP3   OH2 4880   1.604   3.515   0.040  0.1737 -0.0344 -0.9256
 1625TIP3    H1 4881   1.597   3.453   0.114 -1.6946 -0.9727 -1.8147
 1625TIP3    H2 4882   1.549   3.589   0.066 -1.7694 -1.0389 -1.9291
 1626TIP3   OH2 4883   1.845   3.106   1.510 -0.1225 -0.3212  0.0682
 1626TIP3    H1 4884   1.753   3.081   1.499 -0.0187 -0.3271 -0.9014
 1626TIP3    H2 4885   1.887   3.077   1.429  0.6403  0.1043  0.3052
 1627TIP3   OH2 4886   6.251   1.599   0.051 -0.2751 -0.2686  0.5824
 1627TIP3    H1 4887   6.245   1.557   0.137  1.2082  0.1654  0.9185
 1627TIP3    H2 4888   6.256   1.692   0.069 -0.3312 -0.1463  0.0005
 1628TIP3   OH2 4889   2.748   4.396   0.382  0.6698  0.2883  0.0944
 1628TIP3    H1 4890   2.832   4.438   0.362  0.5974 -0.0555 -1.0349
 1628TIP3    H2 4891   2.768   4.333   0.451  0.3258  3.7864  3.7135
 1629TIP3   OH2 4892   2.694   5.702   1.511  0.5399 -0.2808  0.2058
 1629TIP3    H1 4893   2.733   5.691   1.424 -0.2023  0.1096 -0.1868
 1629TIP3    H2 4894   2.727   5.628   1.562 -0.3056 -1.4639 -0.8900
 1630TIP3   OH2 4895   2.150   2.525   1.577  0.1111 -0.4471  0.0332
 1630TIP3    H1 4896   2.106   2.556   1.656  0.1406 -1.8230  0.6149
 1630TIP3    H2 4897   2.078   2.495   1.520  0.0593  0.9208 -0.6573
 1631TIP3   OH2 4898   6.302   3.308   1.982  0.3767 -0.4010  0.3923
 1631TIP3    H1 4899   6.219   3.311   2.030  0.5955  0.2792  0.7493
 1631TIP3    H2 4900   6.291   3.237   1.919 -0.4081 -0.4427  0.5627
 1632TIP3   OH2 4901   2.788   5.977   4.546 -0.3575 -0.4631 -0.5895
 1632TIP3    H1 4902   2.774   6.015   4.459 -0.4422  0.9072 -0.0090
 1632TIP3    H2 4903   2.800   5.884   4.530  1.2975 -0.0193 -2.2477
 1633TIP3   OH2 4904   2.162   5.889   3.284  0.4289  0.8479 -0.2144
 1633TIP3    H1 4905   2.102   5.927   3.220  0.6406  1.0921 -0.2690
 1633TIP3    H2 4906   2.158   5.949   3.358 -1.1953 -0.3617  0.7538
 1634TIP3   OH2 4907   2.687   0.579   2.877 -0.3120  0.0468 -0.2844
 1634TIP3    H1 4908   2.623   0.647   2.852 -0.5448 -0.1094 -0.1142
 1634TIP3    H2 4909   2.762   0.595   2.819 -0.9897 -0.5345 -1.3525
 1635TIP3   OH2 4910   0.935   0.198   0.763  0.5378 -0.2975 -0.0504
 1635TIP3    H1 4911   0.878   0.225   0.835  0.1352  1.0608 -0.8497
 1635TIP3    H2 4912   1.023   0.226   0.789  0.0511  2.5666 -1.1403
 1636TIP3   OH2 4913   5.691   1.153   1.696 -0.4084 -0.1427  0.1374
 1636TIP3    H1 4914   5.662   1.222   1.756 -0.3768  0.7148 -0.8047
 1636TIP3    H2 4915   5.709   1.199   1.614  0.1452 -1.2025 -0.3502
 1637TIP3   OH2 4916   4.756   3.894   2.465 -0.6541  0.1850 -0.1128
 1637TIP3    H1 4917   4.695   3.909   2.393 -0.5808  1.4097  0.0520
 1637TIP3    H2 4918   4.843   3.903   2.425 -0.6106  0.5151  0.0508
 1638TIP3   OH2 4919   0.648   0.646   2.676 -0.1987 -0.0292 -0.0713
 1638TIP3    H1 4920   0.660   0.603   2.591  1.5175  0.4465 -0.1010
 1638TIP3    H2 4921   0.588   0.718   2.657 -1.6075 -1.2177 -0.3938
 1639TIP3   OH2 4922   0.793   4.102   4.453  0.3546 -0.7145 -0.5066
 1639TIP3    H1 4923   0.773   4.028   4.395 -2.1348  0.4373 -1.2573
 1639TIP3    H2 4924   0.880   4.131   4.426  0.1849 -1.6073 -2.1232
 1640TIP3   OH2 4925   4.166   5.703   0.198  0.6622  0.4652  0.0241
 1640TIP3    H1 4926   4.115   5.773   0.240  2.7395  0.6898  2.4531
 1640TIP3    H2 4927   4.193   5.740   0.114 -1.3125  1.1393 -0.3682
 1641TIP3   OH2 4928   5.690   1.065   4.238 -0.1003 -0.3849 -0.5999
 1641TIP3    H1 4929   5.623   0.999   4.255  0.6137 -0.8610  0.4617
 1641TIP3    H2 4930   5.651   1.121   4.171 -1.6917 -0.4513  0.2068
 1642TIP3   OH2 4931   3.614   3.195   5.044 -0.7719  0.3483 -0.9821
 1642TIP3    H1 4932   3.584   3.141   4.971  0.5806  0.4013 -1.5963
 1642TIP3    H2 4933   3.583   3.148   5.122  0.0498 -1.1361 -1.5090
 1643TIP3   OH2 4934   2.690   4.520   3.852 -0.3336 -0.3375 -0.1014
 1643TIP3    H1 4935   2.657   4.585   3.789  0.3849  0.3603  0.2131
 1643TIP3    H2 4936   2.779   4.502   3.822  0.1584  0.2954  0.9102
 1644TIP3   OH2 4937   5.048   5.068   4.519 -0.0983 -0.0111 -0.0989
 1644TIP3    H1 4938   4.952   5.067   4.517 -0.1103  0.7936 -0.3894
 1644TIP3    H2 4939   5.072   5.141   4.462  0.7003 -0.3934 -0.2689
 1645TIP3   OH2 4940   2.084   5.397   2.662  0.5643 -0.3290 -0.2248
 1645TIP3    H1 4941   2.168   5.436   2.638 -0.4514  1.4308 -1.0820
 1645TIP3    H2 4942   2.065   5.335   2.592  1.2175 -0.8928  0.0794
 1646TIP3   OH2 4943   4.997   4.658   1.694  0.3484 -0.5101 -0.1707
 1646TIP3    H1 4944   4.983   4.717   1.768 -0.4935 -1.4848  0.4702
 1646TIP3    H2 4945   5.055   4.590   1.729  0.2436 -0.7792 -0.5187
 1647TIP3   OH2 4946   4.973   2.316   2.486  0.5219 -1.0405  0.4528
 1647TIP3    H1 4947   5.025   2.396   2.498  0.3934 -0.8599 -0.1528
 1647TIP3    H2 4948   4.995   2.288   2.397  0.0803 -1.3300  0.4375
 1648TIP3   OH2 4949   6.070   2.493   0.532 -0.0766  0.5840  0.5208
 1648TIP3    H1 4950   6.020   2.461   0.457 -2.0203  2.0946  1.0844
 1648TIP3    H2 4951   6.094   2.583   0.509  2.5336 -0.1155  0.2467
 1649TIP3   OH2 4952   1.847   2.582   0.547  0.1217  0.0600 -0.1589
 1649TIP3    H1 4953   1.828   2.584   0.641 -0.5351  1.4825 -0.2982
 1649TIP3    H2 4954   1.901   2.504   0.535 -1.0335 -0.9987  1.1589
 1650TIP3   OH2 4955   2.922   5.071   0.644  0.1484  0.0109  0.0207
 1650TIP3    H1 4956   2.874   4.988   0.636  0.0532  0.1484 -0.9565
 1650TIP3    H2 4957   2.990   5.052   0.709  1.0047 -1.2881 -1.1795
 1651TIP3   OH2 4958   2.672   3.440   0.165  0.3749  0.4508  0.1544
 1651TIP3    H1 4959   2.657   3.365   0.106 -2.2460  1.7536 -1.0181
 1651TIP3    H2 4960   2.589   3.450   0.211  1.2652  1.6058  1.5739
 1652TIP3   OH2 4961   5.633   4.642   4.432 -0.2532 -0.1441  0.0907
 1652TIP3    H1 4962   5.542   4.668   4.418 -0.0043 -0.0812 -1.6477
 1652TIP3    H2 4963   5.670   4.710   4.488 -0.5266  1.4072 -1.5464
 1653TIP3   OH2 4964   2.354   5.105   3.724  0.1850  0.0290 -0.1336
 1653TIP3    H1 4965   2.383   5.174   3.784 -0.3772  1.5875 -1.5508
 1653TIP3    H2 4966   2.261   5.092   3.745  0.1108  0.2288 -0.3303
 1654TIP3   OH2 4967   2.693   3.150   4.020 -0.1587  0.3134 -0.7860
 1654TIP3    H1 4968   2.654   3.236   4.003 -0.4425  0.5876  0.9789
 1654TIP3    H2 4969   2.628   3.104   4.073 -0.0198 -1.0264 -1.7333
 1655TIP3   OH2 4970   2.919   0.984   2.192  0.4545 -0.6356 -0.4423
 1655TIP3    H1 4971   2.932   0.946   2.105  0.4790 -1.1777 -0.2024
 1655TIP3    H2 4972   2.892   1.075   2.174  2.7878  0.0128 -0.9742
 1656TIP3   OH2 4973   6.011   1.239   4.023  0.1719 -0.3893  0.0283
 1656TIP3    H1 4974   5.923   1.220   4.057 -0.7447  2.0113 -0.8265
 1656TIP3    H2 4975   6.036   1.158   3.978 -2.5690 -0.4732 -1.6275
 1657TIP3   OH2 4976   1.510   5.491   4.810  0.2146  0.3912 -0.2653
 1657TIP3    H1 4977   1.574   5.458   4.747 -0.0004 -1.2899  0.3456
 1657TIP3    H2 4978   1.458   5.555   4.761  0.6496 -0.1903 -1.5198
 1658TIP3   OH2 4979   2.147   1.966   1.148  0.0399  0.5901  0.1087
 1658TIP3    H1 4980   2.197   1.888   1.127 -0.5938  0.1870  0.0677
 1658TIP3    H2 4981   2.110   1.948   1.235  0.2260  1.0158  0.2788
 1659TIP3   OH2 4982   2.415   4.552   2.347  0.2730 -0.0110 -0.0887
 1659TIP3    H1 4983   2.450   4.631   2.307  0.2945 -0.9372 -2.0129
 1659TIP3    H2 4984   2.441   4.482   2.288 -3.1626 -0.9905 -0.6519
 1660TIP3   OH2 4985   3.129   5.468   0.060 -0.0218  0.5629 -0.0230
 1660TIP3    H1 4986   3.041   5.456   0.098 -0.7237  0.0326 -1.7239
 1660TIP3    H2 4987   3.150   5.560   0.079 -1.8284  1.3014 -1.2476
 1661TIP3   OH2 4988   0.478   3.043   4.918 -0.0234  0.0224  0.3498
 1661TIP3    H1 4989   0.513   2.982   4.984 -0.7681  0.0333  0.7721
 1661TIP3    H2 4990   0.554   3.092   4.887  0.3614 -0.0713  1.1192
 1662TIP3   OH2 4991   0.568   2.118   5.097 -0.1676 -0.4937 -0.0963
 1662TIP3    H1 4992   0.502   2.073   5.151 -0.6555  1.4612  1.0442
 1662TIP3    H2 4993   0.648   2.067   5.109 -1.1981 -2.3945 -0.7748
 1663TIP3   OH2 4994   1.641   5.379   0.329 -0.1759  0.1815  0.1148
 1663TIP3    H1 4995   1.617   5.294   0.293  0.5266  0.2349 -0.5146
 1663TIP3    H2 4996   1.616   5.374   0.421 -1.4126 -0.1923 -0.2336
 1664TIP3   OH2 4997   1.302   0.034   2.562 -0.0560 -0.0397  0.4331
 1664TIP3    H1 4998   1.224   0.089   2.554  0.2477  0.3167 -0.2416
 1664TIP3    H2 4999   1.290  -0.034   2.495  0.8134  0.8017 -0.6360
 1665TIP3   OH2 5000   2.374   0.648   3.148  0.0245  0.6849 -0.2488
 1665TIP3    H1 5001   2.358   0.569   3.097  1.0350  0.2717  0.0491
 1665TIP3    H2 5002   2.459   0.680   3.117  0.8324  0.2328  1.3621
 1666TIP3   OH2 5003   5.205   5.270   5.024  0.2679  0.4180  0.0960
 1666TIP3    H1 5004   5.127   5.301   5.070 -0.5671 -0.2103 -0.8728
 1666TIP3    H2 5005   5.177   5.257   4.934  1.5824  0.4932 -0.3492
 1667TIP3   OH2 5006   6.258   2.377   0.685 -0.2462  1.1567  0.3537
 1667TIP3    H1 5007   6.200   2.405   0.614  1.5595  0.4593 -1.4928
 1667TIP3    H2 5008   6.345   2.378   0.646  0.4824 -2.3846  1.5563
 1668TIP3   OH2 5009   6.192   4.528   4.759  0.1004 -0.4696 -0.0642
 1668TIP3    H1 5010   6.146   4.532   4.675  0.2226  0.7646 -0.0847
 1668TIP3    H2 5011   6.185   4.617   4.794 -0.1766 -1.0402  1.3577
 1669TIP3   OH2 5012   5.200   0.483   2.065  0.0568 -0.0853  0.3102
 1669TIP3    H1 5013   5.288   0.450   2.083  0.0116 -0.3556  0.0390
 1669TIP3    H2 5014   5.160   0.416   2.009 -0.4483 -0.1478  0.7289
 1670TIP3   OH2 5015   2.225   5.329   1.179  0.6394  0.2157  0.1357
 1670TIP3    H1 5016   2.237   5.325   1.274  0.5791  1.5462  0.2164
 1670TIP3    H2 5017   2.283   5.400   1.151  2.3010 -1.5233 -1.1310
 1671TIP3   OH2 5018   3.144   0.153   1.395 -0.7005 -0.2119  0.0209
 1671TIP3    H1 5019   3.143   0.060   1.371 -0.4480  0.1615 -1.5257
 1671TIP3    H2 5020   3.237   0.175   1.402 -0.7468 -0.4126  1.9336
 1672TIP3   OH2 5021   5.933   4.601   2.958 -0.1940 -0.0850  0.3534
 1672TIP3    H1 5022   5.921   4.633   3.048 -0.0387 -1.5767  0.9394
 1672TIP3    H2 5023   5.924   4.679   2.904 -0.8216  0.7747  1.6225
 1673TIP3   OH2 5024   1.293   4.656   4.019  0.2716 -0.0822 -0.2063
 1673TIP3    H1 5025   1.255   4.721   3.960 -1.5236 -1.1570 -0.2916
 1673TIP3    H2 5026   1.370   4.700   4.056  0.6829  1.1033 -2.2903
 1674TIP3   OH2 5027   3.113   5.232   2.301 -0.4991 -0.0091  0.6210
 1674TIP3    H1 5028   3.098   5.322   2.271  0.7302  0.5847  1.6699
 1674TIP3    H2 5029   3.179   5.198   2.240 -1.1723 -0.3144  0.0501
 1675TIP3   OH2 5030   3.447   3.090   2.881 -0.0778 -0.1912  0.4123
 1675TIP3    H1 5031   3.426   3.156   2.946  0.0796  0.3186 -0.0450
 1675TIP3    H2 5032   3.529   3.121   2.842 -1.3067  0.7308 -1.5967
 1676TIP3   OH2 5033   5.103   1.533   5.139 -0.1158  0.4419  0.0605
 1676TIP3    H1 5034   5.098   1.579   5.056 -1.2903 -0.2942 -0.2994
 1676TIP3    H2 5035   5.160   1.457   5.121 -1.3919 -0.4289 -0.4543
 1677TIP3   OH2 5036   5.640   3.809   2.585  0.5643  0.2017  0.1088
 1677TIP3    H1 5037   5.688   3.810   2.668  0.2971  0.8563  0.2635
 1677TIP3    H2 5038   5.595   3.893   2.583 -0.6968 -0.4637  0.0206
 1678TIP3   OH2 5039   3.499   1.142   1.013  0.8887  0.4210  0.4839
 1678TIP3    H1 5040   3.519   1.119   1.104  2.1913 -1.7811 -0.2748
 1678TIP3    H2 5041   3.406   1.120   1.004  0.6878  0.8669  1.3254
 1679TIP3   OH2 5042   2.741   5.576   4.896  0.4750  0.0746 -0.0270
 1679TIP3    H1 5043   2.701   5.635   4.833 -0.9964  0.0715  0.8512
 1679TIP3    H2 5044   2.816   5.625   4.930 -0.3658  1.2315  0.2537
 1680TIP3   OH2 5045   6.300   0.303   1.582 -0.0238 -0.6098  0.0238
 1680TIP3    H1 5046   6.334   0.215   1.602 -1.7511 -0.8839  2.0794
 1680TIP3    H2 5047   6.354   0.362   1.635  0.3517 -0.5186 -0.4446
 1681TIP3   OH2 5048   5.450   4.189   1.440 -0.4688  0.3627  0.1832
 1681TIP3    H1 5049   5.377   4.249   1.453 -1.7531 -0.6774 -1.7570
 1681TIP3    H2 5050   5.477   4.165   1.528 -0.5963  2.9173  1.0055
 1682TIP3   OH2 5051   3.563   0.155   1.328  0.4981 -1.1143 -0.5568
 1682TIP3    H1 5052   3.614   0.204   1.264  0.0142 -0.0239 -0.1210
 1682TIP3    H2 5053   3.515   0.221   1.377  1.0973 -1.8970  1.1557
 1683TIP3   OH2 5054   1.993   3.558   0.219  0.2981  0.2372 -0.0611
 1683TIP3    H1 5055   1.969   3.581   0.129 -2.1410  0.3047  0.5510
 1683TIP3    H2 5056   2.035   3.472   0.212  1.8770  1.0540 -1.4247
 1684TIP3   OH2 5057   2.975   3.046   4.612 -0.1161 -0.1414 -0.0362
 1684TIP3    H1 5058   3.017   3.008   4.536 -1.9439 -0.5448 -0.8900
 1684TIP3    H2 5059   2.959   2.972   4.671 -0.7375 -0.2073 -0.2754
 1685TIP3   OH2 5060   1.529   3.273   1.027 -0.2257 -0.3127 -0.0976
 1685TIP3    H1 5061   1.587   3.333   1.073  0.2390 -1.2395  0.5689
 1685TIP3    H2 5062   1.442   3.295   1.059 -0.3964  1.6117 -1.6896
 1686TIP3   OH2 5063   0.213   1.757   0.960  0.0788 -0.5555 -0.2587
 1686TIP3    H1 5064   0.160   1.820   1.009  0.1181 -1.8235  1.5059
 1686TIP3    H2 5065   0.299   1.799   0.952 -0.5758  0.6644 -1.3940
 1687TIP3   OH2 5066   4.143   2.956   3.876  0.5538 -0.1497  0.3864
 1687TIP3    H1 5067   4.169   3.015   3.947  0.4096  0.7748 -0.3123
 1687TIP3    H2 5068   4.198   2.982   3.802 -0.0614 -0.3656 -0.1550
 1688TIP3   OH2 5069   4.592   1.464   4.429  0.1303  0.3461  0.4068
 1688TIP3    H1 5070   4.543   1.426   4.502 -0.9487  0.4250 -0.2553
 1688TIP3    H2 5071   4.597   1.557   4.450 -1.1314  0.5526 -0.1229
 1689TIP3   OH2 5072   3.020   0.575   1.096  0.2827 -0.4719 -0.2276
 1689TIP3    H1 5073   2.987   0.495   1.055 -0.1584 -0.5198  0.2174
 1689TIP3    H2 5074   3.115   0.567   1.092  0.3273 -2.4075  2.4348
 1690TIP3   OH2 5075   3.232   3.482   5.142 -0.8071  0.0648  0.1959
 1690TIP3    H1 5076   3.225   3.540   5.218 -0.7661  0.1958  0.1008
 1690TIP3    H2 5077   3.207   3.396   5.175 -0.1513 -0.0112  0.5242
 1691TIP3   OH2 5078   1.957   5.485   1.315 -0.1954  0.4426  0.1215
 1691TIP3    H1 5079   1.879   5.432   1.333  0.1560  0.2754  1.2294
 1691TIP3    H2 5080   1.958   5.495   1.220 -0.2297 -1.6382 -0.1451
 1692TIP3   OH2 5081   2.072   5.767   0.956 -0.5062  0.4900 -0.2836
 1692TIP3    H1 5082   2.096   5.841   1.013  0.8697  0.7012 -1.0851
 1692TIP3    H2 5083   2.115   5.787   0.873 -1.3654 -0.4839 -0.9740
 1693TIP3   OH2 5084   0.205   2.698   0.419  0.6728 -0.1913  0.2658
 1693TIP3    H1 5085   0.282   2.737   0.461  0.7923 -0.3925  0.2354
 1693TIP3    H2 5086   0.241   2.646   0.347  0.5385 -0.5870  0.4822
 1694TIP3   OH2 5087   3.573   4.961   2.119  0.1623 -0.1269  0.2713
 1694TIP3    H1 5088   3.596   5.014   2.043 -0.3660  0.2285  0.3472
 1694TIP3    H2 5089   3.657   4.935   2.157  0.4258 -0.2982 -0.4227
 1695TIP3   OH2 5090   5.544   3.164   5.100 -0.0104  0.1486  0.2953
 1695TIP3    H1 5091   5.464   3.195   5.144 -0.0007 -1.0647  1.2093
 1695TIP3    H2 5092   5.578   3.096   5.157  0.6296 -0.6984 -1.0531
 1696TIP3   OH2 5093   0.615   5.706   0.649 -0.6298 -0.6707 -0.0215
 1696TIP3    H1 5094   0.619   5.631   0.707  0.9629  0.2353  1.1127
 1696TIP3    H2 5095   0.648   5.674   0.565  0.2614 -1.1825  0.5199
 1697TIP3   OH2 5096   2.679   1.765   1.638 -0.6298 -0.2896 -0.1217
 1697TIP3    H1 5097   2.691   1.776   1.543 -1.8466 -0.4912 -0.3224
 1697TIP3    H2 5098   2.767   1.757   1.673 -0.0540  1.7299 -0.9888
 1698TIP3   OH2 5099   5.459   3.502   3.469  0.6658  0.2329 -0.3150
 1698TIP3    H1 5100   5.529   3.481   3.406  1.2595  0.6063  0.2176
 1698TIP3    H2 5101   5.403   3.424   3.469  1.3528 -0.2628 -0.3787
 1699TIP3   OH2 5102   1.952   4.201   1.708 -0.9322  0.2350 -0.1081
 1699TIP3    H1 5103   1.867   4.244   1.700 -0.0445  1.9935 -0.3583
 1699TIP3    H2 5104   1.975   4.176   1.619 -0.3700  1.4049 -0.3011
 1700TIP3   OH2 5105   0.295   1.135   1.970 -0.4550  0.0210 -0.1528
 1700TIP3    H1 5106   0.289   1.203   1.903 -1.0212  0.7530  0.6222
 1700TIP3    H2 5107   0.206   1.127   2.004 -0.2837 -0.7440  0.1241
 1701TIP3   OH2 5108   4.812   1.949   2.121  0.2432  0.3099  0.1001
 1701TIP3    H1 5109   4.777   1.946   2.210 -0.8598 -0.2895 -0.3378
 1701TIP3    H2 5110   4.750   2.003   2.072 -0.7971 -1.7516 -0.9654
 1702TIP3   OH2 5111   0.136   0.410   1.222 -0.3083  0.5785  0.4160
 1702TIP3    H1 5112   0.229   0.433   1.220 -0.4838  1.3317  0.5517
 1702TIP3    H2 5113   0.093   0.489   1.254 -1.0520  0.4170 -0.1627
 1703TIP3   OH2 5114   5.956   4.886   2.409 -0.6037 -0.1731  0.0904
 1703TIP3    H1 5115   6.048   4.905   2.425 -0.5033 -1.2197  0.9104
 1703TIP3    H2 5116   5.930   4.831   2.483 -1.7564 -0.2949 -0.3808
 1704TIP3   OH2 5117   1.765   5.734   2.982 -0.1708  0.0251  0.2616
 1704TIP3    H1 5118   1.703   5.662   2.996  1.4033 -1.2543  1.0696
 1704TIP3    H2 5119   1.718   5.795   2.925 -1.5772 -1.6442 -0.4859
 1705TIP3   OH2 5120   2.478   0.465   1.513 -0.1238  0.3950  0.0048
 1705TIP3    H1 5121   2.472   0.378   1.552  2.5965  0.2648  0.2969
 1705TIP3    H2 5122   2.525   0.452   1.431  3.0369  1.8525  1.4207
 1706TIP3   OH2 5123   1.141   1.041   3.133 -0.0395 -0.0095  0.2659
 1706TIP3    H1 5124   1.209   0.976   3.116 -2.4366 -2.3167 -1.2273
 1706TIP3    H2 5125   1.090   1.004   3.205 -1.5751 -0.0169 -0.7579
 1707TIP3   OH2 5126   3.904   2.387   5.069 -0.1610 -0.1696  0.1349
 1707TIP3    H1 5127   3.902   2.348   4.982  1.7890 -0.0849 -0.0036
 1707TIP3    H2 5128   3.905   2.481   5.054  0.9249 -0.1588  0.1840
 1708TIP3   OH2 5129   5.407   1.366   0.650 -0.5848  0.3504 -0.5366
 1708TIP3    H1 5130   5.430   1.428   0.580  0.9779  1.0347  0.5144
 1708TIP3    H2 5131   5.362   1.295   0.606  0.5669  0.6486 -2.2746
 1709TIP3   OH2 5132   0.855   5.199   3.694  0.1002 -0.0959  0.4415
 1709TIP3    H1 5133   0.849   5.213   3.599 -2.3344 -0.5772  0.4434
 1709TIP3    H2 5134   0.850   5.104   3.704 -0.1541 -0.0218  1.0590
 1710TIP3   OH2 5135   2.589   2.197   2.011  0.5497 -0.4365 -0.4010
 1710TIP3    H1 5136   2.630   2.188   1.925 -2.4431  0.7287 -2.1104
 1710TIP3    H2 5137   2.521   2.129   2.012  0.1076 -0.0043  0.7593
 1711TIP3   OH2 5138   4.580   3.363   4.016 -0.5323  0.3756 -0.2464
 1711TIP3    H1 5139   4.614   3.292   3.961 -0.1443 -1.3554  2.0838
 1711TIP3    H2 5140   4.649   3.378   4.080 -2.0528  0.3098  1.5004
 1712TIP3   OH2 5141   5.310   0.878   2.883 -0.0422 -0.2096  0.2621
 1712TIP3    H1 5142   5.285   0.957   2.835  1.0747 -1.6632 -2.9792
 1712TIP3    H2 5143   5.228   0.848   2.924 -0.9333  1.4313 -0.2134
 1713TIP3   OH2 5144   2.673   2.093   0.695  0.2473  0.4361 -0.1362
 1713TIP3    H1 5145   2.765   2.087   0.669  0.2707  0.0528  0.0287
 1713TIP3    H2 5146   2.674   2.073   0.789  0.0597  0.9690 -0.0152
 1714TIP3   OH2 5147   3.735   3.729   3.214  0.1629  0.3757  0.2213
 1714TIP3    H1 5148   3.819   3.719   3.258 -0.3104  0.5549  1.2076
 1714TIP3    H2 5149   3.733   3.821   3.186  0.0147  0.5675  0.8339
 1715TIP3   OH2 5150   0.857   5.715   0.085  0.4459 -0.3357  0.1705
 1715TIP3    H1 5151   0.834   5.624   0.065 -1.9266  0.3063 -0.3384
 1715TIP3    H2 5152   0.918   5.740   0.015  0.6610 -1.3453 -0.0216
 1716TIP3   OH2 5153   3.346   4.826   4.975  0.2088 -0.1289 -0.2520
 1716TIP3    H1 5154   3.375   4.746   5.019  0.5387  0.8806  1.4781
 1716TIP3    H2 5155   3.285   4.796   4.908 -0.8051 -1.7499  1.3071
 1717TIP3   OH2 5156   2.639   1.296   0.383  0.2799 -0.3999 -0.3415
 1717TIP3    H1 5157   2.561   1.349   0.398  0.2438 -0.8713  1.2511
 1717TIP3    H2 5158   2.605   1.212   0.351  0.2047 -0.2417 -0.6809
 1718TIP3   OH2 5159   1.847   5.132   4.722 -0.4621  0.1561 -0.2075
 1718TIP3    H1 5160   1.760   5.118   4.759 -0.7049 -0.9281 -1.1385
 1718TIP3    H2 5161   1.860   5.226   4.728 -1.7498  0.3558 -0.1605
 1719TIP3   OH2 5162   4.150   4.894   2.019  0.1779 -0.4324  0.0767
 1719TIP3    H1 5163   4.092   4.819   2.009  0.3867 -0.4972 -0.7876
 1719TIP3    H2 5164   4.233   4.867   1.978 -0.6377  1.2242 -3.0614
 1720TIP3   OH2 5165   4.226   1.918   2.518 -0.1376 -0.4364  0.1968
 1720TIP3    H1 5166   4.150   1.896   2.463  0.2569 -1.1603 -0.0815
 1720TIP3    H2 5167   4.265   1.833   2.538  0.3675 -0.0944  0.6746
 1721TIP3   OH2 5168   4.630   5.281   0.819 -0.0101  0.8448 -0.0439
 1721TIP3    H1 5169   4.621   5.211   0.753  1.6581  0.3352  0.2321
 1721TIP3    H2 5170   4.568   5.257   0.888 -0.2841  0.2665 -0.4802
 1722TIP3   OH2 5171   4.156   4.006   0.781  0.1287  0.1097 -0.0263
 1722TIP3    H1 5172   4.112   4.082   0.743  1.1564  1.1148  0.7362
 1722TIP3    H2 5173   4.220   4.042   0.842  1.9844 -1.2793 -1.0133
 1723TIP3   OH2 5174   5.097   1.400   1.501 -0.3499 -0.4911  0.1226
 1723TIP3    H1 5175   5.175   1.347   1.517  0.6673  1.2637  1.3286
 1723TIP3    H2 5176   5.042   1.386   1.578  0.3366  0.8655  0.8796
 1724TIP3   OH2 5177   3.014   1.290   2.334  0.1588 -1.2008 -0.8450
 1724TIP3    H1 5178   3.085   1.284   2.398  1.1930  1.2576 -1.6052
 1724TIP3    H2 5179   3.048   1.246   2.256  1.1066  0.3115 -1.3381
 1725TIP3   OH2 5180   4.808   1.383   4.290  0.1469  0.3319 -0.2389
 1725TIP3    H1 5181   4.865   1.332   4.347  0.8762  1.1709 -0.2031
 1725TIP3    H2 5182   4.736   1.412   4.347 -0.5117 -0.9905 -0.3590
 1726TIP3   OH2 5183   2.537   0.406   3.268 -0.1761  0.2479  0.2495
 1726TIP3    H1 5184   2.610   0.458   3.233  0.8627 -0.1057  1.7957
 1726TIP3    H2 5185   2.535   0.427   3.361 -2.1847  0.3589  0.2282
 1727TIP3   OH2 5186   2.122   1.021   2.572 -0.2450 -0.4812 -0.1377
 1727TIP3    H1 5187   2.038   1.048   2.535  0.3443  0.5251 -0.7970
 1727TIP3    H2 5188   2.131   0.929   2.546 -1.4464 -0.8028  0.5365
 1728TIP3   OH2 5189   5.504   1.347   4.773 -0.1568 -0.4811 -0.1765
 1728TIP3    H1 5190   5.481   1.439   4.786 -1.0913 -0.7848  0.3567
 1728TIP3    H2 5191   5.599   1.348   4.758  0.2211  0.3467  2.0203
 1729TIP3   OH2 5192   5.951   4.403   2.721  0.2669  0.0515 -0.1515
 1729TIP3    H1 5193   5.906   4.463   2.781 -1.0888  0.9656 -2.0012
 1729TIP3    H2 5194   5.882   4.347   2.687  1.0141 -0.4980 -0.7923
 1730TIP3   OH2 5195   5.267   1.153   2.775 -1.1034  0.4870  0.3952
 1730TIP3    H1 5196   5.343   1.207   2.796 -0.6028 -0.3502  0.8350
 1730TIP3    H2 5197   5.272   1.138   2.681  0.3282 -1.0501  0.6793
 1731TIP3   OH2 5198   2.518   2.819   2.414 -0.5911  0.3993  0.1298
 1731TIP3    H1 5199   2.454   2.826   2.343  1.1990  0.4368 -1.5614
 1731TIP3    H2 5200   2.539   2.726   2.419 -1.2981  0.2787  1.2062
 1732TIP3   OH2 5201   6.077   3.362   0.192  0.3820  0.1254  0.1429
 1732TIP3    H1 5202   6.077   3.278   0.239  0.2070 -0.9939 -1.7638
 1732TIP3    H2 5203   6.160   3.363   0.145 -0.5152 -0.0017 -1.5211
 1733TIP3   OH2 5204   3.682   0.298   1.118  0.2880  0.4350 -0.0803
 1733TIP3    H1 5205   3.706   0.344   1.038 -0.0566 -0.7926 -0.9352
 1733TIP3    H2 5206   3.752   0.233   1.130  0.0410  0.2322  0.2868
 1734TIP3   OH2 5207   4.092   4.689   1.696  0.3603  0.4667  0.2359
 1734TIP3    H1 5208   4.009   4.645   1.717 -1.6454  2.6789 -2.3369
 1734TIP3    H2 5209   4.095   4.689   1.600  2.7260  1.6049  0.2436
 1735TIP3   OH2 5210   3.620   3.182   0.533 -0.0016 -0.2833 -0.2909
 1735TIP3    H1 5211   3.562   3.206   0.461  0.2029  0.4688 -0.2128
 1735TIP3    H2 5212   3.691   3.247   0.530  0.8847 -1.2282 -0.4385
 1736TIP3   OH2 5213   5.709   2.519   1.439 -0.0258 -0.0964  0.2576
 1736TIP3    H1 5214   5.771   2.586   1.467 -1.1666  0.2867  2.0323
 1736TIP3    H2 5215   5.734   2.440   1.486 -0.8296  0.0492  0.9535
 1737TIP3   OH2 5216   4.900   1.416   1.697 -0.4697  0.3691 -0.1408
 1737TIP3    H1 5217   4.900   1.451   1.786 -0.2404  0.4589 -0.1760
 1737TIP3    H2 5218   4.919   1.491   1.642 -3.3016  0.9286 -0.5195
 1738TIP3   OH2 5219   2.106   4.705   4.903 -0.2983  0.0846  0.1891
 1738TIP3    H1 5220   2.025   4.744   4.934 -0.1230  0.3376  0.3312
 1738TIP3    H2 5221   2.163   4.780   4.883  0.8797 -0.0849  2.6420
 1739TIP3   OH2 5222   3.829   0.120   0.278  0.1848  0.2714  0.5805
 1739TIP3    H1 5223   3.771   0.196   0.275  0.3900  0.4228 -1.7898
 1739TIP3    H2 5224   3.773   0.048   0.306 -1.5079  0.2249 -2.5089
 1740TIP3   OH2 5225   0.269   5.671   2.095  0.0455  0.1219 -0.1240
 1740TIP3    H1 5226   0.327   5.739   2.128 -0.0056 -0.2720  0.8046
 1740TIP3    H2 5227   0.198   5.718   2.052 -0.8477  0.7492  1.9066
 1741TIP3   OH2 5228   5.418   1.935   1.594 -0.2798 -0.0675  0.0083
 1741TIP3    H1 5229   5.414   1.844   1.624  0.0008 -0.1024 -0.0543
 1741TIP3    H2 5230   5.329   1.968   1.606 -0.7176 -0.7438 -1.1680
 1742TIP3   OH2 5231   5.611   0.274   3.004 -0.2864  0.3355 -0.8392
 1742TIP3    H1 5232   5.584   0.211   2.937 -0.0692  0.0982 -0.7028
 1742TIP3    H2 5233   5.634   0.221   3.080 -1.2406  0.6504 -0.3233
 1743TIP3   OH2 5234   0.960   2.460   2.259  0.2315  0.2406 -0.0819
 1743TIP3    H1 5235   0.906   2.538   2.247  1.4165  1.2864  1.1344
 1743TIP3    H2 5236   0.949   2.411   2.177  0.3026  2.2115 -1.3368
 1744TIP3   OH2 5237   3.613   4.344   1.155  0.4824 -0.5140  0.5499
 1744TIP3    H1 5238   3.667   4.373   1.228 -0.2197 -0.9598  1.2736
 1744TIP3    H2 5239   3.673   4.296   1.098  1.2610  0.7453  0.2718
 1745TIP3   OH2 5240   0.960   3.705   2.158 -0.5054 -0.2346 -0.1824
 1745TIP3    H1 5241   0.875   3.749   2.166 -0.9422 -1.0393 -0.2815
 1745TIP3    H2 5242   0.975   3.702   2.063  1.2880  2.9413 -0.1579
 1746TIP3   OH2 5243   2.693   4.409   0.110 -0.1197  0.0825 -0.2939
 1746TIP3    H1 5244   2.671   4.414   0.204 -2.4716  3.2415 -0.8379
 1746TIP3    H2 5245   2.788   4.422   0.107  0.0540 -0.4237  1.6555
 1747TIP3   OH2 5246   3.357   0.910   3.870  0.0829  0.4384  0.7560
 1747TIP3    H1 5247   3.310   0.976   3.819 -1.9565  1.1361  3.3387
 1747TIP3    H2 5248   3.439   0.953   3.895  0.3784  0.6527 -0.5064
 1748TIP3   OH2 5249   6.327   0.172   4.838  0.1546  0.1436 -0.1097
 1748TIP3    H1 5250   6.375   0.095   4.869  0.6082 -0.6357 -2.5341
 1748TIP3    H2 5251   6.266   0.138   4.773 -0.2359  1.7410 -0.6340
 1749TIP3   OH2 5252   4.340   2.455   4.558  0.5770  0.3381  0.1012
 1749TIP3    H1 5253   4.291   2.379   4.589  0.4479  0.1198 -0.6239
 1749TIP3    H2 5254   4.274   2.511   4.516  0.8429  0.3579 -0.2926
 1750TIP3   OH2 5255   0.571   3.159   3.174  0.4891  0.1112 -0.1156
 1750TIP3    H1 5256   0.576   3.089   3.109 -2.6479  0.1663 -0.5435
 1750TIP3    H2 5257   0.599   3.237   3.127  0.4239 -0.2262 -0.7254
 1751TIP3   OH2 5258   3.462   1.494   0.417  0.3263  0.0423 -0.1460
 1751TIP3    H1 5259   3.407   1.430   0.463  0.6123 -0.8864 -1.0482
 1751TIP3    H2 5260   3.507   1.442   0.350  1.1986  1.0551 -0.3616
 1752TIP3   OH2 5261   2.105   0.717   4.037 -0.2990  0.1306  0.3428
 1752TIP3    H1 5262   2.019   0.707   4.078 -0.3157  1.3114  0.6364
 1752TIP3    H2 5263   2.091   0.690   3.946 -0.5063 -1.4968  0.8198
 1753TIP3   OH2 5264   1.295   2.623   2.274 -0.5299  0.4537  0.4521
 1753TIP3    H1 5265   1.390   2.634   2.276 -0.2649 -1.5188  0.6771
 1753TIP3    H2 5266   1.273   2.595   2.363 -1.4526  1.6546  0.6284
 1754TIP3   OH2 5267   2.433   3.927   2.786  0.8144  0.1854  0.0372
 1754TIP3    H1 5268   2.342   3.903   2.766  1.0043 -0.2540 -0.3113
 1754TIP3    H2 5269   2.429   3.965   2.873  0.3507 -0.1927  0.1838
 1755TIP3   OH2 5270   2.902   1.226   2.060 -0.5490 -0.0262  0.0909
 1755TIP3    H1 5271   2.897   1.316   2.028  0.6798 -0.1302 -0.4676
 1755TIP3    H2 5272   2.961   1.182   1.999 -1.3919 -1.3084  0.1607
 1756TIP3   OH2 5273   2.135   1.486   0.664  0.1511 -0.3520 -0.7446
 1756TIP3    H1 5274   2.072   1.455   0.599  0.9137 -0.6786 -1.3443
 1756TIP3    H2 5275   2.087   1.484   0.746 -0.2479 -1.8212 -0.9830
 1757TIP3   OH2 5276   4.046   1.232   2.540 -0.8352 -0.1407 -0.3562
 1757TIP3    H1 5277   4.032   1.221   2.446 -2.9296 -0.4318 -0.0648
 1757TIP3    H2 5278   3.961   1.260   2.574 -0.9083 -2.5417  1.8061
 1758TIP3   OH2 5279   1.567   5.722   0.921  0.2591 -0.1409  0.8568
 1758TIP3    H1 5280   1.593   5.636   0.888 -1.8930  0.5399 -3.2894
 1758TIP3    H2 5281   1.480   5.708   0.959  1.1866 -0.2313  3.0911
 1759TIP3   OH2 5282   2.313   5.195   4.390  0.0591 -0.2570  0.3285
 1759TIP3    H1 5283   2.333   5.248   4.467  0.0965 -1.9964  1.5909
 1759TIP3    H2 5284   2.379   5.125   4.392 -1.8447 -2.1369  0.5665
 1760TIP3   OH2 5285   3.232   3.928   2.727  0.3661  0.2798 -0.1699
 1760TIP3    H1 5286   3.325   3.929   2.703  0.4420  0.2789  0.1127
 1760TIP3    H2 5287   3.231   3.959   2.818  0.1641 -0.5151  0.1025
 1761TIP3   OH2 5288   2.743   1.572   4.739  0.0076  0.0722 -0.4600
 1761TIP3    H1 5289   2.750   1.617   4.655 -0.0667  0.0170 -0.4956
 1761TIP3    H2 5290   2.742   1.479   4.717  0.4492  0.0413 -0.3678
 1762TIP3   OH2 5291   6.025   1.765   0.439 -0.1797 -0.2735 -0.2109
 1762TIP3    H1 5292   6.020   1.808   0.354  1.7029  0.1754 -0.1386
 1762TIP3    H2 5293   6.035   1.836   0.502  1.1433 -0.7051  0.0953
 1763TIP3   OH2 5294   0.512   0.807   0.752 -0.1453 -0.0182  0.7972
 1763TIP3    H1 5295   0.571   0.750   0.702 -1.2359 -0.1166 -0.4364
 1763TIP3    H2 5296   0.557   0.892   0.754  0.3723 -0.2797  0.5150
 1764TIP3   OH2 5297   1.520   3.425   1.921  0.1084  0.3436  0.4019
 1764TIP3    H1 5298   1.524   3.519   1.934  0.8054  0.0862  2.4180
 1764TIP3    H2 5299   1.476   3.392   1.999  2.5966 -1.2435  1.2442
 1765TIP3   OH2 5300   6.257   3.926   1.585 -0.1831 -0.2662  0.1644
 1765TIP3    H1 5301   6.300   3.868   1.647 -0.8647 -0.9386  0.0216
 1765TIP3    H2 5302   6.253   4.011   1.630  0.2723 -0.4788  0.6148
 1766TIP3   OH2 5303   3.841   0.084   4.176 -0.6906 -0.2498 -0.3693
 1766TIP3    H1 5304   3.890   0.022   4.122  0.0175  0.0299 -0.0560
 1766TIP3    H2 5305   3.908   0.136   4.219 -1.2833  0.6637 -0.5378
 1767TIP3   OH2 5306   2.474   0.701   1.181 -0.0985  0.4183  0.4296
 1767TIP3    H1 5307   2.405   0.661   1.233  0.1797 -0.6978 -0.0312
 1767TIP3    H2 5308   2.430   0.769   1.131 -0.6419  0.4919  0.9977
 1768TIP3   OH2 5309   3.021   4.781   1.671 -0.8013 -0.0125  0.2068
 1768TIP3    H1 5310   2.965   4.812   1.743 -1.4796 -0.4833 -0.1112
 1768TIP3    H2 5311   3.035   4.688   1.690 -0.3222  0.0440  0.1470
 1769TIP3   OH2 5312   1.108   4.675   2.681 -0.3934 -0.6159 -0.5534
 1769TIP3    H1 5313   1.175   4.607   2.686  0.7971  0.5378 -0.3997
 1769TIP3    H2 5314   1.032   4.630   2.644  0.0453 -2.2479  0.4114
 1770TIP3   OH2 5315   0.917   2.430   1.353  0.6596 -0.6733 -0.2198
 1770TIP3    H1 5316   0.986   2.415   1.289 -0.3267 -1.7825 -1.0722
 1770TIP3    H2 5317   0.934   2.365   1.422  1.8714  0.6891  0.8297
 1771TIP3   OH2 5318   4.509   0.260   1.685  0.1318  0.0587  0.1858
 1771TIP3    H1 5319   4.432   0.231   1.637  0.2815  0.9298 -0.6244
 1771TIP3    H2 5320   4.488   0.349   1.712  0.3863 -0.1286  1.0110
 1772TIP3   OH2 5321   5.477   2.997   0.337  0.9098 -0.1685 -0.5152
 1772TIP3    H1 5322   5.459   3.066   0.401 -1.2863  0.0249 -1.2511
 1772TIP3    H2 5323   5.425   3.021   0.260  1.4915 -1.7258 -1.4468
 1773TIP3   OH2 5324   0.502   2.515   1.091 -0.0807  0.5582  0.3838
 1773TIP3    H1 5325   0.540   2.428   1.105  2.8231  1.9828  2.4190
 1773TIP3    H2 5326   0.513   2.531   0.997  0.0743 -0.9576  0.1194
 1774TIP3   OH2 5327   2.778   0.194   3.874 -0.3132  0.1454  0.1047
 1774TIP3    H1 5328   2.814   0.208   3.961  1.8963 -1.3608 -0.4691
 1774TIP3    H2 5329   2.853   0.206   3.815 -1.9153  1.9668 -1.7126
 1775TIP3   OH2 5330   4.306   5.810   3.563 -0.0275 -0.0052  0.3993
 1775TIP3    H1 5331   4.339   5.899   3.548 -2.2753  0.6130 -1.4548
 1775TIP3    H2 5332   4.350   5.757   3.496 -0.8479  0.3392 -0.4460
 1776TIP3   OH2 5333   3.540   2.346   0.900  0.1904 -0.4270  0.2322
 1776TIP3    H1 5334   3.606   2.393   0.951 -0.0534 -0.3487  0.4784
 1776TIP3    H2 5335   3.574   2.344   0.811  1.6195 -2.3218  0.7513
 1777TIP3   OH2 5336   1.043   3.756   0.760 -0.0942  0.3072  0.2096
 1777TIP3    H1 5337   1.063   3.807   0.839  0.6207  1.1426 -0.5020
 1777TIP3    H2 5338   1.126   3.713   0.738 -0.1315  0.5538 -0.4256
 1778TIP3   OH2 5339   5.548   0.080   4.520 -0.3760 -0.0866 -0.2537
 1778TIP3    H1 5340   5.615   0.058   4.585 -0.8892  0.4132  0.4680
 1778TIP3    H2 5341   5.465   0.056   4.562 -0.7187  0.2645 -0.7192
 1779TIP3   OH2 5342   0.874   4.847   1.311 -0.8851  0.2578  0.1197
 1779TIP3    H1 5343   0.826   4.917   1.355 -0.8157 -0.2842  1.0660
 1779TIP3    H2 5344   0.912   4.890   1.234 -2.9259  0.6741 -0.7229
 1780TIP3   OH2 5345   5.275   4.904   1.775 -0.1373  0.4770  0.2542
 1780TIP3    H1 5346   5.351   4.939   1.729 -0.7977  0.5729 -0.8186
 1780TIP3    H2 5347   5.211   4.976   1.771 -0.0270  0.7075  1.8601
 1781TIP3   OH2 5348   1.310   0.488   5.188 -0.0812 -0.1540 -0.5081
 1781TIP3    H1 5349   1.386   0.464   5.240 -0.6519  0.1367  0.4857
 1781TIP3    H2 5350   1.337   0.474   5.097  1.2197  0.1397 -0.1806
 1782TIP3   OH2 5351   0.976   2.262   1.572 -0.4253 -0.4269  0.0132
 1782TIP3    H1 5352   0.889   2.255   1.610  0.0242 -1.8413  0.8803
 1782TIP3    H2 5353   1.029   2.302   1.641 -0.2412 -0.2314 -0.2426
 1783TIP3   OH2 5354   5.952   2.251   0.616 -0.3934  0.2396 -0.6299
 1783TIP3    H1 5355   5.982   2.327   0.567 -2.8240  1.7774  0.0913
 1783TIP3    H2 5356   5.877   2.218   0.566 -0.9810 -0.0385  0.3944
 1784TIP3   OH2 5357   3.685   0.920   1.830 -0.5651  0.2337 -0.3440
 1784TIP3    H1 5358   3.748   0.959   1.890 -0.8242  0.1212  0.0061
 1784TIP3    H2 5359   3.637   0.995   1.794  1.7400  0.6214 -2.9393
 1785TIP3   OH2 5360   0.113   3.084   3.968 -0.3399  0.0128  0.4242
 1785TIP3    H1 5361   0.098   3.179   3.974  1.6966  0.6709 -2.4056
 1785TIP3    H2 5362   0.206   3.074   3.990 -0.2882 -1.1740 -0.2851
 1786TIP3   OH2 5363   1.785   0.444   3.772 -0.0295 -0.4063  0.0639
 1786TIP3    H1 5364   1.742   0.530   3.768  1.2929  0.2441 -2.3181
 1786TIP3    H2 5365   1.714   0.381   3.772 -1.0724  0.6040  2.7487
 1787TIP3   OH2 5366   2.988   0.949   5.139 -0.3924  0.2238  0.2852
 1787TIP3    H1 5367   2.908   0.952   5.086 -0.7555  0.9107  0.8521
 1787TIP3    H2 5368   2.996   1.037   5.175  1.4979  0.6622 -1.0186
 1788TIP3   OH2 5369   3.212   5.336   3.450 -0.2157  0.1381  0.3023
 1788TIP3    H1 5370   3.186   5.245   3.435 -1.1647  0.4646 -0.1006
 1788TIP3    H2 5371   3.163   5.362   3.529  0.4852  0.1359  0.7455
 1789TIP3   OH2 5372   1.086   0.382   3.917  0.0414  0.0818  0.4321
 1789TIP3    H1 5373   1.134   0.463   3.898 -1.1998  0.5649 -0.8154
 1789TIP3    H2 5374   1.023   0.374   3.845 -1.4821 -0.7305  1.8009
 1790TIP3   OH2 5375   5.969   2.448   2.110  0.8542  0.1069  0.8198
 1790TIP3    H1 5376   6.004   2.423   2.024 -1.3482 -0.9752  0.1410
 1790TIP3    H2 5377   6.007   2.385   2.171  2.5653  0.9845  0.7063
 1791TIP3   OH2 5378   2.860   0.163   0.660 -0.4333 -0.7288  0.4783
 1791TIP3    H1 5379   2.817   0.084   0.692  0.7356 -0.6556  2.3789
 1791TIP3    H2 5380   2.904   0.136   0.579 -0.6554 -1.8338  0.7169
 1792TIP3   OH2 5381   2.355   3.507   0.097  0.0001 -0.6709  0.3849
 1792TIP3    H1 5382   2.356   3.452   0.176 -1.3343 -1.1125  0.1303
 1792TIP3    H2 5383   2.278   3.477   0.048  0.3891  0.0890 -0.7390
 1793TIP3   OH2 5384   1.407   5.699   1.167 -0.4772  0.0092 -0.4221
 1793TIP3    H1 5385   1.397   5.750   1.247  0.2625  0.8101 -0.8241
 1793TIP3    H2 5386   1.500   5.678   1.162 -0.3570  0.6713 -1.4691
 1794TIP3   OH2 5387   1.316   5.444   1.227 -0.3143  0.0911 -0.5976
 1794TIP3    H1 5388   1.383   5.505   1.194 -0.6199  1.4411  1.0916
 1794TIP3    H2 5389   1.300   5.474   1.316 -1.8245 -1.3920 -0.3367
 1795TIP3   OH2 5390   2.375   1.677   4.454  0.1237 -0.1594  0.2152
 1795TIP3    H1 5391   2.411   1.596   4.488  1.4691  0.9052  1.4482
 1795TIP3    H2 5392   2.309   1.649   4.391  2.0190 -2.2195 -1.0041
 1796TIP3   OH2 5393   2.728   5.649   2.132 -0.3621 -0.5491 -0.5521
 1796TIP3    H1 5394   2.755   5.727   2.083 -1.2526  0.4968  0.5577
 1796TIP3    H2 5395   2.717   5.582   2.065 -0.0183  0.4099 -1.6018
 1797TIP3   OH2 5396   2.224   0.223   3.477  0.1962  0.2642  0.2472
 1797TIP3    H1 5397   2.145   0.190   3.519  0.8367 -1.0376  0.4622
 1797TIP3    H2 5398   2.286   0.236   3.548  1.0424 -1.2496 -0.1714
 1798TIP3   OH2 5399   2.891   1.384   4.089 -0.1123  0.5259  0.1091
 1798TIP3    H1 5400   2.901   1.298   4.129  1.4743  1.1294  1.1136
 1798TIP3    H2 5401   2.861   1.366   4.000  0.7693 -1.0828  0.1064
 1799TIP3   OH2 5402   4.874   4.938   3.961 -0.4154  0.3476  0.1483
 1799TIP3    H1 5403   4.924   4.868   3.919 -0.3191 -0.7491  1.9694
 1799TIP3    H2 5404   4.917   5.018   3.933  0.6674 -0.4276 -0.5048
 1800TIP3   OH2 5405   2.241   4.004   0.849 -0.2275 -0.4235  0.3398
 1800TIP3    H1 5406   2.218   3.936   0.912 -1.7479  0.6684  1.0282
 1800TIP3    H2 5407   2.183   3.989   0.774 -0.4313  0.0002  0.4120
 1801TIP3   OH2 5408   4.305   1.962   0.069  0.1347 -0.3788 -0.7134
 1801TIP3    H1 5409   4.293   2.006  -0.015 -1.3031  0.3626 -0.1517
 1801TIP3    H2 5410   4.327   1.872   0.046 -0.7823 -0.3311 -1.9018
 1802TIP3   OH2 5411   3.327   2.162   2.387  0.0298 -0.0614 -0.0954
 1802TIP3    H1 5412   3.376   2.094   2.432 -3.3590 -2.3842  0.5026
 1802TIP3    H2 5413   3.349   2.151   2.294  0.4560 -1.2178  0.1247
 1803TIP3   OH2 5414   0.559   3.016   4.397  0.0945 -0.2288 -0.1743
 1803TIP3    H1 5415   0.514   2.939   4.432  2.9764 -1.3512  1.4094
 1803TIP3    H2 5416   0.599   2.986   4.316  1.0110 -0.3640  0.3143
 1804TIP3   OH2 5417   3.805   2.835   2.480 -0.6282 -0.3938  0.8703
 1804TIP3    H1 5418   3.853   2.757   2.508  0.8293 -0.3047 -1.1135
 1804TIP3    H2 5419   3.855   2.908   2.515 -0.8824 -0.3138  1.0734
 1805TIP3   OH2 5420   0.512   1.447   3.498 -0.0891  0.2081 -0.1306
 1805TIP3    H1 5421   0.470   1.401   3.425 -0.9376  0.0307  0.4430
 1805TIP3    H2 5422   0.576   1.504   3.457 -0.2625 -0.1886 -0.9858
 1806TIP3   OH2 5423   4.718   1.621   1.215 -0.0880  0.0436  0.0263
 1806TIP3    H1 5424   4.721   1.653   1.125  1.6322 -0.6639 -0.2019
 1806TIP3    H2 5425   4.757   1.692   1.267  1.0111 -0.4328 -0.1083
 1807TIP3   OH2 5426   0.331   4.674   3.136 -0.5572  0.3704 -0.1767
 1807TIP3    H1 5427   0.258   4.613   3.130  0.9891 -1.5244 -0.5881
 1807TIP3    H2 5428   0.296   4.747   3.188 -2.7970 -0.3086 -0.6004
 1808TIP3   OH2 5429   3.417   1.004   4.297 -0.2274 -0.1519  0.3286
 1808TIP3    H1 5430   3.477   0.943   4.255  2.5661  1.0472  2.2070
 1808TIP3    H2 5431   3.453   1.090   4.277 -1.8837  0.6992  0.8194
 1809TIP3   OH2 5432   5.448   3.642   2.289 -0.1418 -0.5641  0.2684
 1809TIP3    H1 5433   5.419   3.732   2.309  0.3324 -0.2721 -0.3358
 1809TIP3    H2 5434   5.492   3.649   2.205 -0.1131 -1.3755  0.2088
 1810TIP3   OH2 5435   2.665   4.276   3.084  0.1242  0.2975 -0.9998
 1810TIP3    H1 5436   2.621   4.252   3.165 -0.1511  0.2393 -1.1678
 1810TIP3    H2 5437   2.610   4.343   3.045  0.5598  0.7498 -0.8504
 1811TIP3   OH2 5438   3.747   1.096   4.437  0.5824 -0.1320  0.1119
 1811TIP3    H1 5439   3.778   1.033   4.502 -0.2625 -0.8709 -0.1896
 1811TIP3    H2 5440   3.703   1.163   4.489  0.9934 -0.0723  0.3930
 1812TIP3   OH2 5441   0.157   4.656   0.114  0.0745  0.0960  0.1641
 1812TIP3    H1 5442   0.120   4.722   0.173 -0.0163 -0.8285  1.1617
 1812TIP3    H2 5443   0.110   4.575   0.136 -1.6604  0.1575 -2.7796
 1813TIP3   OH2 5444   0.477   1.697   1.312  0.2943  0.4041  0.2293
 1813TIP3    H1 5445   0.413   1.657   1.253  0.2489 -1.0437  1.2053
 1813TIP3    H2 5446   0.555   1.711   1.258  0.3651 -1.2010 -0.1279
 1814TIP3   OH2 5447   0.606   5.369   3.648 -0.5005 -0.4893 -0.0820
 1814TIP3    H1 5448   0.632   5.385   3.557  0.1754 -0.1325  0.1723
 1814TIP3    H2 5449   0.686   5.377   3.698 -0.7315 -1.4467  0.4665
 1815TIP3   OH2 5450   1.864   1.029   4.652  0.1470 -0.1652  0.2526
 1815TIP3    H1 5451   1.857   1.043   4.558  1.8367 -0.1050  0.1049
 1815TIP3    H2 5452   1.851   1.116   4.691 -5.2959 -0.7894  0.5152
 1816TIP3   OH2 5453   3.664   4.986   2.938  0.3617  1.0655 -0.5853
 1816TIP3    H1 5454   3.689   4.923   3.006  0.8203  1.9093  0.0386
 1816TIP3    H2 5455   3.616   4.933   2.874 -2.9850  0.7239  1.9010
 1817TIP3   OH2 5456   1.159   5.697   1.712  0.9831 -0.2484  0.2354
 1817TIP3    H1 5457   1.096   5.728   1.776  0.7750 -0.9436  0.3770
 1817TIP3    H2 5458   1.193   5.615   1.749  0.3869 -0.9984 -0.8171
 1818TIP3   OH2 5459   0.557   1.333   3.067  0.2904  0.5118  0.3585
 1818TIP3    H1 5460   0.643   1.301   3.038  0.6694 -0.7007  2.6076
 1818TIP3    H2 5461   0.499   1.316   2.992  1.9788  1.4465 -1.2497
 1819TIP3   OH2 5462   2.109   3.540   3.418  0.4886  0.0795  0.0426
 1819TIP3    H1 5463   2.166   3.471   3.452  0.3940  0.5766  1.2783
 1819TIP3    H2 5464   2.083   3.590   3.496 -0.2265  0.9180 -0.7087
 1820TIP3   OH2 5465   3.298   5.393   4.195 -0.0053 -0.3119 -0.5532
 1820TIP3    H1 5466   3.220   5.395   4.251  0.6080  0.4559  0.3123
 1820TIP3    H2 5467   3.279   5.458   4.127  0.2751  0.6405  0.2457
 1821TIP3   OH2 5468   0.165   2.700   0.003 -0.3962 -0.7951 -0.1985
 1821TIP3    H1 5469   0.113   2.767   0.047 -0.6380 -0.9013 -0.3226
 1821TIP3    H2 5470   0.255   2.717   0.032 -0.3697 -0.0444 -0.6905
 1822TIP3   OH2 5471   5.452   0.535   4.070  0.2916  0.4691  0.2268
 1822TIP3    H1 5472   5.487   0.555   4.157 -0.0169 -3.9287  1.6203
 1822TIP3    H2 5473   5.514   0.472   4.033  0.0916  1.7488 -2.6221
 1823TIP3   OH2 5474   2.484   4.966   0.037  0.2198  0.4613  0.2478
 1823TIP3    H1 5475   2.491   4.930   0.126 -0.8771  0.9829  0.5544
 1823TIP3    H2 5476   2.392   4.992   0.028  0.5879  1.5551 -0.6037
 1824TIP3   OH2 5477   3.919   0.298   2.347 -0.7151  0.4835 -0.0674
 1824TIP3    H1 5478   3.958   0.226   2.395  1.0208  0.7161 -1.0302
 1824TIP3    H2 5479   3.872   0.256   2.274  2.5968  0.2556 -2.3022
 1825TIP3   OH2 5480   1.700   3.502   3.577 -0.6240 -0.5083 -0.3828
 1825TIP3    H1 5481   1.689   3.572   3.641  2.5002 -1.0948  0.9777
 1825TIP3    H2 5482   1.656   3.427   3.615 -0.8697 -0.2381 -0.1244
 1826TIP3   OH2 5483   6.083   5.490   3.699  0.1351  0.0962 -0.3087
 1826TIP3    H1 5484   6.027   5.567   3.694  0.5067  0.2773 -3.1152
 1826TIP3    H2 5485   6.172   5.523   3.687  0.7325 -0.4190  2.1240
 1827TIP3   OH2 5486   1.138   3.441   3.021  0.0587 -0.1079  0.1023
 1827TIP3    H1 5487   1.152   3.482   3.107  3.1599 -2.0994  0.7275
 1827TIP3    H2 5488   1.175   3.503   2.959  1.3168 -0.2854  0.6455
 1828TIP3   OH2 5489   3.276   1.870   3.412 -0.2528  0.7485  0.4254
 1828TIP3    H1 5490   3.369   1.881   3.430  0.1752 -1.3450 -0.2062
 1828TIP3    H2 5491   3.249   1.797   3.468 -0.9194 -0.2398 -1.1224
 1829TIP3   OH2 5492   4.389   1.334   1.743 -0.2532  0.3044  0.2177
 1829TIP3    H1 5493   4.479   1.355   1.718 -0.5992  0.4738 -0.9579
 1829TIP3    H2 5494   4.345   1.419   1.745 -0.6883  0.1046 -0.5061
 1830TIP3   OH2 5495   2.169   3.187   4.834 -0.1198  0.2729 -0.0446
 1830TIP3    H1 5496   2.217   3.161   4.913 -0.4518  0.8932  0.3709
 1830TIP3    H2 5497   2.201   3.275   4.814  2.7013 -1.1949 -2.7748
 1831TIP3   OH2 5498   1.817   2.476   0.257 -0.4334 -0.6325  0.2846
 1831TIP3    H1 5499   1.868   2.553   0.279  0.5914 -0.8946 -1.0421
 1831TIP3    H2 5500   1.855   2.406   0.311 -0.3697 -0.5292  0.3745
 1832TIP3   OH2 5501   3.244   1.964   4.726  0.0304  0.0103  0.5482
 1832TIP3    H1 5502   3.223   2.052   4.757  1.7976  0.4335  0.6832
 1832TIP3    H2 5503   3.338   1.967   4.708 -0.3800 -0.9511 -2.4428
 1833TIP3   OH2 5504   5.408   0.700   4.781 -0.3863  0.1522 -0.4714
 1833TIP3    H1 5505   5.388   0.722   4.690  0.3083  0.0834 -0.6425
 1833TIP3    H2 5506   5.420   0.605   4.782 -1.0598  0.0578 -0.1704
 1834TIP3   OH2 5507   2.188   2.614   4.119  0.3373  0.0772  0.3520
 1834TIP3    H1 5508   2.149   2.639   4.035 -0.0190 -1.0174  0.1698
 1834TIP3    H2 5509   2.262   2.673   4.130 -0.2099  0.8999 -0.2515
 1835TIP3   OH2 5510   1.608   4.549   1.130  0.1159 -0.2989  0.3052
 1835TIP3    H1 5511   1.644   4.619   1.184 -2.3220  0.4809  1.0485
 1835TIP3    H2 5512   1.581   4.592   1.049  1.3998 -0.9996 -0.5380
 1836TIP3   OH2 5513   4.819   2.149   0.416  0.6069  0.1333 -0.3592
 1836TIP3    H1 5514   4.800   2.078   0.354  2.6960  0.5329 -1.5623
 1836TIP3    H2 5515   4.734   2.190   0.433 -0.7390 -2.7932  0.6242
 1837TIP3   OH2 5516   4.359   3.204   1.937  0.1749 -0.0739  0.7508
 1837TIP3    H1 5517   4.401   3.241   1.859 -1.3848 -1.1429 -0.6674
 1837TIP3    H2 5518   4.396   3.116   1.946 -2.2224 -1.3802 -1.0487
 1838TIP3   OH2 5519   3.494   3.499   0.432  0.2542  0.5573  0.0094
 1838TIP3    H1 5520   3.558   3.458   0.373 -0.0646 -1.2760  0.8742
 1838TIP3    H2 5521   3.521   3.591   0.435  0.7438  0.5728 -2.3465
 1839TIP3   OH2 5522   1.081   5.322   3.965  0.2256 -0.5162 -0.3472
 1839TIP3    H1 5523   1.108   5.235   3.934  3.1313  0.2598 -0.3186
 1839TIP3    H2 5524   1.054   5.368   3.886  0.4886 -0.8690 -0.6471
 1840TIP3   OH2 5525   0.428   1.202   2.824 -0.5827 -0.4522  0.0786
 1840TIP3    H1 5526   0.434   1.125   2.881  1.2025 -0.0447  0.4887
 1840TIP3    H2 5527   0.339   1.198   2.789 -0.9305 -2.0375  1.0193
 1841TIP3   OH2 5528   2.178   1.374   1.667  0.3027 -0.1042 -0.5640
 1841TIP3    H1 5529   2.092   1.346   1.637  0.4909 -1.3695  0.0023
 1841TIP3    H2 5530   2.185   1.339   1.756  1.5265 -0.3199 -0.7154
 1842TIP3   OH2 5531   5.292   0.376   0.041  0.0771 -0.4436 -0.1427
 1842TIP3    H1 5532   5.299   0.281   0.034  0.1641 -0.5004  0.6641
 1842TIP3    H2 5533   5.309   0.395   0.133 -0.6254  0.2927 -0.1533
 1843TIP3   OH2 5534   5.770   2.459   1.811 -0.3355  0.1637 -0.2646
 1843TIP3    H1 5535   5.743   2.400   1.740  0.8689  1.6946 -2.0940
 1843TIP3    H2 5536   5.690   2.506   1.834 -0.9896 -1.1221  0.2368
 1844TIP3   OH2 5537   1.481   4.764   2.478 -0.0586 -0.6977  0.3930
 1844TIP3    H1 5538   1.399   4.783   2.525  1.2427  3.3170  1.4497
 1844TIP3    H2 5539   1.472   4.810   2.395  2.2019  2.7477  1.8610
 1845TIP3   OH2 5540   2.694   1.876   0.018 -0.1544  0.2454 -0.2156
 1845TIP3    H1 5541   2.769   1.868   0.077 -1.1802  1.4197  1.3315
 1845TIP3    H2 5542   2.631   1.812   0.050 -2.6427  3.9156  3.2073
 1846TIP3   OH2 5543   1.123   5.253   3.501 -0.0711 -0.8174 -0.2253
 1846TIP3    H1 5544   1.118   5.173   3.553 -0.4986 -0.8929 -0.3869
 1846TIP3    H2 5545   1.216   5.261   3.478  0.7107  0.6438  2.8230
 1847TIP3   OH2 5546   5.205   1.699   4.181 -0.2905  0.0819 -0.5196
 1847TIP3    H1 5547   5.247   1.691   4.267 -2.3209 -0.1928  0.5180
 1847TIP3    H2 5548   5.111   1.697   4.200 -0.8131  0.7513 -2.6945
 1848TIP3   OH2 5549   4.691   4.205   3.385  0.2173  0.0965 -0.3918
 1848TIP3    H1 5550   4.697   4.125   3.333 -1.4651 -1.3125  1.4455
 1848TIP3    H2 5551   4.741   4.186   3.465  2.3463  2.0348 -1.1503
 1849TIP3   OH2 5552   3.496   4.195   3.429  0.6958 -0.1060 -0.1658
 1849TIP3    H1 5553   3.470   4.278   3.388  0.0062 -0.9051 -1.4094
 1849TIP3    H2 5554   3.433   4.131   3.396  2.5071 -1.5678 -1.0361
 1850TIP3   OH2 5555   3.836   2.277   4.616 -0.0201  0.0325 -0.1538
 1850TIP3    H1 5556   3.901   2.322   4.670 -1.0029  0.9510  0.3048
 1850TIP3    H2 5557   3.849   2.314   4.528 -1.3950  1.9608  0.3848
 1851TIP3   OH2 5558   0.965   1.572   2.493 -0.4120 -0.3724  0.3981
 1851TIP3    H1 5559   1.046   1.601   2.450 -1.0416  0.2156 -0.4240
 1851TIP3    H2 5560   0.921   1.653   2.519 -1.7987 -0.5577 -1.1801
 1852TIP3   OH2 5561   3.417   5.346   3.283  0.4121 -0.5929  0.3778
 1852TIP3    H1 5562   3.386   5.259   3.257  0.2312 -0.6926  0.9180
 1852TIP3    H2 5563   3.358   5.372   3.353 -0.0195  0.2928 -0.2938
 1853TIP3   OH2 5564   5.741   5.370   3.519  0.1918 -0.3238  0.4673
 1853TIP3    H1 5565   5.718   5.452   3.564 -0.8661  0.4131 -1.2965
 1853TIP3    H2 5566   5.782   5.398   3.438  1.5485 -1.6138  0.6621
 1854TIP3   OH2 5567   5.825   4.496   0.366 -0.1186  0.1394  0.1466
 1854TIP3    H1 5568   5.909   4.470   0.405 -0.3600 -0.4514  0.2820
 1854TIP3    H2 5569   5.848   4.524   0.277  0.3697  1.0331  0.5358
 1855TIP3   OH2 5570   0.845   5.549   1.930  0.1507 -0.3749  0.4087
 1855TIP3    H1 5571   0.751   5.556   1.946  0.1288 -2.2597  1.3419
 1855TIP3    H2 5572   0.865   5.457   1.945  2.1710  0.0153  0.3418
 1856TIP3   OH2 5573   0.063   4.648   3.334 -0.4381  0.1939  0.7873
 1856TIP3    H1 5574   0.149   4.609   3.348  0.2156  1.3710  0.1754
 1856TIP3    H2 5575   0.039   4.624   3.245 -1.7878 -2.0153  1.6685
 1857TIP3   OH2 5576   5.243   3.150   3.699  0.1755  0.6871 -0.3589
 1857TIP3    H1 5577   5.260   3.055   3.703 -0.6884  0.5514  0.2821
 1857TIP3    H2 5578   5.274   3.175   3.612  2.0197  0.1506  0.0829
 1858TIP3   OH2 5579   5.237   2.179   1.903  0.3395 -0.1090  0.2867
 1858TIP3    H1 5580   5.329   2.185   1.930 -0.2636 -2.1030  3.1961
 1858TIP3    H2 5581   5.194   2.249   1.951  0.0935 -0.2703  0.3006
 1859TIP3   OH2 5582   2.264   1.663   0.500  0.0994 -0.6734  0.3935
 1859TIP3    H1 5583   2.231   1.601   0.565 -0.7767 -0.4714  0.1640
 1859TIP3    H2 5584   2.187   1.716   0.477  1.0113  1.1670  1.3368
 1860TIP3   OH2 5585   6.304   2.244   0.120  0.0279 -0.1092  0.6155
 1860TIP3    H1 5586   6.359   2.308   0.075 -1.3199 -0.4424 -1.6519
 1860TIP3    H2 5587   6.305   2.271   0.212  0.2259  2.6279 -0.1176
 1861TIP3   OH2 5588   1.194   5.611   3.903 -0.5654  0.1312  0.4440
 1861TIP3    H1 5589   1.213   5.583   3.813  0.2843 -1.8432  1.1910
 1861TIP3    H2 5590   1.123   5.554   3.932 -1.1286  1.0449  0.8918
 1862TIP3   OH2 5591   1.199   0.888   1.957 -0.6693 -0.3182 -0.0569
 1862TIP3    H1 5592   1.203   0.844   2.042 -0.3722 -0.1090  0.0383
 1862TIP3    H2 5593   1.170   0.977   1.978 -1.7376 -0.5940 -0.2986
 1863TIP3   OH2 5594   6.203   4.736   3.634  0.0404  0.1008 -0.0097
 1863TIP3    H1 5595   6.236   4.760   3.720  0.9101  0.4338 -0.4190
 1863TIP3    H2 5596   6.113   4.706   3.650  0.1053  0.3831  0.9710
 1864TIP3   OH2 5597   5.986   5.207   1.429 -0.0695  0.5109  0.3043
 1864TIP3    H1 5598   6.055   5.165   1.377  0.4280 -0.9475  2.0411
 1864TIP3    H2 5599   5.938   5.261   1.367  1.9177  0.6386 -1.1923
 1865TIP3   OH2 5600   5.865   2.267   3.315  0.1753 -0.2816 -0.3244
 1865TIP3    H1 5601   5.810   2.341   3.343 -1.2430 -0.9764 -1.1454
 1865TIP3    H2 5602   5.803   2.194   3.304  1.6912 -1.9889  1.6933
 1866TIP3   OH2 5603   0.873   2.779   3.689  0.6785 -0.1877  0.1844
 1866TIP3    H1 5604   0.937   2.710   3.707 -0.2040 -0.9331  0.6443
 1866TIP3    H2 5605   0.791   2.744   3.725 -0.6884 -0.6282 -3.0226
 1867TIP3   OH2 5606   5.623   4.903   1.908  0.1856  0.0956 -0.6422
 1867TIP3    H1 5607   5.560   4.919   1.978  0.1527  0.4412 -0.7503
 1867TIP3    H2 5608   5.586   4.948   1.832 -0.8996 -2.0742 -1.4908
 1868TIP3   OH2 5609   4.590   2.287   0.367 -0.3015 -0.2236 -0.1985
 1868TIP3    H1 5610   4.561   2.289   0.276  0.1659 -0.6671 -0.3615
 1868TIP3    H2 5611   4.532   2.348   0.412 -0.9841 -0.5225 -0.6596
 1869TIP3   OH2 5612   0.565   5.128   2.187  0.3357 -0.0140  0.3528
 1869TIP3    H1 5613   0.492   5.114   2.127  1.1767  0.6380 -0.8721
 1869TIP3    H2 5614   0.631   5.065   2.160  0.2356 -0.6136  1.4652
 1870TIP3   OH2 5615   6.014   0.989   4.210  0.1435 -0.1890  0.0208
 1870TIP3    H1 5616   6.091   1.030   4.170 -1.2730  1.6662 -0.9592
 1870TIP3    H2 5617   5.973   0.941   4.138 -0.4902  0.2204  0.0968
 1871TIP3   OH2 5618   5.952   0.246   4.002 -0.1575  0.6910  0.0370
 1871TIP3    H1 5619   5.949   0.323   4.059 -0.0337  0.3817  0.4677
 1871TIP3    H2 5620   5.861   0.227   3.981 -0.2910  0.1293  1.0681
 1872TIP3   OH2 5621   0.833   0.626   1.560 -0.3297 -0.6219 -0.3613
 1872TIP3    H1 5622   0.872   0.626   1.472 -0.3520  2.5764 -0.4852
 1872TIP3    H2 5623   0.797   0.714   1.570 -4.1068 -2.1180  1.2789
 1873TIP3   OH2 5624   4.363   3.629   0.869 -0.2728 -0.0395  0.4197
 1873TIP3    H1 5625   4.328   3.696   0.810  0.0120  0.1301  0.4454
 1873TIP3    H2 5626   4.291   3.567   0.879  0.2185 -0.9663 -1.4467
 1874TIP3   OH2 5627   5.708   5.100   0.941 -0.1815  0.3864  0.5666
 1874TIP3    H1 5628   5.652   5.090   1.018 -2.0258  1.6222 -0.5571
 1874TIP3    H2 5629   5.649   5.089   0.867  1.9014 -3.0669 -0.8348
 1875TIP3   OH2 5630   5.477   4.377   1.724  0.1818 -0.4435 -0.2625
 1875TIP3    H1 5631   5.554   4.424   1.756 -0.6081  0.0167  1.0635
 1875TIP3    H2 5632   5.508   4.288   1.708  1.3159  0.1021 -1.2165
 1876TIP3   OH2 5633   2.653   3.785   0.300 -0.3040  0.2803  0.6648
 1876TIP3    H1 5634   2.579   3.751   0.350  0.0202 -0.9263  0.3434
 1876TIP3    H2 5635   2.612   3.834   0.228 -0.7812  0.1569  0.8515
 1877TIP3   OH2 5636   2.496   5.730   0.913  0.0903  0.2842  0.5750
 1877TIP3    H1 5637   2.486   5.635   0.915  0.0621  0.2517 -0.4522
 1877TIP3    H2 5638   2.431   5.763   0.974 -1.3757 -0.2640 -0.6191
 1878TIP3   OH2 5639   4.943   0.274   2.061 -0.1309  0.2790 -0.1757
 1878TIP3    H1 5640   5.027   0.290   2.018  0.3995 -1.3261  0.1738
 1878TIP3    H2 5641   4.878   0.303   1.998  0.6694  1.9754 -0.2800
 1879TIP3   OH2 5642   5.164   3.555   2.151 -0.3300 -0.3622  0.1347
 1879TIP3    H1 5643   5.256   3.541   2.175 -0.1448  0.0602 -0.3109
 1879TIP3    H2 5644   5.159   3.648   2.129 -0.8416 -0.4091  0.0447
 1880TIP3   OH2 5645   2.229   2.164   0.086  0.1919  0.0499 -0.5942
 1880TIP3    H1 5646   2.295   2.133   0.024  1.8757 -1.0102  1.6332
 1880TIP3    H2 5647   2.225   2.097   0.154 -0.1590  2.0298  1.4729
 1881TIP3   OH2 5648   4.823   1.567   0.928 -0.2097 -0.3446 -0.5347
 1881TIP3    H1 5649   4.744   1.514   0.932 -0.2746 -0.3250 -1.3451
 1881TIP3    H2 5650   4.879   1.533   0.997 -0.3216 -1.3614 -0.9389
 1882TIP3   OH2 5651   1.704   1.423   1.937  0.1893  0.0620 -0.3856
 1882TIP3    H1 5652   1.690   1.481   1.863 -1.9230 -0.0465 -0.1326
 1882TIP3    H2 5653   1.771   1.361   1.907  0.4233  0.9032 -1.6545
 1883TIP3   OH2 5654   3.705   1.202   4.997  0.0212 -0.3244  0.5066
 1883TIP3    H1 5655   3.758   1.135   5.040 -0.1770 -1.5719 -1.0788
 1883TIP3    H2 5656   3.618   1.162   4.989 -0.2821  0.3981  0.1603
 1884TIP3   OH2 5657   3.138   1.480   4.191 -0.1602 -0.0523 -0.2198
 1884TIP3    H1 5658   3.052   1.439   4.202 -0.9068  1.6735  0.8119
 1884TIP3    H2 5659   3.167   1.453   4.104 -1.7279 -0.7045 -0.5723
 1885TIP3   OH2 5660   3.222   4.473   1.070  0.4510 -0.2033 -0.4665
 1885TIP3    H1 5661   3.151   4.465   1.007  0.4554 -0.9869 -0.3800
 1885TIP3    H2 5662   3.265   4.387   1.069 -0.5952 -0.8082  1.8521
 1886TIP3   OH2 5663   2.118   5.241   5.022  0.4728  0.1468  0.1591
 1886TIP3    H1 5664   2.117   5.336   5.007  0.5628  0.0653 -0.4025
 1886TIP3    H2 5665   2.082   5.230   5.110  1.1315  0.7542  0.5203
 1887TIP3   OH2 5666   5.968   0.009   0.939  0.2411 -0.2614  0.6053
 1887TIP3    H1 5667   6.041   0.071   0.943 -0.1319  0.2445 -0.0831
 1887TIP3    H2 5668   5.964  -0.030   1.027  1.1327 -0.0662  0.7385
 1888TIP3   OH2 5669   2.083   2.030   2.953  0.0740  1.0990  0.4666
 1888TIP3    H1 5670   2.066   1.942   2.920 -0.5080  1.3961 -0.0472
 1888TIP3    H2 5671   2.000   2.077   2.941  0.0123  1.3798  1.8301
 1889TIP3   OH2 5672   0.496   4.388   4.929  0.1984  0.0207 -0.3607
 1889TIP3    H1 5673   0.483   4.478   4.898  0.4237 -0.1000 -0.8146
 1889TIP3    H2 5674   0.591   4.380   4.940  0.0617  0.3763  1.3486
 1890TIP3   OH2 5675   4.030   3.937   3.275  0.0469 -0.5729  0.1584
 1890TIP3    H1 5676   3.940   3.943   3.307 -1.0376  0.6442 -2.8227
 1890TIP3    H2 5677   4.081   3.985   3.340 -1.2433 -1.8952  2.2967
 1891TIP3   OH2 5678   4.192   2.430   1.103  0.3083 -0.2359 -0.1394
 1891TIP3    H1 5679   4.104   2.415   1.067 -0.6180  0.9698  1.4663
 1891TIP3    H2 5680   4.241   2.352   1.079 -2.0534 -2.3650  1.3540
 1892TIP3   OH2 5681   4.794   2.684   2.375  0.3148 -0.0029 -0.5665
 1892TIP3    H1 5682   4.752   2.601   2.396  1.0974 -0.0358  0.9679
 1892TIP3    H2 5683   4.721   2.743   2.353 -0.7092  0.1328  2.6633
 1893TIP3   OH2 5684   6.059   3.017   2.287 -0.2677 -0.2568 -0.9276
 1893TIP3    H1 5685   6.009   2.969   2.221 -0.3852 -0.2213 -0.8656
 1893TIP3    H2 5686   6.025   2.986   2.371 -2.0936  1.6646 -0.8559
 1894TIP3   OH2 5687   5.296   2.945   4.507  0.1859  0.4226  0.0015
 1894TIP3    H1 5688   5.304   2.866   4.561 -1.9230 -0.5056 -0.9351
 1894TIP3    H2 5689   5.249   3.007   4.563 -0.1753  0.1858 -0.0314
 1895TIP3   OH2 5690   4.813   5.575   3.225 -0.5991  0.2163 -0.4209
 1895TIP3    H1 5691   4.891   5.629   3.219 -0.0516 -0.2029  1.8436
 1895TIP3    H2 5692   4.740   5.637   3.218 -0.0439  0.8230 -0.9133
 1896TIP3   OH2 5693   4.406   3.341   1.345  0.5714 -0.5066  0.7844
 1896TIP3    H1 5694   4.373   3.284   1.415 -0.7176 -0.3875  0.3074
 1896TIP3    H2 5695   4.460   3.283   1.291  0.1434 -1.0205  0.9008
 1897TIP3   OH2 5696   6.010   1.516   0.576 -0.1675 -0.4021 -0.4493
 1897TIP3    H1 5697   5.996   1.596   0.527 -0.1266 -0.4267 -0.5018
 1897TIP3    H2 5698   6.096   1.485   0.547 -0.2557 -0.5520 -0.5504
 1898TIP3   OH2 5699   3.768   0.324   4.608  0.3454  0.3145 -0.3192
 1898TIP3    H1 5700   3.764   0.231   4.631  0.0109  0.3448 -0.2457
 1898TIP3    H2 5701   3.747   0.327   4.515 -1.0318  0.4292 -0.0382
 1899TIP3   OH2 5702   3.233   3.389   1.545  0.0180 -0.7579  0.1741
 1899TIP3    H1 5703   3.241   3.482   1.564  1.5768 -0.3803 -2.0403
 1899TIP3    H2 5704   3.179   3.385   1.466 -0.0882 -1.7462  0.2827
 1900TIP3   OH2 5705   0.769   5.264   3.958  0.1785  0.1454  0.1933
 1900TIP3    H1 5706   0.791   5.255   3.865 -0.4900  2.7214 -0.2936
 1900TIP3    H2 5707   0.727   5.349   3.964 -3.1328 -1.4513  2.2614
 1901TIP3   OH2 5708   0.463   1.708   1.827 -0.1613  0.3014  0.1966
 1901TIP3    H1 5709   0.491   1.699   1.736 -0.3623  0.7892  0.0819
 1901TIP3    H2 5710   0.543   1.732   1.874 -0.4276  2.1869 -0.2123
 1902TIP3   OH2 5711   2.252   3.965   4.256 -0.2889 -0.8460  0.1056
 1902TIP3    H1 5712   2.171   3.958   4.306  0.2283 -0.2840  1.0396
 1902TIP3    H2 5713   2.237   3.909   4.180 -1.4816 -0.8968  0.3502
 1903TIP3   OH2 5714   2.231   4.926   0.276 -0.0611  0.0057 -0.6638
 1903TIP3    H1 5715   2.248   4.841   0.236  1.2444  0.0676 -0.2967
 1903TIP3    H2 5716   2.315   4.951   0.315 -1.0663  0.2936  1.4346
 1904TIP3   OH2 5717   0.116   2.899   3.173  0.1938 -0.5193  0.3045
 1904TIP3    H1 5718   0.164   2.941   3.244 -0.8390  0.5006  0.4199
 1904TIP3    H2 5719   0.169   2.821   3.152  0.9474 -0.4017  1.6195
 1905TIP3   OH2 5720   0.633   4.203   1.215 -0.1400 -0.3051 -0.3080
 1905TIP3    H1 5721   0.582   4.196   1.295 -1.2689  0.0988 -0.9589
 1905TIP3    H2 5722   0.711   4.252   1.240 -1.1470  1.0703  0.2673
 1906TIP3   OH2 5723   5.097   3.236   1.206 -0.1831  0.1246 -0.4096
 1906TIP3    H1 5724   5.098   3.331   1.217 -1.7239 -0.0575  2.1601
 1906TIP3    H2 5725   5.159   3.204   1.271 -1.5579 -0.6890  0.5516
 1907TIP3   OH2 5726   1.370   0.146   4.789 -0.2047 -0.3050 -0.0416
 1907TIP3    H1 5727   1.433   0.186   4.729  1.4581  0.1462  1.8736
 1907TIP3    H2 5728   1.390   0.052   4.785 -0.5822 -0.3609 -0.7007
 1908TIP3   OH2 5729   0.258   0.408   2.177  0.4035 -0.0653  0.8586
 1908TIP3    H1 5730   0.270   0.498   2.147 -1.2408  0.1175  0.6834
 1908TIP3    H2 5731   0.317   0.356   2.122 -0.1642  0.6632 -0.4804
 1909TIP3   OH2 5732   4.567   1.906   3.111  0.0139  0.4062 -0.0659
 1909TIP3    H1 5733   4.654   1.910   3.152  0.3741  0.4975 -0.8191
 1909TIP3    H2 5734   4.561   1.817   3.076  0.2694  0.7286 -0.9803
 1910TIP3   OH2 5735   1.644   2.726   2.878  0.5264 -0.3761 -0.3340
 1910TIP3    H1 5736   1.635   2.686   2.965 -0.0609 -1.5996 -0.9393
 1910TIP3    H2 5737   1.559   2.711   2.836 -0.1529  2.5014 -0.2181
 1911TIP3   OH2 5738   3.006   4.801   2.267 -0.0390  0.5246 -0.2224
 1911TIP3    H1 5739   3.017   4.873   2.205  0.6718  0.8325  0.2461
 1911TIP3    H2 5740   3.095   4.775   2.291 -0.2432 -1.2818 -1.2299
 1912TIP3   OH2 5741   1.999   1.820   1.963 -0.1603 -0.2817 -0.2289
 1912TIP3    H1 5742   1.972   1.912   1.953  0.1262 -0.1212  0.4240
 1912TIP3    H2 5743   2.089   1.826   1.997 -0.0981 -0.8097 -0.2967
 1913TIP3   OH2 5744   3.611   5.542   1.173 -0.0278 -0.2678  0.2695
 1913TIP3    H1 5745   3.630   5.473   1.109 -1.2967  0.7494 -1.2662
 1913TIP3    H2 5746   3.571   5.496   1.247  1.6081 -1.4856  0.4702
 1914TIP3   OH2 5747   6.358   4.391   2.911  0.5285 -0.3510 -0.4698
 1914TIP3    H1 5748   6.280   4.381   2.965  0.9514 -1.6230 -0.0711
 1914TIP3    H2 5749   6.325   4.422   2.826 -0.0619  2.5292  0.7016
 1915TIP3   OH2 5750   3.007   2.898   1.991 -0.2688 -0.0765  0.5566
 1915TIP3    H1 5751   2.981   2.913   2.082  0.4528  2.0246  0.4658
 1915TIP3    H2 5752   3.099   2.870   1.997 -0.5628 -1.0645  0.5263
 1916TIP3   OH2 5753   4.465   0.109   0.684 -0.4231  0.2081 -0.2522
 1916TIP3    H1 5754   4.520   0.137   0.757  0.6798  1.7428 -1.5777
 1916TIP3    H2 5755   4.417   0.188   0.659 -1.8616 -0.6525 -0.2909
 1917TIP3   OH2 5756   4.695   3.621   2.268 -0.1519  0.3316  0.0677
 1917TIP3    H1 5757   4.712   3.714   2.282 -0.5503  0.4264 -0.0341
 1917TIP3    H2 5758   4.774   3.577   2.296  0.1449  0.7258 -0.1420
 1918TIP3   OH2 5759   2.060   3.507   2.103 -0.4588 -0.2518 -0.0471
 1918TIP3    H1 5760   2.099   3.575   2.157  0.0382 -0.0860 -0.6006
 1918TIP3    H2 5761   2.134   3.458   2.068 -0.7235  0.2025 -1.2906
 1919TIP3   OH2 5762   0.312   0.543   1.695  0.1337  0.1951  0.0014
 1919TIP3    H1 5763   0.307   0.623   1.643  0.2372  0.5005  0.4490
 1919TIP3    H2 5764   0.360   0.481   1.641  0.8647  0.7360  0.0207
 1920TIP3   OH2 5765   0.777   4.448   0.301 -0.0726  0.0215  0.1955
 1920TIP3    H1 5766   0.804   4.382   0.365  1.7878 -0.6410 -1.1745
 1920TIP3    H2 5767   0.754   4.397   0.223  1.3364  0.9300 -0.8681
 1921TIP3   OH2 5768   5.081   5.623   4.646 -0.0684 -0.9337  0.1165
 1921TIP3    H1 5769   5.123   5.709   4.645 -2.0348  0.2206  3.0408
 1921TIP3    H2 5770   5.137   5.570   4.702 -0.6764 -0.4344  1.2219
 1922TIP3   OH2 5771   3.903   2.698   1.175  0.2557 -0.3228 -0.5261
 1922TIP3    H1 5772   3.925   2.724   1.086  0.2617 -0.5097 -0.5807
 1922TIP3    H2 5773   3.987   2.674   1.215  0.0685 -1.9098 -1.0202
 1923TIP3   OH2 5774   5.963   4.243   3.192  0.5113 -0.2113  0.2783
 1923TIP3    H1 5775   5.925   4.155   3.190 -1.0125  0.4221  0.3721
 1923TIP3    H2 5776   5.995   4.253   3.281  1.4487 -0.9490  0.0514
 1924TIP3   OH2 5777   0.547   2.269  -0.024  0.6536 -0.3447  0.0304
 1924TIP3    H1 5778   0.565   2.230   0.062  1.2778  2.1937  1.1247
 1924TIP3    H2 5779   0.598   2.350  -0.025  1.2046 -0.5853 -3.0299
 1925TIP3   OH2 5780   0.450   5.405   4.227 -0.4773 -0.6565  0.1860
 1925TIP3    H1 5781   0.384   5.432   4.291 -0.0806 -1.0650  0.7772
 1925TIP3    H2 5782   0.420   5.320   4.197  0.5159 -1.5260  1.5417
 1926TIP3   OH2 5783   4.531   2.400   3.709 -0.0180 -0.1856 -0.2827
 1926TIP3    H1 5784   4.454   2.402   3.651  0.7322  0.1020 -1.2919
 1926TIP3    H2 5785   4.603   2.371   3.653  0.5990 -0.5629  0.6785
 1927TIP3   OH2 5786   3.755   3.239   3.678  0.2353  0.4599  0.5935
 1927TIP3    H1 5787   3.796   3.230   3.764 -2.2124 -2.2713  1.6522
 1927TIP3    H2 5788   3.670   3.280   3.695  0.2803  1.1560 -0.7270
 1928TIP3   OH2 5789   5.351   4.842   5.063  0.2109  0.5045 -0.0115
 1928TIP3    H1 5790   5.293   4.911   5.096 -0.7496 -0.1975 -0.1934
 1928TIP3    H2 5791   5.402   4.884   4.994 -0.5286  0.9920 -0.2774
 1929TIP3   OH2 5792   4.946   4.692   0.666 -0.1877 -0.0845  0.4316
 1929TIP3    H1 5793   4.874   4.642   0.628 -0.1869 -0.7473  1.2831
 1929TIP3    H2 5794   5.010   4.626   0.691  0.9593  0.5289 -0.7647
 1930TIP3   OH2 5795   0.451   3.941   0.534  0.2830 -0.4587  0.1268
 1930TIP3    H1 5796   0.458   4.036   0.520  0.4902 -0.5773 -0.6364
 1930TIP3    H2 5797   0.366   3.930   0.576  0.5864  0.1307  0.9275
 1931TIP3   OH2 5798   2.355   1.152   1.602  0.0713  0.3653  0.3068
 1931TIP3    H1 5799   2.410   1.156   1.524  0.1838  1.6376  0.4340
 1931TIP3    H2 5800   2.308   1.235   1.603 -0.9242 -0.1761  0.8858
 1932TIP3   OH2 5801   5.303   5.159   4.308 -0.5896  0.7327  0.2743
 1932TIP3    H1 5802   5.264   5.238   4.345  0.6091  1.3222  0.3503
 1932TIP3    H2 5803   5.383   5.190   4.265 -1.9008  0.1429 -2.9425
 1933TIP3   OH2 5804   3.937   5.602   0.320 -0.5816  0.2136 -0.3704
 1933TIP3    H1 5805   4.005   5.592   0.253 -3.4744 -1.1364 -3.3650
 1933TIP3    H2 5806   3.915   5.695   0.318  0.5064  0.4983  0.0039
 1934TIP3   OH2 5807   3.078   1.745   4.083  0.0534 -0.4050  0.1730
 1934TIP3    H1 5808   3.153   1.803   4.091  0.5674 -0.8163 -1.3093
 1934TIP3    H2 5809   3.105   1.664   4.127  0.8130 -0.8220 -0.9968
 1935TIP3   OH2 5810   3.733   3.840   0.185  0.2263  0.1012  0.5303
 1935TIP3    H1 5811   3.800   3.816   0.250  0.1194  1.9047  1.3459
 1935TIP3    H2 5812   3.775   3.906   0.130  0.8681 -2.4820 -2.3456
 1936TIP3   OH2 5813   3.665   3.247   3.191  0.3074 -0.2594  0.1477
 1936TIP3    H1 5814   3.735   3.187   3.163  0.1793 -0.4320  0.1943
 1936TIP3    H2 5815   3.689   3.331   3.153  0.7426 -0.2329  0.4758
 1937TIP3   OH2 5816   0.927   4.446   1.834 -0.1420  0.0715 -0.3018
 1937TIP3    H1 5817   0.986   4.475   1.904 -0.2516  0.3268 -0.3148
 1937TIP3    H2 5818   0.870   4.381   1.877  0.5207 -0.6065 -0.4318
 1938TIP3   OH2 5819   3.682   3.073   1.138  0.2739 -0.1060  0.1198
 1938TIP3    H1 5820   3.588   3.086   1.156  0.2542  0.1121 -0.1288
 1938TIP3    H2 5821   3.712   3.014   1.207 -0.8502 -3.2000 -1.8566
 1939TIP3   OH2 5822   1.915   1.065   2.037 -0.3605  0.1058  0.1243
 1939TIP3    H1 5823   1.988   1.003   2.036 -0.4966 -0.0632 -0.7623
 1939TIP3    H2 5824   1.894   1.076   2.129  1.8690  1.4528  0.5607
 1940TIP3   OH2 5825   3.908   5.188   0.787  0.1682 -0.1521  0.5000
 1940TIP3    H1 5826   3.943   5.120   0.845 -0.4643 -0.5234  0.4617
 1940TIP3    H2 5827   3.971   5.193   0.715  1.5449  1.0769  1.7185
 1941TIP3   OH2 5828   3.359   5.498   1.059  0.1296  0.6205  0.5687
 1941TIP3    H1 5829   3.322   5.586   1.051 -1.0687  0.2053  1.3227
 1941TIP3    H2 5830   3.446   5.511   1.097 -0.0815  1.4741  0.7691
 1942TIP3   OH2 5831   0.749   1.607   4.620  0.2661  0.3527  0.1352
 1942TIP3    H1 5832   0.699   1.657   4.684 -0.4418  0.2744 -0.3407
 1942TIP3    H2 5833   0.819   1.566   4.670  0.3525  1.1396  0.6726
 1943TIP3   OH2 5834   2.364   1.403   3.053  0.2341 -0.2721 -0.2334
 1943TIP3    H1 5835   2.380   1.324   3.001  0.1641  0.6999 -1.7710
 1943TIP3    H2 5836   2.288   1.382   3.107 -1.4323 -0.3991 -2.5127
 1944TIP3   OH2 5837   3.091   0.384   2.620  0.0710  0.2553  0.1727
 1944TIP3    H1 5838   3.042   0.349   2.545  0.4646  1.1881 -0.5350
 1944TIP3    H2 5839   3.182   0.365   2.599  0.0768 -0.9700  1.2194
 1945TIP3   OH2 5840   2.690   2.740   0.677  0.1466  0.2241 -0.3640
 1945TIP3    H1 5841   2.638   2.711   0.752 -0.4163  1.1003 -0.4071
 1945TIP3    H2 5842   2.727   2.659   0.641 -0.8091 -0.3650 -0.0642
 1946TIP3   OH2 5843   0.469   3.529   2.888  0.0252 -0.0549  0.4745
 1946TIP3    H1 5844   0.429   3.472   2.823  2.5750  1.1176 -2.3663
 1946TIP3    H2 5845   0.437   3.617   2.865  2.9252  0.7308 -1.0722
 1947TIP3   OH2 5846   1.646   1.530   1.575 -0.2554  0.0952  0.3185
 1947TIP3    H1 5847   1.717   1.549   1.636 -0.3213 -0.5646  0.6193
 1947TIP3    H2 5848   1.598   1.612   1.567  1.1420  0.8508 -0.7090
 1948TIP3   OH2 5849   6.176   0.441   1.172  0.3187 -0.2658  0.1228
 1948TIP3    H1 5850   6.196   0.488   1.254  0.7324  0.7924 -0.5582
 1948TIP3    H2 5851   6.252   0.458   1.116  1.5698 -3.6496  0.5979
 1949TIP3   OH2 5852   5.562   5.631   2.404 -0.8521  0.0933 -0.3702
 1949TIP3    H1 5853   5.640   5.590   2.365 -1.0654  0.7322 -1.5093
 1949TIP3    H2 5854   5.582   5.724   2.406 -1.0198  0.1193  0.6943
 1950TIP3   OH2 5855   1.999   0.396   4.363 -0.2120  0.1799  0.5150
 1950TIP3    H1 5856   1.943   0.464   4.400  0.3973  1.2044 -0.3790
 1950TIP3    H2 5857   2.034   0.435   4.283 -0.5025 -1.5023 -0.4744
 1951TIP3   OH2 5858   5.927   5.099   2.048  0.1723  0.2049  0.2200
 1951TIP3    H1 5859   5.946   5.154   1.973  4.9530 -0.6290  0.5127
 1951TIP3    H2 5860   5.942   5.010   2.016  0.4232 -0.2905  1.6486
 1952TIP3   OH2 5861   4.321   1.328   1.079 -0.9879  0.4638  0.0608
 1952TIP3    H1 5862   4.344   1.317   1.171 -0.9835 -0.8634 -0.0693
 1952TIP3    H2 5863   4.238   1.281   1.070 -0.4670 -0.3272 -0.8118
 1953TIP3   OH2 5864   3.007   2.104   0.891 -0.8817 -0.0205 -0.0110
 1953TIP3    H1 5865   3.077   2.042   0.910 -0.0411  0.4354 -1.5066
 1953TIP3    H2 5866   2.991   2.149   0.974 -1.5205 -2.1975  1.1220
 1954TIP3   OH2 5867   4.300   1.882   3.591  0.6868 -0.0033 -0.0957
 1954TIP3    H1 5868   4.304   1.820   3.518  0.1990 -1.9668  1.4662
 1954TIP3    H2 5869   4.224   1.937   3.571  0.3164 -0.7664 -0.8717
 1955TIP3   OH2 5870   1.127   3.559   0.552  0.4018  0.1014  0.5871
 1955TIP3    H1 5871   1.208   3.587   0.510  1.1569  0.9976  2.5233
 1955TIP3    H2 5872   1.059   3.575   0.486  1.7742 -0.9443 -1.1764
 1956TIP3   OH2 5873   0.749   4.856   0.310  0.3817 -0.2013 -0.3805
 1956TIP3    H1 5874   0.663   4.816   0.300  0.1894  0.2622 -0.5935
 1956TIP3    H2 5875   0.752   4.925   0.243  1.5079 -1.2389 -1.4556
 1957TIP3   OH2 5876   2.293   0.600   3.489 -0.3456  0.0169 -0.7827
 1957TIP3    H1 5877   2.292   0.683   3.442  1.5316  0.2643 -0.4511
 1957TIP3    H2 5878   2.384   0.588   3.517 -0.4206 -2.4461 -1.3169
 1958TIP3   OH2 5879   0.461   3.486   5.000 -0.6043 -0.4474  0.0107
 1958TIP3    H1 5880   0.505   3.523   4.925 -1.1022  0.2826  0.0719
 1958TIP3    H2 5881   0.498   3.397   5.008 -0.3752 -0.4470 -0.9313
 1959TIP3   OH2 5882   4.296   3.339   3.920 -0.5527  0.4067 -0.6540
 1959TIP3    H1 5883   4.368   3.283   3.947 -0.2513  1.6841  1.5041
 1959TIP3    H2 5884   4.323   3.427   3.947 -2.1085  1.1966 -1.5191
 1960TIP3   OH2 5885   2.252   2.507   1.110  0.1091 -0.3275 -0.5089
 1960TIP3    H1 5886   2.293   2.426   1.079  2.1417 -0.2114  1.5989
 1960TIP3    H2 5887   2.204   2.482   1.189  1.6799  0.6210  0.8201
 1961TIP3   OH2 5888  -0.007   0.728   0.773  0.7829 -0.4799  0.3113
 1961TIP3    H1 5889   0.082   0.762   0.771  0.3061  1.0568  2.3436
 1961TIP3    H2 5890  -0.004   0.652   0.830  0.6714 -0.0000  0.9615
 1962TIP3   OH2 5891   3.190   5.156   1.098  0.5188 -0.7834  0.1250
 1962TIP3    H1 5892   3.168   5.209   1.175 -1.0737  0.4176 -1.0973
 1962TIP3    H2 5893   3.208   5.220   1.029  0.1111 -1.8216 -0.9773
 1963TIP3   OH2 5894   1.404   0.063   0.123 -0.4056 -0.1644  0.6964
 1963TIP3    H1 5895   1.458  -0.016   0.128  0.5230  0.3740 -0.5168
 1963TIP3    H2 5896   1.385   0.085   0.214 -0.4323 -1.6159  1.0641
 1964TIP3   OH2 5897   4.667   1.058   0.545 -0.1770  0.5552  0.1573
 1964TIP3    H1 5898   4.585   1.040   0.500 -1.2616  0.3388  2.1331
 1964TIP3    H2 5899   4.653   1.029   0.634  1.4460  2.1141  0.9925
 1965TIP3   OH2 5900   6.073   3.305   2.359  0.2644  0.3853 -0.4876
 1965TIP3    H1 5901   6.041   3.217   2.335 -0.7705  1.0311 -1.6230
 1965TIP3    H2 5902   6.078   3.352   2.276  0.7220  1.4304  0.1135
 1966TIP3   OH2 5903   0.034   5.778   1.970 -0.4366  0.1242 -0.6460
 1966TIP3    H1 5904   0.058   5.870   1.955  3.0941 -0.3017  1.2914
 1966TIP3    H2 5905  -0.025   5.781   2.045 -1.5753  0.8796 -1.5477
 1967TIP3   OH2 5906   2.110   0.322   5.140 -0.1235  0.1475 -0.0039
 1967TIP3    H1 5907   2.069   0.237   5.123  0.6956 -0.3354  0.3658
 1967TIP3    H2 5908   2.166   0.306   5.217  1.6247  0.4942 -1.1553
 1968TIP3   OH2 5909   5.511   2.358   0.453 -0.3308 -0.3321  0.3897
 1968TIP3    H1 5910   5.471   2.371   0.367  1.1795  0.4517 -0.2226
 1968TIP3    H2 5911   5.603   2.341   0.435  0.7039  2.8379  1.9029
 1969TIP3   OH2 5912   4.317   5.436   1.655 -0.1035  0.5276 -0.0668
 1969TIP3    H1 5913   4.354   5.455   1.569  1.0638 -1.7682 -0.1427
 1969TIP3    H2 5914   4.393   5.427   1.713 -0.6993 -0.6778  0.5791
 1970TIP3   OH2 5915   1.653   4.190   4.950  0.2906 -0.5579  0.6208
 1970TIP3    H1 5916   1.739   4.187   4.994  0.4215 -2.1082  0.3088
 1970TIP3    H2 5917   1.654   4.115   4.890 -1.5042 -0.9383  1.0168
 1971TIP3   OH2 5918   3.267   2.811   0.833  0.2176 -0.2587 -0.5622
 1971TIP3    H1 5919   3.240   2.864   0.908  0.2306 -0.7502 -0.2007
 1971TIP3    H2 5920   3.340   2.759   0.867  0.2242 -0.4798 -0.9193
 1972TIP3   OH2 5921   1.321   2.134   2.957 -0.1685  0.3379 -0.8826
 1972TIP3    H1 5922   1.409   2.170   2.966 -0.3647  0.2995  2.8517
 1972TIP3    H2 5923   1.268   2.207   2.924  0.7708  1.2605 -0.4113
 1973TIP3   OH2 5924   0.465   2.755   4.452 -0.2969 -0.2812  0.8198
 1973TIP3    H1 5925   0.424   2.735   4.368 -1.3523 -3.1686  1.9117
 1973TIP3    H2 5926   0.503   2.673   4.482  0.7075  0.8226  2.8473
 1974TIP3   OH2 5927   3.024   2.558   3.473 -0.5696 -0.1233 -0.2156
 1974TIP3    H1 5928   3.063   2.499   3.409  1.7254  0.4026  0.5937
 1974TIP3    H2 5929   2.998   2.635   3.423  1.4949  0.4157 -0.5401
 1975TIP3   OH2 5930   4.786   3.686   4.081 -0.3983 -0.6375 -0.2453
 1975TIP3    H1 5931   4.731   3.641   4.017  0.3511  1.1569 -2.2790
 1975TIP3    H2 5932   4.754   3.776   4.081  2.2826  0.4266 -1.3798
 1976TIP3   OH2 5933   2.879   2.218   2.671  0.1765 -0.5136 -0.2097
 1976TIP3    H1 5934   2.853   2.126   2.661  1.3150 -0.8561 -0.1974
 1976TIP3    H2 5935   2.967   2.222   2.632  0.1873  0.5396 -0.0922
 1977TIP3   OH2 5936   3.709   5.502   4.254 -0.2905 -0.5285  0.7098
 1977TIP3    H1 5937   3.795   5.514   4.215  0.1178 -2.6146  0.8723
 1977TIP3    H2 5938   3.704   5.568   4.323  0.1135  1.3140 -0.9345
 1978TIP3   OH2 5939   2.247   3.833   3.987  0.3229 -0.0104  0.1100
 1978TIP3    H1 5940   2.309   3.776   4.033  1.7051  1.7774  0.5997
 1978TIP3    H2 5941   2.168   3.780   3.977  1.3266 -1.7808  1.0490
 1979TIP3   OH2 5942   3.659   0.404   4.100  0.4652 -0.0401 -0.4890
 1979TIP3    H1 5943   3.651   0.497   4.122 -1.4613  0.1604 -1.8325
 1979TIP3    H2 5944   3.576   0.382   4.057  1.7659 -1.7948 -2.2867
 1980TIP3   OH2 5945   5.239   0.362   0.537 -0.0219  0.0519 -0.2459
 1980TIP3    H1 5946   5.333   0.370   0.522 -0.1442 -0.7051 -1.5758
 1980TIP3    H2 5947   5.228   0.279   0.583 -0.1258 -0.4411 -1.1435
 1981TIP3   OH2 5948   5.615   3.430   3.832 -0.2024  0.3493 -0.2977
 1981TIP3    H1 5949   5.614   3.524   3.849  0.1642  0.1033  1.2498
 1981TIP3    H2 5950   5.526   3.409   3.804 -0.0490  1.2861 -1.5627
 1982TIP3   OH2 5951   6.017   3.309   0.979 -0.4105  0.2928 -0.2520
 1982TIP3    H1 5952   6.031   3.284   1.070 -0.3572  1.5139  0.0909
 1982TIP3    H2 5953   6.105   3.327   0.946 -0.1269 -2.5125 -1.3124
 1983TIP3   OH2 5954   0.010   0.377   2.027 -0.1670 -0.3249 -0.1133
 1983TIP3    H1 5955   0.103   0.362   2.044 -0.4194 -2.9615 -0.6808
 1983TIP3    H2 5956   0.004   0.385   1.932 -0.6761 -2.1030 -0.2780
 1984TIP3   OH2 5957   4.773   0.231   3.208 -0.6277 -0.2282  0.1499
 1984TIP3    H1 5958   4.741   0.246   3.297  0.0533 -0.0596  0.3731
 1984TIP3    H2 5959   4.756   0.139   3.191 -1.9962  0.0388 -0.0573
 1985TIP3   OH2 5960   4.172   0.455   2.341  0.2423  0.3658  0.0436
 1985TIP3    H1 5961   4.097   0.396   2.335 -0.9229  1.8528 -0.4945
 1985TIP3    H2 5962   4.244   0.405   2.302 -0.7129 -0.6862 -0.4411
 1986TIP3   OH2 5963   5.050   4.645   4.681  0.9301 -0.0165 -0.1664
 1986TIP3    H1 5964   5.057   4.673   4.772 -0.8020  2.1038 -0.6330
 1986TIP3    H2 5965   4.956   4.639   4.664  1.2147 -0.1019 -1.9036
 1987TIP3   OH2 5966   1.111   1.381   1.010  0.6302  0.4063 -0.0038
 1987TIP3    H1 5967   1.045   1.336   1.063 -0.9990  1.8815 -0.6928
 1987TIP3    H2 5968   1.160   1.434   1.072  0.3782  0.2037  0.3688
 1988TIP3   OH2 5969   1.914   0.456   1.752  0.4316  0.2218  0.3768
 1988TIP3    H1 5970   2.010   0.452   1.745  0.5450 -1.1378  1.8883
 1988TIP3    H2 5971   1.883   0.397   1.683  0.6366  1.0774 -0.4688
 1989TIP3   OH2 5972   2.465   1.784   4.216  0.0769 -0.3234  0.3508
 1989TIP3    H1 5973   2.490   1.875   4.233  0.1268 -0.1489 -0.5975
 1989TIP3    H2 5974   2.437   1.751   4.301 -0.2072  0.6615  0.6559
 1990TIP3   OH2 5975   1.681   0.219   4.144  0.3564  0.2775 -0.0416
 1990TIP3    H1 5976   1.759   0.275   4.142  0.0912  0.6434 -0.2468
 1990TIP3    H2 5977   1.660   0.203   4.052  2.3118 -2.8445 -0.0762
 1991TIP3   OH2 5978   2.725   4.793   0.222  0.5756  0.1748 -0.4826
 1991TIP3    H1 5979   2.798   4.732   0.227  0.1893 -0.3594 -1.1353
 1991TIP3    H2 5980   2.683   4.789   0.308  0.9485  0.0298 -0.3077
 1992TIP3   OH2 5981   3.600   0.303   0.376 -0.1158  0.0443  0.1633
 1992TIP3    H1 5982   3.584   0.389   0.414 -1.5012  0.4206 -1.1867
 1992TIP3    H2 5983   3.608   0.319   0.282 -0.3091 -1.2910 -0.1007
 1993TIP3   OH2 5984   0.702   5.192   0.717  0.0534 -0.0158  0.8234
 1993TIP3    H1 5985   0.638   5.150   0.659 -0.4170  2.6555 -0.7916
 1993TIP3    H2 5986   0.784   5.187   0.668  0.9251 -2.3159  2.3417
 1994TIP3   OH2 5987   5.119   5.132   2.544  0.0966  0.5055  0.0397
 1994TIP3    H1 5988   5.087   5.218   2.570 -0.4235  0.0196  1.0681
 1994TIP3    H2 5989   5.132   5.085   2.626  1.4571 -0.0340 -0.4513
 1995TIP3   OH2 5990   5.396   1.888   0.203 -0.1742  0.1957 -0.3133
 1995TIP3    H1 5991   5.372   1.912   0.114 -1.6574 -1.5703 -0.4385
 1995TIP3    H2 5992   5.312   1.878   0.249  0.5074 -0.4729  0.8500
 1996TIP3   OH2 5993   2.920   2.884   3.070 -0.4510 -0.3049  0.2257
 1996TIP3    H1 5994   2.914   2.879   2.975 -0.5640  0.9176  0.1576
 1996TIP3    H2 5995   2.831   2.870   3.101 -0.4686 -0.3820  0.1423
 1997TIP3   OH2 5996   5.780   1.773   1.598 -0.7985  0.1768  0.0502
 1997TIP3    H1 5997   5.846   1.758   1.665 -0.4524  0.7490 -0.1522
 1997TIP3    H2 5998   5.709   1.712   1.619  0.7298 -2.1114 -1.0503
 1998TIP3   OH2 5999   6.178   2.385   4.589  0.0138 -0.7706 -0.7160
 1998TIP3    H1 6000   6.122   2.436   4.531 -1.6667 -1.1251  0.5283
 1998TIP3    H2 6001   6.194   2.442   4.664  0.6589 -0.9813 -0.6851
 1999TIP3   OH2 6002   2.361   1.341   0.806 -0.5288 -0.2956  0.3903
 1999TIP3    H1 6003   2.338   1.269   0.747 -0.3222  0.6234 -0.8578
 1999TIP3    H2 6004   2.301   1.412   0.782 -0.8963 -0.1137  1.7716
 2000TIP3   OH2 6005   0.650   5.698   2.979  0.0057  0.3693 -0.5953
 2000TIP3    H1 6006   0.633   5.733   2.891 -1.0646  1.1662 -0.1011
 2000TIP3    H2 6007   0.563   5.673   3.012  0.6597 -2.2854 -0.6885
 2001TIP3   OH2 6008   4.545   2.168   1.682  0.6670  0.0172  0.3612
 2001TIP3    H1 6009   4.515   2.097   1.624 -0.5998  0.5109  0.3823
 2001TIP3    H2 6010   4.602   2.221   1.626 -0.7618  0.6474 -0.5665
 2002TIP3   OH2 6011   4.660   0.348   4.858  0.2214 -0.3140 -0.1631
 2002TIP3    H1 6012   4.589   0.307   4.906 -0.8403  1.1479 -0.4061
 2002TIP3    H2 6013   4.694   0.415   4.917  0.7383 -0.3384 -0.4251
 2003TIP3   OH2 6014   3.774   1.494   1.301  0.2580 -0.1827  0.4111
 2003TIP3    H1 6015   3.756   1.416   1.355  1.7458 -0.1190  1.0264
 2003TIP3    H2 6016   3.867   1.489   1.282  0.5914  1.9423  1.2436
 2004TIP3   OH2 6017   4.685   5.915   2.939 -0.0295 -1.0248  0.7193
 2004TIP3    H1 6018   4.630   5.936   2.863 -0.5402  0.5558  1.4903
 2004TIP3    H2 6019   4.763   5.873   2.901 -0.7750 -1.2978 -0.5683
 2005TIP3   OH2 6020   1.298   1.019   4.630 -0.2338 -0.0611  0.0647
 2005TIP3    H1 6021   1.266   0.946   4.577 -2.2982  0.5414  0.3707
 2005TIP3    H2 6022   1.375   1.051   4.583 -0.8074 -0.8165 -1.4603
 2006TIP3   OH2 6023   4.290   0.405   0.693  0.0742 -0.1516  0.2856
 2006TIP3    H1 6024   4.347   0.478   0.717 -1.3267  0.8969  0.5261
 2006TIP3    H2 6025   4.264   0.424   0.603  3.0279 -2.5937 -1.3020
 2007TIP3   OH2 6026   4.693   1.323   0.385 -0.0108  0.2115  0.2974
 2007TIP3    H1 6027   4.684   1.395   0.447  1.6604 -0.5857  1.5541
 2007TIP3    H2 6028   4.685   1.244   0.439  1.1303 -0.5012 -0.5343
 2008TIP3   OH2 6029   4.276   4.009   3.568 -0.4079 -0.3570 -0.2868
 2008TIP3    H1 6030   4.230   3.965   3.639 -0.1090 -0.2115 -0.0041
 2008TIP3    H2 6031   4.325   3.939   3.524  0.3263 -0.2642  0.3604
 2009TIP3   OH2 6032   4.441   4.673   2.589 -0.0316 -0.0782  0.4210
 2009TIP3    H1 6033   4.356   4.662   2.631  0.5719 -0.1425  1.6742
 2009TIP3    H2 6034   4.469   4.761   2.612 -0.4934  0.5865 -1.4126
 2010TIP3   OH2 6035   0.503   5.095   3.926  0.7304  0.0668 -0.1198
 2010TIP3    H1 6036   0.542   5.010   3.905  1.6550  0.6137 -0.7188
 2010TIP3    H2 6037   0.573   5.142   3.972 -0.0575  0.2079  0.9815
 2011TIP3   OH2 6038   2.799   1.677   2.500 -0.4142  0.4906  0.2814
 2011TIP3    H1 6039   2.864   1.735   2.462  0.4161 -1.1337 -0.9111
 2011TIP3    H2 6040   2.850   1.612   2.548 -1.2463  0.1412  0.7121
 2012TIP3   OH2 6041   3.077   0.203   4.492 -0.0865 -0.0764  0.1658
 2012TIP3    H1 6042   3.085   0.271   4.426 -2.7158 -0.4011 -0.6149
 2012TIP3    H2 6043   3.073   0.121   4.442 -1.0283 -0.4196  0.7718
 2013TIP3   OH2 6044   4.998   1.832   4.795  0.0696  0.1744 -0.0142
 2013TIP3    H1 6045   4.970   1.768   4.729  1.4437 -0.4122 -0.0513
 2013TIP3    H2 6046   4.990   1.917   4.750 -1.0858 -0.0068 -0.1949
 2014TIP3   OH2 6047   5.548   4.585   0.236 -0.5834 -0.6560 -0.2682
 2014TIP3    H1 6048   5.599   4.666   0.237 -2.2656  0.4724 -0.9816
 2014TIP3    H2 6049   5.599   4.523   0.288  1.9202  0.1082 -1.6723
 2015TIP3   OH2 6050   6.160   2.022   2.835 -0.1560  0.0699  0.3942
 2015TIP3    H1 6051   6.185   1.944   2.785  2.6934  1.0361  0.1382
 2015TIP3    H2 6052   6.162   2.093   2.771  0.7468  0.8716  1.2781
 2016TIP3   OH2 6053   6.005   3.443   4.926  0.4596 -0.2011 -0.6179
 2016TIP3    H1 6054   6.095   3.424   4.900  0.1900 -0.8981 -1.0791
 2016TIP3    H2 6055   5.991   3.534   4.901  1.1254  0.0009 -0.2800
 2017TIP3   OH2 6056   5.448   0.467   2.828  0.3285  0.1124  0.4156
 2017TIP3    H1 6057   5.439   0.552   2.872  0.1501 -0.1807  0.9549
 2017TIP3    H2 6058   5.450   0.403   2.900 -0.3086 -0.4031 -0.0204
 2018TIP3   OH2 6059   3.257   3.751   0.227  0.1222 -0.6341  0.6273
 2018TIP3    H1 6060   3.333   3.716   0.273  1.4443 -0.2386 -1.1554
 2018TIP3    H2 6061   3.287   3.764   0.137 -1.7536  0.5257  0.1075
 2019TIP3   OH2 6062   5.073   5.129   3.913  0.3452  0.5006  0.0421
 2019TIP3    H1 6063   5.121   5.073   3.853  1.0484  2.0696 -0.9200
 2019TIP3    H2 6064   5.082   5.217   3.877 -2.1281  1.0583  0.5669
 2020TIP3   OH2 6065   3.132   1.672   2.217 -0.3042 -0.3675  0.1466
 2020TIP3    H1 6066   3.089   1.729   2.281 -1.2316  0.1155 -0.8687
 2020TIP3    H2 6067   3.166   1.732   2.150 -1.8618 -0.9644 -1.2769
 2021TIP3   OH2 6068   4.324   1.820   5.043  0.3990  0.3010 -0.1798
 2021TIP3    H1 6069   4.268   1.838   5.119  0.5058 -0.7000  0.1516
 2021TIP3    H2 6070   4.409   1.798   5.081  0.8858  1.3011 -0.6615
 2022TIP3   OH2 6071   4.961   0.255   4.127  0.2195 -0.0634 -0.0578
 2022TIP3    H1 6072   5.052   0.283   4.124  0.4662 -0.9287 -1.9196
 2022TIP3    H2 6073   4.926   0.276   4.040 -0.1263 -3.5136 -0.8956
 2023TIP3   OH2 6074   3.011   3.048   3.422 -0.1594  0.0881  0.5142
 2023TIP3    H1 6075   3.066   3.005   3.487 -1.2346 -0.3000  1.1860
 2023TIP3    H2 6076   2.923   3.046   3.459 -0.3594  2.3116  0.2722
 2024TIP3   OH2 6077   1.182   3.079   0.659 -0.0837  0.0051 -0.4406
 2024TIP3    H1 6078   1.169   3.070   0.754 -1.3055 -0.5611 -0.6499
 2024TIP3    H2 6079   1.120   3.147   0.633 -1.2315 -1.2670 -1.1427
 2025TIP3   OH2 6080   0.247   5.867   4.011 -0.1010  0.4735  0.2321
 2025TIP3    H1 6081   0.202   5.860   3.927  1.4349  1.4385 -0.7197
 2025TIP3    H2 6082   0.255   5.961   4.027 -0.8448  0.3119  1.7522
 2026TIP3   OH2 6083   2.599   1.701   0.191  0.3387 -0.0037  0.3857
 2026TIP3    H1 6084   2.588   1.686   0.285  2.3939  0.0220  0.6685
 2026TIP3    H2 6085   2.675   1.649   0.167  1.9651  2.6374 -0.5459
 2027TIP3   OH2 6086   3.487   5.959   0.145  0.6487  0.2596  0.2438
 2027TIP3    H1 6087   3.430   6.014   0.198 -0.5796  0.5343 -1.3001
 2027TIP3    H2 6088   3.437   5.879   0.130  1.2816 -0.1227  0.0977
 2028TIP3   OH2 6089   1.293   1.800   4.821 -0.0357 -0.5697  0.0442
 2028TIP3    H1 6090   1.268   1.868   4.883  1.4091 -0.3202  0.3992
 2028TIP3    H2 6091   1.263   1.719   4.861 -0.2462 -0.2904  0.4519
 2029TIP3   OH2 6092   0.526   1.658   3.684  0.0258 -0.0445 -0.8758
 2029TIP3    H1 6093   0.570   1.588   3.732  0.5385  0.7423 -0.1740
 2029TIP3    H2 6094   0.487   1.614   3.608 -1.3286 -1.4141  0.5590
 2030TIP3   OH2 6095   4.693   0.916   0.781  0.1307 -0.0163 -0.1090
 2030TIP3    H1 6096   4.782   0.882   0.784  0.4638  0.8501  0.1559
 2030TIP3    H2 6097   4.652   0.883   0.861 -0.4913 -2.2194 -1.2562
 2031TIP3   OH2 6098   0.453   0.813   3.876 -0.0003  0.7003  0.2564
 2031TIP3    H1 6099   0.468   0.768   3.959 -0.3124 -1.2230 -0.6702
 2031TIP3    H2 6100   0.365   0.786   3.850  0.3063  0.8263 -0.9496
 2032TIP3   OH2 6101   3.522   2.113   1.191  0.3636 -0.0751 -0.2333
 2032TIP3    H1 6102   3.565   2.085   1.272  2.1019  0.6773 -0.8425
 2032TIP3    H2 6103   3.574   2.073   1.122 -0.6271 -0.0671 -1.0096
 2033TIP3   OH2 6104   4.405   0.151   3.476  0.1650  0.5353  0.0996
 2033TIP3    H1 6105   4.487   0.190   3.504 -0.7274  2.2539  0.4020
 2033TIP3    H2 6106   4.350   0.225   3.451 -1.8317 -0.4547  1.3252
 2034TIP3   OH2 6107   5.251   4.772   1.203 -0.3097 -0.2288  0.1748
 2034TIP3    H1 6108   5.197   4.784   1.282  0.2338 -1.2639  0.7200
 2034TIP3    H2 6109   5.189   4.740   1.137 -0.5099 -0.7411  0.5976
 2035TIP3   OH2 6110   5.767   3.790   2.822  0.3013 -0.0075 -0.3772
 2035TIP3    H1 6111   5.737   3.813   2.909 -1.3474  0.7609 -1.1014
 2035TIP3    H2 6112   5.824   3.863   2.796 -0.8692  0.8208 -0.7100
 2036TIP3   OH2 6113   1.826   5.802   0.544 -0.3138  0.4510  0.2046
 2036TIP3    H1 6114   1.745   5.820   0.592 -0.3107 -1.0968  0.8090
 2036TIP3    H2 6115   1.861   5.889   0.525 -1.4175  1.1286  1.1142
 2037TIP3   OH2 6116   4.848   0.217   0.183  0.7343 -0.3375 -0.5684
 2037TIP3    H1 6117   4.837   0.121   0.181 -0.7553 -0.2164  0.1811
 2037TIP3    H2 6118   4.927   0.231   0.235 -0.0542 -1.1300  0.9147
 2038TIP3   OH2 6119   5.793   3.134   0.897  0.5514  0.0148  0.3997
 2038TIP3    H1 6120   5.881   3.169   0.891  0.4015  0.3735  0.2979
 2038TIP3    H2 6121   5.804   3.048   0.940  0.9176  0.1627  0.6043
 2039TIP3   OH2 6122   3.216   1.201   2.166 -0.1470 -0.0131 -0.5190
 2039TIP3    H1 6123   3.220   1.133   2.100  0.7053  0.5105 -1.0338
 2039TIP3    H2 6124   3.303   1.201   2.206  0.4501  1.8479 -1.6683
 2040TIP3   OH2 6125   5.800   4.068   4.408  0.3312  0.0245 -0.4798
 2040TIP3    H1 6126   5.858   4.064   4.484  0.9394  1.4315 -0.8447
 2040TIP3    H2 6127   5.712   4.066   4.445  0.6161 -0.6037  0.1768
 2041TIP3   OH2 6128   5.896   0.674   2.070  0.5815 -0.0502 -0.1098
 2041TIP3    H1 6129   5.879   0.719   1.987 -0.8994  0.3570  0.3787
 2041TIP3    H2 6130   5.991   0.672   2.078  0.7567  3.4937  0.0971
 2042TIP3   OH2 6131   2.407   4.904   0.816  0.3578  0.0357 -0.1796
 2042TIP3    H1 6132   2.479   4.959   0.848  0.8372 -0.5286 -0.2631
 2042TIP3    H2 6133   2.328   4.948   0.847  0.7126  0.9763 -0.5658
 2043TIP3   OH2 6134   1.783   1.177   1.165  0.3655  0.1616  0.0202
 2043TIP3    H1 6135   1.820   1.236   1.231  2.3857  0.4757 -1.3217
 2043TIP3    H2 6136   1.789   1.226   1.083 -1.9630 -0.2805 -0.4725
 2044TIP3   OH2 6137   3.857   0.886   0.481 -0.0033  0.1389  0.3177
 2044TIP3    H1 6138   3.884   0.826   0.411 -1.0483  0.7479 -0.6453
 2044TIP3    H2 6139   3.847   0.830   0.558  0.3103 -0.6976 -0.2308
 2045TIP3   OH2 6140   0.594   3.294   2.311  0.1403 -0.3318 -0.0994
 2045TIP3    H1 6141   0.588   3.261   2.400 -0.2960 -0.1590 -0.0655
 2045TIP3    H2 6142   0.622   3.218   2.259  0.0344 -0.5219  0.1203
 2046TIP3   OH2 6143   0.970   4.489   3.106  0.0219  0.1568 -0.6400
 2046TIP3    H1 6144   1.014   4.575   3.106 -0.7813  0.6169  0.7914
 2046TIP3    H2 6145   0.886   4.506   3.064 -0.1400  0.0924 -0.3482
 2047TIP3   OH2 6146   6.245   0.959   4.428 -0.6081  0.0923 -0.6246
 2047TIP3    H1 6147   6.152   0.952   4.405 -1.4865  1.5514  2.0112
 2047TIP3    H2 6148   6.255   0.900   4.503  0.2344  0.9692 -0.0338
 2048TIP3   OH2 6149   1.821   4.613   5.011 -0.0022  0.0990  0.7169
 2048TIP3    H1 6150   1.907   4.593   5.047 -0.6112 -0.3581  1.9613
 2048TIP3    H2 6151   1.826   4.585   4.919  0.9753 -0.4882  0.9401
 2049TIP3   OH2 6152   2.449   1.657   3.114 -1.2555 -0.0555 -0.2388
 2049TIP3    H1 6153   2.407   1.571   3.101  0.2866 -0.7974 -0.4909
 2049TIP3    H2 6154   2.455   1.665   3.209 -2.2229  0.2118 -0.1826
 2050TIP3   OH2 6155   2.860   5.708   1.822  0.2078  0.0467 -0.1068
 2050TIP3    H1 6156   2.845   5.627   1.773  0.9064 -0.6104  0.7263
 2050TIP3    H2 6157   2.951   5.731   1.802  0.1142  0.4419 -0.0796
 2051TIP3   OH2 6158   2.317   0.441   0.218  0.4762  0.0648 -1.0790
 2051TIP3    H1 6159   2.400   0.428   0.173  1.6807  2.2618  0.3460
 2051TIP3    H2 6160   2.323   0.386   0.296  0.4101 -0.0911 -1.1832
 2052TIP3   OH2 6161   4.226   5.298   2.942 -0.0207  0.1502  0.5828
 2052TIP3    H1 6162   4.193   5.372   2.892  1.8754  2.0512  1.9660
 2052TIP3    H2 6163   4.180   5.304   3.026 -1.0331 -1.2728  0.1762
 2053TIP3   OH2 6164   3.881   0.671   0.300 -0.1418 -0.0891  0.2957
 2053TIP3    H1 6165   3.968   0.710   0.295 -0.4230  0.6337  0.8027
 2053TIP3    H2 6166   3.837   0.697   0.219 -1.2078  2.9125  1.6864
 2054TIP3   OH2 6167   2.009   4.471   3.489 -0.0816  0.3087 -0.1236
 2054TIP3    H1 6168   2.099   4.443   3.477 -0.3790 -0.9359  0.4066
 2054TIP3    H2 6169   2.014   4.546   3.548  0.4929 -0.7364  1.1810
 2055TIP3   OH2 6170   2.767   4.075   2.116  0.1124  0.2067 -0.2698
 2055TIP3    H1 6171   2.833   4.087   2.184  0.7997  0.6250 -0.9992
 2055TIP3    H2 6172   2.803   4.118   2.039 -1.0332  0.4848 -0.6760
 2056TIP3   OH2 6173   3.482   5.638   4.101 -0.1889  0.1369 -0.7446
 2056TIP3    H1 6174   3.454   5.728   4.120 -1.3312  0.3416 -3.0496
 2056TIP3    H2 6175   3.530   5.611   4.180 -2.5621  1.6022  1.3681
 2057TIP3   OH2 6176   0.279   4.943   3.245  0.4366 -0.7847 -0.4915
 2057TIP3    H1 6177   0.282   4.930   3.340  1.5205  0.7516 -0.2627
 2057TIP3    H2 6178   0.215   5.013   3.233 -0.6162 -1.8204 -1.0343
 2058TIP3   OH2 6179   5.706   4.832   0.273  0.5812 -0.1569  0.6260
 2058TIP3    H1 6180   5.756   4.824   0.354  1.2931 -0.1965  0.1932
 2058TIP3    H2 6181   5.654   4.911   0.285 -0.0999 -0.7248  1.5284
 2059TIP3   OH2 6182   5.811   3.732   2.400  0.3434  0.1001 -0.1947
 2059TIP3    H1 6183   5.744   3.755   2.464 -0.8560  1.1025 -1.7546
 2059TIP3    H2 6184   5.835   3.642   2.422 -0.6733  0.1129  1.0941
 2060TIP3   OH2 6185   1.520   3.773   1.457  0.1149  0.2445 -0.4025
 2060TIP3    H1 6186   1.576   3.759   1.381  1.3175  0.8347  0.3468
 2060TIP3    H2 6187   1.579   3.772   1.532 -1.1448 -1.2405  0.6572
 2061TIP3   OH2 6188   3.039   0.867   3.102 -0.2091  0.8378 -0.3836
 2061TIP3    H1 6189   2.965   0.818   3.136  0.7277  0.0458  0.5823
 2061TIP3    H2 6190   3.103   0.868   3.173  0.5897  1.7775 -1.0695
 2062TIP3   OH2 6191   3.655   2.365   0.623 -0.3997  0.0793  0.3999
 2062TIP3    H1 6192   3.592   2.432   0.597 -1.5517 -0.9709  0.3751
 2062TIP3    H2 6193   3.728   2.375   0.562 -0.6647  1.1446  0.2475
 2063TIP3   OH2 6194   2.155   3.692   0.644  0.2439 -0.0716 -0.2093
 2063TIP3    H1 6195   2.072   3.693   0.597  0.4278 -2.5335 -0.6834
 2063TIP3    H2 6196   2.131   3.706   0.736 -0.3843  1.8232 -0.6114
 2064TIP3   OH2 6197   1.367   2.890   4.669 -0.1739 -0.7210  0.1498
 2064TIP3    H1 6198   1.439   2.919   4.725 -0.0908  0.0350 -0.3324
 2064TIP3    H2 6199   1.405   2.887   4.581 -0.9709  0.7312 -0.2938
 2065TIP3   OH2 6200   5.711   0.617   0.293 -0.1492  0.4184 -0.4298
 2065TIP3    H1 6201   5.794   0.573   0.275  0.1921  0.1664  1.5130
 2065TIP3    H2 6202   5.705   0.685   0.226  0.9142 -0.4651 -1.4672
 2066TIP3   OH2 6203   1.976   3.165   1.067  0.2814  0.0908 -0.2865
 2066TIP3    H1 6204   2.064   3.142   1.036  0.5624 -0.0813  0.5896
 2066TIP3    H2 6205   1.961   3.105   1.140  0.0223  1.0616  0.4713
 2067TIP3   OH2 6206   5.470   1.520   0.438  0.8538 -0.1914  0.3865
 2067TIP3    H1 6207   5.534   1.590   0.455  1.0385 -0.5723  1.3625
 2067TIP3    H2 6208   5.462   1.517   0.343  1.5473  0.5319  0.2909
 2068TIP3   OH2 6209   2.369   0.827   0.943  0.1936 -1.0321 -0.0094
 2068TIP3    H1 6210   2.332   0.914   0.933 -1.6737 -1.7576 -0.0062
 2068TIP3    H2 6211   2.419   0.812   0.863  0.5620  0.0450  0.0081
 2069TIP3   OH2 6212   6.005   3.814   0.665  0.0029  0.2875  0.0811
 2069TIP3    H1 6213   6.085   3.791   0.713 -0.1937  0.1411  0.3366
 2069TIP3    H2 6214   6.006   3.756   0.588 -0.4166 -0.4819  0.6474
 2070TIP3   OH2 6215   3.915   1.763   1.077 -0.5425  0.2600 -0.2602
 2070TIP3    H1 6216   3.882   1.683   1.036 -0.9964  0.1433  0.3119
 2070TIP3    H2 6217   4.004   1.742   1.104 -0.2826  0.3023 -1.0790
 2071TIP3   OH2 6218   0.548   2.130   0.482  0.4332  0.1965 -0.2786
 2071TIP3    H1 6219   0.547   2.113   0.576 -0.3667  0.2743 -0.2688
 2071TIP3    H2 6220   0.610   2.066   0.447  0.9576  0.3638  0.3375
 2072TIP3   OH2 6221   4.530   3.220   0.878 -0.0049  0.0546 -0.0612
 2072TIP3    H1 6222   4.483   3.277   0.940  0.9461  0.4807  0.2859
 2072TIP3    H2 6223   4.484   3.136   0.884 -2.1402  1.0516 -1.4102
 2073TIP3   OH2 6224   6.026   5.724   3.296 -0.5191 -0.0375  0.2650
 2073TIP3    H1 6225   6.001   5.785   3.365 -2.3313 -0.5923  0.1543
 2073TIP3    H2 6226   6.120   5.713   3.307 -0.4989  1.1408  1.6080
 2074TIP3   OH2 6227   3.607   2.434   1.290 -0.5985  0.4969  0.2018
 2074TIP3    H1 6228   3.569   2.347   1.299 -1.3094  0.6929 -0.7525
 2074TIP3    H2 6229   3.618   2.465   1.380 -0.7938 -0.3793  0.5345
 2075TIP3   OH2 6230   1.027   0.228   2.615 -0.3810  0.2768  0.4812
 2075TIP3    H1 6231   0.950   0.187   2.575  0.4450 -0.0963 -0.7877
 2075TIP3    H2 6232   1.082   0.254   2.541  0.7089  0.5604  1.3598
 2076TIP3   OH2 6233   4.882   4.388   0.407 -0.0339  0.2424 -0.3251
 2076TIP3    H1 6234   4.824   4.450   0.451 -1.2330 -1.6372  0.8744
 2076TIP3    H2 6235   4.916   4.436   0.331 -1.5059  2.0895  0.1314
 2077TIP3   OH2 6236   0.687   4.925   4.542  0.4204 -0.0422 -0.5858
 2077TIP3    H1 6237   0.660   4.834   4.532  0.0131 -0.2558  1.8784
 2077TIP3    H2 6238   0.612   4.968   4.583  0.8156  1.2764 -1.2012
 2078TIP3   OH2 6239   0.127   1.194   2.321 -0.7837  0.0713 -0.4028
 2078TIP3    H1 6240   0.082   1.234   2.246  1.3403  1.8874 -0.7869
 2078TIP3    H2 6241   0.123   1.260   2.390 -0.1903 -0.4362  0.1311
 2079TIP3   OH2 6242   5.899   2.763   3.470 -0.0136 -0.6369  0.4218
 2079TIP3    H1 6243   5.930   2.852   3.453 -1.5287 -0.1293  0.0670
 2079TIP3    H2 6244   5.951   2.732   3.543  0.1115  0.8027  0.9681
 2080TIP3   OH2 6245   4.370   4.810   2.907 -0.4070 -0.0419 -0.8994
 2080TIP3    H1 6246   4.332   4.745   2.848  0.4151 -0.9251 -0.4880
 2080TIP3    H2 6247   4.416   4.871   2.849  1.8245 -1.8341 -1.1779
 2081TIP3   OH2 6248   4.263   3.398   3.538 -0.3263 -0.4521  0.1313
 2081TIP3    H1 6249   4.180   3.428   3.573  0.0391  0.9415 -0.1467
 2081TIP3    H2 6250   4.329   3.450   3.584  0.6714 -3.5240  2.5100
 2082TIP3   OH2 6251   4.145   2.013   1.104 -0.2019  0.2193  0.5715
 2082TIP3    H1 6252   4.130   1.952   1.031  0.7810 -0.2141  0.7121
 2082TIP3    H2 6253   4.212   2.073   1.072  0.1269  0.1192  1.0532
 2083TIP3   OH2 6254   6.173   0.038   4.667  0.1903 -0.3818  0.1939
 2083TIP3    H1 6255   6.170  -0.043   4.616 -0.4888 -1.3990  1.7765
 2083TIP3    H2 6256   6.107   0.026   4.735  1.3792  0.7218  1.5980
 2084TIP3   OH2 6257   2.675   3.350   1.172  0.5116  0.2239 -0.4451
 2084TIP3    H1 6258   2.610   3.340   1.103 -0.1288 -2.5013  0.4302
 2084TIP3    H2 6259   2.751   3.389   1.129 -1.7310  4.1438 -1.3912
 2085TIP3   OH2 6260   3.607   0.242   5.110 -0.0039 -0.2042 -0.5982
 2085TIP3    H1 6261   3.514   0.253   5.090 -0.2331 -0.0413  0.5078
 2085TIP3    H2 6262   3.652   0.262   5.028 -0.8862  0.6762 -0.8799
 2086TIP3   OH2 6263   4.399   4.669   5.012 -0.0168 -0.4897  0.2933
 2086TIP3    H1 6264   4.329   4.624   4.966  0.1730 -0.0138 -0.4729
 2086TIP3    H2 6265   4.479   4.639   4.970  0.0876  0.9694 -0.6342
 2087TIP3   OH2 6266   0.686   3.604   0.976  0.0953 -0.0033  0.2000
 2087TIP3    H1 6267   0.731   3.662   0.914  0.8105 -2.0693 -1.3197
 2087TIP3    H2 6268   0.751   3.538   0.999 -1.6771 -2.3129 -0.9986
 2088TIP3   OH2 6269   4.806   1.067   1.600 -0.6301  0.9994 -0.4114
 2088TIP3    H1 6270   4.753   1.045   1.523  0.2569 -1.9485 -0.2976
 2088TIP3    H2 6271   4.775   1.008   1.669 -0.2109  2.3617  1.0323
 2089TIP3   OH2 6272   5.642   1.770   3.189 -0.1032 -0.2386  0.6575
 2089TIP3    H1 6273   5.582   1.810   3.126 -0.2067 -1.7326 -0.2394
 2089TIP3    H2 6274   5.600   1.782   3.274  0.3370  2.3814  0.6027
 2090TIP3   OH2 6275   0.473   2.012   2.068  0.1693  0.6623  0.1483
 2090TIP3    H1 6276   0.410   1.963   2.121 -0.4991  1.7053  0.3528
 2090TIP3    H2 6277   0.540   1.948   2.046  0.5161  0.1811  2.3166
 2091TIP3   OH2 6278   3.967   5.884   0.295 -0.3111  0.9208  0.1355
 2091TIP3    H1 6279   3.874   5.889   0.318  0.0994 -0.4243  2.3781
 2091TIP3    H2 6280   3.992   5.975   0.280 -1.2912  1.7193  2.7411
 2092TIP3   OH2 6281   0.328   3.055   3.319  0.0173 -0.1412 -0.2886
 2092TIP3    H1 6282   0.379   3.104   3.255 -1.3292 -0.1847 -1.4503
 2092TIP3    H2 6283   0.249   3.108   3.332 -0.8180 -1.2970 -0.5084
 2093TIP3   OH2 6284   1.621   4.039   3.571  0.1226  0.2824  0.1365
 2093TIP3    H1 6285   1.561   4.107   3.601 -0.0653  0.4358 -0.5623
 2093TIP3    H2 6286   1.700   4.087   3.544  1.0005  0.0059  2.0144
 2094TIP3   OH2 6287   0.326   2.378   3.670 -0.5694 -0.1582 -0.4667
 2094TIP3    H1 6288   0.246   2.325   3.668 -0.7923  0.1163  0.5437
 2094TIP3    H2 6289   0.305   2.454   3.617 -0.0114 -1.3581 -2.5151
 2095TIP3   OH2 6290   1.775   0.106   0.823 -0.0265  0.3456  0.2453
 2095TIP3    H1 6291   1.738   0.018   0.828  2.8024 -0.9205  1.1036
 2095TIP3    H2 6292   1.789   0.132   0.914  0.0320  1.2807 -0.0193
 2096TIP3   OH2 6293   5.313   0.819   1.689  0.6209  0.1864  0.1367
 2096TIP3    H1 6294   5.320   0.911   1.717 -0.0173  0.3725 -0.2717
 2096TIP3    H2 6295   5.278   0.824   1.600 -1.5877 -0.4770  0.8772
 2097TIP3   OH2 6296   4.885   0.531   4.795 -0.3223  0.2091  0.6963
 2097TIP3    H1 6297   4.860   0.466   4.729 -1.8225  0.4920  0.9483
 2097TIP3    H2 6298   4.827   0.605   4.779 -0.3137  0.5104  1.9521
 2098TIP3   OH2 6299   3.044   2.139   5.094 -0.1795  0.3398  0.1529
 2098TIP3    H1 6300   3.055   2.223   5.139 -1.4460  0.4088  0.3915
 2098TIP3    H2 6301   3.091   2.149   5.011 -0.1966  1.2373  0.2431
 2099TIP3   OH2 6302   6.176   1.975   1.535  0.1978 -0.0779 -0.5557
 2099TIP3    H1 6303   6.130   1.899   1.502  1.6052 -1.4522  0.5007
 2099TIP3    H2 6304   6.195   1.955   1.627 -1.0769  2.3843  0.3521
 2100TIP3   OH2 6305   3.714   5.981  -0.017  0.3172 -0.1493  0.7784
 2100TIP3    H1 6306   3.756   5.898   0.005  0.9885  0.5166  2.1505
 2100TIP3    H2 6307   3.641   5.988   0.044 -0.9876 -0.6386 -0.6711
 2101TIP3   OH2 6308   4.757   5.117   2.877  0.2710 -0.3527 -0.3066
 2101TIP3    H1 6309   4.667   5.106   2.909  1.0332  0.1879  2.2559
 2101TIP3    H2 6310   4.753   5.196   2.822 -0.7958 -0.3019 -0.1806
 2102TIP3   OH2 6311   1.108   2.048   3.867 -0.4843 -0.0509  0.1739
 2102TIP3    H1 6312   1.019   2.053   3.831 -0.1130 -3.0278 -1.4244
 2102TIP3    H2 6313   1.095   2.054   3.962 -1.9151  3.3553 -0.0619
 2103TIP3   OH2 6314   3.273   3.093   4.135  0.0754 -0.5016 -0.1994
 2103TIP3    H1 6315   3.219   3.114   4.211 -0.0949 -0.3285 -0.3643
 2103TIP3    H2 6316   3.272   3.173   4.082  1.2921 -0.1511  0.2593
 2104TIP3   OH2 6317   2.704   4.730   1.285  0.0133  0.4692 -0.3009
 2104TIP3    H1 6318   2.658   4.657   1.327 -0.2029  0.0487 -1.2399
 2104TIP3    H2 6319   2.789   4.734   1.329 -0.0899 -0.1573 -0.0361
 2105TIP3   OH2 6320   1.692   3.677   3.782 -0.0484  0.2202 -1.1525
 2105TIP3    H1 6321   1.602   3.694   3.811  0.1446  1.8664 -1.4723
 2105TIP3    H2 6322   1.717   3.598   3.829 -0.9944  0.8246  0.4280
 2106TIP3   OH2 6323   0.106   5.162   2.325 -0.2039  0.0951  0.0818
 2106TIP3    H1 6324   0.033   5.208   2.283 -0.5226  0.2758  0.8166
 2106TIP3    H2 6325   0.081   5.070   2.321  0.0280  0.0558 -0.6132
 2107TIP3   OH2 6326   5.421   1.580   5.096 -0.1086 -0.2023  0.1057
 2107TIP3    H1 6327   5.346   1.588   5.037 -0.1100 -0.1691  0.1120
 2107TIP3    H2 6328   5.491   1.628   5.052  0.0368 -0.6056 -0.1119
 2108TIP3   OH2 6329   2.185   1.267   2.746  0.5879  0.2888  0.5680
 2108TIP3    H1 6330   2.188   1.212   2.825  2.8360 -2.7604 -1.4274
 2108TIP3    H2 6331   2.157   1.207   2.676 -0.4404  2.6566 -1.2044
 2109TIP3   OH2 6332   4.641   5.595   4.702 -0.1336 -0.5077 -0.3369
 2109TIP3    H1 6333   4.635   5.649   4.623 -0.7345 -0.4105 -0.2285
 2109TIP3    H2 6334   4.550   5.578   4.727  0.0460 -0.1624  0.5900
 2110TIP3   OH2 6335   1.934   3.513   1.836  0.1348  0.2781  0.5109
 2110TIP3    H1 6336   1.875   3.438   1.844  0.5079  0.0245  0.9459
 2110TIP3    H2 6337   1.982   3.514   1.919  0.7545  0.4667  0.1577
 2111TIP3   OH2 6338   4.027   4.192   1.760  0.6795  0.4171  0.5722
 2111TIP3    H1 6339   3.948   4.168   1.809  0.4445  0.6312  0.2959
 2111TIP3    H2 6340   4.040   4.120   1.699  1.1448  0.0003  1.1432
 2112TIP3   OH2 6341   4.701   5.055   0.132 -0.6166  0.1567  0.1330
 2112TIP3    H1 6342   4.784   5.017   0.161 -0.5332 -0.5338 -0.9590
 2112TIP3    H2 6343   4.651   5.066   0.212  0.2490 -0.1054  0.7286
 2113TIP3   OH2 6344   3.466   5.647   0.491 -0.1022  0.5895  0.7194
 2113TIP3    H1 6345   3.426   5.594   0.422 -0.5683 -0.3273  1.6542
 2113TIP3    H2 6346   3.516   5.714   0.445  0.7782 -0.8670 -0.5148
 2114TIP3   OH2 6347   4.561   3.966   1.052  0.4853 -0.3344 -0.0643
 2114TIP3    H1 6348   4.579   3.940   0.962 -0.7232 -0.8340 -0.1670
 2114TIP3    H2 6349   4.597   3.895   1.106 -0.8449 -1.1886 -0.2605
 2115TIP3   OH2 6350   0.265   1.527   3.171 -0.7721 -0.3159  0.6865
 2115TIP3    H1 6351   0.332   1.470   3.208 -0.9470 -0.0891  1.3708
 2115TIP3    H2 6352   0.269   1.606   3.224 -0.7491  0.1875 -0.0512
 2116TIP3   OH2 6353   0.975   5.744   2.877 -0.0412 -0.1247  0.5378
 2116TIP3    H1 6354   1.068   5.720   2.883  0.0024 -0.0139  0.3144
 2116TIP3    H2 6355   0.931   5.664   2.849 -0.4730 -1.1361  3.7262
 2117TIP3   OH2 6356   5.585   3.321   0.856 -0.6072 -0.0066 -0.6933
 2117TIP3    H1 6357   5.663   3.268   0.874 -0.6330 -1.0159 -3.1529
 2117TIP3    H2 6358   5.607   3.370   0.777 -1.7569  1.2876 -0.2591
 2118TIP3   OH2 6359   1.984   5.030   0.203  0.2884  0.5281  0.0372
 2118TIP3    H1 6360   1.977   5.107   0.259 -0.5433 -0.1879  0.9672
 2118TIP3    H2 6361   2.062   4.984   0.236 -1.2073 -0.8434  1.9394
 2119TIP3   OH2 6362   3.541   3.192   4.072 -0.0164 -0.1672 -0.1794
 2119TIP3    H1 6363   3.457   3.183   4.026 -0.1465  1.5733 -0.3428
 2119TIP3    H2 6364   3.520   3.171   4.163 -1.2677  2.5992  0.2749
 2120TIP3   OH2 6365   3.036   2.689   0.731  0.5000  0.5962  0.1741
 2120TIP3    H1 6366   3.027   2.631   0.807 -0.5575 -0.9098 -1.0487
 2120TIP3    H2 6367   3.124   2.727   0.740  0.9180 -0.5903  1.4270
 2121TIP3   OH2 6368   0.597   4.938   5.063  1.0627  0.3934 -0.2950
 2121TIP3    H1 6369   0.511   4.905   5.037  0.5517  0.6582  0.9931
 2121TIP3    H2 6370   0.611   5.014   5.007  1.3788 -0.7959 -1.9137
 2122TIP3   OH2 6371   1.877   4.171   5.094  0.6656 -0.5166  0.2902
 2122TIP3    H1 6372   1.947   4.199   5.153  1.2033 -0.6326 -0.2714
 2122TIP3    H2 6373   1.838   4.095   5.136 -0.0106  0.3433  1.2487
 2123TIP3   OH2 6374   4.660   3.019   3.043  0.0847  0.4348  0.1480
 2123TIP3    H1 6375   4.666   3.096   2.987 -0.5490  0.9645  0.7719
 2123TIP3    H2 6376   4.632   3.054   3.128 -0.6097 -0.5209  0.3354
 2124TIP3   OH2 6377   3.161   2.924   1.613  0.0749  0.0823  0.1082
 2124TIP3    H1 6378   3.068   2.902   1.623  0.4644 -1.1630  1.4343
 2124TIP3    H2 6379   3.187   2.880   1.532 -0.7753  1.5977 -1.0428
 2125TIP3   OH2 6380   6.093   3.603   3.078 -0.2833 -0.4828  0.0106
 2125TIP3    H1 6381   6.016   3.588   3.023 -0.2149  0.4755 -0.3605
 2125TIP3    H2 6382   6.163   3.622   3.016  0.0583 -0.5029  0.3894
 2126TIP3   OH2 6383   4.134   1.022   1.659 -0.4511 -0.6750 -0.0740
 2126TIP3    H1 6384   4.087   0.971   1.593 -1.2566  0.4444 -0.3946
 2126TIP3    H2 6385   4.192   0.958   1.701 -2.5961 -2.2539  0.7008
 2127TIP3   OH2 6386   5.289   5.678   3.886 -0.4344  0.0671 -0.0895
 2127TIP3    H1 6387   5.226   5.641   3.947 -2.2122  0.8407 -1.3852
 2127TIP3    H2 6388   5.350   5.726   3.942  1.8328 -4.3111  1.6308
 2128TIP3   OH2 6389   3.575   0.574   2.377 -0.1626 -0.5197  0.3203
 2128TIP3    H1 6390   3.607   0.542   2.293  1.7676  0.1538  0.7483
 2128TIP3    H2 6391   3.480   0.577   2.367  0.0119 -0.6166 -1.7677
 2129TIP3   OH2 6392   6.309   1.138   1.029 -0.0447 -0.4177 -0.2534
 2129TIP3    H1 6393   6.247   1.165   0.962 -0.6641 -2.2344 -0.4418
 2129TIP3    H2 6394   6.267   1.065   1.074  1.7124 -1.3456 -0.0172
 2130TIP3   OH2 6395   6.113   2.092   4.570 -0.1457  0.4766  0.0422
 2130TIP3    H1 6396   6.188   2.041   4.539 -1.3161 -0.0385 -2.1592
 2130TIP3    H2 6397   6.152   2.169   4.612  1.6208  0.2954 -1.1396
 2131TIP3   OH2 6398   6.291   3.482   2.659 -0.2720  0.1046  0.6030
 2131TIP3    H1 6399   6.197   3.487   2.672 -0.3800  0.0240 -0.1016
 2131TIP3    H2 6400   6.305   3.516   2.570  0.2704 -0.6466  0.3902
 2132TIP3   OH2 6401   3.040   2.532   4.733 -0.0356  0.0603 -0.0399
 2132TIP3    H1 6402   3.047   2.531   4.638  2.9508  2.0584  0.0010
 2132TIP3    H2 6403   3.021   2.623   4.755 -0.7073 -0.3779  1.2953
 2133TIP3   OH2 6404   3.306   1.563   5.120  0.1190  0.0127 -0.4399
 2133TIP3    H1 6405   3.388   1.516   5.135  0.7901  1.3664  0.3499
 2133TIP3    H2 6406   3.264   1.566   5.207 -0.6429 -0.4238 -0.7805
 2134TIP3   OH2 6407   0.924   1.247   4.593  0.1352 -0.2650 -0.0928
 2134TIP3    H1 6408   0.935   1.276   4.503 -0.7327  0.0194 -0.1206
 2134TIP3    H2 6409   0.870   1.168   4.586  2.0289 -1.6190  0.0182
 2135TIP3   OH2 6410   5.339   3.028   2.450 -0.0159  0.2285 -0.1413
 2135TIP3    H1 6411   5.291   2.995   2.373  0.5639  1.4295 -1.0517
 2135TIP3    H2 6412   5.341   3.123   2.437  0.1340  0.4413  1.3594
 2136TIP3   OH2 6413   5.261   1.523   3.974 -0.6003  0.0047 -0.1772
 2136TIP3    H1 6414   5.310   1.580   3.915 -0.0727 -0.8607 -0.5833
 2136TIP3    H2 6415   5.258   1.571   4.056 -1.2103  1.1633 -0.8476
 2137TIP3   OH2 6416   2.914   3.655   3.669 -0.1229 -0.2068 -0.1511
 2137TIP3    H1 6417   2.996   3.609   3.689  0.2677  0.6534  0.3140
 2137TIP3    H2 6418   2.880   3.611   3.591  1.5740  0.3588 -1.2858
 2138TIP3   OH2 6419   3.408   2.702   1.458 -0.4162 -0.2173 -0.2345
 2138TIP3    H1 6420   3.359   2.620   1.466  1.4861 -1.3101  0.9113
 2138TIP3    H2 6421   3.391   2.748   1.540  0.4225 -0.6031  0.1695
 2139TIP3   OH2 6422   3.872   3.108   3.080  0.0650 -0.5639  0.0246
 2139TIP3    H1 6423   3.919   3.141   3.157  0.7565  0.0661 -0.6446
 2139TIP3    H2 6424   3.895   3.016   3.076  1.4072 -0.2381 -0.3666
 2140TIP3   OH2 6425   0.400   1.479   2.452  0.4429 -0.2077  0.6139
 2140TIP3    H1 6426   0.455   1.514   2.382  0.5350 -0.9447  0.3168
 2140TIP3    H2 6427   0.461   1.429   2.507  0.6114  1.3174  1.9054
 2141TIP3   OH2 6428   5.198   2.061   1.647  0.2380 -0.0093 -0.0097
 2141TIP3    H1 6429   5.232   2.110   1.722  0.4901  0.5328 -0.4703
 2141TIP3    H2 6430   5.125   2.010   1.682  1.9495 -1.7894  1.1695
 2142TIP3   OH2 6431   4.119   0.164   1.485  0.4016  0.0281  0.1978
 2142TIP3    H1 6432   4.117   0.145   1.391 -0.0146  1.1607 -0.0370
 2142TIP3    H2 6433   4.064   0.096   1.524  1.3849 -1.0524 -0.2532
 2143TIP3   OH2 6434   1.497   4.247   0.257 -0.1759  0.0572  0.6378
 2143TIP3    H1 6435   1.450   4.321   0.295  0.0291 -0.7660  2.5996
 2143TIP3    H2 6436   1.580   4.285   0.225 -0.8382  0.9635 -0.0851
 2144TIP3   OH2 6437   1.333   1.388   0.558  0.1003  0.0727 -0.5126
 2144TIP3    H1 6438   1.259   1.441   0.528 -0.8943 -1.2671 -0.5039
 2144TIP3    H2 6439   1.399   1.397   0.489 -0.2666  0.8706 -0.7664
 2145TIP3   OH2 6440   2.144   2.472   4.899 -0.0001 -0.6251  0.0223
 2145TIP3    H1 6441   2.190   2.437   4.975  0.3998 -0.0241  0.0666
 2145TIP3    H2 6442   2.214   2.493   4.836 -0.1757  0.4844  0.1684
 2146TIP3   OH2 6443   5.658   4.198   4.813 -0.1923  0.7094 -0.2574
 2146TIP3    H1 6444   5.576   4.208   4.860 -1.7702 -0.9566 -2.4681
 2146TIP3    H2 6445   5.696   4.117   4.848 -1.3880 -0.5559 -1.7740
 2147TIP3   OH2 6446   2.034   1.431   3.102  0.9569 -0.6479 -0.8522
 2147TIP3    H1 6447   1.985   1.359   3.061 -0.4958 -1.5536  2.2151
 2147TIP3    H2 6448   2.085   1.390   3.171 -1.4901  1.3488  2.4030
 2148TIP3   OH2 6449   2.724   1.458   3.525 -0.0262  0.7598 -0.3127
 2148TIP3    H1 6450   2.765   1.429   3.607  0.6263  1.8226 -0.2513
 2148TIP3    H2 6451   2.737   1.384   3.465  0.4581  0.4029  0.2155
 2149TIP3   OH2 6452   5.763   4.048   3.238 -0.3234 -0.5878  0.2151
 2149TIP3    H1 6453   5.724   4.021   3.321 -1.1498  0.3325  0.1327
 2149TIP3    H2 6454   5.727   3.987   3.174 -0.2120 -0.8718  0.4205
 2150TIP3   OH2 6455   3.144   5.722   3.980  0.1041 -0.7658 -0.2054
 2150TIP3    H1 6456   3.172   5.777   4.053  1.0793 -1.4590 -0.0450
 2150TIP3    H2 6457   3.058   5.690   4.006 -0.2024  0.1753 -0.0290
 2151TIP3   OH2 6458   3.372   1.067   1.950 -0.1040  0.1841 -0.9051
 2151TIP3    H1 6459   3.423   1.097   1.875 -0.4819 -0.0734 -1.2690
 2151TIP3    H2 6460   3.404   0.978   1.966  0.3664  0.4379 -0.4077
 2152TIP3   OH2 6461   2.221   4.911   3.427  0.0169  0.3724  0.1052
 2152TIP3    H1 6462   2.197   4.997   3.459  1.3531  0.8068  0.0026
 2152TIP3    H2 6463   2.305   4.892   3.468  0.3017 -0.3757 -0.7750
 2153TIP3   OH2 6464   6.117   5.179   0.060  0.2619  0.1140 -0.0594
 2153TIP3    H1 6465   6.083   5.241  -0.004 -0.0174 -0.7327 -0.7507
 2153TIP3    H2 6466   6.040   5.154   0.112  0.5001  0.8586  0.6813
 2154TIP3   OH2 6467   3.788   4.870   2.244  0.1158  0.7197 -0.6832
 2154TIP3    H1 6468   3.833   4.819   2.312 -3.4823 -0.5831  0.9967
 2154TIP3    H2 6469   3.827   4.957   2.250  1.5707  0.0080  1.4509
 2155TIP3   OH2 6470   1.364   4.893   3.709 -0.3705  0.1395  0.0753
 2155TIP3    H1 6471   1.458   4.876   3.697 -0.5347  0.5564 -2.2485
 2155TIP3    H2 6472   1.320   4.829   3.654 -1.3111  1.7892 -1.1932
 2156TIP3   OH2 6473   0.849   4.790   2.885 -0.0775  0.5628 -0.2808
 2156TIP3    H1 6474   0.926   4.778   2.940 -1.3781 -0.0014  1.5432
 2156TIP3    H2 6475   0.852   4.718   2.822 -0.0459 -0.5323  0.9457
 2157TIP3   OH2 6476   2.182   5.699   1.370 -0.3499 -0.0123 -0.5709
 2157TIP3    H1 6477   2.092   5.732   1.375 -1.1535 -1.4008 -3.5638
 2157TIP3    H2 6478   2.216   5.736   1.289  0.2328 -2.8264 -1.7073
 2158TIP3   OH2 6479   5.570   1.681   0.180 -0.5176  0.3038 -0.5122
 2158TIP3    H1 6480   5.635   1.697   0.247  0.2545 -2.0252 -0.6223
 2158TIP3    H2 6481   5.512   1.757   0.184  0.2711  0.8509  1.8490
 2159TIP3   OH2 6482   2.482   2.096   4.084 -0.3021  0.2437  0.2160
 2159TIP3    H1 6483   2.492   2.156   4.157  1.6059 -1.8059  1.7835
 2159TIP3    H2 6484   2.404   2.044   4.106 -0.9113  0.9328 -0.2599
 2160TIP3   OH2 6485   0.716   3.648   1.550 -0.3797  0.7089  0.1765
 2160TIP3    H1 6486   0.644   3.709   1.532 -1.2091 -0.1212  0.6080
 2160TIP3    H2 6487   0.787   3.678   1.494 -2.2843 -0.7894 -3.4184
 2161TIP3   OH2 6488   2.544   0.339   3.919  0.1455  0.4360  0.3126
 2161TIP3    H1 6489   2.623   0.301   3.882 -0.9381 -1.5519 -0.1195
 2161TIP3    H2 6490   2.541   0.428   3.883  2.0857  0.5176  0.2624
 2162TIP3   OH2 6491   1.495   3.178   1.369  0.1785 -0.6041 -0.3673
 2162TIP3    H1 6492   1.411   3.218   1.392 -0.3687 -2.2201  0.6016
 2162TIP3    H2 6493   1.557   3.213   1.434 -0.7763 -2.9496  2.0174
 2163TIP3   OH2 6494   5.028   4.087   3.031 -0.3080 -0.1623  0.4748
 2163TIP3    H1 6495   5.005   3.994   3.027 -1.5109  0.1377 -0.3270
 2163TIP3    H2 6496   4.957   4.127   3.082  0.0395  0.3490  0.5608
 2164TIP3   OH2 6497   2.756   5.357   2.490 -0.0607 -0.6034 -0.1388
 2164TIP3    H1 6498   2.665   5.338   2.516 -0.9882  1.0512 -1.8849
 2164TIP3    H2 6499   2.754   5.449   2.464  1.9536 -0.7636 -1.0097
 2165TIP3   OH2 6500   5.910   4.040   1.194 -0.3101 -0.0527 -0.0873
 2165TIP3    H1 6501   5.955   4.098   1.133 -0.6086 -0.2298 -0.4749
 2165TIP3    H2 6502   5.829   4.086   1.216 -0.9085 -0.6411 -0.9765
 2166TIP3   OH2 6503   4.318   2.094   4.042  0.4975 -0.0632  0.6831
 2166TIP3    H1 6504   4.399   2.100   4.092  1.1265  0.8358 -0.3972
 2166TIP3    H2 6505   4.307   2.000   4.025  1.5167 -0.1615  0.5135
 2167TIP3   OH2 6506   0.621   2.613   5.025 -0.0303  0.4074 -0.0802
 2167TIP3    H1 6507   0.656   2.525   5.014 -0.2499  0.5445 -2.3853
 2167TIP3    H2 6508   0.577   2.632   4.942 -1.9137  1.8555  1.1793
 2168TIP3   OH2 6509   2.128   2.366   4.524  0.1616  0.0665  0.3095
 2168TIP3    H1 6510   2.146   2.437   4.586 -0.0301 -0.1139  0.5772
 2168TIP3    H2 6511   2.179   2.292   4.558 -0.6765 -0.3011  0.7864
 2169TIP3   OH2 6512   1.180   5.396   3.070 -0.4821  0.9685  0.5863
 2169TIP3    H1 6513   1.102   5.447   3.094  0.1073  0.6552  3.6118
 2169TIP3    H2 6514   1.248   5.429   3.128 -0.1192 -3.3116  2.9975
 2170TIP3   OH2 6515   6.282   5.662   3.578 -0.5354 -0.0325  0.1070
 2170TIP3    H1 6516   6.272   5.663   3.483 -0.3718  1.2247  0.0876
 2170TIP3    H2 6517   6.372   5.635   3.593 -0.9770 -1.6570 -0.0347
 2171TIP3   OH2 6518   5.139   1.849   0.332 -0.1250  0.1328  0.1543
 2171TIP3    H1 6519   5.102   1.806   0.409 -0.6104  0.1367 -0.0759
 2171TIP3    H2 6520   5.066   1.858   0.272  0.7063 -1.9810 -1.2828
 2172TIP3   OH2 6521   1.878   0.369   0.202  0.7267 -0.6750 -0.0876
 2172TIP3    H1 6522   1.790   0.377   0.164  1.5712  0.2782 -2.0067
 2172TIP3    H2 6523   1.865   0.381   0.296 -1.0473  0.6794 -0.4479
 2173TIP3   OH2 6524   3.137   3.796   4.412  0.1453  0.2582 -0.2599
 2173TIP3    H1 6525   3.135   3.778   4.318 -0.9370  0.6947 -0.3445
 2173TIP3    H2 6526   3.191   3.875   4.420 -0.6652  0.8810 -0.6696
 2174TIP3   OH2 6527   4.677   0.235   3.485  0.2234 -0.4392  0.1573
 2174TIP3    H1 6528   4.736   0.180   3.537  0.5488 -1.0123 -0.7893
 2174TIP3    H2 6529   4.684   0.321   3.525 -1.0453 -1.2517  2.2831
 2175TIP3   OH2 6530   4.105   4.980   4.481  0.6898 -0.0828  0.0822
 2175TIP3    H1 6531   4.148   4.991   4.397  1.5902 -2.7748  0.0990
 2175TIP3    H2 6532   4.022   4.936   4.460 -0.2376  1.4327  0.4233
 2176TIP3   OH2 6533   2.816   5.646   0.915  0.7665 -0.0242 -0.2267
 2176TIP3    H1 6534   2.733   5.599   0.916  0.5341  0.3340 -1.2564
 2176TIP3    H2 6535   2.866   5.609   0.988 -0.6693  0.4526  1.0424
 2177TIP3   OH2 6536   0.715   1.712   0.110  0.4471  0.5737  0.3189
 2177TIP3    H1 6537   0.660   1.790   0.109  0.4220  0.5555  0.2717
 2177TIP3    H2 6538   0.717   1.683   0.019  0.4356  0.5051  0.3404
 2178TIP3   OH2 6539   5.874   5.545   3.979  0.3161 -0.1213 -0.0530
 2178TIP3    H1 6540   5.877   5.625   3.926  1.7817 -0.8679 -1.1657
 2178TIP3    H2 6541   5.887   5.474   3.916  2.6634 -1.0087  1.3066
 2179TIP3   OH2 6542   2.216   2.925   3.028 -0.2119 -0.1639  0.7836
 2179TIP3    H1 6543   2.271   2.858   3.069  1.0363 -0.8642 -1.7746
 2179TIP3    H2 6544   2.129   2.886   3.025 -0.0027 -0.7000  1.3898
 2180TIP3   OH2 6545   1.751   3.783   1.320 -0.9460  0.4000 -0.1470
 2180TIP3    H1 6546   1.774   3.764   1.229 -0.9588 -4.0883  0.5609
 2180TIP3    H2 6547   1.832   3.814   1.360 -0.2011 -0.2762 -1.0996
 2181TIP3   OH2 6548   1.794   4.710   4.127  0.2007  0.2614  0.3841
 2181TIP3    H1 6549   1.839   4.769   4.067 -0.3139  0.1917 -0.0730
 2181TIP3    H2 6550   1.814   4.622   4.093  2.0078  0.0806  1.7760
 2182TIP3   OH2 6551   2.723   4.102   3.437 -0.1570 -0.6381  0.6644
 2182TIP3    H1 6552   2.732   4.072   3.527  1.0680 -0.1557  0.7205
 2182TIP3    H2 6553   2.789   4.052   3.388  1.3062  1.2345  0.6034
 2183TIP3   OH2 6554   5.434   2.729   0.651 -0.3219  0.4218 -0.5057
 2183TIP3    H1 6555   5.498   2.799   0.639 -0.4364  0.4860 -0.7543
 2183TIP3    H2 6556   5.371   2.764   0.714  0.0969  0.2124  0.0443
 2184TIP3   OH2 6557   1.988   5.306   4.431  0.0782  0.2687  0.2134
 2184TIP3    H1 6558   1.926   5.374   4.405 -0.1705  0.3066  0.9096
 2184TIP3    H2 6559   2.026   5.338   4.512  1.3474  0.4584 -0.4345
 2185TIP3   OH2 6560   3.518   1.288   0.064 -0.3436  0.1288 -0.2733
 2185TIP3    H1 6561   3.518   1.372   0.016 -1.7019 -0.6331 -1.7014
 2185TIP3    H2 6562   3.451   1.299   0.131  0.0325  0.4339  0.0635
 2186TIP3   OH2 6563   6.034   0.125   0.506  0.3696 -0.5014  0.2708
 2186TIP3    H1 6564   6.118   0.162   0.534  1.8318 -3.2459 -0.1192
 2186TIP3    H2 6565   6.022   0.049   0.562 -0.6629 -1.5324 -1.2739
 2187TIP3   OH2 6566   3.624   3.340   2.067 -0.2215 -0.2041 -0.9495
 2187TIP3    H1 6567   3.542   3.384   2.089  0.5021  0.8431 -0.1963
 2187TIP3    H2 6568   3.689   3.381   2.124  0.5597 -2.1092 -0.3820
 2188TIP3   OH2 6569   0.406   1.317   3.283 -0.5847 -0.0507  0.3839
 2188TIP3    H1 6570   0.467   1.325   3.210 -0.1730 -0.0598  0.7197
 2188TIP3    H2 6571   0.385   1.224   3.287 -0.1185 -0.1485  0.6617
 2189TIP3   OH2 6572   3.483   1.458   3.480  0.4971 -0.0416  0.0846
 2189TIP3    H1 6573   3.556   1.431   3.535  0.1324 -0.4950  0.3586
 2189TIP3    H2 6574   3.524   1.499   3.404  1.0038  0.5684  0.6747
 2190TIP3   OH2 6575   0.419   1.758   3.316  0.0198  0.6746  0.3939
 2190TIP3    H1 6576   0.363   1.809   3.257 -1.2489 -1.2966 -0.2136
 2190TIP3    H2 6577   0.508   1.777   3.286 -0.4487  1.9894 -0.2297
 2191TIP3   OH2 6578   4.347   2.841   4.880  0.1737 -0.5937 -0.4880
 2191TIP3    H1 6579   4.439   2.815   4.869 -0.1021 -1.2756 -1.3449
 2191TIP3    H2 6580   4.306   2.821   4.796 -0.3893  1.4076 -0.7416
 2192TIP3   OH2 6581   0.944   3.729   2.806  0.3167  0.1401 -0.2662
 2192TIP3    H1 6582   0.924   3.777   2.886  2.2964 -2.2917  1.8673
 2192TIP3    H2 6583   0.883   3.655   2.807  1.5533 -0.9131  0.0418
 2193TIP3   OH2 6584   3.224   1.286   3.829  0.9691 -0.5592 -0.4185
 2193TIP3    H1 6585   3.308   1.319   3.861  0.1584  0.1534  1.0618
 2193TIP3    H2 6586   3.184   1.243   3.905 -1.1937  1.5189 -0.2488
 2194TIP3   OH2 6587   3.746   0.675   0.675 -0.1080  0.1587  0.1706
 2194TIP3    H1 6588   3.829   0.636   0.649  0.9013  0.5147  2.5801
 2194TIP3    H2 6589   3.770   0.750   0.728 -2.0035  1.2136 -0.3690
 2195TIP3   OH2 6590   1.492   3.607   1.696  0.5109 -0.7980 -0.1200
 2195TIP3    H1 6591   1.588   3.610   1.700  0.4515  0.9379  1.7970
 2195TIP3    H2 6592   1.468   3.690   1.655 -0.1784  0.0220  1.8171
 2196TIP3   OH2 6593   3.435   2.508   0.577 -0.5214 -0.4304  0.0960
 2196TIP3    H1 6594   3.360   2.562   0.599  0.5107  1.5124 -0.8514
 2196TIP3    H2 6595   3.409   2.460   0.499 -0.1627  1.8461 -1.5323
 2197TIP3   OH2 6596   0.358   0.542   3.165  0.3245  0.0222 -0.2148
 2197TIP3    H1 6597   0.293   0.472   3.153  1.0071 -0.5926 -0.4135
 2197TIP3    H2 6598   0.440   0.495   3.183  0.9422  0.7576 -1.0527
 2198TIP3   OH2 6599   2.487   3.239   0.054 -0.1612  0.1264 -0.1678
 2198TIP3    H1 6600   2.444   3.156   0.075  1.5421 -0.9357 -0.6926
 2198TIP3    H2 6601   2.417   3.295   0.020 -1.4746 -0.8273  0.8678
 2199TIP3   OH2 6602   4.444   4.029   3.991  0.2206  0.2419  0.2588
 2199TIP3    H1 6603   4.450   4.089   4.065 -1.2239  0.0991  0.5216
 2199TIP3    H2 6604   4.400   4.080   3.923  0.0163 -0.1576  0.0897
 2200TIP3   OH2 6605   0.684   5.535   3.940  0.3733 -0.0892 -0.2112
 2200TIP3    H1 6606   0.720   5.595   3.874  0.3831 -0.2911 -0.3892
 2200TIP3    H2 6607   0.667   5.591   4.015  0.0779  0.1995 -0.4893
 2201TIP3   OH2 6608   3.866   5.709   2.813 -0.3274  0.7198 -0.1838
 2201TIP3    H1 6609   3.895   5.757   2.735 -2.6746  0.4773 -1.3048
 2201TIP3    H2 6610   3.882   5.617   2.791 -0.5824  0.6793 -0.2020
 2202TIP3   OH2 6611   4.017   0.372   4.912  0.1656  0.4278 -0.4906
 2202TIP3    H1 6612   3.922   0.381   4.925  0.2958  0.7443  0.2838
 2202TIP3    H2 6613   4.051   0.461   4.921  0.7706  0.0534  1.2707
 2203TIP3   OH2 6614   5.797   3.102   0.586 -0.1008 -1.0940 -0.0206
 2203TIP3    H1 6615   5.770   3.100   0.678  0.1045 -1.1248  0.0391
 2203TIP3    H2 6616   5.890   3.126   0.588 -0.3751  0.0496 -0.2838
 2204TIP3   OH2 6617   5.160   3.507   1.260  0.1521  0.6305  0.3044
 2204TIP3    H1 6618   5.176   3.575   1.194  1.6384  0.0610  0.0468
 2204TIP3    H2 6619   5.165   3.552   1.344 -2.7913  1.5809  0.0999
 2205TIP3   OH2 6620   3.175   4.285   0.030 -0.1513 -0.1578  0.4424
 2205TIP3    H1 6621   3.175   4.243  -0.056 -0.3149 -1.9930  1.2883
 2205TIP3    H2 6622   3.268   4.295   0.053 -0.0300 -2.5546  1.3188
 2206TIP3   OH2 6623   5.453   2.778   2.443 -0.4902  0.1392 -0.0733
 2206TIP3    H1 6624   5.379   2.756   2.386 -0.7322  2.3272 -0.7280
 2206TIP3    H2 6625   5.428   2.862   2.482  0.2385 -0.6779  2.3186
 2207TIP3   OH2 6626   3.971   0.503   4.566 -0.4166  0.5281  0.1958
 2207TIP3    H1 6627   3.920   0.565   4.515  0.2443  0.3529 -0.7034
 2207TIP3    H2 6628   3.913   0.428   4.578 -1.1774  1.2527  1.1952
 2208TIP3   OH2 6629   0.511   3.901   0.063 -0.5824 -0.2621  0.3604
 2208TIP3    H1 6630   0.511   3.849   0.144  0.3961 -0.6993  0.0949
 2208TIP3    H2 6631   0.531   3.838  -0.006  1.6907  0.5905  0.1419
 2209TIP3   OH2 6632   5.942   4.857   4.271  0.0781 -0.3200  0.2317
 2209TIP3    H1 6633   5.929   4.890   4.360  0.1862  1.0187 -0.2255
 2209TIP3    H2 6634   5.999   4.781   4.282 -0.7007 -0.7734  1.3884
 2210TIP3   OH2 6635   3.502   4.293   0.383 -0.3739 -0.2548  0.0250
 2210TIP3    H1 6636   3.537   4.280   0.471 -0.2898  0.3407  0.0815
 2210TIP3    H2 6637   3.444   4.218   0.369  0.7131 -1.1225  0.0322
 2211TIP3   OH2 6638   0.966   3.460   3.944 -0.0574 -0.2670 -0.3282
 2211TIP3    H1 6639   0.998   3.381   3.900  1.7128 -0.7055  1.6067
 2211TIP3    H2 6640   1.041   3.492   3.994  0.0229  4.0029 -2.7413
 2212TIP3   OH2 6641   2.020   3.939   4.388  0.0639  0.5300  0.1983
 2212TIP3    H1 6642   1.982   3.858   4.355  0.3468  0.4293  0.1162
 2212TIP3    H2 6643   1.950   4.003   4.380 -0.9297 -0.1934  2.3876
 2213TIP3   OH2 6644   5.825   2.055   2.710 -0.1487  0.0546 -0.1855
 2213TIP3    H1 6645   5.815   2.139   2.755 -2.3263 -1.5128  2.5913
 2213TIP3    H2 6646   5.882   2.004   2.768  2.0394 -0.1723 -2.3561
 2214TIP3   OH2 6647   0.678   2.584   3.755  0.1305  0.2544 -0.2570
 2214TIP3    H1 6648   0.595   2.615   3.720 -0.1260  1.2195  1.1251
 2214TIP3    H2 6649   0.683   2.492   3.728 -0.8268  0.4904 -1.3208
 2215TIP3   OH2 6650   1.633   5.736   4.182 -0.6688 -0.4940 -0.2145
 2215TIP3    H1 6651   1.717   5.732   4.136  0.0744  0.1773  1.0327
 2215TIP3    H2 6652   1.568   5.741   4.112  0.2129 -2.4339 -1.2353
 2216TIP3   OH2 6653   3.239   5.119   0.186  0.2096 -0.1645 -0.1434
 2216TIP3    H1 6654   3.240   5.214   0.197 -1.5219  0.1082 -1.6900
 2216TIP3    H2 6655   3.261   5.084   0.272 -0.1573  1.6415  0.7371
 2217TIP3   OH2 6656   5.025   4.514   3.542 -0.2264 -0.1645 -0.7634
 2217TIP3    H1 6657   5.052   4.601   3.573 -1.9084  0.4455 -0.9269
 2217TIP3    H2 6658   4.978   4.476   3.616 -0.1221 -0.6529 -0.9440
 2218TIP3   OH2 6659   4.460   3.628   0.504  0.4402 -0.3187 -0.5660
 2218TIP3    H1 6660   4.458   3.690   0.431 -0.9416 -0.2134 -0.4596
 2218TIP3    H2 6661   4.393   3.660   0.565  0.7141 -1.1077  0.1692
 2219TIP3   OH2 6662   4.520   5.016   5.126 -0.5851  0.0066 -0.8171
 2219TIP3    H1 6663   4.580   5.026   5.052 -0.0284  0.4879 -0.3119
 2219TIP3    H2 6664   4.559   4.947   5.179  0.1336  1.0758  0.0828
 2220TIP3   OH2 6665   5.072   4.201   3.769  0.2524 -0.2606  0.2705
 2220TIP3    H1 6666   5.111   4.208   3.681  1.1536 -1.1632  0.5860
 2220TIP3    H2 6667   5.102   4.117   3.802  0.4822  0.3704  1.7296
 2221TIP3   OH2 6668   1.478   2.865   2.030 -0.0415  0.6661 -0.1466
 2221TIP3    H1 6669   1.532   2.922   2.084  0.3107  0.5325 -0.3471
 2221TIP3    H2 6670   1.497   2.776   2.062 -1.7664  0.7486  1.2028
 2222TIP3   OH2 6671   1.109   4.089   2.921  0.2905  0.6350  0.3042
 2222TIP3    H1 6672   1.018   4.060   2.933 -0.1660  0.9264 -2.0123
 2222TIP3    H2 6673   1.103   4.183   2.907  1.2497  1.0796  2.3991
 2223TIP3   OH2 6674   0.817   4.892   1.964  0.0590 -0.4602  0.1648
 2223TIP3    H1 6675   0.905   4.859   1.948 -0.2430 -0.6678 -1.2755
 2223TIP3    H2 6676   0.823   4.940   2.046  1.2130 -1.5415  0.7459
 2224TIP3   OH2 6677   3.643   2.125   2.119  0.0281  0.3395 -0.4058
 2224TIP3    H1 6678   3.559   2.087   2.143 -0.0801  1.3799  0.9922
 2224TIP3    H2 6679   3.677   2.163   2.201  1.3116  0.9482 -1.1815
 2225TIP3   OH2 6680   4.511   2.378   3.985  0.2310  0.1283 -0.0716
 2225TIP3    H1 6681   4.528   2.361   3.892  1.9546  2.0413 -0.1811
 2225TIP3    H2 6682   4.492   2.292   4.022  2.0119 -1.0724 -1.7250
 2226TIP3   OH2 6683   4.173   4.718   4.562 -0.6092  0.2947  0.5361
 2226TIP3    H1 6684   4.147   4.798   4.517 -1.4840 -1.1699 -1.7343
 2226TIP3    H2 6685   4.096   4.662   4.558  1.3169 -2.4845 -2.3765
 2227TIP3   OH2 6686   0.567   4.274   4.215 -0.1255 -0.2414  0.2449
 2227TIP3    H1 6687   0.627   4.337   4.255  0.2783 -0.4188 -0.0739
 2227TIP3    H2 6688   0.573   4.293   4.121 -1.1431  0.2452  0.2639
 2228TIP3   OH2 6689   0.476   4.636   4.438  0.0793 -0.0752 -0.3197
 2228TIP3    H1 6690   0.552   4.643   4.496  0.9661  1.5635 -1.5798
 2228TIP3    H2 6691   0.514   4.631   4.350 -1.2634 -0.9892 -0.8681
 2229TIP3   OH2 6692   2.521   3.841   2.327 -0.2493 -0.7814  0.2472
 2229TIP3    H1 6693   2.429   3.854   2.350 -0.6521 -1.0682 -1.0858
 2229TIP3    H2 6694   2.524   3.755   2.286  0.1145  0.2090 -1.9812
 2230TIP3   OH2 6695   1.265   1.562   2.713  0.0733  0.3746 -0.0143
 2230TIP3    H1 6696   1.231   1.476   2.688  0.4175  0.1457  0.3050
 2230TIP3    H2 6697   1.313   1.592   2.636  1.4224 -0.4762  0.4609
 2231TIP3   OH2 6698   3.790   2.046   0.199 -0.1454 -0.2403 -0.7341
 2231TIP3    H1 6699   3.880   2.068   0.177 -0.3609 -0.0836 -1.5010
 2231TIP3    H2 6700   3.795   2.006   0.286  0.3263  2.3785  0.5365
 2232TIP3   OH2 6701   4.165   4.298   2.175 -0.2567 -0.2578 -0.6198
 2232TIP3    H1 6702   4.260   4.295   2.181 -0.2237  0.2895 -0.8382
 2232TIP3    H2 6703   4.141   4.382   2.215 -0.7423 -0.9418  0.5812
 2233TIP3   OH2 6704   0.079   3.861   1.022  0.3889 -0.2333 -0.0890
 2233TIP3    H1 6705   0.161   3.908   1.036  0.1010  0.5581 -1.0063
 2233TIP3    H2 6706   0.032   3.870   1.104  1.2068 -0.6920  0.4483
 2234TIP3   OH2 6707   2.866   1.375   1.819 -0.5186 -0.0691  0.1075
 2234TIP3    H1 6708   2.878   1.296   1.766 -0.8431 -2.0732  2.8154
 2234TIP3    H2 6709   2.953   1.417   1.820  0.0390 -1.1923 -0.2126
 2235TIP3   OH2 6710   4.524   2.606   3.394 -0.1950 -0.0498 -0.3893
 2235TIP3    H1 6711   4.550   2.686   3.439  3.0240 -0.4530 -1.2914
 2235TIP3    H2 6712   4.476   2.637   3.317 -0.7448  0.8882  0.3125
 2236TIP3   OH2 6713   5.983   1.320   1.051 -0.0310  0.1029 -0.3361
 2236TIP3    H1 6714   6.018   1.254   0.990  2.7375  1.8634 -0.8172
 2236TIP3    H2 6715   5.945   1.387   0.994  0.4655  0.6525 -0.0244
 2237TIP3   OH2 6716   2.891   5.033   0.180  0.4781 -0.2485  0.3832
 2237TIP3    H1 6717   2.816   4.974   0.178  0.7538 -0.7592  2.6390
 2237TIP3    H2 6718   2.966   4.978   0.157  0.6729 -0.7211  2.0465
 2238TIP3   OH2 6719   0.391   5.401   2.400  0.6262 -0.5109 -0.2492
 2238TIP3    H1 6720   0.331   5.469   2.430 -0.3878 -1.7138  0.5862
 2238TIP3    H2 6721   0.382   5.401   2.305 -0.0431 -0.0829 -0.1950
 2239TIP3   OH2 6722   0.212   0.931   4.759 -0.0887  0.4293 -0.4558
 2239TIP3    H1 6723   0.163   0.853   4.732  0.3540 -0.7983  1.9754
 2239TIP3    H2 6724   0.157   1.005   4.732 -0.7689 -0.6993 -2.3614
 2240TIP3   OH2 6725   4.277   3.836   4.352  0.0874 -0.2299  0.1872
 2240TIP3    H1 6726   4.305   3.751   4.317  1.0835 -0.4455  1.4679
 2240TIP3    H2 6727   4.233   3.815   4.435  0.9760  0.5473  0.8763
 2241TIP3   OH2 6728   3.296   2.967   2.680 -0.0548 -0.6423 -0.1920
 2241TIP3    H1 6729   3.325   3.013   2.760 -2.9605  1.9068 -0.4321
 2241TIP3    H2 6730   3.343   3.011   2.609 -2.1117  1.5036 -0.3317
 2242TIP3   OH2 6731   5.994   2.500   2.564 -0.0337  0.3464  0.5203
 2242TIP3    H1 6732   6.086   2.525   2.561 -0.1118  0.5543 -0.4535
 2242TIP3    H2 6733   5.948   2.572   2.521 -0.7183  0.5216  1.5161
 2243TIP3   OH2 6734   2.808   0.425   0.603  0.3078  0.6514 -0.2194
 2243TIP3    H1 6735   2.724   0.407   0.560  0.1990  0.3325  0.1231
 2243TIP3    H2 6736   2.842   0.338   0.625  0.2119  0.8236  0.6229
 2244TIP3   OH2 6737   6.142   0.656   0.342  0.0759 -0.3685 -0.1358
 2244TIP3    H1 6738   6.218   0.631   0.290  2.9319 -0.5597  3.7519
 2244TIP3    H2 6739   6.129   0.749   0.322  2.8308  0.2741  0.6587
 2245TIP3   OH2 6740   6.112   2.673   4.053 -0.2164 -0.1850 -0.1581
 2245TIP3    H1 6741   6.025   2.694   4.020  0.6500  1.2048 -1.7848
 2245TIP3    H2 6742   6.151   2.617   3.986 -0.0269 -1.2817  0.8300
 2246TIP3   OH2 6743   1.329   2.575   3.081  0.4984 -0.0520  0.0934
 2246TIP3    H1 6744   1.424   2.571   3.076  0.5925 -1.3831  1.9198
 2246TIP3    H2 6745   1.310   2.647   3.140  0.2877  1.0266 -1.2440
 2247TIP3   OH2 6746   0.539   1.691   1.573 -0.1458  0.3355 -0.3781
 2247TIP3    H1 6747   0.496   1.700   1.488 -1.1871 -1.7005 -0.1064
 2247TIP3    H2 6748   0.602   1.764   1.575 -0.7830  1.0182 -2.4499
 2248TIP3   OH2 6749   2.916   0.170   0.978 -0.1169  0.2804 -0.3264
 2248TIP3    H1 6750   2.928   0.238   0.911 -1.1659  1.4142  0.5937
 2248TIP3    H2 6751   2.869   0.101   0.933 -2.0999  1.6380 -0.4593
 2249TIP3   OH2 6752   1.309   3.926   1.412  0.5534 -0.4604 -0.1672
 2249TIP3    H1 6753   1.396   3.886   1.414  1.1456  0.7441 -0.8056
 2249TIP3    H2 6754   1.263   3.882   1.341  1.1107 -0.1634 -0.7111
 2250TIP3   OH2 6755   0.837   4.681   3.297 -0.0290 -0.1744  0.1370
 2250TIP3    H1 6756   0.870   4.770   3.290  0.7908 -0.4347  0.5314
 2250TIP3    H2 6757   0.755   4.681   3.249  1.0003  0.2833 -1.7124
 2251TIP3   OH2 6758   0.699   4.706   1.116 -0.1708 -0.0091 -0.3340
 2251TIP3    H1 6759   0.725   4.642   1.182 -0.8600  0.4266  0.3838
 2251TIP3    H2 6760   0.737   4.789   1.145 -1.2085  0.3670  0.0236
 2252TIP3   OH2 6761   4.743   2.336   4.733 -0.0862 -0.1110 -0.1365
 2252TIP3    H1 6762   4.670   2.277   4.750  0.3070 -0.6509 -0.2651
 2252TIP3    H2 6763   4.704   2.413   4.691 -0.3797 -1.1650 -1.9229
 2253TIP3   OH2 6764   2.812   2.735   2.368  0.6561  0.5596 -0.2898
 2253TIP3    H1 6765   2.718   2.722   2.357  0.5583  0.9786  0.0117
 2253TIP3    H2 6766   2.845   2.651   2.398  0.0813  0.9118  1.4163
 2254TIP3   OH2 6767   0.352   2.901   4.204 -0.0045 -0.5424 -0.4505
 2254TIP3    H1 6768   0.324   2.981   4.159 -1.8494 -1.4660 -1.0181
 2254TIP3    H2 6769   0.447   2.908   4.207 -0.1387  2.6643  1.3528
 2255TIP3   OH2 6770   5.800   3.080   3.953  0.3238  0.3587 -0.0611
 2255TIP3    H1 6771   5.837   2.993   3.937  0.6104  0.8932 -2.7563
 2255TIP3    H2 6772   5.732   3.089   3.886 -0.5331  1.7693  0.9502
 2256TIP3   OH2 6773   0.558   0.628   0.383 -0.0002 -0.2085  0.2283
 2256TIP3    H1 6774   0.607   0.594   0.457 -0.3230  0.4445  0.7517
 2256TIP3    H2 6775   0.569   0.562   0.314 -0.2455 -1.1508  1.0715
 2257TIP3   OH2 6776   5.408   0.835   2.317  0.0437  0.3730  0.0227
 2257TIP3    H1 6777   5.346   0.799   2.253 -2.1919 -0.0477  2.2847
 2257TIP3    H2 6778   5.413   0.928   2.295 -2.2784  0.6440  0.3686
 2258TIP3   OH2 6779   0.125   5.987   2.240 -0.2791  0.0069 -0.3217
 2258TIP3    H1 6780   0.179   6.000   2.318  0.9337 -2.1454 -0.7170
 2258TIP3    H2 6781   0.089   5.899   2.250 -1.7088  0.4475 -1.2786
 2259TIP3   OH2 6782   5.625   2.708   3.220 -0.7554  0.3029  0.0219
 2259TIP3    H1 6783   5.554   2.755   3.176 -1.3464 -0.3436  0.2467
 2259TIP3    H2 6784   5.705   2.741   3.180 -1.1776  1.1981 -0.0923
 2260TIP3   OH2 6785   2.389   3.226   3.951  0.3963  0.0380 -0.0378
 2260TIP3    H1 6786   2.343   3.230   3.868  1.5754  0.0012 -0.7216
 2260TIP3    H2 6787   2.389   3.317   3.983 -1.8505 -0.2483  0.9922
 2261TIP3   OH2 6788   1.172   0.854   0.869  0.2425  0.2627 -0.2270
 2261TIP3    H1 6789   1.121   0.916   0.921 -1.1049  1.0365 -2.3705
 2261TIP3    H2 6790   1.231   0.909   0.818  0.2259 -0.3423 -0.9084
 2262TIP3   OH2 6791   2.023   4.574   1.703 -0.2212 -0.4049  0.1284
 2262TIP3    H1 6792   2.071   4.525   1.636 -0.3312 -1.2096  0.6166
 2262TIP3    H2 6793   1.938   4.528   1.709 -0.1370 -0.4595  0.9432
 2263TIP3   OH2 6794   0.117   4.653   4.848 -0.1262  0.2410 -0.3080
 2263TIP3    H1 6795   0.082   4.578   4.896 -0.4885  1.3352  1.2169
 2263TIP3    H2 6796   0.196   4.620   4.805  0.0144 -0.8768  0.7649
 2264TIP3   OH2 6797   0.566   0.427   0.009 -0.2402 -0.3487  0.1283
 2264TIP3    H1 6798   0.654   0.450   0.039 -0.2259 -0.5411  0.2369
 2264TIP3    H2 6799   0.508   0.489   0.053 -0.0228  0.8042 -1.1449
 2265TIP3   OH2 6800   1.333   1.453   2.049  0.1618  0.1050  0.0136
 2265TIP3    H1 6801   1.270   1.521   2.070 -0.0686 -0.1200  0.0532
 2265TIP3    H2 6802   1.358   1.471   1.958  1.7385  1.5344  0.6889
 2266TIP3   OH2 6803   0.567   4.441   3.229  0.2892  0.2617 -0.3683
 2266TIP3    H1 6804   0.585   4.349   3.209 -1.5337  0.0139 -1.0109
 2266TIP3    H2 6805   0.606   4.489   3.156  0.1217 -0.0986 -0.6951
 2267TIP3   OH2 6806   3.993   5.646   0.606  0.2596  0.0858 -0.1778
 2267TIP3    H1 6807   4.006   5.630   0.513  1.0443 -1.6147  0.2038
 2267TIP3    H2 6808   4.078   5.630   0.646 -0.8117 -2.5505  1.2476
 2268TIP3   OH2 6809   2.389   4.675   4.360  0.2849  0.4892  0.0632
 2268TIP3    H1 6810   2.414   4.583   4.359 -1.0083  0.0927 -2.1236
 2268TIP3    H2 6811   2.294   4.674   4.372  0.1430  1.4910 -0.8481
 2269TIP3   OH2 6812   4.087   0.636   3.461 -0.3770 -0.2018  0.1539
 2269TIP3    H1 6813   4.100   0.601   3.373  3.2419 -0.6799  0.6943
 2269TIP3    H2 6814   4.113   0.728   3.454 -2.2585  0.3854  0.3427
 2270TIP3   OH2 6815   2.116   5.464   1.968 -0.3686  0.1327 -0.0215
 2270TIP3    H1 6816   2.095   5.556   1.954 -0.9294  0.1883  1.0114
 2270TIP3    H2 6817   2.065   5.417   1.902  0.5487  0.5926 -1.0824
 2271TIP3   OH2 6818   4.677   4.569   0.508 -0.3454 -0.2534  0.1206
 2271TIP3    H1 6819   4.643   4.583   0.420 -0.7855 -2.5772 -0.1475
 2271TIP3    H2 6820   4.620   4.621   0.565 -0.7226  0.4350 -0.8672
 2272TIP3   OH2 6821   1.237   2.899   1.910 -0.0435 -0.2171  0.8937
 2272TIP3    H1 6822   1.195   2.851   1.982 -1.6619 -1.1977 -0.6193
 2272TIP3    H2 6823   1.319   2.931   1.947  0.0782 -2.3048  2.6181
 2273TIP3   OH2 6824   5.072   0.512   0.385  0.1951  0.7520  0.3479
 2273TIP3    H1 6825   5.119   0.564   0.450 -2.0973  0.3506  2.4639
 2273TIP3    H2 6826   5.105   0.423   0.397  0.7897  0.9101 -0.0592
 2274TIP3   OH2 6827   1.885   0.829   2.845  0.1802  0.2489  0.1807
 2274TIP3    H1 6828   1.972   0.791   2.834 -0.0661 -0.1677 -0.3938
 2274TIP3    H2 6829   1.854   0.793   2.928  0.6498  0.5944  0.5127
 2275TIP3   OH2 6830   1.663   4.940   1.864  0.5242  0.2790  0.6000
 2275TIP3    H1 6831   1.703   5.014   1.820  0.8000 -0.4542 -0.4294
 2275TIP3    H2 6832   1.700   4.941   1.952  1.2688  0.7898  0.2930
 2276TIP3   OH2 6833   2.886   3.963   1.788 -0.5256  0.3712  0.2409
 2276TIP3    H1 6834   2.839   4.025   1.732  3.1362  2.9583 -0.2918
 2276TIP3    H2 6835   2.924   3.900   1.727  1.9272  2.1097 -0.1399
 2277TIP3   OH2 6836   5.150   4.188   0.046  0.1076  0.7294  0.2441
 2277TIP3    H1 6837   5.114   4.243  -0.024  1.4061  0.1775 -0.8800
 2277TIP3    H2 6838   5.129   4.236   0.126 -1.7898  1.1614 -0.4550
 2278TIP3   OH2 6839   0.217   4.047   3.813 -0.1715 -0.0306 -0.3422
 2278TIP3    H1 6840   0.237   4.125   3.864 -0.7475  0.4401 -0.8117
 2278TIP3    H2 6841   0.168   4.080   3.737  0.8843 -0.6666 -1.3454
 2279TIP3   OH2 6842   6.179   0.929   0.675  0.5596  0.0892  0.0423
 2279TIP3    H1 6843   6.229   0.850   0.693 -1.0071 -1.0961 -0.5646
 2279TIP3    H2 6844   6.088   0.899   0.670  0.0143  1.7853 -1.0147
 2280TIP3   OH2 6845   4.940   5.207   0.992 -0.4192  0.2225  0.8238
 2280TIP3    H1 6846   4.856   5.191   1.034 -0.6917  0.8131  0.5209
 2280TIP3    H2 6847   4.961   5.125   0.947 -0.6228 -0.0662  1.2517
 2281TIP3   OH2 6848   2.479   2.397   3.992 -0.0297 -0.1063  0.0989
 2281TIP3    H1 6849   2.406   2.358   3.944  0.7529 -1.1996 -0.2399
 2281TIP3    H2 6850   2.437   2.445   4.064 -1.0253 -2.0516  0.8900
 2282TIP3   OH2 6851   2.682   0.579   4.604 -0.1619 -0.2524 -0.4487
 2282TIP3    H1 6852   2.680   0.489   4.636 -0.7570 -0.5035 -1.1731
 2282TIP3    H2 6853   2.772   0.592   4.573 -0.0821 -0.6038 -0.3612
 2283TIP3   OH2 6854   6.106   4.351   4.943  0.3655 -0.3500 -0.0481
 2283TIP3    H1 6855   6.023   4.379   4.982  1.7058  1.1542  1.9056
 2283TIP3    H2 6856   6.118   4.410   4.868 -0.4669 -0.8122 -0.5596
 2284TIP3   OH2 6857   3.597   3.521   4.358 -0.0230  0.2323  0.0197
 2284TIP3    H1 6858   3.638   3.493   4.276 -0.5182  0.8106 -0.4358
 2284TIP3    H2 6859   3.598   3.443   4.413  1.0488  0.0595 -0.2338
 2285TIP3   OH2 6860   4.901   3.903   0.245 -0.0210 -0.3364 -0.3937
 2285TIP3    H1 6861   4.821   3.916   0.193 -1.0897  0.9243  1.4835
 2285TIP3    H2 6862   4.951   3.983   0.233  0.6632 -0.8336 -0.9810
 2286TIP3   OH2 6863   5.562   0.612   3.044  0.2826 -0.0422  0.3329
 2286TIP3    H1 6864   5.643   0.578   3.004 -0.9365 -1.6213 -0.9148
 2286TIP3    H2 6865   5.581   0.705   3.060  2.6930 -0.5870  1.0646
 2287TIP3   OH2 6866   2.010   3.942   4.817 -0.3268 -0.1258  0.4419
 2287TIP3    H1 6867   2.087   3.939   4.762 -1.0012 -0.5449 -0.5096
 2287TIP3    H2 6868   2.044   3.944   4.907  0.7814  0.5391  0.0196
 2288TIP3   OH2 6869   0.806   4.174   3.476 -0.1710 -0.7950  0.1311
 2288TIP3    H1 6870   0.812   4.269   3.479  0.4737 -0.8440  0.7985
 2288TIP3    H2 6871   0.723   4.156   3.431 -0.8608  0.0924  1.0091
 2289TIP3   OH2 6872   0.410   3.759   4.051  0.7747  0.2747 -0.5818
 2289TIP3    H1 6873   0.401   3.816   4.127 -0.2051  1.3435 -1.4688
 2289TIP3    H2 6874   0.459   3.683   4.084 -0.1348  0.4263  1.2462
 2290TIP3   OH2 6875   4.380   1.889   0.638  0.8734 -0.2381  0.1766
 2290TIP3    H1 6876   4.338   1.975   0.636  1.6212  0.2281  2.3600
 2290TIP3    H2 6877   4.405   1.872   0.547  2.5874  2.8263 -0.0396
 2291TIP3   OH2 6878   1.825   4.687   2.059  0.3707 -0.1767 -0.0985
 2291TIP3    H1 6879   1.874   4.611   2.090  1.1979  0.5604  0.4511
 2291TIP3    H2 6880   1.889   4.738   2.010 -0.9452 -1.5029 -3.5779
 2292TIP3   OH2 6881   5.059   3.236   2.493  0.3007 -0.2308 -0.1729
 2292TIP3    H1 6882   5.064   3.227   2.398 -0.1063  1.6730 -0.4088
 2292TIP3    H2 6883   5.149   3.258   2.519  0.1502  0.4951 -0.2691
 2293TIP3   OH2 6884   1.191   3.870   3.327 -0.3279  0.1914 -0.0976
 2293TIP3    H1 6885   1.277   3.866   3.369 -1.2339  2.1646  2.1988
 2293TIP3    H2 6886   1.184   3.959   3.294 -0.5174 -0.7019 -2.7680
 2294TIP3   OH2 6887   3.452   4.057   1.495 -0.2287  0.2016 -0.2239
 2294TIP3    H1 6888   3.426   4.023   1.580 -1.5462  0.2380 -0.5901
 2294TIP3    H2 6889   3.547   4.068   1.502 -0.2703 -0.0787  1.1245
 2295TIP3   OH2 6890   2.180   1.089   2.993 -0.8728  0.0094  0.3711
 2295TIP3    H1 6891   2.130   1.071   3.072  1.7127  0.0841  2.1315
 2295TIP3    H2 6892   2.199   1.003   2.956 -0.3527 -0.1499  0.9961
 2296TIP3   OH2 6893   5.134   0.928   2.228 -0.6427  0.6325  0.0635
 2296TIP3    H1 6894   5.116   0.896   2.139  0.5951 -0.9131  0.3338
 2296TIP3    H2 6895   5.092   0.864   2.285  0.8378  0.0954  0.6043
 2297TIP3   OH2 6896   2.295   2.988   1.813 -0.1494  0.2634 -0.1333
 2297TIP3    H1 6897   2.268   3.002   1.904  0.1388 -1.0706  0.1793
 2297TIP3    H2 6898   2.213   2.977   1.765 -0.2690 -0.8845  0.3050
 2298TIP3   OH2 6899   4.616   4.669   4.034  0.1814 -0.0618 -0.5150
 2298TIP3    H1 6900   4.699   4.701   4.067  1.4107 -1.6048 -1.9528
 2298TIP3    H2 6901   4.622   4.679   3.939 -1.2936 -0.1525 -0.6471
 2299TIP3   OH2 6902   4.548   4.333   1.629  0.5732  1.0138  0.0736
 2299TIP3    H1 6903   4.615   4.264   1.631  1.0428  1.4690  1.1643
 2299TIP3    H2 6904   4.515   4.332   1.539  0.1037 -1.0627  0.1934
 2300TIP3   OH2 6905   2.038   3.721   3.892  0.2169 -0.3953  0.2901
 2300TIP3    H1 6906   2.036   3.630   3.865  0.1306 -0.6767  1.1965
 2300TIP3    H2 6907   2.025   3.771   3.812 -1.3111 -1.2133 -0.0052
 2301TIP3   OH2 6908   3.920   2.912   2.220 -0.3917 -0.4723  0.3722
 2301TIP3    H1 6909   3.994   2.857   2.244 -1.0430 -0.5589  2.4318
 2301TIP3    H2 6910   3.949   3.001   2.240 -0.7581 -0.4919  1.0359
 2302TIP3   OH2 6911   1.804   5.664   5.106 -0.0463  0.0225  0.4808
 2302TIP3    H1 6912   1.819   5.660   5.200  0.6924  1.5244  0.4533
 2302TIP3    H2 6913   1.804   5.758   5.085  0.1021 -0.2893 -1.0578
 2303TIP3   OH2 6914   5.089   5.327   4.414 -0.4554 -0.1244  0.1815
 2303TIP3    H1 6915   5.042   5.345   4.334 -0.3667  0.5896  0.2822
 2303TIP3    H2 6916   5.128   5.411   4.439  1.6032 -0.8441 -0.3704
 2304TIP3   OH2 6917   6.004   3.915   2.274  0.4518 -0.1387 -0.3665
 2304TIP3    H1 6918   6.003   4.008   2.252  0.5153  0.0531  0.4117
 2304TIP3    H2 6919   5.924   3.902   2.325  1.0500 -0.2363  0.5781
 2305TIP3   OH2 6920   2.382   0.663   5.168  0.3403  0.0359  0.2453
 2305TIP3    H1 6921   2.467   0.664   5.212  0.6948  0.0410 -0.4258
 2305TIP3    H2 6922   2.392   0.724   5.095  0.3834 -1.3634 -0.9691
 2306TIP3   OH2 6923   4.924   5.908   3.292  0.2049 -0.0920 -1.0471
 2306TIP3    H1 6924   5.014   5.934   3.271 -0.4425  1.7930 -1.6490
 2306TIP3    H2 6925   4.924   5.898   3.387  1.4590 -1.8953 -1.1844
 2307TIP3   OH2 6926   3.149   4.504   3.562 -0.2629  0.5232 -0.5135
 2307TIP3    H1 6927   3.118   4.577   3.508  1.9945  0.7981 -1.5733
 2307TIP3    H2 6928   3.196   4.545   3.634 -0.6308  0.1098 -0.0252
 2308TIP3   OH2 6929   3.554   4.043   1.017  0.2031  0.0541 -0.4840
 2308TIP3    H1 6930   3.488   3.995   0.968  0.6585 -0.0180 -1.0381
 2308TIP3    H2 6931   3.599   4.096   0.952 -0.3006  1.2525  0.1190
 2309TIP3   OH2 6932   0.968   4.610   3.719  0.1464  0.6025  0.1672
 2309TIP3    H1 6933   0.996   4.521   3.699 -1.7687  0.1032 -0.4413
 2309TIP3    H2 6934   0.888   4.622   3.669  1.4236  3.4106 -1.4629
 2310TIP3   OH2 6935   1.556   1.502   4.516  0.4729 -0.3153 -0.1866
 2310TIP3    H1 6936   1.550   1.542   4.429 -1.1653 -0.4694 -0.1767
 2310TIP3    H2 6937   1.475   1.527   4.560  2.0358  1.2802  2.0082
 2311TIP3   OH2 6938   3.429   0.021   1.122  0.8558  0.5099 -0.4310
 2311TIP3    H1 6939   3.396  -0.060   1.160 -1.0305  1.5047  0.1703
 2311TIP3    H2 6940   3.493   0.053   1.186  0.6423  0.1744 -0.0456
 2312TIP3   OH2 6941   4.415   4.069   2.353  0.2065  0.2476  0.1754
 2312TIP3    H1 6942   4.324   4.041   2.345 -0.4168  2.4702 -1.0808
 2312TIP3    H2 6943   4.444   4.029   2.436 -1.9068 -0.4488  0.6514
 2313TIP3   OH2 6944   0.303   5.828   1.849 -0.4751  0.3004 -0.2448
 2313TIP3    H1 6945   0.302   5.901   1.911  0.9146 -0.1598  0.3450
 2313TIP3    H2 6946   0.362   5.764   1.887 -0.7169 -0.6156 -1.3537
 2314TIP3   OH2 6947   4.383   1.687   0.066 -0.5387  0.1657 -0.2594
 2314TIP3    H1 6948   4.433   1.606   0.075  2.8848  1.9724 -1.4167
 2314TIP3    H2 6949   4.292   1.657   0.054  0.3977 -3.4081  0.2641
 2315TIP3   OH2 6950   5.385   4.082   0.329  0.5679  0.3005  0.0004
 2315TIP3    H1 6951   5.343   4.016   0.274  1.0506 -0.7149  0.8221
 2315TIP3    H2 6952   5.421   4.145   0.267 -0.6792  0.2897 -0.7653
 2316TIP3   OH2 6953   1.625   3.856   2.571  0.4476 -0.1988 -0.1414
 2316TIP3    H1 6954   1.580   3.940   2.568 -1.0178 -0.9532 -0.3592
 2316TIP3    H2 6955   1.665   3.852   2.657 -0.5626  0.1973  0.3586
 2317TIP3   OH2 6956   4.396   5.866   1.413  0.1170 -0.7560  0.3525
 2317TIP3    H1 6957   4.488   5.892   1.408  0.2599 -1.4861 -1.3958
 2317TIP3    H2 6958   4.354   5.907   1.337 -0.8008 -1.2050  0.5967
 2318TIP3   OH2 6959   3.456   1.698   3.685 -0.1887  0.3675 -0.5740
 2318TIP3    H1 6960   3.456   1.746   3.769 -1.3460 -1.2670  0.4221
 2318TIP3    H2 6961   3.366   1.670   3.674  0.3332 -1.0985 -1.3844
 2319TIP3   OH2 6962   1.671   4.302   1.526 -1.1034 -0.0323  0.2000
 2319TIP3    H1 6963   1.698   4.328   1.438 -3.7999  2.3469 -0.0488
 2319TIP3    H2 6964   1.639   4.212   1.516  2.4831 -1.4246 -0.2559
 2320TIP3   OH2 6965   1.747   3.486   1.419 -0.0211  0.4284  0.3810
 2320TIP3    H1 6966   1.842   3.495   1.426 -0.1276  0.8040  1.7265
 2320TIP3    H2 6967   1.714   3.575   1.433 -0.6099  0.0861  1.2533
 2321TIP3   OH2 6968   4.170   0.615   3.719  0.1034  0.2726 -0.1410
 2321TIP3    H1 6969   4.132   0.614   3.631  0.1187  0.3120 -0.1479
 2321TIP3    H2 6970   4.246   0.673   3.712  0.2669  0.0585 -0.1703
 2322TIP3   OH2 6971   0.995   4.096   4.842  0.0947 -0.3634 -0.2679
 2322TIP3    H1 6972   0.917   4.046   4.868 -0.2267  0.2197 -0.0787
 2322TIP3    H2 6973   1.063   4.069   4.904  0.1843 -1.2402 -0.7421
 2323TIP3   OH2 6974   0.267   0.101   4.963 -0.3075 -0.4416  0.0504
 2323TIP3    H1 6975   0.281   0.161   4.890 -0.2733  0.2883  0.6485
 2323TIP3    H2 6976   0.354   0.087   5.000 -0.0174 -2.3537 -1.2119
 2324TIP3   OH2 6977   0.088   5.475   2.566 -0.4829 -0.3557  0.2500
 2324TIP3    H1 6978   0.114   5.479   2.474  1.4869 -0.3970  0.7724
 2324TIP3    H2 6979   0.089   5.382   2.588  1.6020 -0.2090  0.9583
 2325TIP3   OH2 6980   5.237   5.505   2.456 -0.6711  0.1511 -0.3057
 2325TIP3    H1 6981   5.315   5.453   2.437 -1.1395 -0.0302 -1.8301
 2325TIP3    H2 6982   5.177   5.443   2.498 -0.3048  0.1081  0.1790
 2326TIP3   OH2 6983   1.947   2.304   0.421 -0.5535  0.4580 -0.7848
 2326TIP3    H1 6984   1.925   2.290   0.513  0.4739 -0.2428 -0.6397
 2326TIP3    H2 6985   1.916   2.226   0.376  1.0345 -0.2824 -0.6629
 2327TIP3   OH2 6986   3.180   2.711   3.640 -0.4705  0.2420 -0.2153
 2327TIP3    H1 6987   3.140   2.717   3.727 -1.2484 -2.0108 -0.3527
 2327TIP3    H2 6988   3.121   2.655   3.591  1.0273 -0.2155 -1.5629
 2328TIP3   OH2 6989   1.018   2.344   0.052 -0.0863 -0.0812  0.1883
 2328TIP3    H1 6990   0.972   2.296  -0.018 -0.7994 -0.6545  1.0315
 2328TIP3    H2 6991   1.080   2.281   0.087  0.3620  0.2488 -0.0027
 2329TIP3   OH2 6992   2.968   0.243   1.892  0.1209 -0.1831 -0.3081
 2329TIP3    H1 6993   3.047   0.228   1.944 -0.6462 -0.1120  0.9113
 2329TIP3    H2 6994   2.926   0.157   1.886  0.5095 -0.3169 -1.3597
 2330TIP3   OH2 6995   5.739   5.328   1.284  0.0786  0.0440  0.2993
 2330TIP3    H1 6996   5.675   5.359   1.220 -0.0081  0.9661  0.8168
 2330TIP3    H2 6997   5.725   5.383   1.361  0.9338 -0.3000  0.7166
 2331TIP3   OH2 6998   3.880   1.534   4.146 -0.3677 -0.0034  0.1343
 2331TIP3    H1 6999   3.870   1.450   4.191 -2.1179  0.4650  0.7278
 2331TIP3    H2 7000   3.959   1.572   4.183  1.1931 -1.8895 -1.0658
 2332TIP3   OH2 7001   2.947   3.286   3.728 -0.5007  0.1726  0.4974
 2332TIP3    H1 7002   3.037   3.288   3.696 -0.5428  0.1254  0.3737
 2332TIP3    H2 7003   2.954   3.258   3.819 -0.5409 -2.0040 -0.1056
 2333TIP3   OH2 7004   5.533   4.415   2.928  0.5943  0.3625  0.3594
 2333TIP3    H1 7005   5.619   4.373   2.929 -0.0122 -0.9299  0.6957
 2333TIP3    H2 7006   5.516   4.437   3.020  0.3200  0.0589  0.3855
 2334TIP3   OH2 7007   3.087   0.435   0.593 -0.3864  0.5236  0.3519
 2334TIP3    H1 7008   2.993   0.420   0.584  0.1559 -1.6586 -3.8951
 2334TIP3    H2 7009   3.106   0.508   0.534  0.6988  0.5746  0.7298
 2335TIP3   OH2 7010   1.831   4.447   4.751 -0.8455 -0.5789  0.1613
 2335TIP3    H1 7011   1.858   4.409   4.667 -1.2218 -1.4410  0.4126
 2335TIP3    H2 7012   1.875   4.392   4.817 -1.8669 -0.9728  0.5429
 2336TIP3   OH2 7013   5.393   1.680   2.674  0.0762 -0.9363  0.1632
 2336TIP3    H1 7014   5.348   1.765   2.675  0.5817 -0.6586 -0.2319
 2336TIP3    H2 7015   5.382   1.648   2.585 -0.2737 -1.3779  0.3627
 2337TIP3   OH2 7016   5.651   3.452   3.283  0.0900  0.0214  0.5358
 2337TIP3    H1 7017   5.738   3.420   3.259  0.9467  1.4549  1.6068
 2337TIP3    H2 7018   5.610   3.473   3.199  1.4151  0.9050  0.0827
 2338TIP3   OH2 7019   4.995   0.924   1.044 -0.3583  0.0479  0.0971
 2338TIP3    H1 7020   4.992   1.012   1.005 -1.9129 -0.0289 -0.0408
 2338TIP3    H2 7021   5.040   0.870   0.979  2.3683  1.0747  0.9935
 2339TIP3   OH2 7022   1.953   3.231   0.735 -0.0738  0.6253  0.4354
 2339TIP3    H1 7023   1.993   3.289   0.800 -1.1340  1.3936  0.4364
 2339TIP3    H2 7024   1.861   3.257   0.733 -0.3338 -0.2784 -0.4268
 2340TIP3   OH2 7025   3.542   1.366   3.090 -0.0464 -0.9599  0.2120
 2340TIP3    H1 7026   3.457   1.326   3.105 -0.1358 -0.3290  1.5487
 2340TIP3    H2 7027   3.543   1.442   3.148  1.4568 -1.0112  0.2905
 2341TIP3   OH2 7028   2.473   3.696   4.758  0.0773 -0.4236 -0.3372
 2341TIP3    H1 7029   2.434   3.651   4.683  1.1516 -1.3628 -0.3609
 2341TIP3    H2 7030   2.493   3.626   4.820  2.9081 -0.2188 -0.8725
 2342TIP3   OH2 7031   3.572   2.677   4.417 -0.4168  0.4429 -0.0020
 2342TIP3    H1 7032   3.636   2.606   4.414  0.4946  1.2502 -0.0020
 2342TIP3    H2 7033   3.539   2.684   4.328  0.9174  1.2683 -0.4700
 2343TIP3   OH2 7034   3.927   2.371   2.728 -0.2999  0.4034  0.0820
 2343TIP3    H1 7035   3.922   2.322   2.811  0.2998  0.8709  0.3982
 2343TIP3    H2 7036   4.018   2.397   2.721 -0.3417  0.3528 -0.7466
 2344TIP3   OH2 7037   5.831   3.621   1.760  0.2311  0.5241 -0.2775
 2344TIP3    H1 7038   5.789   3.535   1.764 -0.1546  0.7434  0.8065
 2344TIP3    H2 7039   5.758   3.683   1.770  0.2233  1.0721 -2.9594
 2345TIP3   OH2 7040   2.404   3.582   0.781 -0.1781  0.4124 -0.3468
 2345TIP3    H1 7041   2.380   3.673   0.764  0.1823  0.6734  0.4756
 2345TIP3    H2 7042   2.499   3.584   0.790  0.1569 -0.4829 -2.8807
 2346TIP3   OH2 7043   0.289   5.242   3.052 -0.0488 -0.5108 -0.0534
 2346TIP3    H1 7044   0.247   5.303   3.113  0.9353 -1.3567  1.5629
 2346TIP3    H2 7045   0.373   5.222   3.094  0.0613 -2.2017 -1.0213
 2347TIP3   OH2 7046   6.310   2.110   0.923 -0.0677 -0.9445 -0.4767
 2347TIP3    H1 7047   6.258   2.148   0.852 -1.5004 -0.5484  0.7150
 2347TIP3    H2 7048   6.354   2.185   0.963 -2.2162 -0.5201  1.3325
 2348TIP3   OH2 7049   5.969   3.271   2.986  0.0002 -0.0997 -0.6866
 2348TIP3    H1 7050   6.063   3.273   3.005 -0.1389 -0.1712  0.0565
 2348TIP3    H2 7051   5.954   3.184   2.949 -0.0610 -0.7966  0.8906
 2349TIP3   OH2 7052   5.787   0.450   3.104  0.3810  0.3423  0.1097
 2349TIP3    H1 7053   5.846   0.381   3.134  0.8138  0.5591 -0.2238
 2349TIP3    H2 7054   5.748   0.415   3.024 -2.0682 -0.9336  1.7739
 2350TIP3   OH2 7055   2.797   0.917   1.163 -0.0067 -0.3485 -0.6372
 2350TIP3    H1 7056   2.711   0.957   1.170 -0.2298 -0.7489 -1.0471
 2350TIP3    H2 7057   2.788   0.832   1.206  0.4436 -0.0045  0.1600
 2351TIP3   OH2 7058   0.854   2.146   3.748 -0.2217  0.4887  0.3624
 2351TIP3    H1 7059   0.766   2.183   3.735 -1.1100 -1.5339  0.2325
 2351TIP3    H2 7060   0.912   2.206   3.702 -1.4176  2.3200  1.1318
 2352TIP3   OH2 7061   2.191   4.445   0.645  0.3483  0.8409  0.2515
 2352TIP3    H1 7062   2.156   4.372   0.697  0.8040  0.1476 -0.3946
 2352TIP3    H2 7063   2.137   4.445   0.566  0.8887  0.6782 -0.1159
 2353TIP3   OH2 7064   1.828   4.573   3.810  0.7335  0.1433  0.1330
 2353TIP3    H1 7065   1.879   4.608   3.736  1.8306 -0.4224  0.6046
 2353TIP3    H2 7066   1.893   4.533   3.867 -0.1786  0.0023  1.0995
 2354TIP3   OH2 7067   5.552   4.757   3.420  0.2692  0.8838 -0.1971
 2354TIP3    H1 7068   5.626   4.706   3.452  0.8114  2.2917  0.8855
 2354TIP3    H2 7069   5.576   4.779   3.330 -0.2141 -1.1525 -0.8676
 2355TIP3   OH2 7070   3.757   4.780   3.656  0.0634 -0.1969  0.2999
 2355TIP3    H1 7071   3.776   4.697   3.701  0.5267  0.2841  1.0241
 2355TIP3    H2 7072   3.777   4.847   3.722 -0.0346  0.4995 -0.3731
 2356TIP3   OH2 7073   3.087   0.123   3.309  0.0011  0.1385  0.5069
 2356TIP3    H1 7074   3.062   0.073   3.231 -2.4291 -0.8732  1.8095
 2356TIP3    H2 7075   3.079   0.215   3.283  1.1333 -0.1339 -0.9370
 2357TIP3   OH2 7076   0.170   1.227   0.555 -0.0447 -0.1958 -0.4296
 2357TIP3    H1 7077   0.099   1.165   0.538 -0.3662 -0.0534  0.3245
 2357TIP3    H2 7078   0.230   1.216   0.481  0.1358 -1.7378 -0.0942
 2358TIP3   OH2 7079   2.939   4.410   3.097 -0.9119 -0.2867  0.5660
 2358TIP3    H1 7080   2.846   4.401   3.076 -0.4154 -1.6306 -1.3807
 2358TIP3    H2 7081   2.982   4.415   3.012  0.6472  2.9272  1.4203
 2359TIP3   OH2 7082   2.811   2.677   4.897  0.3088 -0.5143  0.3629
 2359TIP3    H1 7083   2.721   2.687   4.866  0.1368 -0.9784  0.6931
 2359TIP3    H2 7084   2.802   2.649   4.988  0.7732 -1.1089  0.2380
 2360TIP3   OH2 7085   1.168   0.404   1.108  0.6760  0.5227 -0.2329
 2360TIP3    H1 7086   1.128   0.484   1.074 -2.7014  0.3951  2.8463
 2360TIP3    H2 7087   1.098   0.339   1.105  2.4741 -1.5381  0.0657
 2361TIP3   OH2 7088   5.080   4.454   3.897 -0.0455  0.2078 -0.2273
 2361TIP3    H1 7089   4.997   4.478   3.857 -1.1588 -0.3689  1.6267
 2361TIP3    H2 7090   5.087   4.359   3.883  0.3948  0.2787 -0.5205
 2362TIP3   OH2 7091   4.428   5.617   3.997  0.3614 -0.0501  0.2105
 2362TIP3    H1 7092   4.375   5.599   4.075  0.3835 -0.4637  0.1288
 2362TIP3    H2 7093   4.398   5.554   3.932  0.1075  0.5099 -0.2308
 2363TIP3   OH2 7094   3.483   0.652   3.856  0.4360 -0.2555 -0.4665
 2363TIP3    H1 7095   3.419   0.723   3.850 -0.2648 -0.5626  2.2188
 2363TIP3    H2 7096   3.567   0.694   3.842 -0.0117  1.0613  0.6002
 2364TIP3   OH2 7097   6.153   0.170   4.363  0.3878 -0.2551  0.0219
 2364TIP3    H1 7098   6.201   0.118   4.428  2.3080 -2.2503 -2.7481
 2364TIP3    H2 7099   6.186   0.259   4.374  1.3207 -0.7098  1.1848
 2365TIP3   OH2 7100   4.751   3.607   4.776  0.3674 -0.5297 -0.3430
 2365TIP3    H1 7101   4.732   3.685   4.724  0.1769 -0.4985 -0.2306
 2365TIP3    H2 7102   4.820   3.562   4.728 -0.9370 -1.3662 -1.4997
 2366TIP3   OH2 7103   5.640   4.044   3.481 -0.0830 -0.2459 -0.0309
 2366TIP3    H1 7104   5.595   4.080   3.557  1.3387 -1.2010  1.3053
 2366TIP3    H2 7105   5.681   3.964   3.513  2.8404  0.7147 -1.0691
 2367TIP3   OH2 7106   2.171   4.410   2.426 -0.4020  0.5603  0.1052
 2367TIP3    H1 7107   2.190   4.316   2.426 -0.1999  0.5790  1.2398
 2367TIP3    H2 7108   2.243   4.450   2.377 -0.0155  0.1957  0.3710
 2368TIP3   OH2 7109   4.347   2.176   0.982  0.1591 -0.4201  0.2310
 2368TIP3    H1 7110   4.440   2.173   1.004 -0.1103 -0.7477  1.3775
 2368TIP3    H2 7111   4.344   2.221   0.898  1.4889 -1.8290 -0.6324
 2369TIP3   OH2 7112   3.711   1.814   0.055 -0.5273 -0.1415  0.4643
 2369TIP3    H1 7113   3.641   1.872   0.024 -1.5685 -0.4406  2.0796
 2369TIP3    H2 7114   3.763   1.870   0.113  0.9570  0.2283 -1.1582
 2370TIP3   OH2 7115   2.082   2.829   0.725  0.5927  0.6372  0.6498
 2370TIP3    H1 7116   2.176   2.816   0.732  0.4193 -1.3752 -0.1225
 2370TIP3    H2 7117   2.050   2.825   0.815  1.3118  2.3322  1.0200
 2371TIP3   OH2 7118   2.455   3.126   2.889  0.2064  0.5096  0.0635
 2371TIP3    H1 7119   2.418   3.109   2.975 -0.1157  3.3863  0.6006
 2371TIP3    H2 7120   2.421   3.055   2.834 -1.9312  0.1666  1.6725
 2372TIP3   OH2 7121   4.415   0.685   3.378 -0.1832  0.2308 -0.0881
 2372TIP3    H1 7122   4.335   0.694   3.326 -0.4229 -1.0424  0.0352
 2372TIP3    H2 7123   4.418   0.765   3.430  0.0637  1.5491 -2.0084
 2373TIP3   OH2 7124   1.520   5.895   0.330  0.0506  0.3303 -0.8538
 2373TIP3    H1 7125   1.480   5.896   0.417  0.3284  0.5152 -0.7266
 2373TIP3    H2 7126   1.535   5.802   0.312  3.2020  0.3757  0.8010
 2374TIP3   OH2 7127   2.993   5.019   2.129  0.0171 -0.2675 -0.3578
 2374TIP3    H1 7128   3.031   5.087   2.185  2.2745 -0.6099 -1.3794
 2374TIP3    H2 7129   2.925   5.065   2.080 -1.3408  0.2572  1.8716
 2375TIP3   OH2 7130   4.123   3.801   2.446  0.0926  0.0282 -0.1462
 2375TIP3    H1 7131   4.100   3.873   2.504  0.2248 -0.5454  0.6238
 2375TIP3    H2 7132   4.168   3.843   2.372 -0.1044  0.7592  0.1391
 2376TIP3   OH2 7133   5.561   4.877   0.998 -0.0215 -0.1235  0.0333
 2376TIP3    H1 7134   5.541   4.920   1.082 -0.2410  0.3348 -0.2496
 2376TIP3    H2 7135   5.651   4.904   0.979 -0.5805  1.3056 -0.7801
 2377TIP3   OH2 7136   0.618   1.794   2.580  0.3321 -0.6380  0.3629
 2377TIP3    H1 7137   0.599   1.772   2.489 -0.2675  0.9061  0.0737
 2377TIP3    H2 7138   0.713   1.788   2.587  0.3749 -0.9014 -0.3315
 2378TIP3   OH2 7139   0.282   1.724   5.004 -0.5420  0.2829  0.2451
 2378TIP3    H1 7140   0.208   1.669   5.026 -0.5893 -0.5660 -1.8423
 2378TIP3    H2 7141   0.350   1.701   5.067 -0.9574 -1.3488  0.1192
 2379TIP3   OH2 7142   3.950   2.377   0.967  0.0245  0.1280 -0.2769
 2379TIP3    H1 7143   3.914   2.296   0.932 -0.1134  0.6219 -1.3143
 2379TIP3    H2 7144   3.876   2.438   0.967  0.1835  0.3280  0.2562
 2380TIP3   OH2 7145   5.657   0.800   2.400  0.3236  0.2584  0.1502
 2380TIP3    H1 7146   5.562   0.807   2.392  0.4262  0.5641 -1.0820
 2380TIP3    H2 7147   5.690   0.885   2.372  0.9225  0.5791  1.7719
 2381TIP3   OH2 7148   1.588   1.848   5.010  0.4013 -0.2614  0.1343
 2381TIP3    H1 7149   1.537   1.827   4.932 -0.0750 -1.2673  0.6910
 2381TIP3    H2 7150   1.528   1.831   5.083  1.0090  0.1413  0.7381
 2382TIP3   OH2 7151   2.419   5.673   1.936  0.0233 -0.0941 -0.2024
 2382TIP3    H1 7152   2.487   5.740   1.930  0.1318 -0.2611 -0.9341
 2382TIP3    H2 7153   2.409   5.640   1.847  0.3494 -1.4322  0.2245
 2383TIP3   OH2 7154   2.347   1.028   0.409 -0.0763 -0.3029  0.0179
 2383TIP3    H1 7155   2.298   1.078   0.344 -1.0522 -1.8429 -0.4758
 2383TIP3    H2 7156   2.387   0.957   0.359 -0.8901 -1.5554  1.0973
 2384TIP3   OH2 7157   6.318   4.982   4.509 -0.3309 -0.8836  0.7255
 2384TIP3    H1 7158   6.289   5.072   4.523 -1.3022 -0.8420 -1.1922
 2384TIP3    H2 7159   6.309   4.968   4.414  0.9333 -2.6203  0.8022
 2385TIP3   OH2 7160   5.300   0.241   3.098  0.6720 -0.2272  0.3491
 2385TIP3    H1 7161   5.391   0.249   3.128  0.6897  1.5379 -0.0787
 2385TIP3    H2 7162   5.248   0.272   3.172  0.4830 -0.1425  0.1811
 2386TIP3   OH2 7163   4.646   4.183   5.086 -0.1729  0.6365 -0.1686
 2386TIP3    H1 7164   4.626   4.144   5.001 -0.1100 -0.7064  0.4046
 2386TIP3    H2 7165   4.642   4.278   5.071  0.7173  0.4373 -1.8677
 2387TIP3   OH2 7166   3.174   1.383   2.817 -0.0561  0.1996 -0.1089
 2387TIP3    H1 7167   3.106   1.364   2.881 -1.3095  1.3975 -1.0347
 2387TIP3    H2 7168   3.242   1.428   2.868 -0.6517  0.3906  0.5372
 2388TIP3   OH2 7169   1.540   2.097   1.521  0.3931 -0.4049  0.0460
 2388TIP3    H1 7170   1.521   2.148   1.600 -0.3485  0.2205 -0.5144
 2388TIP3    H2 7171   1.605   2.150   1.474 -1.1663  0.6044 -1.0558
 2389TIP3   OH2 7172   3.685   5.405   0.381  0.4934 -0.0183 -0.0562
 2389TIP3    H1 7173   3.687   5.498   0.405 -0.7056  0.0644 -0.2611
 2389TIP3    H2 7174   3.739   5.400   0.302  0.4664  0.5270 -0.1112
 2390TIP3   OH2 7175   6.341   5.896   4.191  0.3704 -0.4003 -0.9836
 2390TIP3    H1 7176   6.412   5.854   4.142 -0.2970 -0.5771 -1.8193
 2390TIP3    H2 7177   6.266   5.893   4.132  0.2654  1.9063 -1.0491
 2391TIP3   OH2 7178   3.689   2.752   0.174  0.3947  0.2200  0.3830
 2391TIP3    H1 7179   3.690   2.802   0.256  0.9708  0.8995 -0.0254
 2391TIP3    H2 7180   3.780   2.754   0.144  0.2736 -0.4079 -0.0545
 2392TIP3   OH2 7181   1.673   5.831   4.439 -0.3821  0.2334  0.0965
 2392TIP3    H1 7182   1.654   5.842   4.346  0.4951  1.5471  0.0434
 2392TIP3    H2 7183   1.762   5.866   4.450 -0.9099  1.2103  1.6248
 2393TIP3   OH2 7184   4.578   5.009   1.381  0.1246 -0.6752  0.0188
 2393TIP3    H1 7185   4.555   5.022   1.473 -0.4155  1.0916 -0.3240
 2393TIP3    H2 7186   4.527   4.933   1.355 -1.2755 -0.0119  0.6941
 2394TIP3   OH2 7187   6.102   4.078   4.503 -0.0538 -0.1307 -0.1183
 2394TIP3    H1 7188   6.107   4.123   4.587  1.3657  0.8619 -0.6929
 2394TIP3    H2 7189   6.188   4.036   4.493 -0.3252 -0.5104 -0.9346
 2395TIP3   OH2 7190   0.236   2.091   1.591  0.3367  0.1623 -0.2950
 2395TIP3    H1 7191   0.199   2.030   1.526  0.2798  0.6576 -0.7349
 2395TIP3    H2 7192   0.321   2.116   1.556  0.4911  0.1007  0.0339
 2396TIP3   OH2 7193   1.706   1.453   2.421 -0.3499  0.0222  0.8141
 2396TIP3    H1 7194   1.660   1.452   2.337 -0.0580  0.4050  0.6431
 2396TIP3    H2 7195   1.679   1.372   2.464  0.0232 -0.5275  0.0602
 2397TIP3   OH2 7196   3.389   2.822   2.945 -0.1571 -0.2146 -0.0737
 2397TIP3    H1 7197   3.414   2.914   2.952 -0.0358 -0.2525  0.0034
 2397TIP3    H2 7198   3.454   2.783   2.887 -0.2134 -0.2493 -0.1132
 2398TIP3   OH2 7199   0.070   5.275   4.138  0.4499 -0.2462 -0.3940
 2398TIP3    H1 7200   0.111   5.358   4.162  0.8608 -0.4624 -0.3448
 2398TIP3    H2 7201   0.143   5.216   4.118  0.1940 -0.7909  0.2037
 2399TIP3   OH2 7202   2.606   2.961   0.929 -1.0552 -0.1863 -0.0060
 2399TIP3    H1 7203   2.581   2.991   1.016  0.1523 -2.8250  1.3697
 2399TIP3    H2 7204   2.702   2.959   0.931 -0.9843  0.2031 -1.6098
 2400TIP3   OH2 7205   0.017   3.369   4.034  0.0410  0.0410 -0.2181
 2400TIP3    H1 7206   0.063   3.453   4.033  0.4284 -0.1748 -0.8991
 2400TIP3    H2 7207  -0.040   3.374   4.111  1.1493  0.3353  0.6143
 2401TIP3   OH2 7208   0.662   0.737   3.232  0.3764  0.1678 -0.1330
 2401TIP3    H1 7209   0.670   0.832   3.217  2.5483  0.1294  0.5489
 2401TIP3    H2 7210   0.595   0.709   3.168  0.0466  2.0582 -0.6924
 2402TIP3   OH2 7211   4.263   3.574   2.551  0.0409  0.5258  0.1687
 2402TIP3    H1 7212   4.301   3.577   2.639 -0.0769 -1.4625  0.3255
 2402TIP3    H2 7213   4.213   3.656   2.544 -2.1332 -0.4109  2.9895
 2403TIP3   OH2 7214   3.289   5.045   1.890 -0.2905 -0.0737 -0.3220
 2403TIP3    H1 7215   3.291   4.950   1.886  2.5971 -0.1257  0.2549
 2403TIP3    H2 7216   3.318   5.066   1.978  0.4033  1.3261 -0.8470
 2404TIP3   OH2 7217   1.786   4.843   0.695 -0.1906 -0.0988  0.2950
 2404TIP3    H1 7218   1.787   4.909   0.625 -0.1357 -0.4750 -0.0659
 2404TIP3    H2 7219   1.875   4.841   0.729 -0.3815  0.5694  0.8382
 2405TIP3   OH2 7220   3.898   1.447   3.201 -0.5982 -0.0628  0.3997
 2405TIP3    H1 7221   3.897   1.536   3.164  0.3289 -0.1330  0.1821
 2405TIP3    H2 7222   3.988   1.418   3.191 -0.8474 -0.9614  0.6552
 2406TIP3   OH2 7223   5.429   1.700   3.884  0.9011  0.5623  0.3909
 2406TIP3    H1 7224   5.504   1.691   3.826  0.0823  1.0040 -0.7741
 2406TIP3    H2 7225   5.436   1.788   3.920 -0.0787  1.3626 -1.2535
 2407TIP3   OH2 7226   6.198   0.506   1.444  0.0755  0.7869 -0.1373
 2407TIP3    H1 7227   6.173   0.576   1.505 -1.6308  0.6788 -0.6695
 2407TIP3    H2 7228   6.237   0.439   1.500 -1.1738  0.8238  0.8141
 2408TIP3   OH2 7229   5.577   0.951   4.758 -0.1881  0.8907  0.2205
 2408TIP3    H1 7230   5.560   0.879   4.818  1.0692 -0.6667 -1.1896
 2408TIP3    H2 7231   5.507   0.944   4.693  0.4167  0.3686 -0.3911
 2409TIP3   OH2 7232   0.502   2.125   0.912  0.1704  0.1200 -0.0889
 2409TIP3    H1 7233   0.443   2.140   0.985  2.9216  3.2569  1.7720
 2409TIP3    H2 7234   0.466   2.177   0.841 -0.2279  0.6023  0.4625
 2410TIP3   OH2 7235   3.669   4.402   5.194 -0.7919  0.7347 -0.1621
 2410TIP3    H1 7236   3.685   4.439   5.107 -0.5158  0.7001 -0.1262
 2410TIP3    H2 7237   3.584   4.360   5.187 -0.8346  0.8563 -0.3769
 2411TIP3   OH2 7238   3.020   2.794   3.308  1.1808 -0.2487 -0.0431
 2411TIP3    H1 7239   3.001   2.813   3.216  1.5819  0.4577  0.0070
 2411TIP3    H2 7240   3.002   2.876   3.353  0.3842 -0.7746  0.6148
 2412TIP3   OH2 7241   6.111   4.650   1.297 -0.3447  0.3317  0.4282
 2412TIP3    H1 7242   6.082   4.725   1.350  0.5552  1.9377 -1.2483
 2412TIP3    H2 7243   6.096   4.677   1.207 -0.8277 -1.9117 -0.2249
 2413TIP3   OH2 7244   3.577   4.792   4.096 -0.1044 -0.0767 -0.9302
 2413TIP3    H1 7245   3.595   4.717   4.039 -0.3221 -0.9212  0.0937
 2413TIP3    H2 7246   3.482   4.791   4.108  0.1241 -1.2254  1.1710
 2414TIP3   OH2 7247   4.570   4.482   2.421 -0.5059  0.0828  0.5353
 2414TIP3    H1 7248   4.519   4.555   2.457 -0.8057 -0.8592  2.1163
 2414TIP3    H2 7249   4.660   4.514   2.418 -0.8005  0.9071  0.0701
 2415TIP3   OH2 7250   1.335   5.222   4.756  0.3965  0.5178  0.4928
 2415TIP3    H1 7251   1.245   5.227   4.787  0.2276 -0.5105  0.2054
 2415TIP3    H2 7252   1.329   5.180   4.670  1.1357  0.6173  0.3819
 2416TIP3   OH2 7253   5.055   1.971   5.028  0.1267  0.5150  0.3422
 2416TIP3    H1 7254   4.998   1.915   5.080  0.7883 -0.2534  0.2466
 2416TIP3    H2 7255   5.074   1.921   4.949  1.4123  0.4909  0.6365
 2417TIP3   OH2 7256   0.848   1.495   5.211 -0.1956  0.1407 -0.6002
 2417TIP3    H1 7257   0.913   1.428   5.192 -0.2683  0.0546 -0.5428
 2417TIP3    H2 7258   0.830   1.535   5.125 -2.2920 -1.8412 -1.1674
 2418TIP3   OH2 7259   2.147   0.744   2.447  0.0890 -0.4384  0.0825
 2418TIP3    H1 7260   2.148   0.654   2.415  0.1323 -0.2578 -0.4271
 2418TIP3    H2 7261   2.173   0.797   2.372  2.3001 -0.1670  0.9585
 2419TIP3   OH2 7262   4.112   2.240   2.522 -0.5713 -0.0854 -0.5051
 2419TIP3    H1 7263   4.133   2.152   2.492 -0.1543 -0.1030 -0.1685
 2419TIP3    H2 7264   4.021   2.233   2.553 -0.4956 -0.4300 -0.3562
 2420TIP3   OH2 7265   4.391   2.564   0.019 -0.4962 -0.8535  0.0828
 2420TIP3    H1 7266   4.468   2.564   0.076  0.3514  1.0870 -0.9503
 2420TIP3    H2 7267   4.408   2.494  -0.044  0.8916  0.0641 -0.6300
 2421TIP3   OH2 7268   3.670   1.595   1.566 -0.3791  0.7507  0.1501
 2421TIP3    H1 7269   3.716   1.675   1.539  0.3029  0.0787 -0.7314
 2421TIP3    H2 7270   3.729   1.524   1.542 -1.1259 -0.0478  0.6161
 2422TIP3   OH2 7271   0.195   3.478   4.868 -0.3677 -0.1724  0.5295
 2422TIP3    H1 7272   0.254   3.488   4.943  1.9894  0.2454 -1.2582
 2422TIP3    H2 7273   0.204   3.387   4.843  1.8902  0.5144 -1.4823
 2423TIP3   OH2 7274   4.954   0.597   0.083 -0.5020 -0.1605 -0.2253
 2423TIP3    H1 7275   4.974   0.578   0.175  0.8551 -1.4711 -0.7449
 2423TIP3    H2 7276   4.859   0.608   0.081 -0.4396  1.1174  1.5206
 2424TIP3   OH2 7277   4.141   3.866   0.438  0.5058 -0.9156 -0.6597
 2424TIP3    H1 7278   4.052   3.894   0.420  0.2273 -0.4153  1.2625
 2424TIP3    H2 7279   4.160   3.800   0.371 -1.3067 -1.0575 -1.0658
 2425TIP3   OH2 7280   3.938   4.548   4.509 -1.2489  0.7095  0.4238
 2425TIP3    H1 7281   3.845   4.567   4.519 -1.4207 -0.5170  1.3597
 2425TIP3    H2 7282   3.941   4.456   4.484 -0.3150  0.9902 -0.5542
 2426TIP3   OH2 7283   0.361   5.885   3.543 -0.0584  0.8864  0.5829
 2426TIP3    H1 7284   0.441   5.838   3.520  0.5257  1.9084  0.4335
 2426TIP3    H2 7285   0.370   5.903   3.637 -0.6617  0.0041  0.8163
 2427TIP3   OH2 7286   4.394   1.254   4.015 -0.6215 -0.2557  0.0225
 2427TIP3    H1 7287   4.420   1.335   4.059  1.6251 -1.2028  0.5650
 2427TIP3    H2 7288   4.325   1.218   4.070 -2.3748  1.6832 -0.7376
 2428TIP3   OH2 7289   4.013   2.198   0.443 -0.1272 -0.4518 -0.0487
 2428TIP3    H1 7290   4.006   2.282   0.487 -2.4305 -1.0235  0.8285
 2428TIP3    H2 7291   4.088   2.155   0.484 -0.1092  0.4159  0.8664
 2429TIP3   OH2 7292   2.791   3.515   1.829  0.1172 -0.2616 -0.0999
 2429TIP3    H1 7293   2.809   3.458   1.904 -0.1971 -0.7750 -0.4084
 2429TIP3    H2 7294   2.852   3.484   1.762  0.4236  0.2213 -0.0488
 2430TIP3   OH2 7295   5.777   5.857   0.314 -0.6931 -0.3547  0.5869
 2430TIP3    H1 7296   5.724   5.925   0.356  0.0371 -0.4183  1.6399
 2430TIP3    H2 7297   5.754   5.776   0.359  0.3087 -0.3758  1.0968
 2431TIP3   OH2 7298   5.672   2.815   1.677 -0.1477  0.3436  0.0732
 2431TIP3    H1 7299   5.620   2.735   1.687 -1.6649  1.2164 -0.3800
 2431TIP3    H2 7300   5.734   2.796   1.607  0.0173 -0.6716  0.4896
 2432TIP3   OH2 7301   3.253   4.050   4.334  0.0479 -0.5953 -0.0060
 2432TIP3    H1 7302   3.249   4.115   4.264 -1.2639 -1.3400 -0.6787
 2432TIP3    H2 7303   3.225   4.097   4.413 -0.9830 -0.3531 -0.5032
 2433TIP3   OH2 7304   2.310   1.134   1.003  0.3124  0.2214 -0.0838
 2433TIP3    H1 7305   2.278   1.177   0.924  0.1928 -1.9040 -1.2577
 2433TIP3    H2 7306   2.359   1.202   1.049  0.8231  1.3974 -2.2319
 2434TIP3   OH2 7307   1.367   0.943   0.683 -0.5163  0.4120 -0.2611
 2434TIP3    H1 7308   1.314   1.004   0.632 -1.4024 -0.8992 -0.9493
 2434TIP3    H2 7309   1.457   0.971   0.668 -0.8134  0.6293 -1.7861
 2435TIP3   OH2 7310   0.566   4.554   3.921  0.4035 -0.8786 -0.0522
 2435TIP3    H1 7311   0.501   4.518   3.861  2.2151 -1.0044 -2.0657
 2435TIP3    H2 7312   0.636   4.488   3.922  0.7121 -0.5927  1.7761
 2436TIP3   OH2 7313   1.824   4.528   2.470  0.5393 -0.2163 -0.0704
 2436TIP3    H1 7314   1.902   4.492   2.511 -0.0601 -1.2677  0.2029
 2436TIP3    H2 7315   1.757   4.525   2.539  0.1654  0.3446 -0.3960
 2437TIP3   OH2 7316   0.585   0.221   1.917  1.0802 -0.3011 -0.7253
 2437TIP3    H1 7317   0.580   0.316   1.903  0.3949 -0.2935 -0.4481
 2437TIP3    H2 7318   0.552   0.208   2.006 -0.2697 -0.9418 -1.2928
 2438TIP3   OH2 7319   2.952   2.138   1.183  0.4250  0.2104 -0.2398
 2438TIP3    H1 7320   2.883   2.164   1.243  0.8143  0.0526  0.2820
 2438TIP3    H2 7321   2.937   2.045   1.167 -0.6264  0.5804 -1.6581
 2439TIP3   OH2 7322   2.386   2.889   0.741 -0.2480 -0.0746  0.2248
 2439TIP3    H1 7323   2.432   2.878   0.658 -2.3620  0.5368 -1.0884
 2439TIP3    H2 7324   2.455   2.909   0.804  1.5303 -1.5740 -1.1359
 2440TIP3   OH2 7325   5.729   2.410   3.788 -0.8201  0.1642 -0.1678
 2440TIP3    H1 7326   5.749   2.402   3.882  3.6468  2.4854 -0.6235
 2440TIP3    H2 7327   5.770   2.333   3.749  2.0400  1.7093 -0.5023
 2441TIP3   OH2 7328   1.799   5.968   1.604  0.2346 -0.6755 -0.4336
 2441TIP3    H1 7329   1.769   5.879   1.620  2.0611 -1.5231 -1.3842
 2441TIP3    H2 7330   1.719   6.019   1.591 -0.8657 -2.0015  0.8239
 2442TIP3   OH2 7331   5.159   0.677   5.105  0.1227 -0.0806 -0.2456
 2442TIP3    H1 7332   5.091   0.676   5.039 -0.3752  0.9712  0.2308
 2442TIP3    H2 7333   5.113   0.691   5.188  0.8955  0.6320  0.0878
 2443TIP3   OH2 7334   2.173   2.336   4.199  0.2002  0.5125 -0.4142
 2443TIP3    H1 7335   2.187   2.428   4.177 -0.1713  0.3889 -1.2257
 2443TIP3    H2 7336   2.252   2.309   4.245  0.9644  0.8283 -1.5201
 2444TIP3   OH2 7337   4.325   4.457   2.983  0.2897  0.7075 -0.0624
 2444TIP3    H1 7338   4.241   4.467   2.938 -0.5079  1.2442  1.4770
 2444TIP3    H2 7339   4.390   4.450   2.912 -1.1782 -1.2038 -1.2938
 2445TIP3   OH2 7340   4.570   3.241   3.506  0.5335 -0.9579  0.2519
 2445TIP3    H1 7341   4.526   3.200   3.580  1.4825  0.3214  1.5812
 2445TIP3    H2 7342   4.604   3.323   3.541  2.3516 -1.0360 -1.2097
 2446TIP3   OH2 7343   2.021   0.571   2.243  0.0273  0.1136  0.6600
 2446TIP3    H1 7344   2.011   0.478   2.266  1.2193 -0.4291 -0.8623
 2446TIP3    H2 7345   1.954   0.585   2.175 -0.2665  0.4143  1.0128
 2447TIP3   OH2 7346   1.257   0.722   1.706  0.1001 -0.3952 -0.5109
 2447TIP3    H1 7347   1.257   0.738   1.800 -0.0365 -0.3152 -0.5256
 2447TIP3    H2 7348   1.350   0.722   1.682  0.0952  1.3541 -0.6813
 2448TIP3   OH2 7349   4.549   1.646   3.092  0.1913 -0.2083 -0.1985
 2448TIP3    H1 7350   4.576   1.554   3.102 -0.0868 -0.1589  1.2567
 2448TIP3    H2 7351   4.488   1.645   3.018  0.3107 -1.1597 -0.3019
 2449TIP3   OH2 7352   3.801   3.381   0.523 -0.3502  0.0093  0.5672
 2449TIP3    H1 7353   3.749   3.417   0.452 -1.5077  1.1154  1.9167
 2449TIP3    H2 7354   3.865   3.450   0.543  0.1650 -0.4171  0.4187
 2450TIP3   OH2 7355   6.217   5.229   1.861  0.3443  0.2200  0.9810
 2450TIP3    H1 7356   6.284   5.295   1.848 -1.4145  1.8700 -0.3380
 2450TIP3    H2 7357   6.143   5.259   1.808 -1.5535 -1.3161  2.5801
 2451TIP3   OH2 7358   5.507   1.447   1.359 -0.6254 -0.4584  0.0976
 2451TIP3    H1 7359   5.431   1.428   1.304 -0.0851 -0.9861 -0.4860
 2451TIP3    H2 7360   5.570   1.488   1.299  1.0082 -3.4199 -0.3882
 2452TIP3   OH2 7361   5.298   0.892   1.094 -0.4462 -0.3882  0.4453
 2452TIP3    H1 7362   5.308   0.904   1.000 -0.9595  0.5245  0.5013
 2452TIP3    H2 7363   5.241   0.964   1.122  1.2908  0.5363  1.7806
 2453TIP3   OH2 7364   0.292   5.219   1.288  0.1160 -0.3574  0.1165
 2453TIP3    H1 7365   0.350   5.159   1.335 -1.4064 -1.2545  0.9217
 2453TIP3    H2 7366   0.233   5.161   1.239 -1.0602  0.4823  0.5073
 2454TIP3   OH2 7367   1.571   0.165   1.073  0.0698 -0.6630 -0.3257
 2454TIP3    H1 7368   1.505   0.117   1.023  0.2770  0.9013 -2.1820
 2454TIP3    H2 7369   1.628   0.097   1.109 -2.1489 -2.0216  0.8447
 2455TIP3   OH2 7370   0.784   0.913   3.497  0.0106  0.0405 -0.3503
 2455TIP3    H1 7371   0.759   0.850   3.565  0.7103  1.5668  1.4347
 2455TIP3    H2 7372   0.705   0.964   3.481  0.1236  0.4110  0.2099
 2456TIP3   OH2 7373   1.989   4.540   0.193 -0.7784 -0.2300  0.3096
 2456TIP3    H1 7374   2.050   4.531   0.120 -0.8702  0.4620  0.1419
 2456TIP3    H2 7375   2.035   4.501   0.267  0.6559  1.8386  0.6076
 2457TIP3   OH2 7376   4.756   4.790   3.556 -0.0323 -0.6310 -0.2755
 2457TIP3    H1 7377   4.850   4.810   3.553  0.3304 -2.2878 -0.6933
 2457TIP3    H2 7378   4.721   4.834   3.479 -0.0568  1.9321  1.0797
 2458TIP3   OH2 7379   4.246   1.044   2.352  0.3220 -0.2955 -0.1982
 2458TIP3    H1 7380   4.250   1.128   2.308 -1.6312  0.0010  0.0981
 2458TIP3    H2 7381   4.337   1.012   2.352  0.8093  0.9650 -1.8916
 2459TIP3   OH2 7382   1.301   0.756   5.137  0.3150  0.4453  0.2714
 2459TIP3    H1 7383   1.288   0.665   5.161 -1.1599  0.9140  1.3466
 2459TIP3    H2 7384   1.308   0.755   5.041 -0.0654 -0.7410  0.2437
 2460TIP3   OH2 7385   2.047   4.062   3.432 -0.8106  0.3051  0.0968
 2460TIP3    H1 7386   2.051   3.991   3.368  0.0265 -1.2126  1.7368
 2460TIP3    H2 7387   2.043   4.142   3.380  0.7186 -0.8058 -1.8496
 2461TIP3   OH2 7388   2.497   2.060   4.562 -0.3932 -0.0521  0.8142
 2461TIP3    H1 7389   2.559   2.009   4.510 -0.6609  0.7942 -0.3576
 2461TIP3    H2 7390   2.546   2.082   4.642  1.4299  1.9596 -0.7455
 2462TIP3   OH2 7391   6.278   0.248   0.541 -0.5076  0.4579 -0.4209
 2462TIP3    H1 7392   6.272   0.318   0.606  1.4886  0.4187 -0.1428
 2462TIP3    H2 7393   6.327   0.287   0.468  0.1982 -0.4757 -0.4646
 2463TIP3   OH2 7394   5.199   4.819   0.047  0.4103  0.1335  0.1591
 2463TIP3    H1 7395   5.145   4.886   0.089  0.2327 -0.0804  0.2763
 2463TIP3    H2 7396   5.178   4.738   0.094  1.0234  0.0957  0.3789
 2464TIP3   OH2 7397   4.933   0.341   3.627 -0.2451 -0.3228 -0.0143
 2464TIP3    H1 7398   4.950   0.275   3.560 -0.3242 -1.3165  0.9255
 2464TIP3    H2 7399   4.961   0.424   3.587  0.4124 -0.9964 -0.9865
 2465TIP3   OH2 7400   6.152   1.488   1.174 -0.1958  0.0881  0.2025
 2465TIP3    H1 7401   6.098   1.425   1.127  2.1552 -0.3025 -2.1990
 2465TIP3    H2 7402   6.201   1.436   1.237  0.9877 -0.3749 -1.0698
 2466TIP3   OH2 7403   2.800   5.952   3.188 -0.1117  0.0507 -0.1722
 2466TIP3    H1 7404   2.842   5.867   3.171 -1.8077 -0.7639 -0.4683
 2466TIP3    H2 7405   2.792   5.993   3.102 -1.7235 -0.6987 -0.4101
 2467TIP3   OH2 7406   6.007   2.811   3.731  0.4120  0.1277  0.3848
 2467TIP3    H1 7407   5.951   2.766   3.794  0.2315 -0.1791  0.0007
 2467TIP3    H2 7408   6.064   2.866   3.786 -0.5977  0.8399  0.7583
 2468TIP3   OH2 7409   0.988   3.042   2.292 -0.3647 -0.1012  0.0088
 2468TIP3    H1 7410   1.077   3.007   2.287 -0.4042 -0.1956 -0.0341
 2468TIP3    H2 7411   0.984   3.085   2.378 -0.1936  0.1363 -0.0998
 2469TIP3   OH2 7412   0.404   3.066   0.060 -0.0160  0.3414  0.2836
 2469TIP3    H1 7413   0.466   3.043  -0.010  1.0831 -0.3451  1.4417
 2469TIP3    H2 7414   0.336   3.116   0.016  1.9204  2.1330 -0.8694
 2470TIP3   OH2 7415   3.114   5.186   2.773 -0.4998  0.0490 -0.2099
 2470TIP3    H1 7416   3.164   5.260   2.810 -2.4151  0.6156  1.4217
 2470TIP3    H2 7417   3.053   5.227   2.712  0.3365 -0.5410 -1.4835
 2471TIP3   OH2 7418   4.650   1.904   4.060  0.3033  0.1054  0.1438
 2471TIP3    H1 7419   4.589   1.875   4.127  1.2277 -0.3757  0.8018
 2471TIP3    H2 7420   4.660   1.828   4.002  0.0278  0.2942 -0.1546
 2472TIP3   OH2 7421   5.061   0.690   2.409  0.1268 -0.8239  0.0322
 2472TIP3    H1 7422   5.148   0.674   2.448  1.2973 -0.5012 -2.2784
 2472TIP3    H2 7423   5.037   0.607   2.369 -0.9973 -1.1031  1.2064
 2473TIP3   OH2 7424   5.189   4.059   1.695  0.1250  0.0258 -0.3483
 2473TIP3    H1 7425   5.174   4.093   1.784 -0.9456 -2.1644  0.3810
 2473TIP3    H2 7426   5.279   4.028   1.696  0.1379  0.0634 -0.0234
 2474TIP3   OH2 7427   2.302   0.551   1.319 -0.3847 -0.6597  0.0484
 2474TIP3    H1 7428   2.336   0.499   1.392  0.9587 -1.7285 -1.2750
 2474TIP3    H2 7429   2.236   0.495   1.278 -0.5369 -0.4005 -0.0694
 2475TIP3   OH2 7430   2.624   1.360   0.842  0.0690  0.0253 -0.5757
 2475TIP3    H1 7431   2.530   1.352   0.829  0.1584  0.4820 -1.6060
 2475TIP3    H2 7432   2.659   1.382   0.756  1.1398 -0.2799 -0.2379
 2476TIP3   OH2 7433   1.258   5.519   2.138  0.1546  0.1626 -0.4338
 2476TIP3    H1 7434   1.271   5.601   2.185 -1.6231 -0.8756  2.0611
 2476TIP3    H2 7435   1.163   5.505   2.140  0.3105 -1.4335 -1.7897
 2477TIP3   OH2 7436   2.512   5.192   1.021  0.2989  0.2909  0.4941
 2477TIP3    H1 7437   2.521   5.122   1.086  0.0708 -2.6763 -2.3764
 2477TIP3    H2 7438   2.422   5.224   1.032 -0.2212 -1.1807  0.7337
 2478TIP3   OH2 7439   3.337   2.205   2.849  0.4097  0.4677 -0.1602
 2478TIP3    H1 7440   3.358   2.245   2.934  0.6440  0.4885 -0.2267
 2478TIP3    H2 7441   3.411   2.229   2.793  0.6581 -0.2444 -0.1420
 2479TIP3   OH2 7442   2.842   3.069   2.277  0.1949  0.1567 -0.1002
 2479TIP3    H1 7443   2.789   3.036   2.204 -0.9805 -0.4392  0.9797
 2479TIP3    H2 7444   2.904   3.130   2.236 -0.6991  0.1535 -1.5347
 2480TIP3   OH2 7445   2.860   1.279   1.006  0.4476 -0.3448  0.1282
 2480TIP3    H1 7446   2.826   1.246   1.089 -1.0404  0.8400  0.0330
 2480TIP3    H2 7447   2.784   1.281   0.948  1.1019  0.4586 -0.7358
 2481TIP3   OH2 7448   5.744   5.276   4.390  0.0743  0.2603  0.8512
 2481TIP3    H1 7449   5.834   5.243   4.394  0.1841  0.4959  0.4126
 2481TIP3    H2 7450   5.689   5.199   4.402  0.3332  0.0405  0.6286
 2482TIP3   OH2 7451   4.607   2.869   3.484  0.6614  0.3206  0.0726
 2482TIP3    H1 7452   4.665   2.921   3.429 -0.7282  0.0402 -1.7564
 2482TIP3    H2 7453   4.546   2.933   3.521  1.9453  0.5959  1.8871
 2483TIP3   OH2 7454   5.191   0.916   1.426  0.1897  0.0489 -0.2222
 2483TIP3    H1 7455   5.230   0.986   1.374  0.1606 -0.9607 -1.6430
 2483TIP3    H2 7456   5.117   0.886   1.374 -1.1186  0.3593  1.3544
 2484TIP3   OH2 7457   1.548   3.750   1.990  1.0356 -0.2799  0.3403
 2484TIP3    H1 7458   1.606   3.735   2.064  1.1805 -0.5255  0.1769
 2484TIP3    H2 7459   1.460   3.757   2.029  1.2693  1.0053  0.6932
 2485TIP3   OH2 7460   1.865   4.103   1.233  0.3023 -0.4087 -0.3866
 2485TIP3    H1 7461   1.800   4.173   1.229  0.1412 -0.5423 -0.1325
 2485TIP3    H2 7462   1.830   4.034   1.176  1.0972  0.2313 -1.7158
 2486TIP3   OH2 7463   4.834   4.162   3.618  0.0037  0.1540 -0.3699
 2486TIP3    H1 7464   4.902   4.112   3.574 -0.2398 -2.7770  2.2271
 2486TIP3    H2 7465   4.878   4.203   3.693 -0.8264 -0.7810  0.6523
 2487TIP3   OH2 7466   1.812   5.423   3.187 -0.2746  0.7703  0.1949
 2487TIP3    H1 7467   1.896   5.458   3.217 -0.0535  1.8525 -1.5431
 2487TIP3    H2 7468   1.822   5.413   3.093 -1.3029 -1.4466  0.2535
 2488TIP3   OH2 7469   5.408   1.036   2.557  0.5643  0.2263 -0.7278
 2488TIP3    H1 7470   5.405   1.076   2.470  0.1169  0.4779 -0.5983
 2488TIP3    H2 7471   5.414   0.942   2.539  1.4396  0.3296 -1.0332
 2489TIP3   OH2 7472   1.980   1.524   2.004 -0.5526  0.4555  0.3169
 2489TIP3    H1 7473   1.979   1.516   2.099  1.9555  0.2490  0.3972
 2489TIP3    H2 7474   1.983   1.618   1.987  1.4410  0.4769  0.5824
 2490TIP3   OH2 7475   1.906   2.474   5.163  0.1655  0.3647 -0.1723
 2490TIP3    H1 7476   1.976   2.409   5.157 -1.4410 -1.3007 -3.0809
 2490TIP3    H2 7477   1.866   2.475   5.076 -1.5202  3.4791  0.4888
 2491TIP3   OH2 7478   0.891   0.994   1.426  0.5670  0.6257  0.2465
 2491TIP3    H1 7479   0.837   0.952   1.493 -0.1082 -0.5099 -0.9457
 2491TIP3    H2 7480   0.978   0.955   1.437  0.2043 -0.3404 -0.1692
 2492TIP3   OH2 7481   1.510   5.710   2.169  0.3137 -0.1077 -0.5096
 2492TIP3    H1 7482   1.554   5.791   2.143 -0.4544  0.4705 -0.0870
 2492TIP3    H2 7483   1.450   5.738   2.239 -1.0295 -0.7664 -1.3646
 2493TIP3   OH2 7484   4.452   3.277   4.467  0.3925  0.1369  0.0893
 2493TIP3    H1 7485   4.441   3.187   4.438  0.1217 -0.3155  1.5400
 2493TIP3    H2 7486   4.547   3.290   4.469  0.4845 -0.5974  1.2478
 2494TIP3   OH2 7487   3.524   5.192   3.047  0.2953  0.4951  0.5918
 2494TIP3    H1 7488   3.603   5.139   3.038  0.2202  0.5159 -0.3176
 2494TIP3    H2 7489   3.474   5.149   3.116  0.0942 -0.8245 -0.3265
 2495TIP3   OH2 7490   4.142   1.077   1.284 -0.2251  0.0203 -0.0970
 2495TIP3    H1 7491   4.126   0.984   1.300 -1.4051  0.2571  0.1742
 2495TIP3    H2 7492   4.232   1.080   1.251 -0.7834 -1.4245 -1.9441
 2496TIP3   OH2 7493   1.890   5.434   3.660 -0.5013  0.1943  0.1287
 2496TIP3    H1 7494   1.815   5.412   3.605  1.2687 -1.6465 -1.6986
 2496TIP3    H2 7495   1.934   5.506   3.614 -0.9097  1.0486  1.0254
 2497TIP3   OH2 7496   3.955   5.237   4.977 -0.3050  0.4308  0.2432
 2497TIP3    H1 7497   3.873   5.197   4.949 -0.8044  1.2286  0.5442
 2497TIP3    H2 7498   4.018   5.213   4.909 -0.8305 -0.0334 -0.0837
 2498TIP3   OH2 7499   3.606   4.794   1.688  0.3381 -0.3016 -0.5680
 2498TIP3    H1 7500   3.522   4.813   1.647  0.0344 -0.8738 -0.2149
 2498TIP3    H2 7501   3.590   4.718   1.744  1.2671 -0.9398 -1.1251
 2499TIP3   OH2 7502   1.022   4.176   4.334  0.0275  0.2069  0.0083
 2499TIP3    H1 7503   1.114   4.166   4.358 -0.0534 -0.8775 -0.0683
 2499TIP3    H2 7504   1.008   4.109   4.267 -0.6455  0.8213 -0.4736
 2500TIP3   OH2 7505   0.184   3.820   3.669 -0.1764  0.4459 -0.2594
 2500TIP3    H1 7506   0.198   3.900   3.720 -1.5644  0.3358  0.3268
 2500TIP3    H2 7507   0.261   3.766   3.689  0.3308  1.2584  0.0458
 2501TIP3   OH2 7508   4.941   4.915   0.123 -0.0574  0.1517 -0.5697
 2501TIP3    H1 7509   4.895   4.838   0.158  2.0490 -0.8661  0.1398
 2501TIP3    H2 7510   4.936   4.905   0.028  0.7234 -1.2335 -0.4850
 2502TIP3   OH2 7511   5.676   1.967   2.507 -0.2226 -0.1948 -0.0167
 2502TIP3    H1 7512   5.701   1.990   2.596 -0.8632 -0.8515  0.3416
 2502TIP3    H2 7513   5.755   1.931   2.468  0.4914  1.5080 -0.2286
 2503TIP3   OH2 7514   2.438   3.736   2.018 -0.5792  0.1382  0.0810
 2503TIP3    H1 7515   2.532   3.741   2.001 -0.8451  0.0364 -1.6301
 2503TIP3    H2 7516   2.431   3.679   2.095  0.7236 -0.3976 -0.1554
 2504TIP3   OH2 7517   5.194   2.220   3.567  0.3261 -0.9492 -0.3467
 2504TIP3    H1 7518   5.225   2.311   3.571 -4.3370  0.9504 -0.8705
 2504TIP3    H2 7519   5.232   2.179   3.645  0.9599  2.0933  1.1174
 2505TIP3   OH2 7520   1.174   4.628   0.745  0.1579  0.3590  0.3196
 2505TIP3    H1 7521   1.197   4.611   0.836 -0.9362 -2.7259  0.1567
 2505TIP3    H2 7522   1.255   4.659   0.705  2.1418 -2.8818  1.3727
 2506TIP3   OH2 7523   4.632   3.166   4.826 -0.5472  0.3681 -0.0292
 2506TIP3    H1 7524   4.541   3.144   4.806 -0.6634  1.7953 -1.2531
 2506TIP3    H2 7525   4.634   3.262   4.825  0.8365  0.3674  0.6918
 2507TIP3   OH2 7526   2.765   5.966   1.588 -1.0091 -0.2759 -0.2175
 2507TIP3    H1 7527   2.768   5.986   1.681 -1.1715 -0.3970 -0.1845
 2507TIP3    H2 7528   2.725   5.879   1.584  0.6097 -1.0429 -0.2938
 2508TIP3   OH2 7529   6.117   1.300   3.772  0.2151 -0.1723  0.1047
 2508TIP3    H1 7530   6.080   1.278   3.858  0.3984  2.1171  0.8538
 2508TIP3    H2 7531   6.190   1.240   3.761  2.2416  1.4891  3.1233
 2509TIP3   OH2 7532   5.774   2.439   4.325  0.9491 -0.2213 -0.4754
 2509TIP3    H1 7533   5.813   2.523   4.352  0.5626  0.0336 -0.7010
 2509TIP3    H2 7534   5.785   2.382   4.400 -0.3290  0.5506  0.3311
 2510TIP3   OH2 7535   0.232   1.170   1.412  0.2796 -0.4679  0.6303
 2510TIP3    H1 7536   0.218   1.171   1.317 -1.0430  1.0374  0.7877
 2510TIP3    H2 7537   0.306   1.229   1.427  0.4733 -0.6876  0.5432
 2511TIP3   OH2 7538   4.492   3.611   1.359  0.4223  0.4459 -0.2775
 2511TIP3    H1 7539   4.501   3.518   1.338  3.1607  0.6423 -0.3176
 2511TIP3    H2 7540   4.452   3.612   1.446  1.1818 -0.8394  0.1228
 2512TIP3   OH2 7541   4.771   5.289   3.778 -0.2913  0.5442 -0.6994
 2512TIP3    H1 7542   4.724   5.352   3.723 -0.8346 -0.9961 -2.0657
 2512TIP3    H2 7543   4.827   5.241   3.718  0.4920  0.0372  0.3974
 2513TIP3   OH2 7544   3.938   0.672   1.605  0.0439  0.0566 -0.5432
 2513TIP3    H1 7545   3.989   0.718   1.671 -1.0808  0.9978 -0.3071
 2513TIP3    H2 7546   3.850   0.707   1.613 -0.4413 -0.8484 -1.5837
 2514TIP3   OH2 7547   1.792   2.510   3.586 -0.0654  0.3383 -0.1584
 2514TIP3    H1 7548   1.719   2.560   3.621  0.4926  1.1810 -0.1857
 2514TIP3    H2 7549   1.751   2.440   3.535 -0.8741 -0.0366  0.9471
 2515TIP3   OH2 7550   1.828   1.598   1.764 -0.7986  0.0607  0.5213
 2515TIP3    H1 7551   1.907   1.635   1.725 -0.3507  0.4781  1.7496
 2515TIP3    H2 7552   1.860   1.550   1.841 -1.6957 -0.0692  0.8213
 2516TIP3   OH2 7553   4.691   3.610   3.801  0.3619  0.1003 -0.3151
 2516TIP3    H1 7554   4.724   3.696   3.825 -1.2043  0.4837  0.6448
 2516TIP3    H2 7555   4.636   3.626   3.724  1.5063 -0.3554 -1.2529
 2517TIP3   OH2 7556   5.078   4.750   3.894  0.1793 -0.6094 -0.0379
 2517TIP3    H1 7557   5.119   4.785   3.973  1.5736  0.1418 -1.0430
 2517TIP3    H2 7558   5.059   4.659   3.914  1.0946 -0.5977  0.9476
 2518TIP3   OH2 7559   1.637   1.640   0.530  0.4104 -0.5464  0.0548
 2518TIP3    H1 7560   1.711   1.699   0.533  0.8124 -0.9529 -1.1912
 2518TIP3    H2 7561   1.672   1.559   0.492 -0.7873 -0.5354 -1.1529
 2519TIP3   OH2 7562   0.581   2.332   4.690 -0.1730  0.1139  0.0742
 2519TIP3    H1 7563   0.564   2.245   4.654  0.1025 -0.1018  0.4592
 2519TIP3    H2 7564   0.555   2.325   4.782  0.6324  0.1963  0.3139
 2520TIP3   OH2 7565   1.753   5.068   1.492 -0.3790 -0.0003 -0.1525
 2520TIP3    H1 7566   1.769   5.050   1.400 -0.0679  0.4286 -0.1893
 2520TIP3    H2 7567   1.827   5.029   1.538 -0.8189 -0.7018 -0.0263
 2521TIP3   OH2 7568   5.081   4.488   0.767 -0.4359 -0.3153 -0.1101
 2521TIP3    H1 7569   5.068   4.446   0.852  1.7019 -0.0950  0.3884
 2521TIP3    H2 7570   5.114   4.419   0.710 -0.8427 -0.2215 -0.4638
 2522TIP3   OH2 7571   1.918   2.443   1.184 -0.2288 -0.8243 -0.1503
 2522TIP3    H1 7572   1.954   2.361   1.150  1.7792 -0.0011 -0.1334
 2522TIP3    H2 7573   1.896   2.423   1.275 -0.8322 -1.6328 -0.4540
 2523TIP3   OH2 7574   3.556   4.888   3.483  0.4528 -0.0185 -0.9886
 2523TIP3    H1 7575   3.510   4.965   3.519  0.0301 -0.3019 -0.9168
 2523TIP3    H2 7576   3.635   4.881   3.536 -0.4117 -0.7420  0.2764
 2524TIP3   OH2 7577   3.673   2.617   1.513 -0.2418 -0.9892  0.1438
 2524TIP3    H1 7578   3.626   2.674   1.453  1.1544  0.4820  0.3709
 2524TIP3    H2 7579   3.613   2.606   1.587 -1.0287 -0.8655 -0.4628
 2525TIP3   OH2 7580   0.219   2.356   2.343  0.3145 -0.2496  0.5096
 2525TIP3    H1 7581   0.274   2.309   2.406  1.5897 -1.2706 -1.2624
 2525TIP3    H2 7582   0.133   2.315   2.350  0.0655  0.4756  2.3848
 2526TIP3   OH2 7583   2.210   3.229   3.272  0.0135 -0.0570 -0.2266
 2526TIP3    H1 7584   2.281   3.289   3.249 -1.2177  1.1486 -0.9505
 2526TIP3    H2 7585   2.145   3.241   3.203 -0.8639 -1.2300  0.3674
 2527TIP3   OH2 7586   2.130   1.611   1.562 -0.1552 -0.1579  0.3580
 2527TIP3    H1 7587   2.187   1.593   1.488  0.0629 -0.3335  0.5656
 2527TIP3    H2 7588   2.130   1.530   1.613 -2.9247 -1.2323 -1.1334
 2528TIP3   OH2 7589   5.973   5.002   3.838 -0.0032 -0.3280 -0.5585
 2528TIP3    H1 7590   5.950   4.974   3.750  0.4175  0.0947 -0.8097
 2528TIP3    H2 7591   5.961   4.924   3.892  0.2872 -0.7447 -1.0879
 2529TIP3   OH2 7592   1.915   2.700   1.243  0.2145  0.2454  0.0184
 2529TIP3    H1 7593   1.821   2.706   1.260  0.0806  2.0953 -1.0341
 2529TIP3    H2 7594   1.933   2.607   1.236 -1.6031 -0.1299 -0.0617
 2530TIP3   OH2 7595   4.914   5.854   2.816 -0.0608 -0.0179 -0.3574
 2530TIP3    H1 7596   4.976   5.781   2.815  2.0876  1.7395 -0.3663
 2530TIP3    H2 7597   4.933   5.903   2.736 -2.3013 -0.0538 -0.9865
 2531TIP3   OH2 7598   0.594   3.486   3.728 -0.1449  0.6665  0.3286
 2531TIP3    H1 7599   0.660   3.535   3.778  0.2320  0.5110 -0.0129
 2531TIP3    H2 7600   0.633   3.400   3.714 -0.6313  0.4054  0.5568
 2532TIP3   OH2 7601   4.352   5.133   4.626 -0.4453  0.1634 -0.3072
 2532TIP3    H1 7602   4.287   5.074   4.665 -0.0438  0.1418  0.3398
 2532TIP3    H2 7603   4.427   5.130   4.685  0.7138 -0.8885 -1.7473
 2533TIP3   OH2 7604   4.417   4.327   2.258 -0.6078  0.1578 -0.6132
 2533TIP3    H1 7605   4.428   4.233   2.270  0.3199  0.3469  0.1885
 2533TIP3    H2 7606   4.496   4.365   2.297  0.4774  1.1175 -3.5102
 2534TIP3   OH2 7607   2.850   0.349   3.441  0.2141  0.1937  0.0506
 2534TIP3    H1 7608   2.864   0.385   3.353  0.2009  0.2572  0.0739
 2534TIP3    H2 7609   2.829   0.257   3.427  0.6284  0.1021  0.0101
 2535TIP3   OH2 7610   4.185   2.292   4.178 -1.3160 -0.4291  0.3192
 2535TIP3    H1 7611   4.222   2.380   4.167 -2.8496  0.4820  1.9071
 2535TIP3    H2 7612   4.250   2.234   4.139 -0.0308  1.3662 -0.3656
 2536TIP3   OH2 7613   1.969   5.693   2.640  0.4575  0.7515  0.2546
 2536TIP3    H1 7614   2.063   5.675   2.639  0.5068  0.6349 -3.1222
 2536TIP3    H2 7615   1.931   5.616   2.683  1.7794 -0.1294 -0.0792
 2537TIP3   OH2 7616   1.155   4.022   4.643 -0.0479 -0.5369 -0.6093
 2537TIP3    H1 7617   1.229   4.064   4.687  0.3126 -1.3452 -0.4346
 2537TIP3    H2 7618   1.081   4.039   4.701  0.0105  0.1990 -0.7384
 2538TIP3   OH2 7619   6.337   3.235   0.755  0.4396 -0.0214 -0.2900
 2538TIP3    H1 7620   6.329   3.296   0.828 -0.5281  0.8755 -1.1055
 2538TIP3    H2 7621   6.312   3.286   0.678  0.8850 -1.0937 -1.1814
 2539TIP3   OH2 7622   1.579   2.717   4.837 -0.4503  0.3001 -0.3448
 2539TIP3    H1 7623   1.582   2.809   4.862 -0.3320 -0.2627  1.9214
 2539TIP3    H2 7624   1.649   2.676   4.888 -1.2324 -1.2193 -0.4506
 2540TIP3   OH2 7625   3.522   2.502   1.715 -0.0747 -0.0769 -0.1353
 2540TIP3    H1 7626   3.555   2.532   1.800 -0.4228 -1.7890  0.6394
 2540TIP3    H2 7627   3.550   2.411   1.709  0.9345  0.2969 -2.3984
 2541TIP3   OH2 7628   4.540   2.027   4.454  0.2030  0.3309  0.0661
 2541TIP3    H1 7629   4.524   2.070   4.538 -1.9724  1.5393 -0.8979
 2541TIP3    H2 7630   4.457   1.984   4.433 -0.8403  3.5482 -3.3894
 2542TIP3   OH2 7631   6.208   1.693   3.860  0.2853 -0.3923 -0.2009
 2542TIP3    H1 7632   6.141   1.700   3.793 -0.3915 -3.2796  0.0332
 2542TIP3    H2 7633   6.162   1.657   3.936  1.6473 -0.2010  0.7497
 2543TIP3   OH2 7634   0.348   3.166   2.329  0.9262 -0.0926  0.5737
 2543TIP3    H1 7635   0.365   3.255   2.300 -0.6254  0.6174  1.7120
 2543TIP3    H2 7636   0.422   3.145   2.386  1.6387  0.2044 -0.2264
 2544TIP3   OH2 7637   4.234   5.184   1.437 -0.7767 -0.1973 -0.0778
 2544TIP3    H1 7638   4.271   5.271   1.424 -2.0385  0.3226 -0.2693
 2544TIP3    H2 7639   4.294   5.142   1.500  0.1116  0.6194 -0.3566
 2545TIP3   OH2 7640   1.853   5.221   0.806  0.1229  0.0470  0.1324
 2545TIP3    H1 7641   1.799   5.231   0.728 -0.1048 -0.5161  0.2097
 2545TIP3    H2 7642   1.943   5.215   0.772 -0.0225 -0.7561 -0.1450
 2546TIP3   OH2 7643   0.372   0.319   3.453  0.1162  0.6514  0.3094
 2546TIP3    H1 7644   0.452   0.283   3.492  0.2582  2.8205  2.2863
 2546TIP3    H2 7645   0.394   0.333   3.361  0.9396 -1.5648  0.1073
 2547TIP3   OH2 7646   3.669   5.829   5.075 -0.1074 -0.1777 -0.0409
 2547TIP3    H1 7647   3.716   5.841   5.157  0.6267  1.8464 -0.6988
 2547TIP3    H2 7648   3.616   5.908   5.065 -0.0806 -0.3050 -1.5712
 2548TIP3   OH2 7649   0.409   0.413   0.680 -0.4984 -0.1077  0.2484
 2548TIP3    H1 7650   0.498   0.414   0.644 -0.2251 -0.1231  0.9057
 2548TIP3    H2 7651   0.357   0.461   0.616 -0.3165 -1.3768 -0.9027
 2549TIP3   OH2 7652   3.100   5.919   3.498 -0.0632  0.4940  0.2101
 2549TIP3    H1 7653   3.150   5.988   3.454 -1.3556  1.4622  0.1902
 2549TIP3    H2 7654   3.151   5.899   3.576  1.3526  0.0165 -0.8083
 2550TIP3   OH2 7655   1.292   2.332   0.587 -0.7495  0.4737  0.1836
 2550TIP3    H1 7656   1.372   2.354   0.539 -1.3975  0.2502 -1.0486
 2550TIP3    H2 7657   1.289   2.236   0.585 -2.0170  0.4898 -1.5308
 2551TIP3   OH2 7658   3.079   0.843   1.109  0.5276 -0.2934  0.2613
 2551TIP3    H1 7659   2.997   0.878   1.075  1.2824  1.0593 -0.2564
 2551TIP3    H2 7660   3.065   0.749   1.115 -2.1772  0.0954  3.1633
 2552TIP3   OH2 7661   3.864   3.470   2.957  0.2794  0.2236 -0.0899
 2552TIP3    H1 7662   3.818   3.415   2.893  0.7991  0.3534 -0.5772
 2552TIP3    H2 7663   3.802   3.478   3.030  0.2666 -1.1643  0.0771
 2553TIP3   OH2 7664   0.787   1.480   3.314 -0.0474 -0.0404 -0.4094
 2553TIP3    H1 7665   0.746   1.553   3.360 -0.2425  0.5940 -1.5565
 2553TIP3    H2 7666   0.878   1.505   3.304  0.0412 -0.2696 -0.1922
 2554TIP3   OH2 7667   0.584   0.191   1.304 -0.2739  0.5439  0.4356
 2554TIP3    H1 7668   0.508   0.133   1.307  1.2159 -1.8152 -2.2613
 2554TIP3    H2 7669   0.659   0.132   1.294  1.4739  2.8838 -1.4063
 2555TIP3   OH2 7670   2.699   2.993   0.311 -0.2402  0.0896 -0.2130
 2555TIP3    H1 7671   2.740   3.077   0.293 -1.8947  0.4877 -2.5813
 2555TIP3    H2 7672   2.758   2.928   0.272  0.5961  0.1842  0.8478
 2556TIP3   OH2 7673   1.711   4.130   3.246 -0.2131  0.3584 -0.8488
 2556TIP3    H1 7674   1.750   4.178   3.320 -0.7027  1.3354 -1.2041
 2556TIP3    H2 7675   1.751   4.171   3.169 -0.8347  0.3652 -1.1679
 2557TIP3   OH2 7676   3.790   5.573   0.802  0.3227  0.4320 -0.2045
 2557TIP3    H1 7677   3.750   5.516   0.737 -0.1153 -0.1439  0.5586
 2557TIP3    H2 7678   3.839   5.637   0.751  1.6111 -1.1755 -1.0667
 2558TIP3   OH2 7679   1.148   4.952   3.109 -0.2503  0.5887  0.2660
 2558TIP3    H1 7680   1.171   5.005   3.032 -0.2108  0.8525  0.4585
 2558TIP3    H2 7681   1.133   4.864   3.073 -1.1503  0.9044 -0.1796
 2559TIP3   OH2 7682   3.149   0.310   3.928 -0.5326  1.0041  0.3424
 2559TIP3    H1 7683   3.118   0.247   3.863 -0.9373  0.5705  0.9317
 2559TIP3    H2 7684   3.097   0.389   3.912 -1.8745  0.3513  1.1920
 2560TIP3   OH2 7685   4.573   4.366   0.689  0.2804 -0.3693  0.1418
 2560TIP3    H1 7686   4.626   4.389   0.612 -1.2492 -0.1497 -0.8918
 2560TIP3    H2 7687   4.577   4.445   0.744  1.0196 -0.3570  0.0855
 2561TIP3   OH2 7688   5.880   1.164   4.397 -0.3427  0.0518  0.2066
 2561TIP3    H1 7689   5.805   1.140   4.343  0.4612 -1.0629 -0.4577
 2561TIP3    H2 7690   5.954   1.119   4.356  0.5311  0.3660  1.3988
 2562TIP3   OH2 7691   4.011   0.408   0.819 -0.2330 -0.5249 -0.1624
 2562TIP3    H1 7692   4.045   0.323   0.792  1.0822  0.2084 -0.9189
 2562TIP3    H2 7693   3.916   0.395   0.826 -0.1063 -1.9189 -0.7237
 2563TIP3   OH2 7694   1.012   1.234   2.976  0.0959 -0.5671 -0.0953
 2563TIP3    H1 7695   1.060   1.167   3.025  0.4823  0.0750  0.4270
 2563TIP3    H2 7696   1.058   1.316   2.996 -1.4950  0.1609  0.8639
 2564TIP3   OH2 7697   0.867   4.820   0.622 -0.0859  0.2270 -0.4268
 2564TIP3    H1 7698   0.788   4.832   0.569 -0.6512  1.1074  0.5852
 2564TIP3    H2 7699   0.939   4.821   0.558 -0.8948 -0.9823 -1.4042
 2565TIP3   OH2 7700   3.596   4.696   2.903 -0.4541  0.2988 -0.0420
 2565TIP3    H1 7701   3.680   4.672   2.943 -0.2847 -0.1391 -0.6611
 2565TIP3    H2 7702   3.535   4.628   2.932 -0.0714 -0.6669 -1.4465
 2566TIP3   OH2 7703   1.410   0.908   1.047 -0.0106 -0.7284  0.1907
 2566TIP3    H1 7704   1.323   0.936   1.018  0.0661  0.4196  0.9957
 2566TIP3    H2 7705   1.399   0.815   1.068 -0.7238 -0.9084 -0.8928
 2567TIP3   OH2 7706   5.613   1.038   3.637 -0.1224 -0.1576  0.1598
 2567TIP3    H1 7707   5.557   0.998   3.704 -0.8692 -1.1076 -0.9996
 2567TIP3    H2 7708   5.554   1.057   3.565  0.7152  0.6377 -0.3312
 2568TIP3   OH2 7709   4.435   0.618   0.757 -0.1864 -0.7615  0.1019
 2568TIP3    H1 7710   4.518   0.657   0.730 -0.5404 -0.4222 -0.5266
 2568TIP3    H2 7711   4.383   0.693   0.788 -0.9624 -0.6553 -1.3488
 2569TIP3   OH2 7712   2.232   4.141   2.407  0.0050  0.7938 -0.9209
 2569TIP3    H1 7713   2.320   4.156   2.441 -0.8169 -0.5872  2.2258
 2569TIP3    H2 7714   2.226   4.046   2.395 -0.1471  1.1062 -4.1597
 2570TIP3   OH2 7715   3.782   2.246   1.676  0.2300 -0.5065  0.2520
 2570TIP3    H1 7716   3.759   2.258   1.768  1.2285  0.8370  0.3604
 2570TIP3    H2 7717   3.820   2.330   1.650 -1.3191 -0.3637 -1.7935
 2571TIP3   OH2 7718   5.089   5.369   3.761 -0.5810  0.3249  0.1644
 2571TIP3    H1 7719   5.063   5.391   3.672 -0.9923 -0.8693 -0.0278
 2571TIP3    H2 7720   5.043   5.434   3.815 -2.0857 -0.2522 -0.3528
 2572TIP3   OH2 7721   5.482   4.987   3.190  0.0579 -0.0006 -0.6528
 2572TIP3    H1 7722   5.552   5.041   3.153  0.6241 -0.0780  0.3000
 2572TIP3    H2 7723   5.403   5.018   3.146  0.3653  1.6282 -0.1184
 2573TIP3   OH2 7724   3.391   3.045   1.293  0.5218 -0.1315 -0.3486
 2573TIP3    H1 7725   3.370   3.063   1.385 -2.1691 -2.6902 -0.3060
 2573TIP3    H2 7726   3.353   3.118   1.245  1.5553  0.9950  0.4821
 2574TIP3   OH2 7727   4.294   5.861   4.677 -0.5230 -0.0408  0.0351
 2574TIP3    H1 7728   4.369   5.912   4.646 -0.8201  1.3215  1.4088
 2574TIP3    H2 7729   4.292   5.878   4.772 -1.1762 -1.9293  0.4020
 2575TIP3   OH2 7730   2.459   2.413   2.154  0.5175 -0.4244  0.0095
 2575TIP3    H1 7731   2.364   2.414   2.153  0.4916  1.3061 -0.6948
 2575TIP3    H2 7732   2.483   2.341   2.096 -0.4475  1.0955 -2.4642
 2576TIP3   OH2 7733   4.985   0.115   3.438 -0.5352  0.3701  0.2932
 2576TIP3    H1 7734   5.047   0.052   3.474  1.0407  0.7748 -1.5342
 2576TIP3    H2 7735   4.968   0.083   3.349  0.4824  2.5567 -0.7616
 2577TIP3   OH2 7736   0.544   4.656   2.577  0.0967 -0.1628 -0.3794
 2577TIP3    H1 7737   0.565   4.567   2.605  0.6291  0.1009  0.0766
 2577TIP3    H2 7738   0.528   4.704   2.658 -0.9227 -0.0127 -0.6539
 2578TIP3   OH2 7739   2.882   2.834   1.111  0.1998  0.0047 -0.2075
 2578TIP3    H1 7740   2.898   2.743   1.086  0.4659 -0.3584  1.2119
 2578TIP3    H2 7741   2.832   2.828   1.192  1.0235  1.1154  0.4024
 2579TIP3   OH2 7742   5.512   0.115   4.824 -0.4069  0.0441  0.1370
 2579TIP3    H1 7743   5.588   0.061   4.803 -1.7069 -1.6366 -0.3985
 2579TIP3    H2 7744   5.488   0.089   4.913 -1.4677 -0.8134 -0.3859
 2580TIP3   OH2 7745   3.310   0.722   0.526 -0.2880  0.5979  0.1839
 2580TIP3    H1 7746   3.329   0.812   0.553 -0.5647  1.1998 -1.4565
 2580TIP3    H2 7747   3.219   0.724   0.497  0.6261  0.7596 -3.2017
 2581TIP3   OH2 7748   4.685   1.372   2.121 -0.1606  0.4111 -0.1616
 2581TIP3    H1 7749   4.718   1.398   2.035 -0.3422 -1.1697 -0.7429
 2581TIP3    H2 7750   4.757   1.322   2.160  0.1132  1.5357  0.8492
 2582TIP3   OH2 7751   1.376   1.829   0.152  0.0809 -0.3512  0.5657
 2582TIP3    H1 7752   1.359   1.743   0.191  0.7499 -0.1401  1.3580
 2582TIP3    H2 7753   1.292   1.874   0.156  0.2390 -0.1481  2.2813
 2583TIP3   OH2 7754   5.085   3.196   2.232  0.5920 -0.6414 -0.0640
 2583TIP3    H1 7755   5.074   3.101   2.234  1.2073 -0.7837 -1.9253
 2583TIP3    H2 7756   5.177   3.209   2.211  0.4335  0.3595 -0.1837
 2584TIP3   OH2 7757   5.813   2.304   1.100 -0.3146 -0.2233  0.2993
 2584TIP3    H1 7758   5.862   2.295   1.018  0.7655  1.5171  0.6981
 2584TIP3    H2 7759   5.863   2.369   1.151 -0.9257 -1.2700  2.3594
 2585TIP3   OH2 7760   4.327   3.602   2.128  0.4032 -0.3705 -0.0150
 2585TIP3    H1 7761   4.382   3.576   2.054 -0.1179  0.0839 -0.5743
 2585TIP3    H2 7762   4.305   3.520   2.172  0.2749 -0.7028 -0.6813
 2586TIP3   OH2 7763   5.424   2.791   3.398  0.9176 -0.2785 -0.1888
 2586TIP3    H1 7764   5.496   2.745   3.355  0.8306 -0.5003 -0.0974
 2586TIP3    H2 7765   5.463   2.873   3.429  0.6908  0.4471 -1.7702
 2587TIP3   OH2 7766   2.590   2.830   3.430 -0.1700  0.1094  0.4522
 2587TIP3    H1 7767   2.518   2.773   3.404  1.8191 -2.4664  0.2790
 2587TIP3    H2 7768   2.593   2.823   3.525 -0.0554  0.1131  0.4488
 2588TIP3   OH2 7769   1.076   1.106   1.729 -0.1167  0.8324 -0.3978
 2588TIP3    H1 7770   1.082   1.171   1.799  1.2355 -1.0970  1.3953
 2588TIP3    H2 7771   0.997   1.056   1.749 -0.4771  1.1315 -1.0540
 2589TIP3   OH2 7772   6.028   3.372   1.796  0.0945  0.2866  0.2039
 2589TIP3    H1 7773   6.027   3.398   1.888  0.7945 -1.5531  0.7651
 2589TIP3    H2 7774   6.086   3.436   1.754 -1.1423  1.8481  0.7711
 2590TIP3   OH2 7775   0.193   2.798   4.001  0.2254 -0.0262 -0.2911
 2590TIP3    H1 7776   0.129   2.868   3.990  0.0403 -0.1469  0.0207
 2590TIP3    H2 7777   0.253   2.830   4.068  0.8909  0.3711 -1.0575
 2591TIP3   OH2 7778   0.703   1.685   3.459 -0.1831  0.6287 -0.2934
 2591TIP3    H1 7779   0.723   1.746   3.388 -0.6498  0.0126 -0.9657
 2591TIP3    H2 7780   0.666   1.740   3.528  1.8741  1.4980  0.1948
 2592TIP3   OH2 7781   0.400   5.348   0.355 -0.1379  0.1423  0.8443
 2592TIP3    H1 7782   0.421   5.348   0.449  1.5876  0.0372  0.4931
 2592TIP3    H2 7783   0.436   5.431   0.323  0.2411 -0.3042  0.0928
 2593TIP3   OH2 7784   2.514   0.976   4.821  0.2532  0.3761  0.7467
 2593TIP3    H1 7785   2.515   0.990   4.727 -1.0881 -0.2291  0.6268
 2593TIP3    H2 7786   2.507   0.881   4.831 -2.4914  0.5608  1.3822
 2594TIP3   OH2 7787   4.953   0.151   0.540 -0.3082 -0.4808 -0.0260
 2594TIP3    H1 7788   5.005   0.137   0.619  1.1894 -0.0311 -0.8936
 2594TIP3    H2 7789   5.010   0.123   0.468 -0.7117  1.3454 -1.1119
 2595TIP3   OH2 7790   4.317   4.376   3.558  0.3140  0.1955 -0.1903
 2595TIP3    H1 7791   4.327   4.306   3.493 -0.8273 -0.0520 -0.1243
 2595TIP3    H2 7792   4.258   4.439   3.516  0.3237  0.4948  0.2372
 2596TIP3   OH2 7793   0.117   4.219   3.618  0.0022 -0.1078  0.2102
 2596TIP3    H1 7794   0.075   4.304   3.631  0.1155  0.3658 -2.0597
 2596TIP3    H2 7795   0.070   4.180   3.544  1.1061 -1.2453  0.0662
 2597TIP3   OH2 7796   4.801   2.274   1.565 -1.0278 -0.0927 -0.2957
 2597TIP3    H1 7797   4.750   2.289   1.485  0.5908 -0.1883 -1.3989
 2597TIP3    H2 7798   4.857   2.199   1.544 -1.4707 -0.9445  1.4057
 2598TIP3   OH2 7799   2.195   0.506   2.941 -0.0420  0.1423  0.0608
 2598TIP3    H1 7800   2.196   0.450   3.018  1.0465  0.0645 -0.0008
 2598TIP3    H2 7801   2.106   0.496   2.905  0.0296 -1.2908  0.2309
 2599TIP3   OH2 7802   0.021   0.603   0.213  0.0436 -0.2747 -0.5095
 2599TIP3    H1 7803   0.005   0.620   0.120 -0.2775  2.3329 -0.0504
 2599TIP3    H2 7804   0.101   0.652   0.232 -0.3616 -0.0929  0.7718
 2600TIP3   OH2 7805   4.217   2.693   3.377 -0.3418  0.5221  0.0246
 2600TIP3    H1 7806   4.181   2.604   3.386  0.7897  0.0445 -0.1008
 2600TIP3    H2 7807   4.141   2.750   3.393 -1.2779 -0.4609 -0.7339
 2601TIP3   OH2 7808   1.350   0.042   1.003 -0.0802 -0.3534  0.3571
 2601TIP3    H1 7809   1.268   0.013   0.962  0.5412  0.3839 -1.5273
 2601TIP3    H2 7810   1.378  -0.032   1.057 -2.5531 -0.2102  2.0166
 2602TIP3   OH2 7811   5.222   5.806   1.448 -0.1786 -0.3266  0.6811
 2602TIP3    H1 7812   5.293   5.775   1.505 -0.7118 -0.4331  1.2937
 2602TIP3    H2 7813   5.215   5.899   1.467  0.8581  0.0432 -0.5523
 2603TIP3   OH2 7814   4.531   0.188   0.382  0.5384  0.2813 -0.1674
 2603TIP3    H1 7815   4.440   0.179   0.410  0.2250 -1.0037 -1.4958
 2603TIP3    H2 7816   4.526   0.235   0.299  1.1438  0.5620 -0.0505
 2604TIP3   OH2 7817   4.837   3.597   2.739  0.5713  0.4916  0.8423
 2604TIP3    H1 7818   4.920   3.604   2.693  0.1318 -0.4819 -0.1537
 2604TIP3    H2 7819   4.780   3.550   2.678 -0.1873 -0.4023  2.2000
 2605TIP3   OH2 7820   5.818   1.030   2.284  0.5403 -0.3211  0.1086
 2605TIP3    H1 7821   5.806   1.120   2.313  0.7568  0.4690 -2.0923
 2605TIP3    H2 7822   5.806   1.033   2.189  0.3187 -2.6598 -0.0020
 2606TIP3   OH2 7823   0.593   3.866   2.778 -0.6934  0.1008 -0.3331
 2606TIP3    H1 7824   0.599   3.827   2.865 -0.3869  1.8122  0.4561
 2606TIP3    H2 7825   0.519   3.926   2.784  0.0384  1.0950 -0.8761
 2607TIP3   OH2 7826   1.708   2.187   3.283 -0.2612 -0.1358 -0.5734
 2607TIP3    H1 7827   1.698   2.214   3.375  0.0816  0.9994 -0.8557
 2607TIP3    H2 7828   1.671   2.259   3.232  0.1706 -0.4469 -1.3413
 2608TIP3   OH2 7829   5.084   0.966   0.276 -0.0667  0.5150 -0.5127
 2608TIP3    H1 7830   5.066   0.915   0.355 -1.9257  0.8200 -0.7018
 2608TIP3    H2 7831   5.153   1.027   0.302 -0.4759  0.4469  0.8027
 2609TIP3   OH2 7832   4.974   0.820   1.301 -0.4212  0.4269 -1.0980
 2609TIP3    H1 7833   4.963   0.878   1.225  1.6669  0.2393 -1.5976
 2609TIP3    H2 7834   5.014   0.741   1.264 -0.8273 -0.2998 -0.0165
 2610TIP3   OH2 7835   4.803   1.485   2.361  0.3673 -0.1910  0.4154
 2610TIP3    H1 7836   4.854   1.532   2.295 -0.6075  1.0954  0.5439
 2610TIP3    H2 7837   4.725   1.455   2.316 -0.7160  1.4245  1.1071
 2611TIP3   OH2 7838   0.913   0.253   0.073  0.6275 -0.4072 -0.1504
 2611TIP3    H1 7839   0.850   0.196   0.029 -0.0934 -0.8488  1.3847
 2611TIP3    H2 7840   0.996   0.205   0.069  0.5689 -0.4450 -0.9826
 2612TIP3   OH2 7841   0.916   5.854   5.043 -0.2605  0.2545 -0.2110
 2612TIP3    H1 7842   0.870   5.936   5.031 -0.7274 -0.0764 -0.7373
 2612TIP3    H2 7843   1.009   5.877   5.039 -0.3725  0.5586 -1.9317
 2613TIP3   OH2 7844   2.066   3.718   4.194 -0.3086  0.1597 -0.1178
 2613TIP3    H1 7845   2.086   3.701   4.102 -0.8578 -1.1241 -0.0313
 2613TIP3    H2 7846   1.971   3.706   4.201  0.1030 -5.2815  1.4991
 2614TIP3   OH2 7847   6.042   1.210   3.272  0.0620  0.7074 -0.0190
 2614TIP3    H1 7848   6.100   1.257   3.213  0.2528  1.9701  1.1104
 2614TIP3    H2 7849   6.032   1.123   3.233  1.2864  1.0459 -1.1450
 2615TIP3   OH2 7850   5.705   0.226   1.647 -0.6069 -0.2954  0.2471
 2615TIP3    H1 7851   5.684   0.134   1.628  0.8130 -1.0947  2.2067
 2615TIP3    H2 7852   5.646   0.249   1.719 -1.2229  0.4867 -0.4891
 2616TIP3   OH2 7853   1.454   0.394   3.918 -0.6181  0.2589  0.9895
 2616TIP3    H1 7854   1.404   0.409   3.838 -0.9560 -0.5392  1.0483
 2616TIP3    H2 7855   1.489   0.305   3.909  0.6291  0.7173  1.0443
 2617TIP3   OH2 7856   1.394   4.045   1.808  0.0058 -0.2324  0.0468
 2617TIP3    H1 7857   1.489   4.047   1.819 -0.0927  0.9719  0.7971
 2617TIP3    H2 7858   1.367   3.964   1.851  0.8060 -1.3190 -1.3814
 2618TIP3   OH2 7859   2.082   3.816   2.159  0.1464  0.2474 -0.3356
 2618TIP3    H1 7860   2.160   3.824   2.213 -0.2546  1.5811  0.0747
 2618TIP3    H2 7861   2.104   3.861   2.077 -0.4904  1.4982  0.1483
 2619TIP3   OH2 7862   4.688   5.930   0.673 -0.0733 -0.4703  0.2896
 2619TIP3    H1 7863   4.710   5.987   0.600 -0.6299 -0.3099  0.2406
 2619TIP3    H2 7864   4.643   5.856   0.633  0.0988 -0.6468  0.4172
 2620TIP3   OH2 7865   1.167   4.025   2.489  0.2920  0.0263  0.1010
 2620TIP3    H1 7866   1.242   3.981   2.448 -0.6129 -0.9772 -0.5571
 2620TIP3    H2 7867   1.095   3.962   2.479 -0.2051  0.1384  2.4242
 2621TIP3   OH2 7868   0.012   5.257   4.502 -0.4564 -0.0369  0.2678
 2621TIP3    H1 7869  -0.011   5.283   4.591 -1.7129  0.1221 -0.0908
 2621TIP3    H2 7870   0.039   5.338   4.459  0.5645 -0.1830  0.6178
 2622TIP3   OH2 7871   4.970   2.800   3.848 -0.4095  0.3284 -0.2436
 2622TIP3    H1 7872   4.889   2.780   3.800 -0.1392 -0.9468 -0.2014
 2622TIP3    H2 7873   4.952   2.884   3.891 -1.4885  0.3633 -0.7274
 2623TIP3   OH2 7874   4.523   0.860   4.470  0.3956 -0.1801 -0.4698
 2623TIP3    H1 7875   4.589   0.804   4.510 -0.0218 -1.1447 -1.0870
 2623TIP3    H2 7876   4.440   0.817   4.491  0.1342 -0.3576 -1.7943
 2624TIP3   OH2 7877   4.484   5.122   2.900 -0.4214 -0.1959 -0.3778
 2624TIP3    H1 7878   4.421   5.133   2.829 -0.1162 -0.7978 -0.7412
 2624TIP3    H2 7879   4.454   5.183   2.968 -1.1065 -0.1175 -0.7461
 2625TIP3   OH2 7880   1.972   5.107   3.463  0.2101  0.4033  0.2173
 2625TIP3    H1 7881   2.005   5.107   3.373 -0.7222  1.1437 -0.1333
 2625TIP3    H2 7882   1.884   5.142   3.456  0.6543  1.8721  1.6130
 2626TIP3   OH2 7883   3.549   0.549   0.534  0.4503  0.4528 -0.3124
 2626TIP3    H1 7884   3.485   0.617   0.512  1.2561  1.0666 -0.8438
 2626TIP3    H2 7885   3.621   0.597   0.576  1.2815  0.0229 -1.2026
 2627TIP3   OH2 7886   2.424   0.182   4.513  0.3323  0.0559 -0.1965
 2627TIP3    H1 7887   2.433   0.259   4.457  0.9092 -0.1646 -0.4119
 2627TIP3    H2 7888   2.506   0.176   4.561  0.6211 -0.8719 -0.7697
 2628TIP3   OH2 7889   6.202   3.512   3.851  0.4993 -0.0024 -0.0250
 2628TIP3    H1 7890   6.210   3.473   3.764 -1.9277  0.3195 -0.4559
 2628TIP3    H2 7891   6.243   3.448   3.909  0.3063 -1.2285 -1.1660
 2629TIP3   OH2 7892   6.275   1.738   3.182 -0.1628  0.0280  0.5584
 2629TIP3    H1 7893   6.245   1.659   3.228  1.2797 -0.3852  0.8602
 2629TIP3    H2 7894   6.329   1.783   3.246  0.0410  0.6197 -0.0208
 2630TIP3   OH2 7895   5.544   5.577   3.839 -0.4160  0.3616 -0.3679
 2630TIP3    H1 7896   5.584   5.490   3.845  0.9653  0.7460 -2.6631
 2630TIP3    H2 7897   5.452   5.559   3.821 -0.2457 -0.6260 -0.3196
 2631TIP3   OH2 7898   2.895   1.795   3.609  0.1946 -0.3925 -0.5643
 2631TIP3    H1 7899   2.801   1.799   3.627 -0.4586 -0.2500 -3.5582
 2631TIP3    H2 7900   2.936   1.815   3.693 -2.4631  1.6062  0.4094
 2632TIP3   OH2 7901   4.404   4.262   1.397  0.3432  0.0364  0.4532
 2632TIP3    H1 7902   4.321   4.268   1.444 -0.3567  1.5002 -0.8820
 2632TIP3    H2 7903   4.399   4.179   1.350 -0.7941  0.5483 -0.3665
 2633TIP3   OH2 7904   2.797   4.591   2.297  0.3711 -0.0241  0.1747
 2633TIP3    H1 7905   2.855   4.662   2.269  0.7715 -1.1772 -2.0942
 2633TIP3    H2 7906   2.799   4.528   2.226 -2.4223 -0.8821  0.7212
 2634TIP3   OH2 7907   0.071   1.170   4.350  0.1521 -0.0353 -1.0643
 2634TIP3    H1 7908   0.013   1.103   4.386 -0.7627  1.6492  0.8129
 2634TIP3    H2 7909   0.033   1.193   4.266 -1.0963 -0.0043 -0.5159
 2635TIP3   OH2 7910   4.868   5.200   3.522 -0.5079  0.0302 -0.3882
 2635TIP3    H1 7911   4.806   5.149   3.470 -0.4830  0.7276 -1.1079
 2635TIP3    H2 7912   4.953   5.158   3.505 -0.6832 -0.5774  0.1646
 2636TIP3   OH2 7913   2.149   4.133   0.209  0.2800 -0.2232  0.0031
 2636TIP3    H1 7914   2.122   4.047   0.174 -0.0613  0.6123 -1.9451
 2636TIP3    H2 7915   2.232   4.116   0.254 -0.0397 -1.6559  0.0998
 2637TIP3   OH2 7916   6.046   2.575   4.429  0.6322 -0.3538  0.1878
 2637TIP3    H1 7917   6.112   2.637   4.397  0.5842  0.6606  1.8978
 2637TIP3    H2 7918   5.986   2.630   4.480  0.1478 -1.7097  1.1194
 2638TIP3   OH2 7919   0.503   0.034   1.698 -0.3282  0.4582 -0.9242
 2638TIP3    H1 7920   0.569   0.006   1.762 -1.4710 -1.5465 -0.5291
 2638TIP3    H2 7921   0.472   0.119   1.730 -0.3517 -0.1643  0.8073
 2639TIP3   OH2 7922   0.231   1.887   1.778  0.0234 -0.2022 -0.1126
 2639TIP3    H1 7923   0.236   1.964   1.722  0.2398 -0.5261 -0.5441
 2639TIP3    H2 7924   0.316   1.845   1.770 -0.9444 -1.9844 -2.0668
 2640TIP3   OH2 7925   3.255   4.190   4.911  0.0865 -0.1734 -0.2547
 2640TIP3    H1 7926   3.331   4.134   4.929 -0.3037 -1.0512 -1.2688
 2640TIP3    H2 7927   3.189   4.161   4.974  1.7457  3.3092  3.5771
 2641TIP3   OH2 7928   1.672   1.619   1.237 -0.1687  0.2761 -0.1546
 2641TIP3    H1 7929   1.685   1.714   1.234 -1.3560  0.4393 -0.4991
 2641TIP3    H2 7930   1.745   1.587   1.290  1.4049  1.1476 -1.6903
 2642TIP3   OH2 7931   3.032   0.779   1.523 -0.3944  0.0171 -0.2700
 2642TIP3    H1 7932   2.990   0.831   1.592  0.4017  0.5042 -0.1482
 2642TIP3    H2 7933   3.089   0.840   1.477 -1.3252 -0.1595 -1.7457
 2643TIP3   OH2 7934   4.274   1.052   2.655  0.1903 -0.1110 -0.0802
 2643TIP3    H1 7935   4.308   1.140   2.637 -0.8781  0.7789  1.9588
 2643TIP3    H2 7936   4.181   1.058   2.631  0.4637 -1.2533 -1.5836
 2644TIP3   OH2 7937   1.051   0.705   4.700 -0.3309  0.3765 -0.4071
 2644TIP3    H1 7938   1.055   0.769   4.772  1.4982 -0.4690  0.3162
 2644TIP3    H2 7939   1.055   0.757   4.621  0.1782  1.2175  0.1554
 2645TIP3   OH2 7940   1.620   0.617   4.945 -0.3336  0.4449  0.8426
 2645TIP3    H1 7941   1.592   0.684   4.882 -0.2673 -0.7985 -0.5556
 2645TIP3    H2 7942   1.698   0.578   4.907 -1.5708 -1.9079  0.4876
 2646TIP3   OH2 7943   0.940   0.386   3.658  0.3962  0.6216  0.1677
 2646TIP3    H1 7944   0.934   0.295   3.686  0.5670  0.6929  0.4415
 2646TIP3    H2 7945   0.993   0.383   3.578  0.3526  0.4748  0.1438
 2647TIP3   OH2 7946   1.903   3.967   4.087  0.3574 -0.0095  0.2147
 2647TIP3    H1 7947   1.995   3.940   4.078 -0.0152 -1.0743 -0.6273
 2647TIP3    H2 7948   1.867   3.958   3.999 -0.8155 -0.6466  0.7336
 2648TIP3   OH2 7949   3.732   5.372   4.021 -0.0199  0.0526 -0.0674
 2648TIP3    H1 7950   3.711   5.411   4.105 -0.6428 -0.6597  0.1215
 2648TIP3    H2 7951   3.802   5.310   4.040  0.3250  0.4017 -0.1995
 2649TIP3   OH2 7952   4.878   0.661   2.113  0.2646  0.1154 -0.0043
 2649TIP3    H1 7953   4.784   0.665   2.094  0.0818  2.4808  1.0618
 2649TIP3    H2 7954   4.921   0.681   2.030 -0.2140  0.2809 -0.2133
 2650TIP3   OH2 7955   5.949   1.004   2.765  0.0454  0.1516 -0.7978
 2650TIP3    H1 7956   6.042   1.019   2.753  0.0791  0.3747 -0.2953
 2650TIP3    H2 7957   5.934   0.916   2.730  0.5728 -0.1506 -0.2827
 2651TIP3   OH2 7958   2.729   2.596   3.089 -0.3427 -0.7326  0.0314
 2651TIP3    H1 7959   2.733   2.526   3.154  1.2038  0.7105  1.5638
 2651TIP3    H2 7960   2.807   2.583   3.035 -0.4732 -0.6271 -0.1854
 2652TIP3   OH2 7961   3.217   3.971   1.348  0.2969  0.1659 -0.4144
 2652TIP3    H1 7962   3.295   4.006   1.391  0.0892 -0.4369  0.4874
 2652TIP3    H2 7963   3.144   4.001   1.402  0.1964 -2.9209  1.4069
 2653TIP3   OH2 7964   0.574   1.120   3.495  0.2269  0.1047 -0.1059
 2653TIP3    H1 7965   0.498   1.080   3.537 -0.4619  0.9539 -0.5026
 2653TIP3    H2 7966   0.585   1.204   3.539  1.4994 -0.3680  0.5473
 2654TIP3   OH2 7967   0.615   1.248   1.122 -0.0093 -0.3059  0.3658
 2654TIP3    H1 7968   0.554   1.179   1.095  0.9917 -1.1679  0.2000
 2654TIP3    H2 7969   0.574   1.330   1.095 -0.3779 -0.9667 -1.1719
 2655TIP3   OH2 7970   2.281   3.329   3.506  0.2220 -0.5191  0.2026
 2655TIP3    H1 7971   2.230   3.284   3.438  1.0573 -1.8525  0.4337
 2655TIP3    H2 7972   2.254   3.288   3.588  1.0395 -0.6627  0.4099
 2656TIP3   OH2 7973   2.073   0.961   4.869 -0.2641  0.1586 -0.1479
 2656TIP3    H1 7974   2.110   1.034   4.918 -1.5983  0.2801  0.7428
 2656TIP3    H2 7975   1.998   0.999   4.823  0.0228 -0.3029 -1.0333
 2657TIP3   OH2 7976   5.057   2.419   3.234  0.4644 -0.5231  0.1594
 2657TIP3    H1 7977   5.008   2.494   3.269  1.0347  0.8158 -1.7188
 2657TIP3    H2 7978   5.149   2.444   3.245  0.6683 -0.1288 -1.9791
 2658TIP3   OH2 7979   0.284   2.478   3.945 -0.0260  0.1357  0.0030
 2658TIP3    H1 7980   0.315   2.448   3.859 -1.2579  0.0041 -0.4061
 2658TIP3    H2 7981   0.264   2.570   3.933  0.3927  0.2768  0.3315
 2659TIP3   OH2 7982   6.213   2.504   1.182 -0.2222 -0.3813 -0.3634
 2659TIP3    H1 7983   6.249   2.573   1.237 -2.6754 -0.0337  0.9610
 2659TIP3    H2 7984   6.235   2.423   1.228 -0.8275 -0.1967  0.2668
 2660TIP3   OH2 7985   1.751   1.693   3.155  0.5308 -0.4632 -0.1026
 2660TIP3    H1 7986   1.766   1.782   3.186  1.4774 -0.9886  0.9998
 2660TIP3    H2 7987   1.789   1.691   3.067  1.9970 -0.2200  0.5079
 2661TIP3   OH2 7988   0.871   3.093   4.565 -0.1197 -0.1845 -0.1346
 2661TIP3    H1 7989   0.961   3.076   4.591  0.4528  0.9584 -1.2608
 2661TIP3    H2 7990   0.878   3.140   4.482 -1.6601  1.6592  0.6935
 2662TIP3   OH2 7991   6.159   5.766   2.851  0.1414 -0.5511 -0.6225
 2662TIP3    H1 7992   6.172   5.675   2.825  2.1023 -0.2046 -0.9446
 2662TIP3    H2 7993   6.150   5.814   2.768  3.9466  0.1927 -0.7571
 2663TIP3   OH2 7994   2.690   0.533   1.171 -0.3583 -0.2862  0.4413
 2663TIP3    H1 7995   2.670   0.439   1.166 -0.8202 -0.2286  0.9980
 2663TIP3    H2 7996   2.612   0.571   1.212  0.8714 -0.0592  2.7550
 2664TIP3   OH2 7997   1.900   4.494   0.660  0.1604 -0.0744  0.1385
 2664TIP3    H1 7998   1.961   4.442   0.712  0.2233  0.5511  0.7068
 2664TIP3    H2 7999   1.928   4.585   0.672 -1.2402  0.2917  0.9435
 2665TIP3   OH2 8000   1.715   3.509   1.114  0.1488  0.0306 -0.4595
 2665TIP3    H1 8001   1.799   3.466   1.098  0.5263 -0.4774  2.4258
 2665TIP3    H2 8002   1.717   3.533   1.206 -3.3539 -1.1472  0.0663
 2666TIP3   OH2 8003   1.428   5.116   0.966  0.3447 -0.0403  0.0237
 2666TIP3    H1 8004   1.370   5.138   0.893 -1.2795 -2.2638  0.5604
 2666TIP3    H2 8005   1.381   5.145   1.044  1.1226  0.4140  0.3343
 2667TIP3   OH2 8006   3.380   2.713   1.950  1.0799  0.0885  0.1484
 2667TIP3    H1 8007   3.328   2.638   1.922  1.1704  0.4649 -1.1204
 2667TIP3    H2 8008   3.402   2.759   1.868 -0.3983  2.4464  0.9658
 2668TIP3   OH2 8009   0.789   3.390   0.244 -0.1532  0.0064  0.0394
 2668TIP3    H1 8010   0.779   3.304   0.284 -0.5327 -0.1921 -0.4698
 2668TIP3    H2 8011   0.859   3.379   0.180  1.5938  0.7253  1.7305
 2669TIP3   OH2 8012   1.026   5.915   3.084 -0.6918  0.1102  0.2954
 2669TIP3    H1 8013   1.118   5.893   3.075 -0.3735  1.5305 -0.0762
 2669TIP3    H2 8014   0.984   5.874   3.008 -0.0016  1.2680 -0.7559
 2670TIP3   OH2 8015   2.109   0.367   0.957 -0.4001  0.0030 -0.2380
 2670TIP3    H1 8016   2.193   0.322   0.967 -0.8363 -0.4607  2.0897
 2670TIP3    H2 8017   2.044   0.296   0.961 -1.0117  0.6082  1.5288
 2671TIP3   OH2 8018   5.494   0.303   1.807  0.4749 -0.1935 -0.3127
 2671TIP3    H1 8019   5.487   0.321   1.900 -3.0473 -1.3286 -0.2430
 2671TIP3    H2 8020   5.472   0.386   1.765  1.3623  0.1259 -0.1721
 2672TIP3   OH2 8021   1.766   2.761   4.628 -0.7215 -0.3423  0.2699
 2672TIP3    H1 8022   1.691   2.737   4.682 -0.3780 -1.0668  0.4499
 2672TIP3    H2 8023   1.787   2.850   4.654 -1.2323 -0.3002  0.5507
 2673TIP3   OH2 8024   5.269   0.655   3.266  0.0314 -0.1582  0.4142
 2673TIP3    H1 8025   5.244   0.666   3.174 -1.1271  0.1957  0.7427
 2673TIP3    H2 8026   5.313   0.737   3.288  1.6460 -0.8238 -0.2018
 2674TIP3   OH2 8027   2.458   1.801   4.926 -0.1133  0.0101 -0.8537
 2674TIP3    H1 8028   2.470   1.876   4.985  0.2005  0.1563 -1.0966
 2674TIP3    H2 8029   2.421   1.839   4.847 -0.5123 -0.1833 -0.7598
 2675TIP3   OH2 8030   1.682   3.362   0.262  1.1377 -0.3103  0.5094
 2675TIP3    H1 8031   1.716   3.299   0.198  2.0319  0.9230 -0.2694
 2675TIP3    H2 8032   1.755   3.377   0.322  0.8876 -0.1118  0.7661
 2676TIP3   OH2 8033   1.336   5.180   3.164 -0.8184 -0.2910  0.5806
 2676TIP3    H1 8034   1.265   5.115   3.165  0.7458 -2.1110  0.2692
 2676TIP3    H2 8035   1.334   5.215   3.075 -0.2808 -1.6196  0.0154
 2677TIP3   OH2 8036   4.938   3.525   1.442  0.0788 -0.9725  0.2731
 2677TIP3    H1 8037   4.948   3.436   1.407  0.9764 -0.7434 -0.0710
 2677TIP3    H2 8038   4.877   3.567   1.381  0.8812 -0.8787 -0.4980
 2678TIP3   OH2 8039   3.730   4.220   0.891 -0.0274  0.2957 -0.2291
 2678TIP3    H1 8040   3.815   4.240   0.931  0.9823 -0.5444 -1.7895
 2678TIP3    H2 8041   3.750   4.215   0.797 -1.4397 -1.6707 -0.4822
 2679TIP3   OH2 8042   0.042   4.547   0.943  0.0739  0.2570  0.5646
 2679TIP3    H1 8043   0.063   4.634   0.907  0.3496  0.1411  0.4410
 2679TIP3    H2 8044  -0.040   4.523   0.900 -0.7993  1.0914  1.7037
 2680TIP3   OH2 8045   2.716   0.062   0.097  0.0061  0.0182 -0.0821
 2680TIP3    H1 8046   2.781   0.001   0.134  0.6408  1.2251  0.8614
 2680TIP3    H2 8047   2.768   0.134   0.061 -0.7374  0.0700 -1.1154
 2681TIP3   OH2 8048   4.186   1.069   3.916  0.3638 -0.2824  0.3995
 2681TIP3    H1 8049   4.201   0.979   3.945  0.2287 -0.7162 -0.8234
 2681TIP3    H2 8050   4.273   1.108   3.911  0.7826 -1.3317 -2.0624
 2682TIP3   OH2 8051   0.653   0.759   3.684 -0.4489 -0.5974  0.0063
 2682TIP3    H1 8052   0.579   0.774   3.743 -0.8418  1.9393 -1.0268
 2682TIP3    H2 8053   0.708   0.696   3.731 -2.3256 -1.1552  1.6055
 2683TIP3   OH2 8054   5.391   4.112   4.776 -0.1300  0.0088  0.0728
 2683TIP3    H1 8055   5.381   4.040   4.839  0.0542 -0.1006 -0.0214
 2683TIP3    H2 8056   5.357   4.189   4.822 -0.0349 -0.0789  0.2926
 2684TIP3   OH2 8057   2.313   3.326   2.571  0.8923  0.2692 -0.0900
 2684TIP3    H1 8058   2.331   3.235   2.550 -0.8448 -0.5669  1.6984
 2684TIP3    H2 8059   2.397   3.371   2.559  1.5817 -1.3464 -1.8320
 2685TIP3   OH2 8060   2.880   0.144   1.453 -0.0854 -0.4052  0.0787
 2685TIP3    H1 8061   2.873   0.062   1.502 -0.6414  0.7689  2.0722
 2685TIP3    H2 8062   2.973   0.154   1.435 -0.1474 -2.1278 -1.4392
 2686TIP3   OH2 8063   4.644   1.288   5.008 -0.6559  0.4831 -0.0229
 2686TIP3    H1 8064   4.708   1.224   4.977 -1.3330  0.2531 -1.0044
 2686TIP3    H2 8065   4.573   1.283   4.944 -1.4098  1.1183  0.7461
 2687TIP3   OH2 8066   1.847   3.867   5.141  0.3539  0.1529  1.0940
 2687TIP3    H1 8067   1.788   3.874   5.066  2.4056  1.9332 -0.4462
 2687TIP3    H2 8068   1.920   3.814   5.110  1.5431  1.4469  1.5723
 2688TIP3   OH2 8069   4.714   5.386   1.543  0.3700 -0.3438 -0.3217
 2688TIP3    H1 8070   4.783   5.320   1.550 -0.5804 -1.2606  1.1092
 2688TIP3    H2 8071   4.700   5.415   1.633 -1.3340 -0.4561 -0.5235
 2689TIP3   OH2 8072   5.973   5.639   0.553  0.5041 -0.2927 -0.3141
 2689TIP3    H1 8073   5.956   5.581   0.627  0.4251  0.6465  0.4333
 2689TIP3    H2 8074   5.928   5.721   0.577 -0.7713 -0.4232 -2.0574
 2690TIP3   OH2 8075   6.062   0.441   2.472  0.4490 -0.7826  0.5161
 2690TIP3    H1 8076   6.107   0.400   2.399  1.5041 -0.3363  0.8865
 2690TIP3    H2 8077   5.997   0.498   2.431  1.3714 -0.1469 -0.1085
 2691TIP3   OH2 8078   1.825   2.906   2.002 -0.3579  0.0917 -0.2058
 2691TIP3    H1 8079   1.785   2.918   2.087  0.7355 -1.9172  0.6786
 2691TIP3    H2 8080   1.760   2.858   1.951 -0.8367  0.8938 -0.3537
 2692TIP3   OH2 8081   1.758   3.843   1.862  0.0133 -0.3671 -0.5579
 2692TIP3    H1 8082   1.833   3.846   1.922  0.0392 -2.2490 -0.4577
 2692TIP3    H2 8083   1.684   3.816   1.917 -0.2815 -0.6197 -1.0750
 2693TIP3   OH2 8084   1.281   4.916   4.941  0.2306 -0.1507  0.0597
 2693TIP3    H1 8085   1.209   4.937   5.001 -1.2308  1.2946 -2.0295
 2693TIP3    H2 8086   1.336   4.855   4.989  0.0799  2.1105  3.4731
 2694TIP3   OH2 8087   4.988   5.496   3.481 -0.4972 -0.4992 -0.0815
 2694TIP3    H1 8088   4.917   5.465   3.426 -2.2887  2.0883  0.5817
 2694TIP3    H2 8089   4.945   5.545   3.551  1.8956  0.1348  1.0811
 2695TIP3   OH2 8090   1.462   1.643   1.797 -0.0392  0.2743 -0.4977
 2695TIP3    H1 8091   1.523   1.716   1.795 -0.6712  0.8267 -0.1814
 2695TIP3    H2 8092   1.392   1.669   1.737  0.5731 -0.8538 -1.7473
 2696TIP3   OH2 8093   5.925   1.738   1.819  0.1767 -0.6224  0.0585
 2696TIP3    H1 8094   5.931   1.749   1.914 -0.1168  2.0137 -0.1446
 2696TIP3    H2 8095   6.015   1.752   1.788 -0.0574  0.5291 -0.1573
 2697TIP3   OH2 8096   3.697   1.372   0.356  0.0250 -0.4419 -0.0444
 2697TIP3    H1 8097   3.632   1.312   0.392  0.6579 -0.5175  1.0168
 2697TIP3    H2 8098   3.720   1.429   0.429  0.5246  0.1391 -0.6379
 2698TIP3   OH2 8099   5.249   3.690   4.083 -0.4796 -0.3633  0.4410
 2698TIP3    H1 8100   5.293   3.605   4.086 -2.0140 -1.1782  1.0123
 2698TIP3    H2 8101   5.190   3.684   4.008 -0.5559  0.2283  0.4483
 2699TIP3   OH2 8102   1.821   4.949   1.236  0.2620  0.1197 -0.2089
 2699TIP3    H1 8103   1.791   4.971   1.148 -1.8263  0.6586  0.5862
 2699TIP3    H2 8104   1.907   4.990   1.242  0.6275 -0.2533 -2.1135
 2700TIP3   OH2 8105   5.544   2.922   3.786 -0.4854  0.2155  0.0111
 2700TIP3    H1 8106   5.599   2.845   3.773 -2.0523 -0.9119 -0.2721
 2700TIP3    H2 8107   5.454   2.890   3.771 -1.4324  1.4994  2.3409
 2701TIP3   OH2 8108   4.814   4.158   0.231 -0.1625 -0.3450 -0.0341
 2701TIP3    H1 8109   4.746   4.120   0.287 -0.1930 -0.2383  0.0013
 2701TIP3    H2 8110   4.852   4.228   0.284 -0.3287 -0.1104 -0.2235
 2702TIP3   OH2 8111   0.634   5.417   2.614 -0.3048 -0.4753 -0.6538
 2702TIP3    H1 8112   0.636   5.359   2.691 -1.5664 -0.8964 -0.9251
 2702TIP3    H2 8113   0.563   5.383   2.560 -0.2666  0.5973 -1.4077
 2703TIP3   OH2 8114   2.752   3.592   2.681 -0.2467  0.1312 -0.0219
 2703TIP3    H1 8115   2.843   3.574   2.654 -0.5277 -0.3747 -0.6588
 2703TIP3    H2 8116   2.734   3.680   2.649 -0.6253 -0.5190 -1.6718
 2704TIP3   OH2 8117   3.801   0.904   0.840 -0.0140  0.1959  0.1077
 2704TIP3    H1 8118   3.808   0.859   0.924  0.0413 -1.3707 -0.6821
 2704TIP3    H2 8119   3.851   0.985   0.851  1.2615 -0.6885  1.1227
 2705TIP3   OH2 8120   5.354   3.054   2.722  0.4271 -0.1462  0.6249
 2705TIP3    H1 8121   5.296   2.985   2.756 -0.7560  0.9561  0.9193
 2705TIP3    H2 8122   5.348   3.044   2.627 -0.6350  0.2332  0.6324
 2706TIP3   OH2 8123   3.025   1.578   0.751  0.4426 -0.0518  0.8314
 2706TIP3    H1 8124   2.946   1.624   0.779  1.4565  0.8202  2.3766
 2706TIP3    H2 8125   3.092   1.647   0.746  0.5591 -0.2408 -3.1663
 2707TIP3   OH2 8126   6.080   5.247   4.417 -0.0452  0.3383 -0.5980
 2707TIP3    H1 8127   6.163   5.236   4.463 -1.1272  1.5016  1.8162
 2707TIP3    H2 8128   6.105   5.268   4.327  2.4090  3.0444  0.5543
 2708TIP3   OH2 8129   2.583   3.383   4.108  0.1275 -0.0970 -0.0505
 2708TIP3    H1 8130   2.576   3.317   4.176 -2.7110  0.5402  0.4096
 2708TIP3    H2 8131   2.573   3.467   4.153 -1.8362  0.3373 -1.1792
 2709TIP3   OH2 8132   1.502   0.372   0.919 -0.2840  0.2026  0.2065
 2709TIP3    H1 8133   1.477   0.445   0.975  4.1662  0.9545  1.6386
 2709TIP3    H2 8134   1.521   0.300   0.980  1.8343  0.1030 -0.4692
 2710TIP3   OH2 8135   5.891   1.496   0.285 -0.4248  0.7174 -0.5700
 2710TIP3    H1 8136   5.858   1.415   0.323  0.9076  1.4780  2.5272
 2710TIP3    H2 8137   5.985   1.483   0.278 -0.0625  2.2168  0.7974
 2711TIP3   OH2 8138   5.008   2.343   0.671  0.2638  0.5874  0.2059
 2711TIP3    H1 8139   5.051   2.338   0.585  1.9828  1.1477  0.9785
 2711TIP3    H2 8140   4.951   2.267   0.674 -1.4270  1.6234 -2.2210
 2712TIP3   OH2 8141   6.199   2.999   3.893  0.2404 -0.3064  0.1615
 2712TIP3    H1 8142   6.291   3.023   3.903 -0.1034  1.6108 -0.8386
 2712TIP3    H2 8143   6.170   2.978   3.982  1.5715 -0.6970  0.5221
 2713TIP3   OH2 8144   3.017   3.320   4.606  0.2541  0.3176  0.4303
 2713TIP3    H1 8145   2.994   3.229   4.587  1.6059  0.2685 -1.1867
 2713TIP3    H2 8146   2.939   3.356   4.650 -0.5415 -1.4311  0.5193
 2714TIP3   OH2 8147   3.061   5.044   0.409  0.1681  0.6860 -0.4676
 2714TIP3    H1 8148   3.004   5.007   0.342 -1.7948  4.7009 -1.3365
 2714TIP3    H2 8149   3.002   5.071   0.479  0.9693  3.8080 -0.8240
 2715TIP3   OH2 8150   5.659   2.210   2.914  0.4717 -0.3634  0.1686
 2715TIP3    H1 8151   5.714   2.251   2.847  0.4362 -0.3596  0.1418
 2715TIP3    H2 8152   5.622   2.284   2.963 -0.8154 -0.3040 -0.8511
 2716TIP3   OH2 8153   5.442   0.270   3.833  0.4157 -0.3919  0.4284
 2716TIP3    H1 8154   5.465   0.267   3.740 -0.3461  1.3255  0.1425
 2716TIP3    H2 8155   5.350   0.296   3.834  0.5681  0.1665  1.6732
 2717TIP3   OH2 8156   1.569   4.669   0.610 -0.0971 -0.3604  0.6280
 2717TIP3    H1 8157   1.640   4.713   0.656  1.2352 -2.7741  1.0724
 2717TIP3    H2 8158   1.537   4.603   0.672 -1.6964 -0.3483 -0.1291
 2718TIP3   OH2 8159   1.934   3.806   1.080 -0.4257 -0.1041  0.0373
 2718TIP3    H1 8160   1.979   3.860   1.015 -1.3015  1.3103  0.5532
 2718TIP3    H2 8161   2.004   3.763   1.129  0.4329  2.2172  0.9796
 2719TIP3   OH2 8162   4.501   4.225   4.183 -0.2724  0.1528 -0.0134
 2719TIP3    H1 8163   4.587   4.207   4.220 -0.4094 -1.3073 -0.3421
 2719TIP3    H2 8164   4.493   4.320   4.187  1.1416  0.2811  0.4801
 2720TIP3   OH2 8165   1.787   2.974   0.405  0.1699 -0.5446 -0.0362
 2720TIP3    H1 8166   1.881   2.987   0.418  0.4758 -1.8481 -0.8625
 2720TIP3    H2 8167   1.747   3.025   0.476  1.4525  0.5791 -0.0646
 2721TIP3   OH2 8168   4.856   0.124   4.791 -0.7563 -0.2540  0.0715
 2721TIP3    H1 8169   4.799   0.201   4.797 -0.9475 -0.1965 -1.7667
 2721TIP3    H2 8170   4.826   0.079   4.712  0.6085 -1.1786  0.0488
 2722TIP3   OH2 8171   0.426   5.872   5.175  0.0503  0.0272 -0.2972
 2722TIP3    H1 8172   0.375   5.934   5.122  0.4319  0.6437  0.0472
 2722TIP3    H2 8173   0.504   5.921   5.201  0.6546 -0.7973 -0.5238
 2723TIP3   OH2 8174   5.049   1.725   0.535 -0.2544 -0.9361 -0.0096
 2723TIP3    H1 8175   4.989   1.730   0.609 -0.5079  1.6597 -0.2842
 2723TIP3    H2 8176   5.132   1.694   0.573 -0.8191 -1.2153  1.0286
 2724TIP3   OH2 8177   0.638   2.838   4.716  0.3567  0.0710  0.5306
 2724TIP3    H1 8178   0.604   2.759   4.759 -0.5590 -0.4795 -1.0987
 2724TIP3    H2 8179   0.704   2.804   4.655  1.6826  0.8355  1.4972
 2725TIP3   OH2 8180   2.598   2.702   0.205 -0.1940 -0.0548 -0.0769
 2725TIP3    H1 8181   2.580   2.689   0.112  0.5075 -1.4969 -0.0332
 2725TIP3    H2 8182   2.690   2.728   0.209 -0.1655 -0.1970  0.2312
 2726TIP3   OH2 8183   5.673   5.832   2.759  0.1380  0.1840 -0.3526
 2726TIP3    H1 8184   5.664   5.859   2.667  1.1581  0.7044 -0.3218
 2726TIP3    H2 8185   5.746   5.770   2.758 -0.1308 -0.1448  0.0508
 2727TIP3   OH2 8186   1.579   3.589   2.895  0.1904  0.3845 -0.2832
 2727TIP3    H1 8187   1.555   3.681   2.898 -0.3539  0.2191  0.5979
 2727TIP3    H2 8188   1.581   3.561   2.986  0.8939 -0.3390 -0.5093
 2728TIP3   OH2 8189   5.931   0.576   1.566 -0.1715  0.4294  0.6271
 2728TIP3    H1 8190   5.848   0.603   1.606 -0.1559 -0.5751  1.3783
 2728TIP3    H2 8191   5.912   0.489   1.531  0.0979  0.8896 -0.7145
 2729TIP3   OH2 8192   6.265   3.841   4.320 -0.3562 -0.0079  0.2141
 2729TIP3    H1 8193   6.306   3.871   4.239  0.6769  0.4524  0.8874
 2729TIP3    H2 8194   6.318   3.879   4.390 -1.4299 -0.1030  1.1209
 2730TIP3   OH2 8195   3.555   5.595   3.222  0.6078  0.6219 -0.4927
 2730TIP3    H1 8196   3.543   5.619   3.130  2.0313 -1.2319 -1.2167
 2730TIP3    H2 8197   3.521   5.505   3.227  0.5491  0.7080  0.7970
 2731TIP3   OH2 8198   5.787   4.613   1.196 -0.5806  0.1020  0.2374
 2731TIP3    H1 8199   5.778   4.691   1.251 -1.8747 -1.2788  2.1418
 2731TIP3    H2 8200   5.873   4.577   1.218  0.0507  0.9856 -0.7022
 2732TIP3   OH2 8201   2.389   4.507   4.607 -0.3877 -0.6255  0.0691
 2732TIP3    H1 8202   2.420   4.457   4.532 -0.5176 -1.6903  0.7082
 2732TIP3    H2 8203   2.383   4.443   4.678 -1.3773  0.1180  0.6878
 2733TIP3   OH2 8204   2.890   5.339   4.843 -0.1542  0.1101  0.8593
 2733TIP3    H1 8205   2.827   5.277   4.805 -0.1686  0.7576 -0.2310
 2733TIP3    H2 8206   2.836   5.411   4.874 -0.1040 -0.2378  1.7698
 2734TIP3   OH2 8207   4.683   1.907   2.863 -0.3223  0.0695 -0.0416
 2734TIP3    H1 8208   4.743   1.949   2.801 -0.2791 -0.0400 -0.0748
 2734TIP3    H2 8209   4.683   1.964   2.940  0.3885 -0.3105  0.2483
 2735TIP3   OH2 8210   5.237   2.192   5.189 -0.0452  0.3742  0.0845
 2735TIP3    H1 8211   5.236   2.100   5.214 -0.4162  0.5388  0.6752
 2735TIP3    H2 8212   5.203   2.193   5.099 -0.5512  0.0024  0.2731
 2736TIP3   OH2 8213  -0.000   0.799   5.017 -0.0270  0.3048  0.2343
 2736TIP3    H1 8214  -0.043   0.847   4.946 -0.7280 -1.4527 -0.5895
 2736TIP3    H2 8215   0.091   0.790   4.989  0.3063  1.7675  0.7592
 2737TIP3   OH2 8216   1.851   0.400   4.045 -0.0101 -0.0882  0.2847
 2737TIP3    H1 8217   1.858   0.394   3.950  0.0330  2.6513  0.0334
 2737TIP3    H2 8218   1.846   0.494   4.063  0.3297 -0.5062  3.0279
 2738TIP3   OH2 8219   5.347   2.794   4.722  0.0025  0.3270 -0.0675
 2738TIP3    H1 8220   5.402   2.716   4.731 -0.7901 -0.0416  2.1362
 2738TIP3    H2 8221   5.354   2.839   4.806 -0.6879  1.9019 -0.8017
 2739TIP3   OH2 8222   6.198   4.197   1.983 -0.3827 -0.8533  0.5334
 2739TIP3    H1 8223   6.166   4.216   2.071  2.0752  0.4267  1.2370
 2739TIP3    H2 8224   6.250   4.117   1.993 -0.3064 -0.8473  0.1879
 2740TIP3   OH2 8225   3.044   2.114   1.558  0.0586  0.3061  0.3386
 2740TIP3    H1 8226   3.087   2.114   1.472 -0.4711 -2.5260 -0.0287
 2740TIP3    H2 8227   2.956   2.081   1.541  0.1499 -0.9250  2.0421
 2741TIP3   OH2 8228   5.577   0.938   2.794  0.1089  0.0717  0.1459
 2741TIP3    H1 8229   5.565   0.993   2.717 -0.6113 -0.4570 -0.1233
 2741TIP3    H2 8230   5.490   0.903   2.813  0.4049 -0.3379  0.8021
 2742TIP3   OH2 8231   0.201   5.237   4.775 -0.2894 -0.1604  0.3999
 2742TIP3    H1 8232   0.188   5.143   4.765 -1.3251 -0.2714  2.2879
 2742TIP3    H2 8233   0.174   5.274   4.691  1.3918 -1.6012 -0.8592
 2743TIP3   OH2 8234   1.283   2.612   0.535 -0.5914 -0.1812  0.3588
 2743TIP3    H1 8235   1.271   2.518   0.545 -0.5058 -0.5617 -2.3505
 2743TIP3    H2 8236   1.359   2.620   0.476 -0.7363  1.5652  0.3622
 2744TIP3   OH2 8237   5.951   0.675   3.053 -0.3469  0.0667  0.3892
 2744TIP3    H1 8238   5.974   0.655   2.962  1.8271 -0.0149  0.9242
 2744TIP3    H2 8239   5.874   0.621   3.070 -0.7537  0.0137 -1.3665
 2745TIP3   OH2 8240   1.099   4.988   3.575 -0.0110 -0.6295  0.3582
 2745TIP3    H1 8241   1.161   4.945   3.634  0.6437 -0.0666  0.0966
 2745TIP3    H2 8242   1.013   4.957   3.604  0.2498 -0.0065  1.9154
 2746TIP3   OH2 8243   6.249   0.772   3.989 -0.2361  0.7268  0.4573
 2746TIP3    H1 8244   6.342   0.771   4.007 -0.1694  0.2644  0.1338
 2746TIP3    H2 8245   6.208   0.739   4.069 -0.1217  0.9088  0.5904
 2747TIP3   OH2 8246   4.659   3.776   1.240  0.3452  0.4920  0.4167
 2747TIP3    H1 8247   4.616   3.701   1.282 -1.0687  1.6350  1.0918
 2747TIP3    H2 8248   4.718   3.737   1.176 -1.9403 -1.1801 -0.7911
 2748TIP3   OH2 8249   5.687   1.699   0.471 -0.1911  0.0976 -0.1256
 2748TIP3    H1 8250   5.772   1.736   0.447 -0.5814  2.0040  1.1721
 2748TIP3    H2 8251   5.708   1.621   0.521  0.6742 -1.6852 -3.0017
 2749TIP3   OH2 8252   0.489   5.979   4.727  0.2587 -0.2898 -0.1999
 2749TIP3    H1 8253   0.542   5.906   4.758 -1.3783 -1.4977 -0.1019
 2749TIP3    H2 8254   0.421   5.990   4.794 -0.8124 -0.1408 -1.2773
 2750TIP3   OH2 8255   5.122   0.260   2.889 -0.2290 -0.0079  0.4193
 2750TIP3    H1 8256   5.162   0.322   2.827  0.4959 -1.3686 -0.5438
 2750TIP3    H2 8257   5.173   0.271   2.970  2.5273 -1.9341 -0.8732
 2751TIP3   OH2 8258   0.590   5.308   4.747 -0.5263 -0.3556  0.1853
 2751TIP3    H1 8259   0.516   5.347   4.794 -0.3248  1.4920 -0.9142
 2751TIP3    H2 8260   0.563   5.310   4.655  1.0616  0.8911 -0.3073
 2752TIP3   OH2 8261   0.858   2.839   4.333 -0.0098 -0.1763  0.7906
 2752TIP3    H1 8262   0.935   2.897   4.326  0.3265 -0.5067  1.6254
 2752TIP3    H2 8263   0.803   2.864   4.258 -1.2910  3.3052  2.6305
 2753TIP3   OH2 8264   3.458   3.050   4.869 -0.2203 -0.2300 -0.4919
 2753TIP3    H1 8265   3.367   3.062   4.844 -0.0721 -0.7463 -1.3347
 2753TIP3    H2 8266   3.484   2.968   4.827  0.5116 -0.3155  0.0887
 2754TIP3   OH2 8267   6.039   5.770   4.163 -0.1613 -0.1054  0.0599
 2754TIP3    H1 8268   5.978   5.828   4.117  0.0303 -0.9564 -1.3076
 2754TIP3    H2 8269   6.073   5.824   4.234 -0.9811  1.0372 -0.3786
 2755TIP3   OH2 8270   5.113   0.805   3.611 -0.4128  0.1406  0.4345
 2755TIP3    H1 8271   5.092   0.845   3.527  0.5487 -1.0322 -0.3965
 2755TIP3    H2 8272   5.203   0.831   3.628  0.3111 -1.7507 -0.2282
 2756TIP3   OH2 8273   5.792   1.417   4.745  0.1612  0.7631 -0.5264
 2756TIP3    H1 8274   5.864   1.480   4.746  1.0119 -0.0837  2.8742
 2756TIP3    H2 8275   5.835   1.332   4.755 -1.2252  0.0121 -0.6969
 2757TIP3   OH2 8276   3.717   2.709   2.148  0.2282  0.3898  0.4476
 2757TIP3    H1 8277   3.732   2.772   2.218 -0.1399  0.4158  0.5027
 2757TIP3    H2 8278   3.805   2.688   2.116  0.3698  0.7225  0.6097
 2758TIP3   OH2 8279   4.076   2.869   0.654  0.5971 -0.1829  0.5203
 2758TIP3    H1 8280   4.002   2.928   0.646 -0.4139 -1.3750  0.7366
 2758TIP3    H2 8281   4.152   2.926   0.667 -0.0492  1.1226 -1.1436
 2759TIP3   OH2 8282   0.494   3.905   3.615 -0.8326 -0.1693 -0.2434
 2759TIP3    H1 8283   0.409   3.939   3.586 -0.2426 -0.5930 -2.6835
 2759TIP3    H2 8284   0.473   3.843   3.684 -2.4075  0.5994  0.0072
 2760TIP3   OH2 8285   2.265   4.247   4.963 -0.4825  0.1670 -0.3526
 2760TIP3    H1 8286   2.252   4.169   5.018 -0.4926  0.7259  0.4550
 2760TIP3    H2 8287   2.309   4.214   4.885  0.0695 -0.5552  0.2480
 2761TIP3   OH2 8288   6.266   4.595   1.660 -0.2357 -0.1518  0.0616
 2761TIP3    H1 8289   6.171   4.585   1.649 -0.4819  1.2930  0.6538
 2761TIP3    H2 8290   6.304   4.530   1.599 -1.5838 -0.9809  0.0538
 2762TIP3   OH2 8291   4.956   5.270   3.248  0.4419 -0.2939 -0.7230
 2762TIP3    H1 8292   4.995   5.199   3.299  0.5595 -3.0119 -4.2392
 2762TIP3    H2 8293   4.865   5.244   3.237 -0.5381  2.0606  0.8728
 2763TIP3   OH2 8294   4.585   4.436   2.039 -0.0880 -0.2359 -0.5363
 2763TIP3    H1 8295   4.530   4.493   2.093  1.0748  0.8459 -0.4375
 2763TIP3    H2 8296   4.579   4.350   2.081  0.4836  0.4945  1.1305
 2764TIP3   OH2 8297   2.830   5.376   2.768 -0.0714 -0.2139 -0.0484
 2764TIP3    H1 8298   2.817   5.392   2.675  2.4236  0.0931 -0.4291
 2764TIP3    H2 8299   2.754   5.325   2.796 -1.8320  1.3446 -1.7804
 2765TIP3   OH2 8300   5.758   5.519   0.269 -0.8001 -1.1239 -0.0829
 2765TIP3    H1 8301   5.685   5.486   0.321 -0.6043 -1.7403 -0.1972
 2765TIP3    H2 8302   5.754   5.470   0.187  0.4378 -2.0079  0.3614
 2766TIP3   OH2 8303   4.328   0.476   3.901 -0.0876  0.3274 -0.0325
 2766TIP3    H1 8304   4.308   0.396   3.852  0.4558  0.5615 -0.6398
 2766TIP3    H2 8305   4.263   0.540   3.870 -0.5706  0.1122  0.5080
 2767TIP3   OH2 8306   1.820   5.927   5.135  0.1050 -0.1061  0.8275
 2767TIP3    H1 8307   1.880   5.999   5.117 -0.7599  1.1092  2.5305
 2767TIP3    H2 8308   1.750   5.966   5.188 -0.6882 -2.0780  1.3431
 2768TIP3   OH2 8309   6.213   3.679   0.801 -0.4803 -0.3130 -0.0532
 2768TIP3    H1 8310   6.170   3.638   0.876 -0.1432 -0.1727  0.2177
 2768TIP3    H2 8311   6.269   3.610   0.765  0.6158  0.0820  0.8140
 2769TIP3   OH2 8312   6.292   4.430   3.569  0.3305  0.4519  0.0232
 2769TIP3    H1 8313   6.291   4.443   3.664 -0.5647  0.4404  0.0219
 2769TIP3    H2 8314   6.296   4.519   3.533 -0.4390  0.5098  0.0668
 2770TIP3   OH2 8315   3.389   5.949   0.446  0.4927 -0.7286 -0.3016
 2770TIP3    H1 8316   3.388   6.042   0.422  2.1990 -0.8419 -1.0012
 2770TIP3    H2 8317   3.341   5.945   0.528 -0.0932  0.6851 -0.5406
 2771TIP3   OH2 8318   3.368   4.609   5.132  0.2808 -0.2975 -0.3587
 2771TIP3    H1 8319   3.405   4.521   5.121  0.1128 -0.4870  0.4751
 2771TIP3    H2 8320   3.426   4.651   5.196 -0.2923 -0.2060  0.1048
 2772TIP3   OH2 8321   4.512   0.500   1.856  0.0933 -0.7687 -0.1193
 2772TIP3    H1 8322   4.557   0.504   1.940  1.2435 -0.4192 -0.7294
 2772TIP3    H2 8323   4.554   0.568   1.803 -0.6310 -0.9673 -0.9696
 2773TIP3   OH2 8324   3.013   1.751   4.491 -0.0473 -0.3318 -0.3885
 2773TIP3    H1 8325   2.988   1.843   4.502  1.6478 -0.0378  1.8956
 2773TIP3    H2 8326   2.931   1.705   4.473 -1.1136  1.4410 -0.2977
 2774TIP3   OH2 8327   4.922   3.063   0.661 -0.1325  0.2127  0.1238
 2774TIP3    H1 8328   4.925   2.974   0.626 -0.7674  0.9380 -1.9136
 2774TIP3    H2 8329   4.936   3.052   0.755 -1.3422 -2.1363  0.1050
 2775TIP3   OH2 8330   4.951   5.369   1.361  0.2001 -0.8736  0.1639
 2775TIP3    H1 8331   4.986   5.368   1.271  0.2546  0.9185  0.1272
 2775TIP3    H2 8332   4.932   5.277   1.380  2.5141 -1.6242 -0.7555
 2776TIP3   OH2 8333   0.956   3.265   4.919  0.9710 -0.1999  0.2341
 2776TIP3    H1 8334   0.880   3.210   4.898  1.5124 -2.0076  2.5729
 2776TIP3    H2 8335   0.919   3.341   4.964  0.4113 -0.1778 -0.2591
 2777TIP3   OH2 8336   0.005   1.334   2.841  0.1663 -0.1499  0.0851
 2777TIP3    H1 8337   0.088   1.380   2.852  0.7268 -1.1385  0.0553
 2777TIP3    H2 8338  -0.051   1.395   2.794  0.7582  0.6559  0.4131
 2778TIP3   OH2 8339   4.669   0.877   3.922 -0.1130 -0.0623 -0.2125
 2778TIP3    H1 8340   4.617   0.934   3.865  0.0688 -1.1888 -1.5557
 2778TIP3    H2 8341   4.604   0.827   3.972 -0.2734  0.9712  0.6418
 2779TIP3   OH2 8342   5.091   4.733   0.367 -0.3350  0.4776 -0.0226
 2779TIP3    H1 8343   5.088   4.828   0.367 -0.9494  0.4616 -0.0522
 2779TIP3    H2 8344   5.015   4.706   0.316  0.4579 -0.0229 -0.9751
 2780TIP3   OH2 8345   1.658   4.657   1.844  0.3075 -0.2560 -0.4675
 2780TIP3    H1 8346   1.722   4.675   1.912 -0.7177  1.0330  0.2162
 2780TIP3    H2 8347   1.635   4.744   1.809  1.3650 -0.9090 -3.0449
 2781TIP3   OH2 8348   5.902   5.653   2.076 -0.4362 -0.1314 -0.5956
 2781TIP3    H1 8349   5.924   5.743   2.099 -3.6849  0.6046  0.2321
 2781TIP3    H2 8350   5.869   5.614   2.157  0.0552 -1.7821 -1.1419
 2782TIP3   OH2 8351   0.015   2.848   1.713  0.1911 -0.3632 -0.4186
 2782TIP3    H1 8352   0.099   2.823   1.751 -0.4581 -0.8331  0.7436
 2782TIP3    H2 8353   0.025   2.830   1.619  1.6393  0.3336 -0.4343
 2783TIP3   OH2 8354   4.617   2.076   3.831 -0.3858  0.1407  0.1791
 2783TIP3    H1 8355   4.696   2.129   3.822  1.0393 -2.0243 -0.8186
 2783TIP3    H2 8356   4.621   2.042   3.921  0.0932 -0.3693 -0.0333
 2784TIP3   OH2 8357   5.479   1.936   3.970 -0.3089 -0.0543  0.1439
 2784TIP3    H1 8358   5.498   2.020   3.930  0.1074  0.8384  2.0755
 2784TIP3    H2 8359   5.475   1.954   4.064 -1.3978 -1.9799  0.5320
 2785TIP3   OH2 8360   1.704   5.198   4.437 -0.9788  0.6009 -0.0332
 2785TIP3    H1 8361   1.800   5.198   4.445 -0.8921 -1.5146 -0.4332
 2785TIP3    H2 8362   1.678   5.111   4.466 -2.5411  0.2168 -2.3353
 2786TIP3   OH2 8363   5.330   5.306   3.905 -0.5801  0.4924 -1.1286
 2786TIP3    H1 8364   5.316   5.375   3.970  1.6869  0.0663 -0.0671
 2786TIP3    H2 8365   5.255   5.312   3.846 -1.8308  2.0434  0.5194
 2787TIP3   OH2 8366   3.244   4.764   4.710 -0.1327  0.8777  0.6108
 2787TIP3    H1 8367   3.183   4.741   4.640  1.9965  0.0165 -1.0876
 2787TIP3    H2 8368   3.288   4.843   4.677  1.3388  0.0994  0.6199
 2788TIP3   OH2 8369   0.561   1.857   3.983  0.3858  0.2819 -0.3517
 2788TIP3    H1 8370   0.628   1.895   4.040  0.7155  0.5513 -0.9098
 2788TIP3    H2 8371   0.520   1.788   4.036  0.6531  0.5567  0.2227
 2789TIP3   OH2 8372   0.855   5.237   0.238  0.2778  0.1532  0.7184
 2789TIP3    H1 8373   0.786   5.176   0.213 -0.8349  1.6914 -0.2303
 2789TIP3    H2 8374   0.917   5.233   0.166  0.5462 -0.3457  0.9790
 2790TIP3   OH2 8375   1.041  -0.002   5.119 -0.0827  0.7771 -0.4571
 2790TIP3    H1 8376   0.973   0.002   5.052 -0.8947 -1.5606  0.1186
 2790TIP3    H2 8377   1.006   0.047   5.193 -0.2255  1.3084 -0.8670
 2791TIP3   OH2 8378   0.531   5.790   4.928 -0.4520  0.6075 -0.1128
 2791TIP3    H1 8379   0.451   5.749   4.894  0.7711 -2.0643 -0.0357
 2791TIP3    H2 8380   0.517   5.796   5.022 -0.1491 -0.9749  0.0581
 2792TIP3   OH2 8381   2.294   2.363   1.883  0.2732  0.0485  0.5248
 2792TIP3    H1 8382   2.290   2.284   1.829  0.6749  0.3395  0.0649
 2792TIP3    H2 8383   2.203   2.379   1.909  0.1417 -0.3515  0.3088
 2793TIP3   OH2 8384   6.201   2.346   1.407 -0.0315 -0.0867  0.2023
 2793TIP3    H1 8385   6.257   2.272   1.381  0.6515  0.5386 -0.1345
 2793TIP3    H2 8386   6.250   2.389   1.477 -0.5452 -0.0867  0.5677
 2794TIP3   OH2 8387   2.107   1.063   1.173 -1.0612 -0.0824  0.2326
 2794TIP3    H1 8388   2.188   1.092   1.130 -1.7957  0.6074 -0.7075
 2794TIP3    H2 8389   2.077   0.989   1.121 -1.1739 -0.1685  0.4213
 2795TIP3   OH2 8390   5.183   2.468   4.976  0.0725 -0.4165 -0.1147
 2795TIP3    H1 8391   5.126   2.392   4.967 -0.7279  0.2692 -0.9868
 2795TIP3    H2 8392   5.167   2.520   4.897  0.1943  0.9203  0.7051
 2796TIP3   OH2 8393   3.178   3.648   2.772 -0.1879 -0.2106  0.3503
 2796TIP3    H1 8394   3.272   3.636   2.759 -0.1582  0.0794  0.2873
 2796TIP3    H2 8395   3.168   3.742   2.789 -0.4524 -0.2590  0.4705
 2797TIP3   OH2 8396   4.804   2.330   0.895  0.9560 -0.2422 -0.1451
 2797TIP3    H1 8397   4.829   2.421   0.881  1.8736 -0.4223  0.2751
 2797TIP3    H2 8398   4.877   2.291   0.942 -0.0622 -0.8350  1.0095
 2798TIP3   OH2 8399   6.245   2.806   4.273  0.3130  0.0517  0.4596
 2798TIP3    H1 8400   6.328   2.776   4.310 -0.2946 -0.5444  1.3600
 2798TIP3    H2 8401   6.230   2.748   4.199 -0.8938 -2.0351  2.2308
 2799TIP3   OH2 8402   6.017   0.389   0.785 -0.3409  0.3339 -0.1147
 2799TIP3    H1 8403   5.986   0.348   0.704  0.0152 -0.6370  0.2290
 2799TIP3    H2 8404   6.094   0.440   0.758  0.8373 -1.3803 -0.1265
 2800TIP3   OH2 8405   3.974   0.568   0.596  0.0327  0.4094  0.0988
 2800TIP3    H1 8406   4.003   0.532   0.512 -0.0884  1.2710 -0.3205
 2800TIP3    H2 8407   4.014   0.511   0.662  0.5972  0.0747 -0.5286
 2801TIP3   OH2 8408   0.232   2.854   4.901 -0.1097 -0.7189  0.8827
 2801TIP3    H1 8409   0.222   2.785   4.835 -2.8931  1.3110 -1.0414
 2801TIP3    H2 8410   0.313   2.898   4.877 -1.2617  0.2286 -1.5778
 2802TIP3   OH2 8411   4.539   4.744   2.020 -0.0371 -0.2035  0.5160
 2802TIP3    H1 8412   4.541   4.834   2.051  2.7097  0.7377 -1.9585
 2802TIP3    H2 8413   4.463   4.739   1.962  0.3195  0.8209 -0.0592
 2803TIP3   OH2 8414   4.139   4.890   3.093 -0.2968  0.4161 -0.0911
 2803TIP3    H1 8415   4.126   4.929   3.179 -1.0100 -0.4390  0.1965
 2803TIP3    H2 8416   4.214   4.832   3.104 -0.3787  0.3182 -0.0532
 2804TIP3   OH2 8417   2.523   1.093   4.556 -0.2925  0.2539 -0.0419
 2804TIP3    H1 8418   2.563   1.117   4.472 -2.8371  1.2902 -1.0608
 2804TIP3    H2 8419   2.529   1.173   4.608  2.3445 -0.7148  1.3274
 2805TIP3   OH2 8420   5.471   0.374   0.709  0.5547 -0.0353 -0.2725
 2805TIP3    H1 8421   5.465   0.305   0.775  2.3743  0.1213  0.1095
 2805TIP3    H2 8422   5.560   0.366   0.674  0.6902  1.8954 -0.4744
 2806TIP3   OH2 8423   5.278   4.966   4.659  0.1100 -0.0141  0.1860
 2806TIP3    H1 8424   5.219   4.941   4.730  1.7108  1.6875  2.2450
 2806TIP3    H2 8425   5.223   5.018   4.600 -1.3515 -1.8002 -0.1270
 2807TIP3   OH2 8426   1.435   2.552   3.355  0.1760 -0.2807  0.2286
 2807TIP3    H1 8427   1.509   2.526   3.300 -1.2230 -1.6565 -1.0850
 2807TIP3    H2 8428   1.434   2.647   3.350  2.0873 -0.1857  0.6464
 2808TIP3   OH2 8429   6.250   5.448   0.225 -0.5317  0.4534 -0.1128
 2808TIP3    H1 8430   6.182   5.391   0.262 -0.8211  0.9890  0.1821
 2808TIP3    H2 8431   6.204   5.528   0.201 -0.0297  0.7559 -0.0722
 2809TIP3   OH2 8432   2.415   5.890   0.479  0.0728 -0.0249 -0.1357
 2809TIP3    H1 8433   2.380   5.917   0.564 -0.2005  0.4755 -0.4015
 2809TIP3    H2 8434   2.412   5.970   0.425  2.7425  0.3580  0.1737
 2810TIP3   OH2 8435   3.079   0.624   4.545 -0.3228  0.0551  0.4801
 2810TIP3    H1 8436   3.155   0.625   4.603  1.2589 -1.3914 -1.4411
 2810TIP3    H2 8437   3.026   0.550   4.575 -0.6588  0.6323  1.3716
 2811TIP3   OH2 8438   4.315   2.551   3.043  0.1902  0.1724  0.6656
 2811TIP3    H1 8439   4.304   2.564   2.948 -1.4985  0.2124  0.8307
 2811TIP3    H2 8440   4.367   2.627   3.071  0.5339  0.2701 -0.1965
 2812TIP3   OH2 8441   1.942   1.470   2.285  0.2700 -0.1876  0.4820
 2812TIP3    H1 8442   1.874   1.474   2.353  1.5431  1.9346  1.7855
 2812TIP3    H2 8443   1.979   1.383   2.294 -0.2405 -0.2987  1.8885
 2813TIP3   OH2 8444   3.379   1.996   2.177 -0.2542 -0.3837 -0.0969
 2813TIP3    H1 8445   3.327   1.968   2.102 -0.3549  1.9795 -1.0179
 2813TIP3    H2 8446   3.429   1.918   2.203  1.7017 -0.8016 -4.2301
 2814TIP3   OH2 8447   5.530   4.062   4.517  1.1228  0.0417  0.3467
 2814TIP3    H1 8448   5.445   4.067   4.473  2.5380  0.3601 -2.5952
 2814TIP3    H2 8449   5.515   4.101   4.603 -1.0602  2.8950 -1.1574
 2815TIP3   OH2 8450   5.222   2.067   4.299  0.4671  0.0374 -0.1163
 2815TIP3    H1 8451   5.298   2.082   4.356  0.3084  0.2039  0.0539
 2815TIP3    H2 8452   5.156   2.028   4.357  0.4631 -0.2146 -0.2895
 2816TIP3   OH2 8453   1.379   5.697   4.695 -0.1120  0.4268  0.3080
 2816TIP3    H1 8454   1.400   5.757   4.623 -0.9427 -2.3005 -2.4048
 2816TIP3    H2 8455   1.287   5.712   4.714 -0.4534 -0.2912 -0.7241
 2817TIP3   OH2 8456   3.247   3.258   3.911  0.8001 -0.5284  0.5171
 2817TIP3    H1 8457   3.221   3.348   3.928  1.6077 -0.3211  0.6756
 2817TIP3    H2 8458   3.203   3.236   3.829 -0.2138 -0.3361  0.9895
 2818TIP3   OH2 8459   3.230   0.899   5.025  0.4966 -0.6844 -0.0274
 2818TIP3    H1 8460   3.224   0.804   5.017 -0.9133 -0.6047 -0.2295
 2818TIP3    H2 8461   3.150   0.924   5.070 -0.3417  0.6073 -2.0709
 2819TIP3   OH2 8462   0.012   3.979   4.565  0.4722  0.2921  0.4118
 2819TIP3    H1 8463   0.107   3.974   4.573  0.9191  2.1050 -2.3194
 2819TIP3    H2 8464  -0.010   4.068   4.593 -0.5162 -0.2265  1.3824
 2820TIP3   OH2 8465   6.003   3.934   4.286  0.5964  0.3148  0.0522
 2820TIP3    H1 8466   5.985   3.994   4.359  1.7614  0.6459  0.0936
 2820TIP3    H2 8467   6.096   3.913   4.295  1.2503  1.7404 -2.3059
 2821TIP3   OH2 8468   5.770   1.877   4.478  0.5993  0.0515  0.3903
 2821TIP3    H1 8469   5.708   1.907   4.543  0.0826 -0.1746  0.0050
 2821TIP3    H2 8470   5.717   1.835   4.410  1.0128  1.2476 -0.7279
 2822TIP3   OH2 8471   0.562   4.611   0.254 -0.2249  1.0158  0.2583
 2822TIP3    H1 8472   0.490   4.555   0.283  0.1706 -1.5512 -3.0258
 2822TIP3    H2 8473   0.641   4.568   0.288  0.0632 -0.4177 -2.0196
 2823TIP3   OH2 8474   6.108   2.123   1.806  0.1204  0.1665 -0.4211
 2823TIP3    H1 8475   6.075   2.211   1.821  1.0628  0.2719  1.2952
 2823TIP3    H2 8476   6.201   2.136   1.786  0.2023 -0.4223 -0.4377
 2824TIP3   OH2 8477   4.323   4.244   4.676 -0.2652 -0.5119  0.5239
 2824TIP3    H1 8478   4.337   4.201   4.760 -1.6330  0.3467  1.2407
 2824TIP3    H2 8479   4.334   4.175   4.611  2.4108 -0.8685  1.2449
 2825TIP3   OH2 8480   3.511   2.519   2.324  0.1106 -0.1766  0.2929
 2825TIP3    H1 8481   3.554   2.587   2.272 -0.7874 -0.2369 -0.5688
 2825TIP3    H2 8482   3.518   2.440   2.270 -1.1243 -0.1685  0.0858
 2826TIP3   OH2 8483   3.090   5.314   1.347 -0.1072 -0.1441  0.6362
 2826TIP3    H1 8484   3.139   5.344   1.424 -0.2696 -0.8127  1.0160
 2826TIP3    H2 8485   3.040   5.390   1.318  0.8876  0.4571  0.4547
 2827TIP3   OH2 8486   0.482   2.599   2.453  0.6776  0.5646 -0.2866
 2827TIP3    H1 8487   0.482   2.518   2.505 -1.3871  0.6523 -0.0845
 2827TIP3    H2 8488   0.539   2.579   2.378 -0.3580 -1.3437 -0.6222
 2828TIP3   OH2 8489   0.953   3.327   1.418 -0.1428 -0.4295  0.2199
 2828TIP3    H1 8490   0.996   3.408   1.389 -1.9500 -0.0705 -1.7476
 2828TIP3    H2 8491   1.023   3.262   1.419  0.5982  0.1825 -2.5681
 2829TIP3   OH2 8492   2.050   3.177   4.598 -0.0917 -0.2868 -0.0629
 2829TIP3    H1 8493   1.977   3.230   4.630 -0.7008 -1.6734  1.0132
 2829TIP3    H2 8494   2.109   3.169   4.674  0.7219  0.0601 -0.6463
 2830TIP3   OH2 8495   4.373   0.121   4.198 -0.1148  0.0819 -0.5414
 2830TIP3    H1 8496   4.282   0.147   4.209 -0.6267 -0.9085 -2.0111
 2830TIP3    H2 8497   4.414   0.193   4.150 -0.8251 -0.5489 -2.1784
 2831TIP3   OH2 8498   1.838   3.535   4.422  0.0083  0.0599 -0.3472
 2831TIP3    H1 8499   1.873   3.582   4.498 -0.9032 -0.0364  0.1471
 2831TIP3    H2 8500   1.787   3.601   4.374 -1.8767 -0.5335  0.7327
 2832TIP3   OH2 8501   2.640   0.252   0.814  0.3636  0.0614  0.4254
 2832TIP3    H1 8502   2.615   0.204   0.893 -1.6314  0.8410  0.3396
 2832TIP3    H2 8503   2.722   0.295   0.836 -0.0654  0.1108  2.0331
 2833TIP3   OH2 8504   3.513   3.575   4.729 -0.5243  0.3235  0.4157
 2833TIP3    H1 8505   3.456   3.510   4.769 -1.0403  0.8205  0.5107
 2833TIP3    H2 8506   3.462   3.656   4.732 -0.2167  0.5562 -0.4477
 2834TIP3   OH2 8507   0.760   1.998   0.358  0.1051 -0.1096  0.2553
 2834TIP3    H1 8508   0.812   1.927   0.321  0.0552  0.4189 -0.8524
 2834TIP3    H2 8509   0.811   2.077   0.343  0.0631  0.1381  1.2890
 2835TIP3   OH2 8510   5.911   4.236   1.612  0.7456 -0.5732  0.7790
 2835TIP3    H1 8511   5.921   4.175   1.539  0.6724  0.6684 -0.3245
 2835TIP3    H2 8512   5.973   4.307   1.592 -1.8610  1.6509 -0.1318
 2836TIP3   OH2 8513   4.028   3.913   1.296 -0.2815  0.1148  0.5001
 2836TIP3    H1 8514   4.074   3.951   1.371 -1.6093 -0.8847  1.8824
 2836TIP3    H2 8515   4.098   3.881   1.239  0.8022 -1.0936  2.3789
 2837TIP3   OH2 8516   1.270   1.265   1.570 -0.5129 -0.7026  0.0356
 2837TIP3    H1 8517   1.299   1.333   1.630  0.8272 -0.1985 -1.1383
 2837TIP3    H2 8518   1.235   1.196   1.626  1.7446 -0.7503  1.4930
 2838TIP3   OH2 8519   4.590   5.927   0.352 -0.3530  0.1649  0.0384
 2838TIP3    H1 8520   4.616   5.855   0.408 -1.4334  0.3116  0.7648
 2838TIP3    H2 8521   4.657   5.994   0.365  1.2445 -1.0583 -1.4498
 2839TIP3   OH2 8522   0.365   5.081   1.998 -0.2035 -0.3675 -0.0989
 2839TIP3    H1 8523   0.274   5.075   2.027 -0.2108  0.2093  0.0045
 2839TIP3    H2 8524   0.372   5.016   1.928 -0.6952 -0.4197 -0.1054
 2840TIP3   OH2 8525   5.874   2.200   3.715  0.4409  0.6135 -0.2295
 2840TIP3    H1 8526   5.854   2.110   3.742  0.9604  0.7703  0.7176
 2840TIP3    H2 8527   5.912   2.190   3.627 -1.0417  0.0708 -0.8396
 2841TIP3   OH2 8528   4.748   0.385   2.990  0.4415 -0.0263 -0.2335
 2841TIP3    H1 8529   4.749   0.331   3.069 -0.4197  0.0585 -0.1567
 2841TIP3    H2 8530   4.823   0.442   3.000 -0.8655  1.5106  1.6205
 2842TIP3   OH2 8531   1.047   1.563   3.306  0.2508 -0.0611 -0.4413
 2842TIP3    H1 8532   1.051   1.654   3.336  0.6197  0.4798 -2.0245
 2842TIP3    H2 8533   1.110   1.517   3.362  0.1512  0.6770  0.3032
 2843TIP3   OH2 8534   3.525   5.171   0.863 -0.2080  0.3127 -0.6448
 2843TIP3    H1 8535   3.484   5.084   0.856 -0.4245  0.3317  0.3031
 2843TIP3    H2 8536   3.453   5.232   0.851 -0.7245  0.3539  1.9771
 2844TIP3   OH2 8537   6.111   2.634   1.621  0.1423  0.7831  0.0496
 2844TIP3    H1 8538   6.143   2.552   1.582 -0.4232 -0.1964  1.5514
 2844TIP3    H2 8539   6.183   2.662   1.678 -0.4740  0.1698  1.1576
 2845TIP3   OH2 8540   1.233   4.245   0.804  0.3357 -0.5252 -0.0697
 2845TIP3    H1 8541   1.324   4.220   0.796  0.0441 -1.0047 -2.9049
 2845TIP3    H2 8542   1.227   4.328   0.756 -0.0875  1.5901  3.2509
 2846TIP3   OH2 8543   4.874   3.602   1.170 -0.2785 -0.3902 -0.5808
 2846TIP3    H1 8544   4.864   3.559   1.084  0.0424 -0.2089 -0.7116
 2846TIP3    H2 8545   4.964   3.634   1.170  0.2207 -1.7002  0.4287
 2847TIP3   OH2 8546   5.015   0.392   4.371  0.0816 -0.1511 -0.0139
 2847TIP3    H1 8547   5.094   0.427   4.330  1.7236 -3.1348  0.3457
 2847TIP3    H2 8548   4.985   0.324   4.311 -1.0901 -0.3675  0.7896
 2848TIP3   OH2 8549   2.352   5.837   4.222  0.1879  0.2758 -0.2833
 2848TIP3    H1 8550   2.291   5.910   4.215 -0.7661 -0.4196  0.5887
 2848TIP3    H2 8551   2.344   5.806   4.312  0.8172 -0.7015 -0.5365
 2849TIP3   OH2 8552   6.094   5.974   1.532 -0.1768 -0.3283  0.3893
 2849TIP3    H1 8553   6.079   5.910   1.463  0.5592  0.2019 -0.2890
 2849TIP3    H2 8554   6.076   5.927   1.614  0.4364 -1.4136 -0.0875
 2850TIP3   OH2 8555   4.382   5.318   2.678  0.3557  0.7193 -0.2038
 2850TIP3    H1 8556   4.369   5.390   2.616  2.2955  1.7758  0.5266
 2850TIP3    H2 8557   4.367   5.358   2.764  1.8368  0.3869  0.2350
 2851TIP3   OH2 8558   1.149   1.668   4.388 -0.3956  0.1323  0.0859
 2851TIP3    H1 8559   1.234   1.712   4.393 -0.3413  0.4084 -2.2809
 2851TIP3    H2 8560   1.153   1.601   4.456  0.9746  1.3265  1.2536
 2852TIP3   OH2 8561   2.410   2.347   0.688 -0.8597 -0.0845 -0.2940
 2852TIP3    H1 8562   2.403   2.442   0.686 -0.0799  0.0569  1.7252
 2852TIP3    H2 8563   2.504   2.329   0.693 -1.0393 -0.9130  0.4355
 2853TIP3   OH2 8564   3.785   1.700   2.624 -0.1577  1.1731  0.4569
 2853TIP3    H1 8565   3.796   1.691   2.529 -1.5998 -0.2219  0.3798
 2853TIP3    H2 8566   3.870   1.676   2.660  0.3287  1.4437 -0.4663
 2854TIP3   OH2 8567   4.022   4.716   0.140  0.6818  0.1626 -0.0212
 2854TIP3    H1 8568   4.036   4.653   0.069 -4.9032 -1.2000 -0.4056
 2854TIP3    H2 8569   3.984   4.792   0.097 -0.8284  0.1551  1.2059
 2855TIP3   OH2 8570   0.679   3.051   2.227  0.2729  0.3362 -0.3361
 2855TIP3    H1 8571   0.770   3.034   2.250  0.4891 -1.6309 -2.2742
 2855TIP3    H2 8572   0.633   2.970   2.252 -0.3277  0.0845 -2.1072
 2856TIP3   OH2 8573   4.190   5.362   4.749 -0.1374 -0.6135 -0.0860
 2856TIP3    H1 8574   4.240   5.439   4.720 -0.6103 -0.7835 -1.4489
 2856TIP3    H2 8575   4.248   5.317   4.810  1.3967 -0.8101 -1.6044
 2857TIP3   OH2 8576   4.511   0.316   2.821  0.3868 -0.3488 -0.4141
 2857TIP3    H1 8577   4.477   0.254   2.885 -0.3382  1.6358  1.1930
 2857TIP3    H2 8578   4.574   0.370   2.869 -0.8910  1.8324 -1.0524
 2858TIP3   OH2 8579   0.095   3.302   4.388 -0.0623 -0.5047 -0.2462
 2858TIP3    H1 8580   0.162   3.343   4.333 -0.4922 -1.2159 -1.3389
 2858TIP3    H2 8581   0.144   3.241   4.444  0.4236  0.5073  0.4608
 2859TIP3   OH2 8582   2.539   0.725   1.606  0.3538  0.0629 -0.7551
 2859TIP3    H1 8583   2.513   0.633   1.598 -1.3135  0.5656 -1.5873
 2859TIP3    H2 8584   2.518   0.747   1.697  0.6879 -0.3599 -0.5731
 2860TIP3   OH2 8585   1.857   0.287   1.562 -0.3282 -0.1457 -0.2025
 2860TIP3    H1 8586   1.793   0.308   1.494  0.1355  0.0900 -0.5749
 2860TIP3    H2 8587   1.880   0.196   1.545  1.1226  0.4155 -1.5093
 2861TIP3   OH2 8588   4.303   3.166   1.543  0.1732  0.1452  0.0177
 2861TIP3    H1 8589   4.335   3.076   1.539 -0.4012 -0.0507 -0.4026
 2861TIP3    H2 8590   4.211   3.158   1.566 -0.4347  0.4828 -2.0670
 2862TIP3   OH2 8591   4.474   2.995   4.395 -0.3711 -0.3462 -0.2885
 2862TIP3    H1 8592   4.524   2.914   4.398  0.3064  0.0969  1.0566
 2862TIP3    H2 8593   4.385   2.970   4.419 -0.1844 -0.7172  0.0246
 2863TIP3   OH2 8594   6.208   2.958   3.170 -0.6375 -0.1011 -0.2589
 2863TIP3    H1 8595   6.207   2.873   3.125  0.3328 -0.3202  0.1000
 2863TIP3    H2 8596   6.302   2.978   3.179 -0.8549  1.5401 -1.3343
 2864TIP3   OH2 8597   2.509   4.663   3.995 -0.0959 -0.0856 -0.4045
 2864TIP3    H1 8598   2.518   4.639   4.087 -2.3257  1.5819  0.3247
 2864TIP3    H2 8599   2.547   4.589   3.947  0.1121 -1.4951  1.8204
 2865TIP3   OH2 8600   3.506   3.901   4.332 -0.0654 -0.1195  0.5496
 2865TIP3    H1 8601   3.526   3.838   4.402  0.2232  1.8207  2.2909
 2865TIP3    H2 8602   3.428   3.947   4.362  1.3304  2.2743  0.7375
 2866TIP3   OH2 8603   5.422   5.248   0.182  0.0999 -0.2688  0.1564
 2866TIP3    H1 8604   5.453   5.262   0.092 -1.6578 -0.2248 -0.4881
 2866TIP3    H2 8605   5.415   5.153   0.190 -0.1246 -0.2572  0.1032
 2867TIP3   OH2 8606   3.863   4.330   3.342 -0.1162  0.3971  0.0372
 2867TIP3    H1 8607   3.943   4.286   3.370 -0.7030 -0.0941  0.9673
 2867TIP3    H2 8608   3.883   4.424   3.351  2.1435  0.6594 -4.5817
 2868TIP3   OH2 8609   5.755   5.530   2.825  0.3409 -0.1380  0.7580
 2868TIP3    H1 8610   5.681   5.521   2.765 -1.2423  1.9245  2.2556
 2868TIP3    H2 8611   5.817   5.584   2.778  0.3570 -0.8162 -0.0304
 2869TIP3   OH2 8612   6.155   5.944   0.055 -0.4691  0.6695 -0.4424
 2869TIP3    H1 8613   6.137   5.996  -0.024 -1.3283  0.5243 -0.3489
 2869TIP3    H2 8614   6.089   5.971   0.118  1.0308  1.7751  0.7363
 2870TIP3   OH2 8615   0.262   3.691   0.023 -0.3679 -0.5293  0.2660
 2870TIP3    H1 8616   0.264   3.754   0.096 -0.7432  0.5883 -0.6682
 2870TIP3    H2 8617   0.189   3.633   0.044 -1.5142  0.7781 -0.0133
 2871TIP3   OH2 8618   5.444   1.710   4.378  0.5148  0.0658 -0.2029
 2871TIP3    H1 8619   5.454   1.644   4.309  1.0638 -0.1143  0.0430
 2871TIP3    H2 8620   5.399   1.664   4.449  2.0011 -0.4085  0.4562
 2872TIP3   OH2 8621   5.348   3.302   2.477 -0.2372  0.3427  0.5744
 2872TIP3    H1 8622   5.403   3.358   2.531  1.9973  0.4676 -1.6495
 2872TIP3    H2 8623   5.347   3.344   2.392 -1.8379 -0.9541 -0.1045
 2873TIP3   OH2 8624   5.698   1.440   0.088  0.1935 -0.3207 -0.1597
 2873TIP3    H1 8625   5.649   1.515   0.122  0.4269  0.4285 -1.4156
 2873TIP3    H2 8626   5.787   1.451   0.122  0.4560  0.4916 -1.0450
 2874TIP3   OH2 8627   5.849   1.728   2.086  0.2657 -0.0798  0.1551
 2874TIP3    H1 8628   5.854   1.668   2.160  0.2002  0.0243  0.2435
 2874TIP3    H2 8629   5.842   1.815   2.125 -1.6268 -0.1471  0.0658
 2875TIP3   OH2 8630   1.036   3.868   4.429 -0.4130 -0.1632  0.0828
 2875TIP3    H1 8631   1.096   3.942   4.422  0.4195 -0.8866 -0.6406
 2875TIP3    H2 8632   1.074   3.812   4.496  0.1587 -1.0074 -0.9306
 2876TIP3   OH2 8633   2.113   1.875   3.183 -0.1147  0.1637  0.2427
 2876TIP3    H1 8634   2.173   1.934   3.230 -0.5097  1.2043 -0.5114
 2876TIP3    H2 8635   2.108   1.912   3.095 -0.8931 -0.6347 -0.0577
 2877TIP3   OH2 8636   1.179   4.570   0.341  0.3498 -0.2817 -0.7002
 2877TIP3    H1 8637   1.235   4.561   0.264  0.3283  3.2704 -1.2944
 2877TIP3    H2 8638   1.092   4.590   0.305  0.0157  0.0319  0.2585
 2878TIP3   OH2 8639   0.912   2.979   3.095 -0.0422 -0.0621 -0.0742
 2878TIP3    H1 8640   0.943   3.062   3.059 -1.4420 -0.1379 -1.5630
 2878TIP3    H2 8641   0.941   2.980   3.186  0.3526  1.8588 -0.1803
 2879TIP3   OH2 8642   5.520   5.673   3.196  0.3364  0.1262 -0.1600
 2879TIP3    H1 8643   5.492   5.742   3.137 -1.6531  0.0195  0.5871
 2879TIP3    H2 8644   5.542   5.600   3.139 -1.5267  0.0248 -0.8300
 2880TIP3   OH2 8645   6.074   2.666   3.249  0.4099 -0.0158 -0.6021
 2880TIP3    H1 8646   6.017   2.695   3.320  1.2896  1.5224 -0.4836
 2880TIP3    H2 8647   6.111   2.583   3.281  1.4161  1.0361  1.1212
 2881TIP3   OH2 8648   4.565   5.745   2.579  0.1806 -0.0745  0.5846
 2881TIP3    H1 8649   4.632   5.702   2.526  0.3139  1.3988 -0.4920
 2881TIP3    H2 8650   4.520   5.804   2.519 -2.7772 -1.6582  1.0060
 2882TIP3   OH2 8651   1.476   4.208   0.615  0.1832 -0.2256  0.0253
 2882TIP3    H1 8652   1.552   4.265   0.624  1.4276 -1.8790  0.5868
 2882TIP3    H2 8653   1.469   4.190   0.522 -0.6565  1.3574 -0.2442
 2883TIP3   OH2 8654   1.269   4.903   3.360 -0.2349 -0.3432 -0.0613
 2883TIP3    H1 8655   1.221   4.919   3.441  0.2370 -0.3567  0.2282
 2883TIP3    H2 8656   1.204   4.911   3.290 -0.6174 -0.2064  0.3124
 2884TIP3   OH2 8657   3.945   2.317   3.745  0.6945  0.3767 -0.1430
 2884TIP3    H1 8658   4.019   2.256   3.756 -0.1760 -0.9143 -1.2079
 2884TIP3    H2 8659   3.905   2.292   3.662 -0.7476  1.2930  0.2473
 2885TIP3   OH2 8660   3.955   5.950   4.915  0.4280  0.6267 -0.5761
 2885TIP3    H1 8661   4.048   5.929   4.920  0.0516 -1.2073 -0.3834
 2885TIP3    H2 8662   3.926   5.951   5.006  0.5453  2.8816 -0.5069
 2886TIP3   OH2 8663   2.402   4.125   3.980  0.3252  0.3344 -0.2719
 2886TIP3    H1 8664   2.401   4.147   3.887 -0.5937  0.7497 -0.1766
 2886TIP3    H2 8665   2.347   4.048   3.988 -1.4368  1.5785  0.1957
 2887TIP3   OH2 8666   0.358   1.522   0.643  0.1368 -0.1489  0.1933
 2887TIP3    H1 8667   0.398   1.440   0.614  1.7439  0.1787  1.3641
 2887TIP3    H2 8668   0.292   1.495   0.707 -1.7432 -0.6987 -1.8357
 2888TIP3   OH2 8669   2.082   1.222   4.932  0.0412  0.1185  0.2037
 2888TIP3    H1 8670   2.037   1.226   4.848  1.2534 -1.4071 -0.5643
 2888TIP3    H2 8671   2.159   1.277   4.921 -0.5851  1.1808  0.8808
 2889TIP3   OH2 8672   2.651   4.090   1.743 -0.2111 -0.5168  0.1916
 2889TIP3    H1 8673   2.591   4.107   1.671 -1.0754 -1.6858  0.6077
 2889TIP3    H2 8674   2.624   4.149   1.813 -0.8500 -0.9921  0.3533
 2890TIP3   OH2 8675   0.039   2.623   1.358 -0.1165  0.5861  0.3722
 2890TIP3    H1 8676   0.055   2.607   1.452 -0.7937 -2.2470  0.0914
 2890TIP3    H2 8677   0.124   2.608   1.317 -0.4713 -1.2489  0.2521
 2891TIP3   OH2 8678   5.521   2.020   3.542 -0.3732  0.2347 -0.4475
 2891TIP3    H1 8679   5.430   1.992   3.548 -0.2627  0.0390  0.3585
 2891TIP3    H2 8680   5.524   2.073   3.462 -1.2713  0.5620 -0.2781
 2892TIP3   OH2 8681   6.205   5.219   4.758  0.5473 -0.1581  0.1016
 2892TIP3    H1 8682   6.131   5.273   4.783  0.0751 -0.7315 -0.0477
 2892TIP3    H2 8683   6.242   5.187   4.840  1.3565  1.0718  0.2392
 2893TIP3   OH2 8684   5.536   4.647   0.612 -1.1365 -0.1046  0.2226
 2893TIP3    H1 8685   5.505   4.654   0.702 -3.9103 -0.2129 -0.6214
 2893TIP3    H2 8686   5.456   4.650   0.559  0.3634 -0.4817 -2.2220
 2894TIP3   OH2 8687   1.940   2.186   4.649 -0.1792 -0.7102  0.7517
 2894TIP3    H1 8688   2.019   2.224   4.688 -1.0693  1.7015  0.3313
 2894TIP3    H2 8689   1.973   2.117   4.591  1.6644  0.5162  0.2467
 2895TIP3   OH2 8690   1.010   4.528   4.754  0.1527  0.2161 -0.0372
 2895TIP3    H1 8691   0.994   4.571   4.670  0.9652  1.4849  0.4316
 2895TIP3    H2 8692   1.031   4.438   4.731 -2.0291 -0.1215 -1.0289
 2896TIP3   OH2 8693   3.409   5.568   0.221  0.1510  0.4418 -0.0923
 2896TIP3    H1 8694   3.482   5.562   0.160  0.6156  0.7205  0.4326
 2896TIP3    H2 8695   3.343   5.619   0.175 -0.0543 -0.5085 -0.8877
 2897TIP3   OH2 8696   6.021   3.899   0.371 -0.4190  0.1303 -0.2219
 2897TIP3    H1 8697   5.953   3.837   0.344  0.7093 -0.7943 -1.0017
 2897TIP3    H2 8698   6.013   3.971   0.309 -1.0166  0.2858  0.0191
 2898TIP3   OH2 8699   4.540   2.720   4.451  0.4168  0.3414  0.2242
 2898TIP3    H1 8700   4.562   2.645   4.507  0.0767 -0.6099 -0.8726
 2898TIP3    H2 8701   4.457   2.696   4.410  0.1782  1.4361  0.0302
 2899TIP3   OH2 8702   1.259   4.446   2.649 -0.2014  0.0524  0.2611
 2899TIP3    H1 8703   1.257   4.354   2.676  0.2153 -0.0098  0.0844
 2899TIP3    H2 8704   1.304   4.446   2.564  0.6996  0.5269  0.7162
 2900TIP3   OH2 8705   0.747   1.049   4.688 -0.6415  0.5136 -0.0620
 2900TIP3    H1 8706   0.688   1.098   4.746  0.2203  0.0625  1.2376
 2900TIP3    H2 8707   0.776   0.975   4.741  2.1178  1.4134 -0.1338
 2901TIP3   OH2 8708   5.579   3.758   4.787 -0.2769  0.3690 -0.0245
 2901TIP3    H1 8709   5.526   3.682   4.764 -1.0818  1.3568 -1.5369
 2901TIP3    H2 8710   5.521   3.815   4.837  0.2790  0.0783  0.9767
 2902TIP3   OH2 8711   1.217   2.321   0.881  0.5242  0.9981  0.4110
 2902TIP3    H1 8712   1.132   2.364   0.879 -0.7321 -1.3293 -0.7153
 2902TIP3    H2 8713   1.251   2.332   0.792 -0.1466 -0.8099 -0.1191
 2903TIP3   OH2 8714   6.334   0.718   2.272  0.0925 -0.6425  0.1979
 2903TIP3    H1 8715   6.249   0.723   2.315 -1.2111 -0.4586 -2.2570
 2903TIP3    H2 8716   6.360   0.809   2.258 -0.0529 -0.6870 -0.4008
 2904TIP3   OH2 8717   5.506   3.219   1.607 -0.2159  0.3026  0.0992
 2904TIP3    H1 8718   5.565   3.194   1.535 -1.0998 -0.7755 -0.2981
 2904TIP3    H2 8719   5.507   3.314   1.606  0.2087  0.3139 -1.0063
 2905TIP3   OH2 8720   4.232   2.196   4.587  0.8592 -0.1483  0.1413
 2905TIP3    H1 8721   4.224   2.138   4.662  0.4529 -0.0364  0.1865
 2905TIP3    H2 8722   4.149   2.187   4.540  1.3568 -0.7071 -0.6500
 2906TIP3   OH2 8723   5.640   5.551   4.114 -0.3266 -0.0045  0.0548
 2906TIP3    H1 8724   5.595   5.493   4.052 -3.0772  1.5590  0.4698
 2906TIP3    H2 8725   5.728   5.560   4.077 -0.7340 -1.9877 -1.6307
 2907TIP3   OH2 8726   2.438   1.271   3.432 -0.0433 -0.3251  0.2419
 2907TIP3    H1 8727   2.515   1.223   3.462  0.3324 -0.1203 -0.3503
 2907TIP3    H2 8728   2.393   1.298   3.512  1.8128  1.6578  0.7408
 2908TIP3   OH2 8729   2.018   2.898   1.706 -0.0094 -0.6009 -0.7185
 2908TIP3    H1 8730   2.021   2.898   1.610  0.6658  1.3687 -0.7554
 2908TIP3    H2 8731   1.961   2.973   1.727 -0.2038 -1.0575  0.4293
 2909TIP3   OH2 8732   0.180   4.811   3.543 -0.8253  0.1077  1.1245
 2909TIP3    H1 8733   0.120   4.783   3.473  0.6170 -0.9574  0.2660
 2909TIP3    H2 8734   0.160   4.752   3.616 -0.8893 -0.1889  0.8707
 2910TIP3   OH2 8735   1.600   5.032   3.939 -0.1007  0.1337 -0.2773
 2910TIP3    H1 8736   1.581   5.089   4.013  0.4124 -0.5099  0.3509
 2910TIP3    H2 8737   1.560   5.077   3.864 -1.8870  0.0867  0.5954
 2911TIP3   OH2 8738   4.587   4.595   3.348 -0.0618  0.2493  0.0790
 2911TIP3    H1 8739   4.564   4.666   3.289  0.7001  1.9051  1.6967
 2911TIP3    H2 8740   4.514   4.533   3.340 -1.6744  2.0738 -0.0087
 2912TIP3   OH2 8741   4.305   2.299   0.730 -0.2424 -0.0478  0.1850
 2912TIP3    H1 8742   4.256   2.381   0.737 -0.2386 -0.0000 -0.2767
 2912TIP3    H2 8743   4.396   2.327   0.722 -0.4480  0.0837 -2.8755
 2913TIP3   OH2 8744   0.022   4.397   4.224  0.1912  0.7574 -0.4867
 2913TIP3    H1 8745  -0.027   4.325   4.184 -1.4216  0.9486  0.9934
 2913TIP3    H2 8746   0.113   4.381   4.200 -0.1923 -1.4327 -0.7033
 2914TIP3   OH2 8747   4.840   5.112   1.483  0.2908  0.1588  0.1225
 2914TIP3    H1 8748   4.905   5.054   1.444  1.0342  0.2957  1.1332
 2914TIP3    H2 8749   4.771   5.117   1.417  0.9906 -0.5146 -0.6922
 2915TIP3   OH2 8750   0.449   0.511   1.921  0.0607  0.2647 -0.4267
 2915TIP3    H1 8751   0.417   0.554   2.000 -1.8165 -0.6204 -0.6508
 2915TIP3    H2 8752   0.377   0.519   1.859  0.6980 -0.8653 -1.3496
 2916TIP3   OH2 8753   5.190   0.171   0.711 -0.3794  0.0067  0.5540
 2916TIP3    H1 8754   5.241   0.181   0.791 -0.0828  1.7943  0.1805
 2916TIP3    H2 8755   5.184   0.076   0.698  1.0141 -0.2772  1.7545
 2917TIP3   OH2 8756   2.716   2.966   2.580 -0.4757  0.0990  0.7646
 2917TIP3    H1 8757   2.631   2.924   2.564 -0.2055  0.1414 -1.0094
 2917TIP3    H2 8758   2.702   3.057   2.555  0.0391  0.1543  0.6831
 2918TIP3   OH2 8759   1.178   5.684   3.507 -0.2844  0.2280  0.1216
 2918TIP3    H1 8760   1.121   5.754   3.477  0.4220  1.0523  0.6476
 2918TIP3    H2 8761   1.254   5.730   3.545  0.1882 -0.8171  0.4700
 2919TIP3   OH2 8762   4.188   3.516   1.236  0.4895 -0.3573 -0.4316
 2919TIP3    H1 8763   4.265   3.470   1.270  1.6372  1.3481 -0.5553
 2919TIP3    H2 8764   4.125   3.512   1.308  0.8470 -1.4284 -0.1585
 2920TIP3   OH2 8765   1.972   3.890   1.436 -1.1364  0.2103 -0.2360
 2920TIP3    H1 8766   1.991   3.983   1.425 -0.5342  0.1886  0.5447
 2920TIP3    H2 8767   2.050   3.855   1.479 -0.8293 -0.9008 -1.6188
 2921TIP3   OH2 8768   3.698   0.930   4.827 -0.2716 -0.5033  0.2959
 2921TIP3    H1 8769   3.768   0.911   4.764 -0.6567 -0.4809 -0.1455
 2921TIP3    H2 8770   3.728   1.009   4.872  0.0968 -0.6293  0.2770
 2922TIP3   OH2 8771   0.635   5.685   2.504 -0.4658 -0.4464  0.1657
 2922TIP3    H1 8772   0.541   5.701   2.514 -0.5473 -0.3911 -0.5876
 2922TIP3    H2 8773   0.648   5.595   2.535 -0.6180 -0.1767  1.0453
 2923TIP3   OH2 8774   2.850   3.257   0.262 -0.1840 -0.1102  0.1571
 2923TIP3    H1 8775   2.793   3.323   0.222 -0.2537 -0.5753 -0.5189
 2923TIP3    H2 8776   2.897   3.305   0.331  0.2765  0.8116 -0.7677
 2924TIP3   OH2 8777   3.610   5.194   2.644 -0.4987 -0.3204  0.2616
 2924TIP3    H1 8778   3.546   5.148   2.698  0.2875 -2.0475 -0.2236
 2924TIP3    H2 8779   3.694   5.176   2.686 -0.0568 -0.2959 -0.5993
 2925TIP3   OH2 8780   4.560   5.140   4.797  0.3273 -0.0626  0.8094
 2925TIP3    H1 8781   4.604   5.058   4.776 -0.4691  0.0119 -1.4174
 2925TIP3    H2 8782   4.620   5.208   4.765 -0.2077  0.1180  0.1658
 2926TIP3   OH2 8783   0.834   4.114   2.716 -0.4655  0.2156 -0.1715
 2926TIP3    H1 8784   0.768   4.170   2.677 -0.8179  1.3482  1.9055
 2926TIP3    H2 8785   0.870   4.063   2.643 -2.0690  1.1609 -1.6676
 2927TIP3   OH2 8786   6.284   2.184   3.950  0.0084  0.2755 -0.3587
 2927TIP3    H1 8787   6.334   2.103   3.949 -0.9952 -0.3854  0.6564
 2927TIP3    H2 8788   6.211   2.167   4.010  0.7745  2.5203  1.3779
 2928TIP3   OH2 8789   4.230   5.092   1.191  0.3954 -0.5200 -0.1941
 2928TIP3    H1 8790   4.230   5.104   1.286 -0.1836 -0.5756 -0.1817
 2928TIP3    H2 8791   4.180   5.012   1.177 -1.3183  0.5746 -0.6562
 2929TIP3   OH2 8792   5.055   5.720   2.056  0.7767 -0.7104 -0.0686
 2929TIP3    H1 8793   5.067   5.667   2.135  1.3464 -1.0477 -0.3726
 2929TIP3    H2 8794   5.130   5.697   2.001  0.9348  0.2823 -0.2835
 2930TIP3   OH2 8795   2.881   2.538   1.015  0.2237  0.0682  0.7523
 2930TIP3    H1 8796   2.838   2.492   1.087  1.4754 -2.2759  0.1199
 2930TIP3    H2 8797   2.857   2.487   0.937  1.9463  0.2614  0.0487
 2931TIP3   OH2 8798   0.287   1.976   4.908 -0.4133  0.3891  0.0111
 2931TIP3    H1 8799   0.295   1.887   4.941 -0.0299  1.0659  1.8789
 2931TIP3    H2 8800   0.302   2.032   4.985  0.5857  2.0855 -1.3315
 2932TIP3   OH2 8801   3.828   3.239   0.140  0.2539 -0.1023 -0.0857
 2932TIP3    H1 8802   3.873   3.221   0.057  0.5647 -1.6004  0.3671
 2932TIP3    H2 8803   3.737   3.216   0.122  0.4152 -0.9237  0.1249
 2933TIP3   OH2 8804   3.830   3.863   4.365 -0.0942 -0.1242 -0.3064
 2933TIP3    H1 8805   3.882   3.930   4.409  0.0151 -0.0093 -0.6115
 2933TIP3    H2 8806   3.785   3.817   4.437  0.5601 -0.3374 -0.0269
 2934TIP3   OH2 8807   4.365   5.344   4.468 -0.3838  0.5811 -0.5656
 2934TIP3    H1 8808   4.369   5.259   4.512 -1.6503  0.2301 -1.1039
 2934TIP3    H2 8809   4.457   5.367   4.453  0.0745  0.3083  1.4479
 2935TIP3   OH2 8810   0.430   0.378   2.875  0.3204 -0.0309 -0.6621
 2935TIP3    H1 8811   0.412   0.463   2.836  1.1127  0.1787 -0.6068
 2935TIP3    H2 8812   0.443   0.397   2.968  0.4536 -0.2106 -0.6425
 2936TIP3   OH2 8813   1.836   2.158   2.943 -0.0377  0.2647 -0.1428
 2936TIP3    H1 8814   1.798   2.244   2.926  1.4570  0.7400 -1.2501
 2936TIP3    H2 8815   1.840   2.115   2.858  1.8799  0.2532 -0.0983
 2937TIP3   OH2 8816   2.839   2.401   3.600  0.2093 -0.0422 -0.2356
 2937TIP3    H1 8817   2.766   2.437   3.549  0.3184  0.2590 -0.1821
 2937TIP3    H2 8818   2.909   2.466   3.590  0.5107 -0.3894 -0.3848
 2938TIP3   OH2 8819   5.276   0.064   1.676 -0.7039 -0.5663  0.0131
 2938TIP3    H1 8820   5.342   0.131   1.661 -0.6875 -1.1369 -2.9533
 2938TIP3    H2 8821   5.320  -0.001   1.732  1.7493 -1.4595 -2.7000
 2939TIP3   OH2 8822   2.536   1.539   4.938  0.0464 -0.0074  0.5603
 2939TIP3    H1 8823   2.494   1.624   4.949  0.6272  0.4855 -0.7746
 2939TIP3    H2 8824   2.607   1.556   4.876 -0.2878 -1.6152 -0.3072
 2940TIP3   OH2 8825   2.857   1.892   1.122 -0.0343  0.4244  0.2304
 2940TIP3    H1 8826   2.773   1.849   1.138 -0.5637  0.0155 -2.9616
 2940TIP3    H2 8827   2.922   1.823   1.134 -0.1148  0.6282  2.2438
 2941TIP3   OH2 8828   1.420   5.811   3.383  0.7319  0.4026 -0.4036
 2941TIP3    H1 8829   1.428   5.907   3.384  0.4911  0.4838  2.4317
 2941TIP3    H2 8830   1.508   5.780   3.401  1.0227 -0.0022 -2.3436
 2942TIP3   OH2 8831   0.717   3.978   4.001 -0.2499  0.0066 -0.2755
 2942TIP3    H1 8832   0.674   3.893   3.994  0.1147 -0.1535 -0.5918
 2942TIP3    H2 8833   0.777   3.981   3.927  1.1953 -0.2847  0.8547
 2943TIP3   OH2 8834   5.927   4.917   2.903  0.3108 -0.5173 -0.2725
 2943TIP3    H1 8835   5.976   4.994   2.874  3.1462 -1.2914  1.9669
 2943TIP3    H2 8836   5.906   4.935   2.994 -1.3690 -1.3211 -0.4756
 2944TIP3   OH2 8837   0.331   4.162   5.078  0.0961  0.1186 -0.5787
 2944TIP3    H1 8838   0.331   4.082   5.024 -1.4346  0.4393 -1.0898
 2944TIP3    H2 8839   0.387   4.222   5.030 -0.1153 -0.0799 -1.0877
 2945TIP3   OH2 8840   5.468   1.928   2.339 -0.2760 -0.3375 -0.4581
 2945TIP3    H1 8841   5.545   1.938   2.396 -1.2188 -1.1503  1.0371
 2945TIP3    H2 8842   5.501   1.941   2.251  1.5733 -0.5986  0.1583
 2946TIP3   OH2 8843   5.927   5.314   2.734 -0.3511  0.4861  0.0431
 2946TIP3    H1 8844   5.928   5.357   2.820 -0.8352 -1.3067  1.0117
 2946TIP3    H2 8845   6.003   5.256   2.736 -0.2393  0.5926 -0.8497
 2947TIP3   OH2 8846   0.274   1.931   0.030 -0.0213 -0.7210  0.1899
 2947TIP3    H1 8847   0.224   2.011   0.045 -0.7852 -1.1166 -0.1495
 2947TIP3    H2 8848   0.249   1.903  -0.058  0.7015 -1.0071  0.0700
 2948TIP3   OH2 8849   5.611   3.178   4.319 -0.4318 -0.1705 -0.0617
 2948TIP3    H1 8850   5.582   3.101   4.271  1.7660 -0.8806 -0.3774
 2948TIP3    H2 8851   5.619   3.247   4.253  1.2801 -0.7766 -0.5485
 2949TIP3   OH2 8852   2.996   3.540   2.592 -0.3353 -0.0765  0.4380
 2949TIP3    H1 8853   3.061   3.560   2.660 -0.9824 -1.0546  1.3763
 2949TIP3    H2 8854   3.029   3.461   2.550 -1.4149 -1.2511  1.6722
 2950TIP3   OH2 8855   1.990   1.112   0.053  0.2091  0.0478  0.2605
 2950TIP3    H1 8856   1.929   1.038   0.058  0.3134  0.0313  2.0753
 2950TIP3    H2 8857   1.947   1.175  -0.005 -0.5593 -0.8389 -0.1481
 2951TIP3   OH2 8858   0.608   4.249   3.939  0.0851 -0.2002 -0.9209
 2951TIP3    H1 8859   0.621   4.154   3.946  0.3360 -0.0987  0.1433
 2951TIP3    H2 8860   0.694   4.283   3.915  0.4726 -0.0716  0.5735
 2952TIP3   OH2 8861   1.914   2.645   4.197 -0.7420 -0.3970  0.1715
 2952TIP3    H1 8862   1.915   2.565   4.249 -0.1906  1.0805  2.5770
 2952TIP3    H2 8863   2.003   2.679   4.203 -1.1775  0.8466 -0.0804
 2953TIP3   OH2 8864   5.977   0.469   4.204  0.2678  0.3545 -0.0814
 2953TIP3    H1 8865   5.921   0.463   4.281  1.0723  0.9920  0.5747
 2953TIP3    H2 8866   6.066   0.470   4.239  0.8305 -2.3531 -1.1798
 2954TIP3   OH2 8867   2.472   3.458   3.671 -0.0525 -0.2844 -0.0129
 2954TIP3    H1 8868   2.433   3.459   3.584  1.4886 -0.6964 -0.7442
 2954TIP3    H2 8869   2.535   3.386   3.668  0.6163  0.2285  1.1645
 2955TIP3   OH2 8870   0.892   5.876   0.556  0.0944  0.4635  0.0851
 2955TIP3    H1 8871   0.904   5.958   0.507  1.5839  0.8428  0.9880
 2955TIP3    H2 8872   0.965   5.821   0.528  1.1905  0.8084  2.0107
 2956TIP3   OH2 8873   1.972   0.983   3.161  0.0857  0.5654  0.0547
 2956TIP3    H1 8874   1.877   0.986   3.156  0.1213 -0.3323 -2.2010
 2956TIP3    H2 8875   1.992   0.894   3.190  0.2703  1.2284  2.1656
 2957TIP3   OH2 8876   1.923   3.861   2.606 -0.2937  0.4162 -0.1040
 2957TIP3    H1 8877   1.884   3.948   2.604  0.4503  0.7455 -1.8474
 2957TIP3    H2 8878   1.908   3.830   2.696 -1.7174  1.7922  0.1718
 2958TIP3   OH2 8879   0.888   3.707   1.806  0.0870 -0.0339 -0.5156
 2958TIP3    H1 8880   0.962   3.659   1.768  0.2882 -0.8648  0.8717
 2958TIP3    H2 8881   0.815   3.686   1.748  0.7998  0.4098 -1.6296
 2959TIP3   OH2 8882   2.277   4.768   0.616 -0.5656  0.1729 -0.2751
 2959TIP3    H1 8883   2.256   4.679   0.645 -0.1032 -0.0419 -0.5875
 2959TIP3    H2 8884   2.309   4.812   0.695 -0.0237 -0.1821 -0.2985
 2960TIP3   OH2 8885   1.129   1.439   0.354  0.4450 -0.0039 -0.0363
 2960TIP3    H1 8886   1.061   1.388   0.398  0.2609 -0.3420 -0.6917
 2960TIP3    H2 8887   1.084   1.480   0.280  0.7699  0.4645  0.0202
 2961TIP3   OH2 8888   4.858   3.947   1.747 -0.2184  0.3986 -0.2819
 2961TIP3    H1 8889   4.895   3.954   1.835 -1.3192  0.2044  0.2063
 2961TIP3    H2 8890   4.913   3.882   1.703  1.0324  1.3175 -0.1148
 2962TIP3   OH2 8891   4.009   0.207   4.345 -0.4522 -0.3441 -0.1613
 2962TIP3    H1 8892   4.091   0.253   4.327 -0.5938 -0.0279 -0.0165
 2962TIP3    H2 8893   4.035   0.129   4.393 -0.2653 -0.0468  0.2277
 2963TIP3   OH2 8894   6.194   5.513   2.249 -0.8373 -0.9556  0.4321
 2963TIP3    H1 8895   6.149   5.513   2.165  0.3454 -1.4572 -0.2377
 2963TIP3    H2 8896   6.174   5.428   2.288 -0.0257 -1.4163 -0.1305
 2964TIP3   OH2 8897   6.350   5.563   4.650  0.0694 -0.1506  0.4412
 2964TIP3    H1 8898   6.401   5.549   4.570  0.1936 -3.4511  0.9646
 2964TIP3    H2 8899   6.274   5.614   4.621  1.6035  1.3792 -1.1326
 2965TIP3   OH2 8900   0.346   0.753   1.544 -0.6171  0.5270  0.2055
 2965TIP3    H1 8901   0.398   0.744   1.465 -1.9627  0.2164 -0.6820
 2965TIP3    H2 8902   0.279   0.818   1.522 -0.9815  0.4695  1.0893
 2966TIP3   OH2 8903   5.912   5.075   0.231  0.4546  0.2252 -0.5312
 2966TIP3    H1 8904   5.931   4.996   0.280 -0.1127 -0.0924 -0.8091
 2966TIP3    H2 8905   5.849   5.123   0.285  0.6405  0.3893 -0.4584
 2967TIP3   OH2 8906   3.267   2.151   0.021  0.6616 -0.0165  0.1110
 2967TIP3    H1 8907   3.200   2.171  -0.044  1.7874 -0.6181 -1.3145
 2967TIP3    H2 8908   3.220   2.110   0.093 -0.5545  0.0131 -0.6387
 2968TIP3   OH2 8909   5.119   3.841   1.528 -0.0205  0.6717 -0.4491
 2968TIP3    H1 8910   5.134   3.919   1.581 -3.0238  0.9212  0.2277
 2968TIP3    H2 8911   5.063   3.870   1.457 -2.7852 -1.0748  0.8366
 2969TIP3   OH2 8912   6.087   4.388   1.431  0.3763  0.0535 -0.0407
 2969TIP3    H1 8913   6.178   4.359   1.425  0.4346 -0.1873  1.5398
 2969TIP3    H2 8914   6.080   4.459   1.367  1.1307 -1.1789 -1.5506
 2970TIP3   OH2 8915   3.648   0.522   3.560  0.0087  0.0800  0.0500
 2970TIP3    H1 8916   3.741   0.521   3.580  0.1347  1.3016 -0.3656
 2970TIP3    H2 8917   3.607   0.469   3.628  0.9920 -0.3699  0.3009
 2971TIP3   OH2 8918   5.142   0.124   0.306 -0.4803 -0.4385 -0.3481
 2971TIP3    H1 8919   5.192   0.142   0.226  0.4935  0.4725  0.4308
 2971TIP3    H2 8920   5.164   0.034   0.329 -1.4936 -1.0444 -1.5796
 2972TIP3   OH2 8921   3.924   2.524   2.384 -0.1662 -0.7816  0.3793
 2972TIP3    H1 8922   3.915   2.587   2.313  2.4155  1.3905  1.8262
 2972TIP3    H2 8923   4.016   2.498   2.382 -0.5147 -2.2835  1.6806
 2973TIP3   OH2 8924   1.470   1.049   2.464  0.1917 -0.0380  0.6127
 2973TIP3    H1 8925   1.532   1.098   2.517 -0.1760  0.9893  0.1245
 2973TIP3    H2 8926   1.401   1.112   2.444 -0.4893 -0.8746  0.2944
 2974TIP3   OH2 8927   1.677   3.960   4.610  0.0671  0.2239  0.3589
 2974TIP3    H1 8928   1.750   4.019   4.627  0.7086 -0.0668 -1.1572
 2974TIP3    H2 8929   1.655   3.976   4.518 -0.2101 -1.3814  0.1224
 2975TIP3   OH2 8930   5.598   2.937   4.122  0.2348  0.4584  0.4047
 2975TIP3    H1 8931   5.674   2.906   4.073  1.4662 -1.1604  3.0571
 2975TIP3    H2 8932   5.594   2.879   4.199 -2.2259  2.0564  1.6319
 2976TIP3   OH2 8933   1.928   3.115   2.848 -0.0252 -0.2628  0.0010
 2976TIP3    H1 8934   1.909   3.029   2.812 -0.7736 -0.7166  1.4155
 2976TIP3    H2 8935   1.846   3.164   2.837  0.8636  0.8620 -2.2886
 2977TIP3   OH2 8936   1.755   4.151   2.593  0.1874 -0.5351 -0.0708
 2977TIP3    H1 8937   1.790   4.237   2.618 -1.3263  0.4612 -1.1574
 2977TIP3    H2 8938   1.676   4.141   2.647  1.4243 -2.2456  1.5596
 2978TIP3   OH2 8939   0.575   1.097   4.892 -0.2730 -0.1789 -0.4488
 2978TIP3    H1 8940   0.636   1.065   4.959  0.8554 -0.2409 -1.4591
 2978TIP3    H2 8941   0.492   1.055   4.913 -0.0903  0.2203  1.2129
 2979TIP3   OH2 8942   2.310   1.340   3.656 -0.3481 -0.1665  0.1720
 2979TIP3    H1 8943   2.278   1.430   3.654  0.2908  0.0526 -0.4756
 2979TIP3    H2 8944   2.264   1.301   3.731 -0.3409  0.7962  0.7024
 2980TIP3   OH2 8945   4.237   2.968   2.128 -0.3882 -0.1564 -0.1167
 2980TIP3    H1 8946   4.320   2.984   2.173  0.3515 -1.9181 -0.7612
 2980TIP3    H2 8947   4.193   3.053   2.129  1.5930  0.9458 -0.0979
 2981TIP3   OH2 8948   5.140   4.013   4.737  0.6610 -0.1374 -0.1472
 2981TIP3    H1 8949   5.234   4.030   4.736  0.6126  0.1409 -0.0054
 2981TIP3    H2 8950   5.132   3.918   4.729  0.9117 -0.0234 -2.4161
 2982TIP3   OH2 8951   5.972   4.390   4.359 -0.2082 -0.5037  0.4415
 2982TIP3    H1 8952   6.005   4.310   4.318  1.0408 -0.6659  1.7094
 2982TIP3    H2 8953   6.027   4.460   4.324  1.7726 -0.8015  2.7293
 2983TIP3   OH2 8954   2.884   0.279   0.035 -0.6614  0.1957  0.1468
 2983TIP3    H1 8955   2.872   0.258  -0.057 -1.9798 -1.2410  0.6063
 2983TIP3    H2 8956   2.979   0.272   0.050 -0.3736  0.9311 -1.1700
 2984TIP3   OH2 8957   4.328   5.210   0.765 -0.1338 -0.7278 -0.0468
 2984TIP3    H1 8958   4.244   5.221   0.720  0.5949  2.2569 -0.9044
 2984TIP3    H2 8959   4.394   5.226   0.698  0.9991  2.2336  1.5523
 2985TIP3   OH2 8960   2.411   2.968   3.991 -0.3746  0.4589  0.3380
 2985TIP3    H1 8961   2.322   2.965   3.955 -0.8677 -0.0715  1.5474
 2985TIP3    H2 8962   2.421   3.058   4.021 -0.4796  0.5385  0.1364
 2986TIP3   OH2 8963   4.492   2.483   2.601 -0.3015 -0.1210 -0.7517
 2986TIP3    H1 8964   4.470   2.551   2.537 -0.8682  1.7858  1.3441
 2986TIP3    H2 8965   4.567   2.437   2.563  1.4611  3.0409 -1.4006
 2987TIP3   OH2 8966   1.714   2.547   1.034  0.0193 -0.3426 -0.1051
 2987TIP3    H1 8967   1.773   2.495   1.090 -0.2882 -0.9685 -0.3459
 2987TIP3    H2 8968   1.641   2.488   1.016 -0.1058  0.0138 -0.7944
 2988TIP3   OH2 8969   3.403   1.024   2.977 -0.1133  0.1197 -0.3402
 2988TIP3    H1 8970   3.498   1.026   2.980 -0.1260 -0.2655  1.2763
 2988TIP3    H2 8971   3.375   1.096   3.033 -0.7840  0.1200 -0.6570
 2989TIP3   OH2 8972   5.658   1.734   4.991 -0.6933  0.5127  0.1745
 2989TIP3    H1 8973   5.702   1.676   4.928 -0.9360 -1.1326  1.4439
 2989TIP3    H2 8974   5.725   1.798   5.015 -0.6769  1.3603 -1.9090
 2990TIP3   OH2 8975   0.246   4.916   2.520 -0.0400  0.2556  0.1091
 2990TIP3    H1 8976   0.286   4.883   2.600  1.3532 -0.2481 -0.7662
 2990TIP3    H2 8977   0.312   4.973   2.481  0.4596 -1.6765 -2.0831
 2991TIP3   OH2 8978   0.185   4.328   1.811 -0.6043 -0.1909 -0.0564
 2991TIP3    H1 8979   0.184   4.241   1.851 -2.5095 -0.5786 -0.8692
 2991TIP3    H2 8980   0.186   4.388   1.886 -0.6058 -0.9091  0.5331
 2992TIP3   OH2 8981   1.596   1.991   0.923 -0.0717  0.1119  0.0712
 2992TIP3    H1 8982   1.637   1.905   0.928  0.2791 -0.0913 -3.5605
 2992TIP3    H2 8983   1.509   1.975   0.886  0.5702  1.3776 -2.1383
 2993TIP3   OH2 8984   4.614   2.197   1.083 -0.3825 -0.0573 -0.4383
 2993TIP3    H1 8985   4.637   2.245   1.163 -0.1800 -0.4861 -0.2354
 2993TIP3    H2 8986   4.672   2.233   1.016  1.8178 -1.9520  0.3109
 2994TIP3   OH2 8987   1.588   5.465   2.111 -0.0909  0.3144  0.3660
 2994TIP3    H1 8988   1.663   5.465   2.171  0.1445 -0.6132  0.0881
 2994TIP3    H2 8989   1.537   5.542   2.136  0.1238  0.0673  1.6095
 2995TIP3   OH2 8990   3.201   1.046   3.671  0.1243 -0.1910  0.1721
 2995TIP3    H1 8991   3.186   1.140   3.675 -0.3305 -0.1959 -1.0875
 2995TIP3    H2 8992   3.218   1.028   3.579 -3.9476 -1.8962 -0.4639
 2996TIP3   OH2 8993   3.820   1.996   2.891 -0.8617 -0.0771  0.2968
 2996TIP3    H1 8994   3.900   1.988   2.839 -0.0579  0.9070  1.3136
 2996TIP3    H2 8995   3.829   2.080   2.936 -1.1036 -1.2446  2.6740
 2997TIP3   OH2 8996   0.681   5.465   0.787 -0.0399  0.0641  0.3920
 2997TIP3    H1 8997   0.721   5.488   0.871 -0.7746 -1.9930  1.3699
 2997TIP3    H2 8998   0.689   5.370   0.782 -1.1321  0.0204 -1.3045
 2998TIP3   OH2 8999   5.032   4.887   4.315  0.0797  0.4446  0.2709
 2998TIP3    H1 9000   5.013   4.968   4.268  0.5041  1.2907  1.4838
 2998TIP3    H2 9001   5.062   4.916   4.401 -0.5724 -1.0295  1.0444
 2999TIP3   OH2 9002   2.813   3.502   1.017  0.2559  0.3395  0.2839
 2999TIP3    H1 9003   2.729   3.532   0.981  0.7979  0.2086 -1.1860
 2999TIP3    H2 9004   2.878   3.534   0.954  1.4417  1.4117  1.9700
 3000TIP3   OH2 9005   5.292   5.617   1.236 -0.0304  0.2015 -0.2328
 3000TIP3    H1 9006   5.214   5.600   1.184 -1.7526 -0.2894  2.3438
 3000TIP3    H2 9007   5.263   5.678   1.304  1.7122 -0.2785  1.0284
 3001TIP3   OH2 9008   0.592   2.371   3.295 -0.2140  0.4438  0.5970
 3001TIP3    H1 9009   0.579   2.465   3.301 -1.2763  0.3628 -0.1886
 3001TIP3    H2 9010   0.530   2.342   3.229  0.4074 -0.7525  0.5026
 3002TIP3   OH2 9011   4.664   1.919   2.370  0.0715 -0.3667  1.0225
 3002TIP3    H1 9012   4.625   1.834   2.347  0.2737  0.1328 -1.5104
 3002TIP3    H2 9013   4.589   1.973   2.396 -0.2362 -0.9359  1.3271
 3003TIP3   OH2 9014   4.275   5.588   4.421  0.1084 -0.2853  0.5247
 3003TIP3    H1 9015   4.180   5.579   4.433  0.1609 -1.2469  0.2970
 3003TIP3    H2 9016   4.310   5.501   4.442  1.0404  0.3079  1.5313
 3004TIP3   OH2 9017   4.231   3.784   1.164  0.5337 -0.8136  0.5800
 3004TIP3    H1 9018   4.186   3.784   1.080 -0.5032  0.6256  1.1058
 3004TIP3    H2 9019   4.221   3.694   1.197 -1.3387 -0.7176  0.3479
 3005TIP3   OH2 9020   5.804   2.332   2.706  0.0294 -0.1197 -0.0131
 3005TIP3    H1 9021   5.764   2.320   2.620  0.4634  0.4087 -0.2955
 3005TIP3    H2 9022   5.880   2.388   2.690  0.4885 -0.5482  0.6200
 3006TIP3   OH2 9023   2.958   2.911   4.871  0.2064 -0.0237  0.0243
 3006TIP3    H1 9024   3.045   2.877   4.892 -0.2813  0.7034  3.7861
 3006TIP3    H2 9025   2.899   2.840   4.895 -0.4401  1.0573  1.7359
 3007TIP3   OH2 9026   3.405   4.958   0.746  0.2677  0.3290  0.5579
 3007TIP3    H1 9027   3.483   4.928   0.698 -0.6312 -2.5974  0.7073
 3007TIP3    H2 9028   3.360   5.016   0.685  1.4143  0.2256 -0.4303
 3008TIP3   OH2 9029   0.555   4.895   1.876 -0.0270  0.1628 -0.1509
 3008TIP3    H1 9030   0.524   4.818   1.829 -0.6142  0.2897  0.0140
 3008TIP3    H2 9031   0.639   4.869   1.914 -0.2120 -0.3888 -0.1143
 3009TIP3   OH2 9032   2.383   5.808   2.493  0.2829 -0.0589 -0.6516
 3009TIP3    H1 9033   2.400   5.746   2.422  1.6840 -1.8023  1.0986
 3009TIP3    H2 9034   2.464   5.808   2.544 -0.5807  1.3366  0.8133
 3010TIP3   OH2 9035   5.093   5.383   1.137 -0.0842 -0.1783 -0.0708
 3010TIP3    H1 9036   5.168   5.428   1.098  0.2428  1.0054  1.7928
 3010TIP3    H2 9037   5.043   5.351   1.062 -0.2688  3.2234 -1.5948
 3011TIP3   OH2 9038   3.234   1.498   0.987 -0.2492  0.3684 -0.3717
 3011TIP3    H1 9039   3.235   1.446   1.067 -0.5850  0.7980 -0.0863
 3011TIP3    H2 9040   3.191   1.441   0.923 -0.1187  0.0850 -0.2078
 3012TIP3   OH2 9041   1.221   5.195   1.837  0.1391 -0.3021  0.3555
 3012TIP3    H1 9042   1.188   5.133   1.902  2.0430 -2.4433 -0.5834
 3012TIP3    H2 9043   1.190   5.160   1.753  0.2589  0.6994 -0.1167
 3013TIP3   OH2 9044   1.137   0.260   4.760  0.3817  0.2470  0.0303
 3013TIP3    H1 9045   1.204   0.192   4.770  0.8103  0.8788  1.7137
 3013TIP3    H2 9046   1.054   0.214   4.774  0.7101  0.1837  2.1188
 3014TIP3   OH2 9047   0.074   4.151   3.219 -0.2552 -0.3314 -0.2441
 3014TIP3    H1 9048   0.127   4.226   3.194 -0.6571 -0.4985 -1.7252
 3014TIP3    H2 9049   0.045   4.113   3.135  0.2598 -2.3614  0.4214
 3015TIP3   OH2 9050   2.621   2.411   1.472  0.0992  0.1908 -0.3655
 3015TIP3    H1 9051   2.602   2.318   1.482 -0.5197  0.4347  0.9142
 3015TIP3    H2 9052   2.538   2.450   1.446  0.1311  0.5124  0.0088
 3016TIP3   OH2 9053   5.438   1.236   3.712  0.1948  0.4415 -0.5665
 3016TIP3    H1 9054   5.496   1.186   3.770  2.3181  1.4563 -1.7110
 3016TIP3    H2 9055   5.496   1.296   3.666 -1.9181  2.1252 -1.1840
 3017TIP3   OH2 9056   0.407   4.901   4.642  0.0139  0.2323  0.0685
 3017TIP3    H1 9057   0.350   4.906   4.719  0.2904  0.5949  0.2531
 3017TIP3    H2 9058   0.357   4.945   4.572  0.2036  0.8643  0.3185
 3018TIP3   OH2 9059   0.387   0.937   3.550  0.1245  0.2447  0.6948
 3018TIP3    H1 9060   0.385   0.850   3.510 -2.0627  1.0806 -1.2456
 3018TIP3    H2 9061   0.312   0.938   3.609 -0.2553  0.9991  0.2150
 3019TIP3   OH2 9062   3.508   3.339   3.754  0.0066 -0.6708  0.4947
 3019TIP3    H1 9063   3.435   3.314   3.811 -0.0106 -0.7776  0.4266
 3019TIP3    H2 9064   3.539   3.421   3.790 -0.6323 -0.2305  0.0710
 3020TIP3   OH2 9065   2.877   4.904   2.461  0.0617  0.6171 -0.4756
 3020TIP3    H1 9066   2.929   4.982   2.481  1.6365 -0.4379 -0.2674
 3020TIP3    H2 9067   2.923   4.863   2.388  1.1606 -1.7621  1.3987
 3021TIP3   OH2 9068   0.269   0.205   3.949  0.1919 -0.6823 -0.5384
 3021TIP3    H1 9069   0.221   0.214   3.866 -0.1028 -0.2074 -0.3219
 3021TIP3    H2 9070   0.282   0.111   3.960  0.4455 -0.7364 -1.2476
 3022TIP3   OH2 9071   3.142   2.488   2.667 -0.1489  0.4533 -0.1839
 3022TIP3    H1 9072   3.159   2.405   2.623 -3.3177 -0.1028 -0.5771
 3022TIP3    H2 9073   3.165   2.472   2.759 -0.3151 -0.7030 -0.3331
 3023TIP3   OH2 9074   4.915   3.074   3.905 -0.3292  0.0022 -0.6884
 3023TIP3    H1 9075   4.867   3.051   3.985  2.0237 -1.7344  0.3633
 3023TIP3    H2 9076   4.972   3.146   3.932 -0.7022  0.5259 -1.2855
 3024TIP3   OH2 9077   1.249   4.592   3.218  0.3300 -0.3189  0.0375
 3024TIP3    H1 9078   1.258   4.681   3.252  1.5186  0.7198 -2.7566
 3024TIP3    H2 9079   1.318   4.543   3.263  1.8908  1.0052 -0.8087
 3025TIP3   OH2 9080   2.053   0.479   0.482 -1.0469  0.6652  0.4297
 3025TIP3    H1 9081   1.970   0.526   0.473 -1.5571 -0.3732 -0.7276
 3025TIP3    H2 9082   2.072   0.448   0.393  0.3477  0.4852  0.7681
 3026TIP3   OH2 9083   2.008   4.787   1.874 -0.4312  0.0053  0.0544
 3026TIP3    H1 9084   2.021   4.716   1.811 -0.0905  1.2669 -1.3496
 3026TIP3    H2 9085   2.094   4.829   1.881 -0.7758  0.6663  0.3758
 3027TIP3   OH2 9086   5.816   1.291   2.428 -0.3749 -0.3208 -0.3683
 3027TIP3    H1 9087   5.860   1.376   2.436 -0.6117 -0.2703  0.5714
 3027TIP3    H2 9088   5.815   1.257   2.518  0.8302 -1.8910 -0.9071
 3028TIP3   OH2 9089   1.384   0.104   0.406  0.4636  0.0637 -0.3418
 3028TIP3    H1 9090   1.376   0.088   0.500  1.7559 -1.7652 -0.5021
 3028TIP3    H2 9091   1.355   0.194   0.395  1.2526  0.6643  1.9530
 3029TIP3   OH2 9092   2.384   4.782   1.427  0.4241 -0.1344  0.2101
 3029TIP3    H1 9093   2.417   4.801   1.515  0.7121 -3.2750  0.8852
 3029TIP3    H2 9094   2.429   4.702   1.400  0.2604  0.6595 -2.8120
 3030TIP3   OH2 9095   0.944   4.674   0.199 -0.0620 -0.1893  0.3044
 3030TIP3    H1 9096   0.906   4.621   0.129 -0.1170  0.1181  0.0974
 3030TIP3    H2 9097   0.869   4.715   0.242 -0.0181 -0.2458  0.4343
 3031TIP3   OH2 9098   5.825   1.441   3.214 -0.2182  0.2534 -0.0983
 3031TIP3    H1 9099   5.859   1.353   3.196  1.9000  0.8098  0.8987
 3031TIP3    H2 9100   5.868   1.467   3.296  0.0110  2.6217 -0.8929
 3032TIP3   OH2 9101   3.922   4.580   4.783  0.0422 -0.0980  0.4596
 3032TIP3    H1 9102   3.930   4.673   4.802 -0.3689 -0.1626  0.9719
 3032TIP3    H2 9103   3.923   4.574   4.688  2.7196  0.1973  0.3962
 3033TIP3   OH2 9104   0.941   3.726   1.085 -0.0525  0.5653  0.6266
 3033TIP3    H1 9105   0.934   3.631   1.086  0.8394  0.4797 -0.5177
 3033TIP3    H2 9106   0.853   3.756   1.108 -0.2061 -0.5220  1.5295
 3034TIP3   OH2 9107   3.137   4.697   4.468 -0.4320  0.0871 -0.6061
 3034TIP3    H1 9108   3.101   4.761   4.406  1.2162  0.8916 -0.7795
 3034TIP3    H2 9109   3.228   4.687   4.442 -0.4396 -1.7437 -0.0619
 3035TIP3   OH2 9110   4.975   3.976   1.282  0.1177 -0.0046 -0.0677
 3035TIP3    H1 9111   5.011   4.051   1.330 -1.1918 -1.0843  2.8569
 3035TIP3    H2 9112   4.892   4.007   1.248 -1.2407 -0.4568  2.5893
 3036TIP3   OH2 9113   5.348   2.723   2.009 -0.1841  0.0285 -0.1184
 3036TIP3    H1 9114   5.405   2.652   1.980  0.4938  0.7879 -0.6803
 3036TIP3    H2 9115   5.395   2.803   1.986 -1.7737  0.6973 -1.2783
 3037TIP3   OH2 9116   4.113   0.216   4.694  0.4861  0.0670  0.4297
 3037TIP3    H1 9117   4.059   0.143   4.663 -0.9441  2.4214 -3.4039
 3037TIP3    H2 9118   4.067   0.249   4.771 -0.1033 -1.6835  0.8547
 3038TIP3   OH2 9119   2.506   1.423   0.090 -0.3506  0.1457 -0.0430
 3038TIP3    H1 9120   2.439   1.489   0.111  0.0759  0.3283  0.7662
 3038TIP3    H2 9121   2.462   1.340   0.106 -1.1997  0.1778 -1.9741
 3039TIP3   OH2 9122   3.884   2.680   5.060 -0.2546 -0.3389  0.3616
 3039TIP3    H1 9123   3.937   2.688   5.140  0.4904 -0.9750 -0.0446
 3039TIP3    H2 9124   3.934   2.729   4.994 -0.6656 -0.1432  0.1976
 3040TIP3   OH2 9125   5.666   4.179   1.285 -0.0201  0.5361  0.7913
 3040TIP3    H1 9126   5.665   4.243   1.213 -0.5146 -0.0764  0.2326
 3040TIP3    H2 9127   5.593   4.206   1.341 -0.1270  0.5699  0.6398
 3041TIP3   OH2 9128   1.850   5.533   4.338  0.2719 -0.0184  0.4607
 3041TIP3    H1 9129   1.845   5.580   4.421 -0.3526  0.6310  0.0710
 3041TIP3    H2 9130   1.869   5.602   4.274 -1.9080 -0.0638 -0.3153
 3042TIP3   OH2 9131   6.264   5.862   0.359 -0.0621 -0.6979 -0.3845
 3042TIP3    H1 9132   6.292   5.779   0.397 -1.5413 -0.5453  1.1557
 3042TIP3    H2 9133   6.262   5.923   0.433 -0.1958  0.3946 -1.2565
 3043TIP3   OH2 9134   2.049   3.298   0.144 -0.1967 -0.3929  0.1292
 3043TIP3    H1 9135   2.103   3.278   0.220 -0.7100 -0.4272  0.4862
 3043TIP3    H2 9136   2.109   3.289   0.069 -0.0815 -2.0204  0.3709
 3044TIP3   OH2 9137   3.610   2.265   0.210  0.4113  0.8245  0.2064
 3044TIP3    H1 9138   3.684   2.326   0.216  1.1073  0.2175 -1.4028
 3044TIP3    H2 9139   3.651   2.180   0.195 -0.5930  0.2535  0.6455
 3045TIP3   OH2 9140   3.691   5.876   1.439  0.3425  0.2758  0.2330
 3045TIP3    H1 9141   3.732   5.793   1.466  0.3827  0.2650  0.1398
 3045TIP3    H2 9142   3.621   5.850   1.379  0.6048  0.3310 -0.1009
 3046TIP3   OH2 9143   2.729   4.591   1.616 -0.3557 -0.9553 -0.3812
 3046TIP3    H1 9144   2.647   4.574   1.662 -0.3376 -0.9675 -0.3539
 3046TIP3    H2 9145   2.742   4.686   1.624  1.1343 -1.2876  2.1254
 3047TIP3   OH2 9146   5.837   1.038   4.795  0.2147  0.1278  0.2386
 3047TIP3    H1 9147   5.762   0.986   4.767  0.6254 -0.3241 -0.0450
 3047TIP3    H2 9148   5.843   1.024   4.889 -0.8460  1.2195  0.4875
 3048TIP3   OH2 9149   2.071   5.693   1.814  0.3319 -0.0341  0.5097
 3048TIP3    H1 9150   2.088   5.787   1.820 -0.3205  0.1113  0.2167
 3048TIP3    H2 9151   2.027   5.683   1.730 -0.3519 -0.4830  0.9143
 3049TIP3   OH2 9152   1.728   0.936   0.901 -0.1919  0.3857  0.0433
 3049TIP3    H1 9153   1.716   0.971   0.813 -1.1198 -0.5471 -0.2179
 3049TIP3    H2 9154   1.706   0.843   0.894  0.4669  0.1290  1.1016
 3050TIP3   OH2 9155   1.724   0.750   3.047  0.2324 -0.3664  0.3476
 3050TIP3    H1 9156   1.650   0.708   3.003  0.5998 -3.2303  2.2011
 3050TIP3    H2 9157   1.692   0.768   3.135  1.0238  0.6938  0.4371
 3051TIP3   OH2 9158   5.492   3.263   4.566 -0.3072 -0.2933 -0.3662
 3051TIP3    H1 9159   5.539   3.344   4.585 -2.3919  0.8325  0.2949
 3051TIP3    H2 9160   5.516   3.241   4.476  2.4163 -0.4926  0.3335
 3052TIP3   OH2 9161   1.525   2.316   2.956 -0.4773 -0.3142 -0.2930
 3052TIP3    H1 9162   1.577   2.334   3.034 -1.0156 -1.0338  0.2473
 3052TIP3    H2 9163   1.555   2.381   2.892 -0.0246  0.2877  0.5030
 3053TIP3   OH2 9164   3.154   0.700   4.269 -0.3126 -0.3803 -0.4045
 3053TIP3    H1 9165   3.125   0.788   4.293  1.1399 -0.1621  0.6972
 3053TIP3    H2 9166   3.137   0.646   4.346  2.2164 -0.2007  0.3655
 3054TIP3   OH2 9167   4.885   0.076   2.928 -0.3455  0.2132  0.1481
 3054TIP3    H1 9168   4.803   0.110   2.894  0.1761 -1.0093 -2.6359
 3054TIP3    H2 9169   4.950   0.144   2.910 -0.5878  0.9175  1.7784
 3055TIP3   OH2 9170   5.081   4.148   1.959  0.4746  0.2117 -0.0419
 3055TIP3    H1 9171   5.089   4.063   2.004 -0.9465 -0.4973 -1.0313
 3055TIP3    H2 9172   5.008   4.191   2.004 -0.1549  0.0111 -0.8506
 3056TIP3   OH2 9173   5.661   2.084   0.168 -0.1781 -0.5241 -0.1136
 3056TIP3    H1 9174   5.595   2.020   0.194 -0.3887 -0.1567  0.2701
 3056TIP3    H2 9175   5.622   2.128   0.092 -1.4198  1.2748  1.4731
 3057TIP3   OH2 9176   1.160   5.809   4.418 -0.6075  0.4506 -0.0657
 3057TIP3    H1 9177   1.241   5.838   4.459 -0.2870  0.1136 -0.4424
 3057TIP3    H2 9178   1.176   5.818   4.324 -2.1086  3.3157 -0.1558
 3058TIP3   OH2 9179   3.421   0.290   4.330  0.4357  0.2293 -0.5179
 3058TIP3    H1 9180   3.437   0.333   4.414 -0.8112 -0.2140 -0.0196
 3058TIP3    H2 9181   3.389   0.359   4.273 -0.2783  0.2326 -0.1241
 3059TIP3   OH2 9182   0.752   3.376   3.377 -0.1969  0.3198  0.8346
 3059TIP3    H1 9183   0.717   3.395   3.290  1.7327 -2.2637 -0.6537
 3059TIP3    H2 9184   0.701   3.300   3.407  1.2828 -0.9124  0.3955
 3060TIP3   OH2 9185   4.970   2.801   4.156 -0.1324  0.4075 -0.2660
 3060TIP3    H1 9186   5.060   2.805   4.189 -0.8187  0.2966  1.7509
 3060TIP3    H2 9187   4.963   2.713   4.118  0.0420 -0.3999  1.4506
 3061TIP3   OH2 9188   3.397   3.319   1.765  0.1733 -0.7767  0.0484
 3061TIP3    H1 9189   3.362   3.269   1.837  1.6616 -1.5845  0.2498
 3061TIP3    H2 9190   3.321   3.342   1.712 -0.8188 -1.0100  1.3366
 3062TIP3   OH2 9191   6.370   1.561   4.258  0.4710  0.4130 -0.0842
 3062TIP3    H1 9192   6.323   1.643   4.273  0.2021  0.1177  0.7087
 3062TIP3    H2 9193   6.323   1.496   4.310  0.9749 -0.1525 -0.3239
 3063TIP3   OH2 9194   0.890   2.242   4.629  0.0980  0.0451 -0.1727
 3063TIP3    H1 9195   0.859   2.280   4.712  0.6442 -0.0574  0.0829
 3063TIP3    H2 9196   0.985   2.246   4.635  0.1534 -0.7191 -0.4437
 3064TIP3   OH2 9197   5.448   0.294   3.567 -0.2670 -0.2603 -0.6310
 3064TIP3    H1 9198   5.448   0.220   3.506  1.0469  0.5118 -1.6251
 3064TIP3    H2 9199   5.388   0.357   3.528  0.8278  0.3728 -1.3471
 3065TIP3   OH2 9200   2.318   0.100   0.029  0.0603 -0.1375  0.0466
 3065TIP3    H1 9201   2.299   0.193   0.023 -0.4548 -0.1168  1.5898
 3065TIP3    H2 9202   2.408   0.091  -0.003  0.2310  0.9354  0.2117
 3066TIP3   OH2 9203   4.646   0.629   4.687  0.2320  0.5556  0.1946
 3066TIP3    H1 9204   4.680   0.574   4.616 -0.8800  1.9205 -1.4982
 3066TIP3    H2 9205   4.556   0.599   4.700  0.3706  0.4358  0.9050
 3067TIP3   OH2 9206   0.189   2.530   0.791 -0.2482 -0.0321  0.1779
 3067TIP3    H1 9207   0.274   2.572   0.789 -0.5217  0.5013 -0.5497
 3067TIP3    H2 9208   0.138   2.574   0.723  0.1718 -3.0695 -2.3722
 3068TIP3   OH2 9209   2.121   3.665   1.237  0.4829  0.2854 -0.3616
 3068TIP3    H1 9210   2.119   3.569   1.242  3.3463  0.1630  0.2150
 3068TIP3    H2 9211   2.131   3.693   1.328 -1.4600  1.2724 -0.3851
 3069TIP3   OH2 9212   5.773   4.221   2.613  0.3354  0.2277 -0.1123
 3069TIP3    H1 9213   5.718   4.146   2.638 -0.7100  1.2795  0.8947
 3069TIP3    H2 9214   5.713   4.279   2.566  1.0386  0.5948 -0.5614
 3070TIP3   OH2 9215   1.147   1.935   0.042  0.3105  0.2577 -0.4029
 3070TIP3    H1 9216   1.182   1.905  -0.042  0.5785 -1.6121  0.3459
 3070TIP3    H2 9217   1.053   1.940   0.028  0.5153  2.8029 -1.6339
 3071TIP3   OH2 9218   4.913   2.809   4.552  0.1802 -0.4228 -0.3355
 3071TIP3    H1 9219   4.938   2.718   4.567 -2.2030 -1.2280 -0.8654
 3071TIP3    H2 9220   4.908   2.848   4.639  0.0449 -1.1395 -0.0188
 3072TIP3   OH2 9221   0.208   3.051   4.470  0.8659 -0.1498 -0.5519
 3072TIP3    H1 9222   0.247   3.010   4.547 -0.3321 -0.0291  0.1367
 3072TIP3    H2 9223   0.283   3.077   4.416  1.7372  0.0684  0.7228
 3073TIP3   OH2 9224   2.853   1.114   3.712 -0.5638  0.2663 -0.0263
 3073TIP3    H1 9225   2.877   1.071   3.793  3.7955  1.8612 -0.2172
 3073TIP3    H2 9226   2.798   1.188   3.739 -1.2013 -0.6210  1.1667
 3074TIP3   OH2 9227   2.322   0.643   4.347  0.0272 -0.1980 -0.0567
 3074TIP3    H1 9228   2.247   0.688   4.385  0.1321 -0.6107  0.6474
 3074TIP3    H2 9229   2.398   0.696   4.374  0.1605 -0.8368  0.8597
 3075TIP3   OH2 9230   4.245   1.516   3.226 -0.3507 -0.1015  0.4327
 3075TIP3    H1 9231   4.236   1.584   3.159 -1.1977  0.1698  0.7967
 3075TIP3    H2 9232   4.304   1.451   3.188  1.3431  1.3346  0.4783
 3076TIP3   OH2 9233   4.340   3.943   1.916 -0.2501  0.8347  0.5353
 3076TIP3    H1 9234   4.421   3.895   1.934 -0.9000 -0.9322 -0.9413
 3076TIP3    H2 9235   4.361   3.997   1.839 -0.8345 -0.7999 -0.8405
 3077TIP3   OH2 9236   5.472   1.263   4.456  0.0699 -0.4715 -0.6424
 3077TIP3    H1 9237   5.495   1.299   4.542  3.3806  1.6051 -2.1792
 3077TIP3    H2 9238   5.501   1.330   4.394 -4.4202 -0.6991 -3.4614
 3078TIP3   OH2 9239   0.746   0.810   2.158  0.1793  0.0289 -0.2023
 3078TIP3    H1 9240   0.777   0.719   2.151 -0.1016 -0.1043  0.2471
 3078TIP3    H2 9241   0.716   0.832   2.070  0.8327 -0.0992 -0.4645
 3079TIP3   OH2 9242   4.040   4.346   4.255 -0.2778  0.1147  0.1413
 3079TIP3    H1 9243   4.057   4.440   4.253  0.1708  0.0345  0.0994
 3079TIP3    H2 9244   4.073   4.313   4.171 -1.1757  0.0368 -0.1945
 3080TIP3   OH2 9245   1.559   1.242   4.620  0.0945  0.0584  0.0343
 3080TIP3    H1 9246   1.515   1.184   4.558 -1.2929 -0.4858  1.4473
 3080TIP3    H2 9247   1.570   1.324   4.572  0.2709 -0.7426 -1.3476
 3081TIP3   OH2 9248   3.546   5.426   2.844 -0.1034  0.1653 -0.9344
 3081TIP3    H1 9249   3.522   5.355   2.786 -2.0143 -0.2957  0.3457
 3081TIP3    H2 9250   3.511   5.401   2.929  0.6924  1.8318 -0.0576
 3082TIP3   OH2 9251   0.335   4.262   3.952 -0.2909  0.0542 -0.2691
 3082TIP3    H1 9252   0.314   4.319   4.026 -0.7182  2.2394 -1.9927
 3082TIP3    H2 9253   0.429   4.248   3.959 -0.5360 -1.1659  1.5594
 3083TIP3   OH2 9254   1.898   0.558   1.042 -0.4396  0.1955  0.4158
 3083TIP3    H1 9255   1.987   0.592   1.038  0.4782 -2.0704 -1.0185
 3083TIP3    H2 9256   1.865   0.568   0.953 -0.8032 -0.8820  0.4154
 3084TIP3   OH2 9257   5.459   0.823   0.805 -0.2764 -0.0748  0.9720
 3084TIP3    H1 9258   5.395   0.752   0.813  0.2366 -0.4445  1.8755
 3084TIP3    H2 9259   5.493   0.813   0.716 -1.8407  0.4622  0.2782
 3085TIP3   OH2 9260   4.605   0.419   2.455  0.2179 -0.0288 -0.0927
 3085TIP3    H1 9261   4.688   0.389   2.492  0.1790  0.9773  0.8437
 3085TIP3    H2 9262   4.555   0.339   2.440  0.5901 -0.5284  1.2004
 3086TIP3   OH2 9263   0.490   0.597   2.313  0.0191 -0.2689  0.0232
 3086TIP3    H1 9264   0.401   0.564   2.304 -0.1862 -0.2163  1.6233
 3086TIP3    H2 9265   0.480   0.692   2.321  0.2107 -0.2669  0.2679
 3087TIP3   OH2 9266   5.145   3.859   0.875  0.3930 -0.2789  0.4643
 3087TIP3    H1 9267   5.073   3.801   0.850 -0.2151  0.4541  0.4808
 3087TIP3    H2 9268   5.211   3.800   0.914 -0.2014 -0.9524  0.4721
 3088TIP3   OH2 9269   3.745   0.633   4.933 -0.1879  0.0156 -0.2530
 3088TIP3    H1 9270   3.702   0.700   4.880 -2.4279 -0.9392  0.2190
 3088TIP3    H2 9271   3.820   0.677   4.972 -1.5026  2.2321 -0.0523
 3089TIP3   OH2 9272   5.532   5.637   4.347 -0.0660 -0.1127 -0.0535
 3089TIP3    H1 9273   5.568   5.604   4.264  1.2168 -1.3124  0.9215
 3089TIP3    H2 9274   5.584   5.592   4.414 -0.1704  1.8473  1.3980
 3090TIP3   OH2 9275   3.780   4.514   0.966  0.2301 -0.5432 -0.7873
 3090TIP3    H1 9276   3.742   4.458   1.034  2.5131  1.0312  2.0134
 3090TIP3    H2 9277   3.730   4.595   0.971  1.1519  0.0011 -0.0993
 3091TIP3   OH2 9278   4.396   5.655   1.954 -0.0129  0.0925  0.2773
 3091TIP3    H1 9279   4.428   5.717   1.889  1.3351 -1.1476 -0.3043
 3091TIP3    H2 9280   4.306   5.682   1.971  0.3152  1.7767 -0.4460
 3092TIP3   OH2 9281   1.935   4.947   1.645  0.4905 -0.0784 -0.1830
 3092TIP3    H1 9282   1.913   4.912   1.731 -0.7161  1.4116  0.1590
 3092TIP3    H2 9283   1.990   4.880   1.605 -3.2107 -3.3405 -0.3931
 3093TIP3   OH2 9284   5.275   1.821   4.674 -0.2993  0.1085 -0.0422
 3093TIP3    H1 9285   5.219   1.876   4.619 -0.4712 -0.9014 -0.9122
 3093TIP3    H2 9286   5.264   1.733   4.638 -1.0684 -0.7546  2.1241
 3094TIP3   OH2 9287   2.658   5.113   0.499 -0.0666 -0.0278 -0.5601
 3094TIP3    H1 9288   2.732   5.085   0.553 -1.4500  0.8504  1.9534
 3094TIP3    H2 9289   2.671   5.207   0.488 -0.0783 -0.1142 -1.3545
 3095TIP3   OH2 9290   4.250   2.904   0.197 -0.5873 -0.1989 -0.5964
 3095TIP3    H1 9291   4.287   2.894   0.109 -0.2321 -1.0241 -0.3599
 3095TIP3    H2 9292   4.326   2.900   0.256 -0.8999 -0.3977 -0.2022
 3096TIP3   OH2 9293   5.786   3.548   2.153 -0.2552 -0.2085  0.3182
 3096TIP3    H1 9294   5.839   3.600   2.213 -0.2391 -0.3786  0.4531
 3096TIP3    H2 9295   5.732   3.612   2.106  0.0671 -0.0363  0.1820
 3097TIP3   OH2 9296   0.866   1.433   4.814  0.9183  0.3010 -0.5113
 3097TIP3    H1 9297   0.890   1.371   4.744  0.3577 -0.8848  0.3203
 3097TIP3    H2 9298   0.776   1.410   4.836  0.7728  1.2916 -0.0262
 3098TIP3   OH2 9299   5.606   3.665   0.491 -0.2629 -0.6512  0.3163
 3098TIP3    H1 9300   5.584   3.748   0.533 -1.1487 -0.4770 -0.4598
 3098TIP3    H2 9301   5.522   3.630   0.463  0.2313 -1.1873 -0.5114
 3099TIP3   OH2 9302   1.671   4.304   1.244 -0.8816 -0.1015 -0.7827
 3099TIP3    H1 9303   1.630   4.359   1.177 -2.6999  0.7459  0.9184
 3099TIP3    H2 9304   1.609   4.233   1.258 -0.1838 -0.6688 -0.4818
 3100TIP3   OH2 9305   1.367   1.546   2.390 -0.1692 -0.2729  0.5371
 3100TIP3    H1 9306   1.392   1.465   2.346  2.2612  0.5382  0.2968
 3100TIP3    H2 9307   1.448   1.579   2.428 -1.3728  1.3328  1.8607
 3101TIP3   OH2 9308   1.972   2.721   0.055 -0.0267  0.1961 -0.4111
 3101TIP3    H1 9309   1.987   2.726   0.150  0.8750 -1.3820 -0.4378
 3101TIP3    H2 9310   1.920   2.799   0.035 -0.1925  0.5878  1.3687
 3102TIP3   OH2 9311   2.669   0.831   1.902 -0.1314 -0.6123 -0.0684
 3102TIP3    H1 9312   2.659   0.922   1.875 -0.9716 -0.7042 -0.1020
 3102TIP3    H2 9313   2.650   0.832   1.996  2.9233 -0.2687  0.6393
 3103TIP3   OH2 9314   5.848   3.308   1.386 -0.6139 -0.2328 -0.0455
 3103TIP3    H1 9315   5.813   3.301   1.475 -0.7454  1.9739  0.1303
 3103TIP3    H2 9316   5.879   3.398   1.379  2.5169 -1.2694 -1.1362
 3104TIP3   OH2 9317   2.233   2.213   0.498  0.1712 -0.0107 -0.0527
 3104TIP3    H1 9318   2.266   2.287   0.549 -2.2867  0.1652  1.4491
 3104TIP3    H2 9319   2.155   2.246   0.453  0.1846 -1.1678 -0.9934
 3105TIP3   OH2 9320   2.126   1.269   2.324  0.0088 -0.3972  0.2658
 3105TIP3    H1 9321   2.171   1.188   2.349 -1.3263 -0.5008  2.6009
 3105TIP3    H2 9322   2.187   1.339   2.350  0.7620 -0.5979 -0.8927
 3106TIP3   OH2 9323   0.455   5.956   0.623 -0.0571  0.6151 -0.3830
 3106TIP3    H1 9324   0.497   5.879   0.660 -0.0523  0.7519 -0.1000
 3106TIP3    H2 9325   0.470   6.025   0.687 -0.2056  0.8100 -0.5553
 3107TIP3   OH2 9326   3.135   4.734   3.398 -0.2339  0.5437  0.3347
 3107TIP3    H1 9327   3.042   4.741   3.377 -0.2273  0.8525  0.4062
 3107TIP3    H2 9328   3.167   4.824   3.398 -0.3309  0.6183  2.1437
 3108TIP3   OH2 9329   5.227   5.646   0.458 -0.6023  0.0307 -0.5871
 3108TIP3    H1 9330   5.228   5.608   0.370  0.4904 -0.7237 -0.2614
 3108TIP3    H2 9331   5.242   5.572   0.516 -3.1808  0.1799  0.4007
 3109TIP3   OH2 9332   0.008   0.030   0.739  0.0316 -0.0496  0.3965
 3109TIP3    H1 9333   0.092   0.024   0.784  0.8434 -0.0751 -1.0509
 3109TIP3    H2 9334   0.016   0.109   0.685 -0.7028 -0.2860 -0.0741
 3110TIP3   OH2 9335   0.039   0.433   3.848  0.5042  0.1246 -0.1713
 3110TIP3    H1 9336   0.045   0.353   3.795 -1.1479  0.7534 -1.3903
 3110TIP3    H2 9337   0.015   0.402   3.935 -1.4953 -0.6875 -0.9433
 3111TIP3   OH2 9338   0.493   4.036   0.845  0.5196 -0.6579  0.0273
 3111TIP3    H1 9339   0.548   4.111   0.822 -0.3221  0.4889  1.5546
 3111TIP3    H2 9340   0.540   3.960   0.811  2.1479  0.4373 -0.2639
 3112TIP3   OH2 9341   2.211   0.446   4.160 -0.6607  0.3726 -0.7227
 3112TIP3    H1 9342   2.247   0.495   4.234 -1.5566 -1.6142  1.1317
 3112TIP3    H2 9343   2.175   0.513   4.102 -0.3922  1.9854  0.8931
 3113TIP3   OH2 9344   5.894   0.809   1.827 -0.1792 -0.2151 -0.0603
 3113TIP3    H1 9345   5.980   0.849   1.809 -0.8672  1.0700 -0.6216
 3113TIP3    H2 9346   5.837   0.840   1.757 -1.1822 -0.8340  0.4527
 3114TIP3   OH2 9347   3.917   5.818   2.064  0.4217  0.0412 -0.6310
 3114TIP3    H1 9348   3.829   5.815   2.026  0.3158  0.0182 -0.3888
 3114TIP3    H2 9349   3.906   5.780   2.151  0.7076 -0.1244 -0.6650
 3115TIP3   OH2 9350   5.439   4.855   3.871  0.1899  0.4246  0.0462
 3115TIP3    H1 9351   5.494   4.777   3.867  0.2471  0.5107 -1.3008
 3115TIP3    H2 9352   5.388   4.845   3.951  1.2570 -0.2669  0.6601
 3116TIP3   OH2 9353   5.459   1.493   2.107  0.4525  0.0771 -0.1859
 3116TIP3    H1 9354   5.512   1.538   2.041  0.6845  3.3631  2.0074
 3116TIP3    H2 9355   5.369   1.514   2.083  0.5296  1.1481  0.4399
 3117TIP3   OH2 9356   3.374   0.776   4.116  0.1869  0.1153 -0.2948
 3117TIP3    H1 9357   3.293   0.776   4.168  1.5361  2.3772  2.0680
 3117TIP3    H2 9358   3.345   0.797   4.027 -1.8682  0.5613  0.4124
 3118TIP3   OH2 9359   1.629   4.975   5.039  0.1314 -0.9897  0.3315
 3118TIP3    H1 9360   1.689   4.999   5.110  1.5712 -1.9583 -0.4984
 3118TIP3    H2 9361   1.611   5.058   4.994  0.3685 -0.5903  0.9639
 3119TIP3   OH2 9362   3.551   5.159   0.359  0.3919 -0.4462 -0.5231
 3119TIP3    H1 9363   3.573   5.251   0.374 -0.5257  0.1915 -2.7458
 3119TIP3    H2 9364   3.469   5.146   0.406  1.0896 -0.4925  0.7429
 3120TIP3   OH2 9365   4.227   4.504   1.152 -0.3736  0.0323 -0.1226
 3120TIP3    H1 9366   4.161   4.465   1.210 -0.3878  0.8908  0.4671
 3120TIP3    H2 9367   4.197   4.594   1.140 -0.4327 -0.1636 -1.5913
 3121TIP3   OH2 9368   3.823   3.414   3.484 -0.0070 -0.5544  0.2446
 3121TIP3    H1 9369   3.761   3.464   3.431  1.2574  0.0120 -0.7712
 3121TIP3    H2 9370   3.769   3.350   3.531 -1.9923  2.8425  3.0662
 3122TIP3   OH2 9371   1.005   4.637   4.505  0.2987 -0.3466  0.2416
 3122TIP3    H1 9372   1.005   4.564   4.444  0.5068  0.0265 -0.2086
 3122TIP3    H2 9373   1.092   4.676   4.496 -0.6991  1.6313 -1.5570
 3123TIP3   OH2 9374   4.567   2.819   2.193  0.3546  0.2256  1.2532
 3123TIP3    H1 9375   4.591   2.756   2.125  0.1823  0.9349  0.5250
 3123TIP3    H2 9376   4.649   2.857   2.223  0.4336 -0.1186  1.4794
 3124TIP3   OH2 9377   1.366   0.298   1.667 -0.0451  0.1909  0.3454
 3124TIP3    H1 9378   1.386   0.224   1.610 -1.9250 -0.4081  0.4093
 3124TIP3    H2 9379   1.333   0.258   1.748  0.8803  1.0700  1.1818
 3125TIP3   OH2 9380   3.917   5.021   4.108 -0.3943  0.4204  0.0911
 3125TIP3    H1 9381   3.965   4.970   4.173 -1.0727  0.5183  0.6754
 3125TIP3    H2 9382   3.928   5.112   4.136  2.9839  0.9638 -2.3334
 3126TIP3   OH2 9383   4.146   1.536   2.167 -0.1984 -0.3970  0.3356
 3126TIP3    H1 9384   4.116   1.488   2.090 -0.1143 -1.6192  1.0527
 3126TIP3    H2 9385   4.212   1.597   2.132 -1.8250  0.7416 -0.9009
 3127TIP3   OH2 9386   3.471   1.216   4.127 -0.1306  0.2661  0.3865
 3127TIP3    H1 9387   3.457   1.289   4.067 -0.8294  0.8544  1.2426
 3127TIP3    H2 9388   3.485   1.258   4.212 -1.2486 -0.6090  1.0281
 3128TIP3   OH2 9389   5.773   4.432   2.149 -0.1914 -0.3409 -0.0926
 3128TIP3    H1 9390   5.841   4.499   2.155 -0.7034  0.1522  0.3234
 3128TIP3    H2 9391   5.720   4.444   2.228  1.0561 -2.7408  1.2426
 3129TIP3   OH2 9392   3.781   1.339   1.562  1.0167 -0.2221 -0.4056
 3129TIP3    H1 9393   3.833   1.338   1.643  0.4888  0.5974 -0.0482
 3129TIP3    H2 9394   3.826   1.276   1.505  2.5727  0.6423 -0.2094
 3130TIP3   OH2 9395   0.284   0.953   2.395  0.0322 -0.0826  0.0666
 3130TIP3    H1 9396   0.294   0.932   2.302 -1.0200  0.9587 -0.3144
 3130TIP3    H2 9397   0.224   1.028   2.396 -1.0315 -0.8947  1.6548
 3131TIP3   OH2 9398   4.172   3.556   1.690 -0.1738 -0.1427 -0.3494
 3131TIP3    H1 9399   4.132   3.642   1.705 -1.3973 -1.0344  2.1214
 3131TIP3    H2 9400   4.262   3.566   1.720 -0.3897  0.2282  0.1943
 3132TIP3   OH2 9401   5.952   0.174   3.553  0.1785 -0.3285  0.4601
 3132TIP3    H1 9402   5.985   0.149   3.639  0.0021  0.2019  0.6857
 3132TIP3    H2 9403   5.922   0.264   3.564  0.1308 -0.2652 -0.1506
 3133TIP3   OH2 9404   4.614   1.625   1.542 -0.5676  0.8962  0.2609
 3133TIP3    H1 9405   4.523   1.644   1.566 -0.4842 -2.4347  4.2235
 3133TIP3    H2 9406   4.609   1.544   1.491  0.1683  1.4539 -0.7475
 3134TIP3   OH2 9407   3.689   5.940   3.483  0.2431  0.5348 -0.2054
 3134TIP3    H1 9408   3.741   5.896   3.416  1.6775  1.6736  0.1348
 3134TIP3    H2 9409   3.735   6.022   3.500 -1.5769  1.5205  0.2258
 3135TIP3   OH2 9410   3.234   3.519   3.993  0.1342  0.0653  0.1863
 3135TIP3    H1 9411   3.234   3.604   3.949  0.4600 -0.5136 -0.9733
 3135TIP3    H2 9412   3.278   3.535   4.076 -2.5988  1.7212  1.4476
 3136TIP3   OH2 9413   6.203   1.984   3.093  0.5235 -0.4215 -0.2409
 3136TIP3    H1 9414   6.245   1.902   3.119  1.5469 -0.4967 -2.0096
 3136TIP3    H2 9415   6.208   1.985   2.998  0.6905  1.7626 -0.2668
 3137TIP3   OH2 9416   0.047   0.481   1.779  0.2400  0.3193  0.4914
 3137TIP3    H1 9417  -0.016   0.551   1.762  0.0132  0.4038  1.5787
 3137TIP3    H2 9418   0.132   0.517   1.752 -0.3112 -0.3474 -2.4441
 3138TIP3   OH2 9419   4.339   0.863   2.070 -0.0482 -0.1108 -1.0763
 3138TIP3    H1 9420   4.280   0.934   2.043 -0.5906 -0.0529  0.2042
 3138TIP3    H2 9421   4.354   0.878   2.163 -0.3115 -1.7602 -0.7240
 3139TIP3   OH2 9422   4.689   4.850   0.881  0.1475  0.0238  0.5150
 3139TIP3    H1 9423   4.686   4.756   0.862 -1.2252  0.0627  0.4179
 3139TIP3    H2 9424   4.669   4.856   0.974  2.1598  0.1334  0.9926
 3140TIP3   OH2 9425   3.238   0.247   0.726  0.0044 -0.3288 -0.7167
 3140TIP3    H1 9426   3.174   0.178   0.743 -0.8550  1.1468  3.2679
 3140TIP3    H2 9427   3.190   0.312   0.674 -2.4900  1.3365  3.2151
 3141TIP3   OH2 9428   4.754   0.564   3.963 -0.0358 -0.6248 -0.8291
 3141TIP3    H1 9429   4.668   0.605   3.964 -0.0818 -0.7044  1.0889
 3141TIP3    H2 9430   4.790   0.587   3.877 -1.5020  0.3532 -1.2237
 3142TIP3   OH2 9431   4.079   5.273   3.919 -0.4316 -0.9732 -0.0826
 3142TIP3    H1 9432   4.081   5.367   3.940 -2.9173 -0.8735  0.0839
 3142TIP3    H2 9433   4.107   5.230   4.000 -0.5341 -0.3724  0.2831
 3143TIP3   OH2 9434   2.210   5.794   4.940  0.0286 -0.0985  0.1084
 3143TIP3    H1 9435   2.240   5.772   5.028  0.5891  0.4014  0.0453
 3143TIP3    H2 9436   2.218   5.889   4.935 -1.5164  0.0619  0.0687
 3144TIP3   OH2 9437   1.958   3.161   1.934  0.1381  0.0413 -0.3982
 3144TIP3    H1 9438   1.871   3.195   1.912  0.2848  1.3698  0.9207
 3144TIP3    H2 9439   1.941   3.091   1.996 -0.0461 -0.6946 -1.2605
 3145TIP3   OH2 9440   3.230   0.870   3.296  0.2155  0.3499  0.1743
 3145TIP3    H1 9441   3.259   0.953   3.333  0.9148  0.0463  0.3210
 3145TIP3    H2 9442   3.308   0.833   3.255 -0.5916  0.8401 -1.9755
 3146TIP3   OH2 9443   1.026   2.783   4.025  0.0949  0.5841  0.6803
 3146TIP3    H1 9444   1.090   2.767   4.094 -1.1195 -0.7176  1.5606
 3146TIP3    H2 9445   1.071   2.758   3.944  0.7955  0.0131  1.2356
 3147TIP3   OH2 9446   3.577   2.886   3.973  0.4081  0.5163  0.3057
 3147TIP3    H1 9447   3.526   2.937   3.910  0.6246 -1.3224 -1.4477
 3147TIP3    H2 9448   3.518   2.816   4.001  0.6983  0.6517  1.3114
 3148TIP3   OH2 9449   2.801   5.114   1.927 -0.1214  0.8543  0.1587
 3148TIP3    H1 9450   2.838   5.193   1.967  0.1702  0.2171  1.1803
 3148TIP3    H2 9451   2.710   5.137   1.909  0.0938  1.5911 -0.0213
 3149TIP3   OH2 9452   4.367   1.284   3.118 -0.2505 -0.6945  0.0232
 3149TIP3    H1 9453   4.421   1.236   3.181  1.0601  0.1045 -0.4467
 3149TIP3    H2 9454   4.390   1.246   3.033  2.3307  1.9249 -0.6283
 3150TIP3   OH2 9455   2.668   4.228   2.742  0.4137  0.9931 -0.2707
 3150TIP3    H1 9456   2.727   4.190   2.807  0.1688  1.2067  0.0816
 3150TIP3    H2 9457   2.706   4.313   2.723  1.0901  0.4866 -1.2331
 3151TIP3   OH2 9458   6.003   5.081   4.096  0.1952 -0.2906 -0.5809
 3151TIP3    H1 9459   5.961   5.005   4.135  1.7367 -1.6658 -1.4654
 3151TIP3    H2 9460   5.968   5.084   4.007  1.6302 -1.2518 -1.2176
 3152TIP3   OH2 9461   4.916   0.027   4.262  1.0170  0.0641  0.3017
 3152TIP3    H1 9462   4.927   0.114   4.224 -0.0659 -0.6260 -1.6880
 3152TIP3    H2 9463   4.822   0.010   4.258  1.2341 -1.2772  0.5093
 3153TIP3   OH2 9464   3.417   4.499   1.583  0.1832 -0.2108  0.3738
 3153TIP3    H1 9465   3.424   4.437   1.655 -2.2959  0.2340  1.1028
 3153TIP3    H2 9466   3.432   4.446   1.505  2.0987 -0.8652  1.1350
 3154TIP3   OH2 9467   4.234   4.540   0.549 -0.7328  0.5031  0.0716
 3154TIP3    H1 9468   4.267   4.608   0.490  1.4892 -1.1588 -0.7537
 3154TIP3    H2 9469   4.161   4.501   0.501 -0.9092  1.1706 -0.2178
 3155TIP3   OH2 9470   2.733   1.591   1.944  0.0026  0.9210 -0.0508
 3155TIP3    H1 9471   2.775   1.534   1.880 -0.5764  0.6430 -0.1848
 3155TIP3    H2 9472   2.783   1.575   2.025 -0.5863 -0.3218  0.1008
 3156TIP3   OH2 9473   4.890   1.204   2.128 -0.4537 -0.4189  0.8565
 3156TIP3    H1 9474   4.948   1.195   2.204 -1.2002 -0.9283  1.3783
 3156TIP3    H2 9475   4.939   1.164   2.056  0.2217 -0.0148  1.0720
 3157TIP3   OH2 9476   0.553   3.171   2.584  0.4705  0.0395 -0.2379
 3157TIP3    H1 9477   0.616   3.236   2.617  0.2963  1.3166 -2.2359
 3157TIP3    H2 9478   0.602   3.089   2.583  1.9949  0.9037 -1.2726
 3158TIP3   OH2 9479   5.434   0.496   2.459 -0.0649 -0.2762 -0.1989
 3158TIP3    H1 9480   5.370   0.440   2.413  0.7814 -1.4516  0.0049
 3158TIP3    H2 9481   5.515   0.485   2.410  0.4754 -0.3581  0.6863
 3159TIP3   OH2 9482   4.697   3.755   3.184  0.2806 -0.8182 -0.0766
 3159TIP3    H1 9483   4.620   3.720   3.229 -0.1324  0.3897  0.2053
 3159TIP3    H2 9484   4.719   3.689   3.118 -1.5565 -0.7790 -0.7897
 3160TIP3   OH2 9485   2.141   2.726   2.353 -0.0906  0.4341 -0.1148
 3160TIP3    H1 9486   2.083   2.727   2.277 -0.0079  1.3273 -0.1670
 3160TIP3    H2 9487   2.090   2.768   2.422  0.0304  0.0880  0.1925
 3161TIP3   OH2 9488   2.035   0.091   5.062 -0.1700  0.2384  0.9985
 3161TIP3    H1 9489   1.951   0.046   5.051  0.1695 -0.7292  2.1827
 3161TIP3    H2 9490   2.100   0.021   5.056  0.6454  1.1009 -0.8588
 3162TIP3   OH2 9491   3.868   2.654   3.248 -0.2760 -0.0986  0.1082
 3162TIP3    H1 9492   3.794   2.594   3.239 -1.2747  0.4738  3.2211
 3162TIP3    H2 9493   3.845   2.728   3.193 -0.7328 -1.0509 -1.0184
 3163TIP3   OH2 9494   4.380   2.448   0.431 -0.1779 -0.4529 -0.3183
 3163TIP3    H1 9495   4.294   2.410   0.451 -0.0840 -0.0770  0.8717
 3163TIP3    H2 9496   4.359   2.534   0.393 -0.3268 -0.2159  0.2916
 3164TIP3   OH2 9497   3.613   3.612   3.434  0.1142  0.4454 -0.1435
 3164TIP3    H1 9498   3.660   3.650   3.360  0.9992  0.0071  0.1691
 3164TIP3    H2 9499   3.559   3.683   3.467  1.2649  1.2760  0.0370
 3165TIP3   OH2 9500   1.578   5.039   3.176  0.1378 -0.4884 -0.5966
 3165TIP3    H1 9501   1.510   5.106   3.164  0.0487 -0.4899 -0.1338
 3165TIP3    H2 9502   1.550   4.990   3.253 -0.3347 -1.7337 -1.5264
 3166TIP3   OH2 9503   4.969   4.072   2.769  0.5910  0.1614 -0.5787
 3166TIP3    H1 9504   4.995   4.074   2.861  0.4533 -0.2022 -0.5310
 3166TIP3    H2 9505   4.874   4.079   2.771  0.4469 -1.4850 -0.6082
 3167TIP3   OH2 9506   5.304   1.955   2.616  0.1355 -0.3515 -0.1517
 3167TIP3    H1 9507   5.368   1.960   2.544 -0.5237 -0.7600 -0.7787
 3167TIP3    H2 9508   5.323   2.032   2.670  0.5636  0.0294 -0.8245
 3168TIP3   OH2 9509   4.805   4.961   4.533  0.3025  0.0334  0.0053
 3168TIP3    H1 9510   4.742   4.930   4.598  1.4056 -0.2970  0.9607
 3168TIP3    H2 9511   4.785   4.911   4.454  0.3922 -1.2533  0.7697
 3169TIP3   OH2 9512   5.901   5.859   4.520  0.1560  0.0435  0.1825
 3169TIP3    H1 9513   5.811   5.883   4.496  0.0455  0.8039  1.2808
 3169TIP3    H2 9514   5.953   5.884   4.444 -0.3113  1.4156  0.2858
 3170TIP3   OH2 9515   6.275   2.271   2.039  0.1610  0.5434  0.2099
 3170TIP3    H1 9516   6.305   2.194   1.991 -0.5162  0.7410 -0.5530
 3170TIP3    H2 9517   6.274   2.341   1.974  2.2085  1.5987  1.2214
 3171TIP3   OH2 9518   1.649   0.431   4.316 -0.1771 -0.5122 -0.0514
 3171TIP3    H1 9519   1.659   0.360   4.254  1.1126 -0.0216 -0.4457
 3171TIP3    H2 9520   1.724   0.422   4.376 -0.2178  0.2532  0.1358
 3172TIP3   OH2 9521   1.831   1.968   1.455 -0.0271  0.0713  0.3681
 3172TIP3    H1 9522   1.924   1.946   1.452 -0.0861 -0.4316  1.4953
 3172TIP3    H2 9523   1.826   2.040   1.518 -0.3618  0.3026  0.0776
 3173TIP3   OH2 9524   3.823   4.610   3.014  0.6496  0.1460  0.1186
 3173TIP3    H1 9525   3.873   4.664   2.952  0.0879 -0.1416 -0.5885
 3173TIP3    H2 9526   3.838   4.520   2.986  0.6539 -0.0128  0.6090
 3174TIP3   OH2 9527   6.261   4.754   0.528 -0.0643  0.2412  0.6069
 3174TIP3    H1 9528   6.319   4.701   0.583 -0.3607 -0.5102  0.2150
 3174TIP3    H2 9529   6.263   4.841   0.567 -0.5715 -0.3698  2.0240
 3175TIP3   OH2 9530   3.876   1.655   2.006 -0.1513  0.1874  0.1285
 3175TIP3    H1 9531   3.940   1.623   1.942  0.0900 -0.1685  0.5387
 3175TIP3    H2 9532   3.863   1.581   2.066  1.0575  1.1115  1.6042
 3176TIP3   OH2 9533   0.733   5.530   4.459  0.4691 -0.7544 -0.1149
 3176TIP3    H1 9534   0.696   5.442   4.452 -1.0897 -0.0109 -2.0898
 3176TIP3    H2 9535   0.820   5.522   4.419 -0.0350 -1.2172 -1.1672
 3177TIP3   OH2 9536   1.231   3.310   3.464  0.2646 -0.2901  0.4471
 3177TIP3    H1 9537   1.203   3.270   3.382  1.8643 -0.3735 -0.0910
 3177TIP3    H2 9538   1.196   3.400   3.460  1.3058  0.0852 -0.8828
 3178TIP3   OH2 9539   1.787   5.834   1.077 -0.7183 -0.0775 -0.3354
 3178TIP3    H1 9540   1.715   5.813   1.017 -1.4589 -1.5253  1.0003
 3178TIP3    H2 9541   1.863   5.791   1.038 -0.5741  1.2614 -1.6291
 3179TIP3   OH2 9542   3.471   5.113   1.686 -0.1079 -0.6575  0.5419
 3179TIP3    H1 9543   3.550   5.091   1.736  0.6347  0.8883  0.1290
 3179TIP3    H2 9544   3.400   5.109   1.750  0.6524  0.1367  1.4820
 3180TIP3   OH2 9545   2.455   1.444   4.174  0.2350 -0.2842 -0.4029
 3180TIP3    H1 9546   2.397   1.372   4.200 -0.1023 -0.7525 -2.2912
 3180TIP3    H2 9547   2.409   1.523   4.202  0.0888 -0.7423  0.7190
 3181TIP3   OH2 9548   3.509   4.601   1.908 -0.5372 -0.6465  0.0249
 3181TIP3    H1 9549   3.507   4.634   1.998 -0.1918  0.9008 -0.5039
 3181TIP3    H2 9550   3.550   4.515   1.916 -0.4086 -0.4935  1.3391
 3182TIP3   OH2 9551   5.623   4.426   1.101 -0.4143  0.5632 -0.1441
 3182TIP3    H1 9552   5.699   4.483   1.112  0.2671 -0.6083  1.5725
 3182TIP3    H2 9553   5.549   4.479   1.132 -0.0673  1.1425 -0.2866
 3183TIP3   OH2 9554   1.103   5.877   4.696 -0.5238  0.8379 -0.6833
 3183TIP3    H1 9555   1.013   5.885   4.727 -0.6904  0.1171 -0.9643
 3183TIP3    H2 9556   1.095   5.839   4.608  0.1056 -0.5324 -0.1786
 3184TIP3   OH2 9557   1.754   0.965   1.628  0.4624  0.5777  0.2965
 3184TIP3    H1 9558   1.799   0.921   1.700 -1.6985 -0.1215  1.3068
 3184TIP3    H2 9559   1.780   0.916   1.550 -0.1392 -1.1265  1.1208
 3185TIP3   OH2 9560   0.499   0.145   0.451  0.4149  0.1155  1.0345
 3185TIP3    H1 9561   0.424   0.200   0.427 -0.0870 -0.4125  1.3704
 3185TIP3    H2 9562   0.556   0.203   0.502  1.0855  1.0166 -0.6540
 3186TIP3   OH2 9563   2.779   1.709   0.760  0.9983  0.8713 -0.3405
 3186TIP3    H1 9564   2.798   1.801   0.742  0.2075  0.8136 -1.5875
 3186TIP3    H2 9565   2.705   1.710   0.821  0.3779  1.0828 -1.0762
 3187TIP3   OH2 9566   2.719   3.985   4.957 -0.1409  0.0920  0.4735
 3187TIP3    H1 9567   2.624   3.987   4.946 -0.0405 -1.1037 -0.8239
 3187TIP3    H2 9568   2.732   3.938   5.039 -0.6567  0.1445  0.5896
 3188TIP3   OH2 9569   1.216   3.525   4.008  0.2023  0.0676 -0.1425
 3188TIP3    H1 9570   1.220   3.565   3.921 -1.5717 -1.3394 -0.9244
 3188TIP3    H2 9571   1.267   3.444   3.999  0.1157 -0.0204  0.1489
 3189TIP3   OH2 9572   4.918   4.995   2.073 -0.1928 -0.2990 -0.3778
 3189TIP3    H1 9573   4.857   5.065   2.051 -1.0907 -1.0331 -0.3131
 3189TIP3    H2 9574   4.938   5.010   2.166  0.1316  0.2418 -0.5320
 3190TIP3   OH2 9575   1.059   5.894   1.918 -0.0639  0.3388  0.6687
 3190TIP3    H1 9576   1.053   5.843   1.999 -0.8166  0.2750  0.5797
 3190TIP3    H2 9577   1.151   5.919   1.912  0.2974 -0.9159  0.7678
 3191TIP3   OH2 9578   1.409   3.146   0.504  0.3883 -0.0905 -0.0258
 3191TIP3    H1 9579   1.478   3.119   0.565  1.4601  2.8068  0.1642
 3191TIP3    H2 9580   1.328   3.133   0.553  0.8546 -1.9570  0.3520
 3192TIP3   OH2 9581   5.921   0.335   5.011  0.0161 -0.6443 -0.3249
 3192TIP3    H1 9582   5.893   0.400   5.076 -0.7631 -1.4986  0.2250
 3192TIP3    H2 9583   5.981   0.382   4.954  0.8972  0.0981  1.1459
 3193TIP3   OH2 9584   1.119   1.760   0.462 -0.4400 -0.4948  0.1310
 3193TIP3    H1 9585   1.033   1.768   0.420  0.0485 -0.9854 -0.9790
 3193TIP3    H2 9586   1.107   1.693   0.529 -0.8537 -0.7429 -0.1911
 3194TIP3   OH2 9587   3.968   4.240   1.050  0.3201 -0.5350 -0.1773
 3194TIP3    H1 9588   4.047   4.190   1.030 -0.1169 -0.5133 -2.1055
 3194TIP3    H2 9589   3.994   4.331   1.041  0.6168 -0.4204  1.4437
 3195TIP3   OH2 9590   6.307   3.761   2.379  0.2722  0.3870  0.4323
 3195TIP3    H1 9591   6.272   3.717   2.302 -0.3477 -0.4477  1.1752
 3195TIP3    H2 9592   6.235   3.818   2.408  0.2017  0.0843  0.8608
 3196TIP3   OH2 9593   2.476   1.000   2.343 -0.2835  0.6900 -0.1448
 3196TIP3    H1 9594   2.548   0.984   2.405 -1.5260  1.2909  1.5387
 3196TIP3    H2 9595   2.502   1.079   2.296  0.3030  0.7255  0.2242
 3197TIP3   OH2 9596   2.112   5.964   2.476 -0.8786 -1.0219  0.6120
 3197TIP3    H1 9597   2.187   5.917   2.512 -0.1573 -1.0039 -0.7913
 3197TIP3    H2 9598   2.058   5.896   2.436  0.9439 -0.7061 -2.8277
 3198TIP3   OH2 9599   3.053   4.372   5.136  0.1924 -0.2494 -0.1245
 3198TIP3    H1 9600   2.971   4.339   5.174  0.4955 -1.3704 -0.4153
 3198TIP3    H2 9601   3.030   4.393   5.045  0.2829 -0.7690 -0.2661
 3199TIP3   OH2 9602   4.175   4.532   4.907  0.3220  0.1947  0.1382
 3199TIP3    H1 9603   4.105   4.551   4.845 -1.6616  2.4590  2.7880
 3199TIP3    H2 9604   4.166   4.439   4.926  0.2689 -0.2918 -2.0341
 3200TIP3   OH2 9605   5.641   1.657   3.727  0.1693  0.6221 -0.0619
 3200TIP3    H1 9606   5.624   1.696   3.641 -0.7268  0.1954 -0.0976
 3200TIP3    H2 9607   5.715   1.705   3.762  0.2430  1.1149 -0.8812
 3201TIP3   OH2 9608   1.388   5.372   0.499  0.0792 -0.2878  0.3552
 3201TIP3    H1 9609   1.426   5.458   0.486 -3.0985  1.1794 -0.2843
 3201TIP3    H2 9610   1.371   5.367   0.593 -1.0543  0.4897  0.2202
 3202TIP3   OH2 9611   1.431   3.790   3.871 -0.2944 -0.6610  0.2838
 3202TIP3    H1 9612   1.354   3.755   3.826  1.4743  0.0909 -3.7429
 3202TIP3    H2 9613   1.405   3.877   3.900 -0.5500  0.4049 -2.8000
 3203TIP3   OH2 9614   0.407   4.103   1.690 -0.4022 -0.5420  0.2172
 3203TIP3    H1 9615   0.382   4.115   1.781 -1.8313  0.8722 -0.3112
 3203TIP3    H2 9616   0.483   4.160   1.678 -1.1121  0.4145  0.1798
 3204TIP3   OH2 9617   5.628   5.115   3.511 -0.7332 -0.4089 -0.4859
 3204TIP3    H1 9618   5.579   5.089   3.589  1.0877 -1.0086  0.5026
 3204TIP3    H2 9619   5.636   5.210   3.518 -0.2764 -0.4951  0.2567
 3205TIP3   OH2 9620   1.067   1.186   3.427 -0.2711  0.0043 -0.6201
 3205TIP3    H1 9621   1.003   1.197   3.356  1.5585 -0.0659 -2.3798
 3205TIP3    H2 9622   1.103   1.098   3.413 -0.1879 -0.1952  0.7121
 3206TIP3   OH2 9623   6.048   4.247   0.857 -0.2624  0.3391  0.0996
 3206TIP3    H1 9624   5.971   4.190   0.849 -1.2046  1.4836  0.7177
 3206TIP3    H2 9625   6.122   4.187   0.853 -1.1155 -0.6873 -1.7186
 3207TIP3   OH2 9626   3.437   4.291   0.790 -0.0738  0.3924 -0.1517
 3207TIP3    H1 9627   3.428   4.283   0.885  0.9092  0.7286 -0.0176
 3207TIP3    H2 9628   3.349   4.315   0.760 -0.2357  1.0100  0.7577
 3208TIP3   OH2 9629   1.191   5.919   4.959  0.3334 -0.3638  0.2128
 3208TIP3    H1 9630   1.212   6.010   4.981  0.1554 -0.8652  2.6431
 3208TIP3    H2 9631   1.158   5.924   4.869 -0.3082  2.0716  0.5132
 3209TIP3   OH2 9632   0.371   5.645   1.044  0.2447  0.1912 -0.2391
 3209TIP3    H1 9633   0.447   5.698   1.069 -0.0660  0.8837 -0.7212
 3209TIP3    H2 9634   0.385   5.561   1.089  1.7786 -0.0511 -1.0923
 3210TIP3   OH2 9635   0.476   2.869   3.443  0.0720  0.1871  0.5274
 3210TIP3    H1 9636   0.405   2.916   3.399  1.5277  0.4448 -1.6971
 3210TIP3    H2 9637   0.540   2.937   3.464 -0.5474  0.0795  3.2072
 3211TIP3   OH2 9638   5.650   4.740   4.817  0.1488 -0.2381 -0.2840
 3211TIP3    H1 9639   5.722   4.704   4.867 -0.3504 -0.0920  0.5664
 3211TIP3    H2 9640   5.628   4.822   4.863 -0.7332 -0.4261 -0.3510
 3212TIP3   OH2 9641   5.963   0.943   3.183  0.4509  0.5976 -0.0989
 3212TIP3    H1 9642   5.980   0.898   3.266 -1.5219  1.3809  0.8097
 3212TIP3    H2 9643   5.943   0.873   3.121  1.7203  0.0158  0.1101
 3213TIP3   OH2 9644   0.996   5.287   1.258  0.1437  0.3181  0.3192
 3213TIP3    H1 9645   0.990   5.285   1.353 -0.7179 -0.0109  0.2639
 3213TIP3    H2 9646   0.918   5.336   1.230 -1.3909 -2.3140 -0.3588
 3214TIP3   OH2 9647   1.871   2.428   4.890  0.5253 -0.3801 -0.0608
 3214TIP3    H1 9648   1.965   2.431   4.878  0.5803 -2.6057 -0.7137
 3214TIP3    H2 9649   1.834   2.453   4.806  0.4794  1.0821  0.3656
 3215TIP3   OH2 9650   3.283   4.776   1.861  0.6004  0.0306  0.0979
 3215TIP3    H1 9651   3.367   4.731   1.873  0.3206 -1.4236 -2.4450
 3215TIP3    H2 9652   3.231   4.715   1.809 -1.0134  2.0335 -0.7894
 3216TIP3   OH2 9653   5.908   2.757   0.478  0.2724 -0.5837 -0.5357
 3216TIP3    H1 9654   5.834   2.808   0.445  1.5069  0.0629 -2.5148
 3216TIP3    H2 9655   5.879   2.723   0.562 -2.2913 -0.4581 -1.3045
 3217TIP3   OH2 9656   4.556   3.303  -0.002 -0.1510 -0.0292  0.4488
 3217TIP3    H1 9657   4.528   3.287   0.088 -2.1113 -0.1184 -0.1212
 3217TIP3    H2 9658   4.474   3.313  -0.051  0.8297 -0.9926 -1.5102
 3218TIP3   OH2 9659   6.226   4.887   3.168 -0.1696 -0.0279 -0.1999
 3218TIP3    H1 9660   6.179   4.842   3.238  1.3808 -1.1451  0.1698
 3218TIP3    H2 9661   6.277   4.955   3.212 -0.5844  0.4551 -0.4629
 3219TIP3   OH2 9662   3.745   5.142   4.848  0.0436 -0.2408 -0.0345
 3219TIP3    H1 9663   3.674   5.163   4.787  0.9553  0.9072 -0.7386
 3219TIP3    H2 9664   3.701   5.128   4.932 -0.9950  0.7443 -0.3903
 3220TIP3   OH2 9665   2.247   0.295   3.163  0.2190 -0.4646  0.3673
 3220TIP3    H1 9666   2.164   0.332   3.195 -1.2672 -2.6138 -0.7603
 3220TIP3    H2 9667   2.296   0.275   3.243 -0.8116 -0.1648  1.0989
 3221TIP3   OH2 9668   2.667   4.569   1.019 -0.3656  0.0015  0.0454
 3221TIP3    H1 9669   2.687   4.546   0.929 -0.2467 -0.0932  0.0960
 3221TIP3    H2 9670   2.750   4.603   1.054 -0.4189  0.0656  0.1095
 3222TIP3   OH2 9671   3.147   1.447   2.060 -0.2064  0.5466  0.1049
 3222TIP3    H1 9672   3.114   1.484   2.141  1.4294  0.8363  0.6739
 3222TIP3    H2 9673   3.167   1.356   2.080 -0.6834  0.3608 -0.2420
 3223TIP3   OH2 9674   2.413   2.471   3.223  0.0572  0.1496  0.0790
 3223TIP3    H1 9675   2.478   2.406   3.199  0.9619  0.8855  0.4859
 3223TIP3    H2 9676   2.331   2.438   3.184  0.9027 -0.1158 -1.5763
 3224TIP3   OH2 9677   6.070   4.580   3.333 -0.3727 -0.1314 -0.2946
 3224TIP3    H1 9678   6.055   4.619   3.247 -0.1780 -0.1426 -0.3335
 3224TIP3    H2 9679   6.113   4.649   3.384 -0.5486 -0.1027 -0.1863
 3225TIP3   OH2 9680   2.935   4.509   4.401 -0.3089  0.3231 -0.0521
 3225TIP3    H1 9681   2.866   4.569   4.431  0.3635 -0.1592  2.7406
 3225TIP3    H2 9682   3.016   4.550   4.429  0.5561  0.3848 -2.4131
 3226TIP3   OH2 9683   2.467   1.652   1.799  0.0622  0.2934 -0.0071
 3226TIP3    H1 9684   2.489   1.648   1.892  0.5171 -0.3369 -0.1340
 3226TIP3    H2 9685   2.545   1.689   1.757 -1.0243  2.9807  0.1200
 3227TIP3   OH2 9686   5.205   1.975   2.204 -0.1652  0.0081  0.4069
 3227TIP3    H1 9687   5.155   1.931   2.273  0.6446 -3.8300 -1.2073
 3227TIP3    H2 9688   5.296   1.966   2.231  0.3074 -2.9997 -1.6626
 3228TIP3   OH2 9689   3.334   5.413   0.585  0.3587 -0.3442  0.1414
 3228TIP3    H1 9690   3.345   5.378   0.674 -2.5021  2.0847  1.6170
 3228TIP3    H2 9691   3.363   5.504   0.592  0.4833 -0.2375 -1.5456
 3229TIP3   OH2 9692   0.620   1.055   0.827 -0.3057 -0.3008 -0.0657
 3229TIP3    H1 9693   0.627   1.149   0.845  1.7605 -0.1973 -1.0750
 3229TIP3    H2 9694   0.710   1.028   0.808 -1.1524 -2.0447 -1.9278
 3230TIP3   OH2 9695   0.851   3.809   4.244 -0.4466 -0.5367  0.4968
 3230TIP3    H1 9696   0.911   3.848   4.307 -0.7571  0.2005  0.3467
 3230TIP3    H2 9697   0.851   3.870   4.170 -0.5245 -1.0978  0.0241
 3231TIP3   OH2 9698   3.877   2.235   2.966  0.1280  0.0231  0.1284
 3231TIP3    H1 9699   3.963   2.214   3.003 -0.5424 -1.1887  1.0514
 3231TIP3    H2 9700   3.827   2.269   3.040 -0.0084  1.3839 -0.5489
 3232TIP3   OH2 9701   2.700   0.264   1.211 -0.2678  0.2658 -0.3671
 3232TIP3    H1 9702   2.763   0.227   1.273  0.6029  0.6616 -0.9896
 3232TIP3    H2 9703   2.675   0.190   1.155 -1.6583 -0.2739  0.9131
 3233TIP3   OH2 9704   3.644   2.137   3.635  0.1476 -0.7443  0.1304
 3233TIP3    H1 9705   3.566   2.107   3.589  0.5084  0.3162 -1.2286
 3233TIP3    H2 9706   3.715   2.126   3.572  1.0751 -1.4890  1.2697
 3234TIP3   OH2 9707   4.853   0.010   2.169  0.5311 -0.4178 -0.1134
 3234TIP3    H1 9708   4.901   0.093   2.164  1.3939 -0.7999  1.1126
 3234TIP3    H2 9709   4.846  -0.007   2.263  2.0340 -2.6356 -0.3281
 3235TIP3   OH2 9710   4.045   0.655   4.837  0.1980 -0.4031  0.7502
 3235TIP3    H1 9711   4.072   0.745   4.853 -2.0452  0.3687  0.4657
 3235TIP3    H2 9712   4.031   0.650   4.743  1.3891 -1.4113  0.5964
 3236TIP3   OH2 9713   0.435   5.022   1.401 -0.6534 -0.1294  0.5374
 3236TIP3    H1 9714   0.486   5.029   1.320 -1.9807 -0.6705 -0.3794
 3236TIP3    H2 9715   0.489   4.967   1.458  0.3238  0.2928  0.0393
 3237TIP3   OH2 9716   0.835   3.012   0.788  0.4777  0.0903 -0.0279
 3237TIP3    H1 9717   0.773   2.958   0.838  0.1613 -0.0822 -0.5904
 3237TIP3    H2 9718   0.875   3.069   0.853 -0.2233  0.1514  0.3662
 3238TIP3   OH2 9719   1.025   3.265   3.711 -0.3688  0.3932  0.3864
 3238TIP3    H1 9720   1.091   3.245   3.644 -0.7391 -0.4129  0.2501
 3238TIP3    H2 9721   1.002   3.180   3.748 -2.3136  0.4862 -0.4999
 3239TIP3   OH2 9722   2.372   1.868   2.973 -0.1825  0.5669  0.1110
 3239TIP3    H1 9723   2.278   1.851   2.984 -0.2942  0.7063 -0.5906
 3239TIP3    H2 9724   2.414   1.821   3.045 -0.8108  0.6995  0.5698
 3240TIP3   OH2 9725   5.682   2.700   3.701  0.3249  0.1293  0.3378
 3240TIP3    H1 9726   5.675   2.608   3.726  1.0502 -0.0385 -0.0558
 3240TIP3    H2 9727   5.744   2.737   3.764 -0.0124  0.3657  0.5324
 3241TIP3   OH2 9728   1.272   0.101   1.879  0.0897 -0.2900  0.1083
 3241TIP3    H1 9729   1.303   0.098   1.970 -1.7023 -1.2857  0.7494
 3241TIP3    H2 9730   1.244   0.191   1.866  1.6220  0.2083  0.0470
 3242TIP3   OH2 9731   3.551   6.012   3.148  0.4456 -0.1192 -0.8907
 3242TIP3    H1 9732   3.625   5.957   3.172  0.0389  0.4777  2.2269
 3242TIP3    H2 9733   3.475   5.955   3.155  0.1772  0.3847  0.9006
 3243TIP3   OH2 9734   0.364   2.212   0.238 -0.2848 -0.3753  0.0101
 3243TIP3    H1 9735   0.270   2.195   0.245 -0.1417 -0.5270  2.1444
 3243TIP3    H2 9736   0.404   2.142   0.290  1.0325 -0.3650 -0.9505
 3244TIP3   OH2 9737   3.843   0.365   1.640 -0.2962  0.6326  0.4925
 3244TIP3    H1 9738   3.923   0.406   1.605  0.1391  0.8094  1.6608
 3244TIP3    H2 9739   3.778   0.435   1.637 -0.4805  0.4370 -0.6401
 3245TIP3   OH2 9740   1.385   3.694   4.131 -0.2502  0.1235 -0.4044
 3245TIP3    H1 9741   1.436   3.721   4.055 -2.3346  3.5337 -0.7800
 3245TIP3    H2 9742   1.303   3.661   4.095 -0.4857 -0.1174  0.3262
 3246TIP3   OH2 9743   1.974   2.885   2.514 -0.3104  0.6326 -0.1631
 3246TIP3    H1 9744   1.912   2.855   2.580 -2.2749  1.3690 -1.5990
 3246TIP3    H2 9745   1.998   2.973   2.542  2.1186 -0.4952  1.7159
 3247TIP3   OH2 9746   3.467   1.738   2.164 -0.4500 -0.2369  0.3557
 3247TIP3    H1 9747   3.445   1.770   2.076  3.7825  0.7943 -0.5922
 3247TIP3    H2 9748   3.493   1.647   2.150 -2.1963 -0.8775  1.0826
 3248TIP3   OH2 9749   0.118   1.968   1.131  0.5742  0.0792 -0.5149
 3248TIP3    H1 9750   0.065   2.001   1.058  0.8161  0.0458 -0.7059
 3248TIP3    H2 9751   0.202   2.011   1.121  0.3724  0.6629  0.1890
 3249TIP3   OH2 9752   2.763   3.161   3.208 -0.0494 -0.2497  0.3430
 3249TIP3    H1 9753   2.721   3.079   3.182  0.7572 -0.3424 -0.7143
 3249TIP3    H2 9754   2.854   3.138   3.225 -0.0346  0.2576  1.0140
 3250TIP3   OH2 9755   3.294   1.596   2.928 -0.7174  0.5330 -0.9875
 3250TIP3    H1 9756   3.384   1.625   2.940 -0.8630  0.2405  1.4123
 3250TIP3    H2 9757   3.242   1.676   2.932 -0.6380  0.5936 -1.1836
 3251TIP3   OH2 9758   1.970   3.237   4.269  0.0144 -0.4101  0.2173
 3251TIP3    H1 9759   1.949   3.195   4.353 -0.4859  0.0386  0.3241
 3251TIP3    H2 9760   2.009   3.321   4.293 -2.0890  0.6902  0.0406
 3252TIP3   OH2 9761   6.113   2.392   3.235  0.2364  0.1511  1.2711
 3252TIP3    H1 9762   6.167   2.328   3.189  0.7030 -0.5438  2.7435
 3252TIP3    H2 9763   6.036   2.343   3.263 -0.4915  0.7918  0.4678
 3253TIP3   OH2 9764   4.259   5.729   0.690  0.1032 -0.4430  0.0511
 3253TIP3    H1 9765   4.341   5.698   0.650  1.0681  0.1985  1.4234
 3253TIP3    H2 9766   4.258   5.822   0.672  0.3040 -0.2334  1.0415
 3254TIP3   OH2 9767   1.354   1.366   4.928 -0.0746  0.3656 -0.3834
 3254TIP3    H1 9768   1.302   1.308   4.872  1.2017 -0.7007 -0.4994
 3254TIP3    H2 9769   1.334   1.338   5.017  0.1486  0.0947 -0.4194
 3255TIP3   OH2 9770   0.706   4.792   2.409 -0.5324 -0.3593  0.5450
 3255TIP3    H1 9771   0.787   4.753   2.442 -1.2500 -1.0732  1.5355
 3255TIP3    H2 9772   0.637   4.735   2.443 -1.4020 -0.4230 -1.2354
 3256TIP3   OH2 9773   4.169   0.915   4.913  0.3103 -0.3931 -0.2595
 3256TIP3    H1 9774   4.185   1.001   4.875  1.1954 -0.6129 -0.3993
 3256TIP3    H2 9775   4.206   0.920   5.001 -0.2241 -0.4210 -0.0328
 3257TIP3   OH2 9776   4.701   0.591   0.544 -0.4206  0.1852  0.1633
 3257TIP3    H1 9777   4.613   0.575   0.512 -0.5751 -1.7203  1.3602
 3257TIP3    H2 9778   4.740   0.504   0.553  1.4458  0.9528  0.0726
 3258TIP3   OH2 9779   4.129   2.523   0.805 -0.7276 -0.3204  0.1204
 3258TIP3    H1 9780   4.105   2.609   0.838 -0.9598 -0.0330 -0.7638
 3258TIP3    H2 9781   4.082   2.461   0.861  1.2334 -0.0068  2.2801
 3259TIP3   OH2 9782   1.068   0.076   4.211 -0.0043  0.3180 -0.1064
 3259TIP3    H1 9783   1.156   0.100   4.241 -0.2019  0.2160  0.5829
 3259TIP3    H2 9784   1.066  -0.020   4.218 -0.9777  0.4384  2.3247
 3260TIP3   OH2 9785   0.432   5.421   1.209  0.3266 -0.1024  0.0766
 3260TIP3    H1 9786   0.391   5.335   1.217  1.1276 -0.4275  0.8203
 3260TIP3    H2 9787   0.424   5.460   1.296 -3.1287  2.0667 -1.0192
 3261TIP3   OH2 9788   1.659   1.785   3.672  0.0707  0.6747  0.2338
 3261TIP3    H1 9789   1.726   1.751   3.612 -1.3979 -1.9555 -0.0996
 3261TIP3    H2 9790   1.630   1.708   3.721 -3.3310  1.4621 -0.3035
 3262TIP3   OH2 9791   4.506   1.700   2.299  0.0867  0.7953  0.0307
 3262TIP3    H1 9792   4.478   1.650   2.222 -0.7386  0.2893  0.6430
 3262TIP3    H2 9793   4.430   1.697   2.358  1.0539  0.3126  1.2900
 3263TIP3   OH2 9794   1.750   0.607   1.539  0.0115 -0.0308 -0.7734
 3263TIP3    H1 9795   1.820   0.672   1.526  0.3887  0.0427  1.3485
 3263TIP3    H2 9796   1.780   0.554   1.613 -1.6148 -0.8256 -0.6522
 3264TIP3   OH2 9797   0.706   5.172   4.950 -0.2012  0.0076 -0.2687
 3264TIP3    H1 9798   0.649   5.246   4.931 -0.4415 -0.2140 -0.4188
 3264TIP3    H2 9799   0.725   5.134   4.864 -0.0805 -0.1066 -0.1921
 3265TIP3   OH2 9800   3.886   0.331   4.016  0.1385  0.3165  0.7323
 3265TIP3    H1 9801   3.802   0.346   4.059 -0.1378  0.5820  0.1056
 3265TIP3    H2 9802   3.864   0.291   3.932  0.7235 -1.1165  1.2227
 3266TIP3   OH2 9803   1.046   4.001   1.474 -0.4491  0.5151  0.6786
 3266TIP3    H1 9804   1.094   3.922   1.450  1.0605  1.3146  0.9187
 3266TIP3    H2 9805   1.104   4.073   1.447 -1.5685  1.5265  0.9043
 3267TIP3   OH2 9806   1.784   3.424   3.893  0.0169  0.1547  0.6481
 3267TIP3    H1 9807   1.849   3.367   3.850 -0.3204  0.4435 -0.2818
 3267TIP3    H2 9808   1.747   3.371   3.963  1.9631  0.3123  1.8632
 3268TIP3   OH2 9809   0.213   1.915   4.220  0.2755 -0.1623  0.1213
 3268TIP3    H1 9810   0.170   1.915   4.135 -0.3033 -0.1018  0.4044
 3268TIP3    H2 9811   0.140   1.918   4.283  0.6108 -2.0704  0.6604
 3269TIP3   OH2 9812   5.167   4.740   1.457  0.2405 -0.0866  0.0455
 3269TIP3    H1 9813   5.253   4.709   1.486  0.0340  1.7039  3.0402
 3269TIP3    H2 9814   5.110   4.728   1.533 -1.9831 -0.4476 -1.5898
 3270TIP3   OH2 9815   1.806   3.770   4.281 -0.0183 -0.6382 -0.1808
 3270TIP3    H1 9816   1.713   3.763   4.305  0.5472  0.0513  2.5929
 3270TIP3    H2 9817   1.809   3.842   4.218 -1.3206 -0.2581  0.1473
 3271TIP3   OH2 9818   4.631   4.249   2.874  0.2174  0.0015 -0.2424
 3271TIP3    H1 9819   4.639   4.157   2.852  0.0075 -0.1380  0.2529
 3271TIP3    H2 9820   4.570   4.284   2.809  2.8151  0.5700 -2.5724
 3272TIP3   OH2 9821   1.732   2.355   4.663 -0.0958  0.7085  0.0361
 3272TIP3    H1 9822   1.718   2.365   4.569 -1.3859 -0.7977  0.0265
 3272TIP3    H2 9823   1.807   2.296   4.670 -0.3767  0.3348 -0.0649
 3273TIP3   OH2 9824   0.995   1.252   0.725 -0.4455 -0.1074 -0.0248
 3273TIP3    H1 9825   0.962   1.285   0.641  2.1262  0.8454 -0.7746
 3273TIP3    H2 9826   0.969   1.318   0.789  1.5761  1.7167 -0.9416
 3274TIP3   OH2 9827   1.527   1.997   0.324  0.4520 -0.1779 -0.2356
 3274TIP3    H1 9828   1.509   1.930   0.391  0.7010 -0.3232 -0.3131
 3274TIP3    H2 9829   1.550   1.946   0.246 -0.7748 -0.0364 -0.7109
 3275TIP3   OH2 9830   6.048   3.551   3.437  0.6309 -0.0879  0.2515
 3275TIP3    H1 9831   5.996   3.568   3.515 -0.2304 -0.3426 -0.2503
 3275TIP3    H2 9832   6.036   3.629   3.383  1.7932  0.3946  0.6599
 3276TIP3   OH2 9833   2.058   4.060   2.902 -0.4528  0.0819  0.4394
 3276TIP3    H1 9834   2.146   4.081   2.936 -0.3593  1.9803 -0.8088
 3276TIP3    H2 9835   2.073   3.991   2.838  0.0726  0.0135  0.6268
 3277TIP3   OH2 9836   6.079   1.995   2.084  0.1508 -0.0106  0.0896
 3277TIP3    H1 9837   5.986   2.015   2.071  0.2488 -0.8784 -2.4752
 3277TIP3    H2 9838   6.122   2.036   2.009  1.7862 -0.1969  0.8883
 3278TIP3   OH2 9839   0.525   3.379   0.134 -0.0111 -0.3387  0.9637
 3278TIP3    H1 9840   0.526   3.400   0.040 -2.1558  1.7074  1.2999
 3278TIP3    H2 9841   0.616   3.391   0.162  0.4482  0.1601 -0.6357
 3279TIP3   OH2 9842   2.981   0.280   3.700 -0.3091  0.0184  0.0625
 3279TIP3    H1 9843   3.047   0.219   3.668 -0.9219 -0.8545  0.4068
 3279TIP3    H2 9844   2.943   0.319   3.621 -0.6602 -0.8665 -0.2121
 3280TIP3   OH2 9845   5.341   2.433   3.824 -0.3144  0.2461 -0.1019
 3280TIP3    H1 9846   5.360   2.480   3.905  0.8915  0.0520 -0.2522
 3280TIP3    H2 9847   5.375   2.490   3.755  2.1991 -1.2622 -0.2355
 3281TIP3   OH2 9848   3.461   2.143   3.444  0.5985 -0.4696  0.4726
 3281TIP3    H1 9849   3.518   2.108   3.376  0.6651 -0.2920  0.4372
 3281TIP3    H2 9850   3.373   2.137   3.407  0.6284 -0.4267  0.3943
 3282TIP3   OH2 9851   0.374   5.705   2.576 -0.2518  0.4914  0.1733
 3282TIP3    H1 9852   0.285   5.740   2.583 -0.6820 -0.4328 -0.4767
 3282TIP3    H2 9853   0.387   5.656   2.657 -0.3934  0.4935  0.1969
 3283TIP3   OH2 9854   4.031   3.142   1.634 -0.2032 -0.1817  0.2337
 3283TIP3    H1 9855   4.057   3.196   1.708  1.3788  0.5340 -0.7859
 3283TIP3    H2 9856   4.062   3.054   1.655  2.6895  0.5193 -0.6564
 3284TIP3   OH2 9857   4.395   0.069   1.455 -0.7292 -0.4526 -0.0301
 3284TIP3    H1 9858   4.314   0.114   1.479 -0.7646  0.0152 -0.9737
 3284TIP3    H2 9859   4.441   0.132   1.399  0.5555 -0.4805  0.9501
 3285TIP3   OH2 9860   6.273   4.861   3.884 -0.2942  0.1480  0.1093
 3285TIP3    H1 9861   6.359   4.893   3.912  0.2110 -0.3362 -0.8232
 3285TIP3    H2 9862   6.226   4.844   3.966  1.1701 -1.3698  0.6960
 3286TIP3   OH2 9863   5.599   1.951   2.951  0.2951  0.3134  0.2577
 3286TIP3    H1 9864   5.596   2.046   2.948 -0.9732  0.3292  1.4810
 3286TIP3    H2 9865   5.693   1.930   2.948  0.9172  1.7944  4.2588
 3287TIP3   OH2 9866   1.697   0.797   1.143 -0.0077  0.2895 -0.1259
 3287TIP3    H1 9867   1.793   0.794   1.146 -0.0094 -0.0305 -0.3628
 3287TIP3    H2 9868   1.669   0.722   1.196 -0.1416  0.8458  0.6197
 3288TIP3   OH2 9869   3.244   2.657   5.084  0.8869  0.2380 -0.1304
 3288TIP3    H1 9870   3.184   2.713   5.132 -0.5072 -1.2548 -0.0791
 3288TIP3    H2 9871   3.329   2.670   5.127  0.1855  0.8159  1.1248
 3289TIP3   OH2 9872   1.140   5.084   0.456  0.7698 -0.2192 -0.4458
 3289TIP3    H1 9873   1.109   4.998   0.427  1.3661 -0.1162 -1.4106
 3289TIP3    H2 9874   1.233   5.072   0.474  0.2115 -0.6078  2.7887
 3290TIP3   OH2 9875   0.781   4.011   0.393  0.6950  0.0423  0.6832
 3290TIP3    H1 9876   0.763   3.954   0.469  2.1607 -0.9695  0.3197
 3290TIP3    H2 9877   0.807   4.094   0.432 -0.9317  0.3301  1.2359
 3291TIP3   OH2 9878   0.236   2.238   5.143  0.6050  0.7215  0.4081
 3291TIP3    H1 9879   0.294   2.262   5.215 -0.7134  0.8820  1.4575
 3291TIP3    H2 9880   0.250   2.306   5.078  0.8438  1.3468  1.0970
 3292TIP3   OH2 9881   5.126   5.926   0.965 -0.2729  0.7205  0.2351
 3292TIP3    H1 9882   5.069   5.931   0.888 -0.8418  1.3971  0.6836
 3292TIP3    H2 9883   5.097   5.849   1.013 -0.5213  0.8135  0.2339
 3293TIP3   OH2 9884   4.834   5.737   4.863 -0.1761  0.2596 -0.3613
 3293TIP3    H1 9885   4.777   5.674   4.819  0.2803 -0.3025 -0.1604
 3293TIP3    H2 9886   4.901   5.683   4.905  0.6484  0.9176 -0.8058
 3294TIP3   OH2 9887   0.883   4.722   4.219 -0.0150 -0.1317  0.1033
 3294TIP3    H1 9888   0.910   4.809   4.248  1.9212 -0.3518 -0.8502
 3294TIP3    H2 9889   0.952   4.664   4.250 -1.1980 -1.3292  0.5955
 3295TIP3   OH2 9890   4.326   1.302   2.529  0.2433 -0.1851 -0.0158
 3295TIP3    H1 9891   4.261   1.305   2.459  0.2637  1.2789 -0.0083
 3295TIP3    H2 9892   4.295   1.366   2.593  0.8599 -0.6322  0.7388
 3296TIP3   OH2 9893   5.839   0.558   2.354 -0.4756  0.1575  0.0043
 3296TIP3    H1 9894   5.804   0.494   2.292  0.7847 -2.1600  1.5648
 3296TIP3    H2 9895   5.782   0.635   2.343 -2.6731 -1.5289 -1.2872
 3297TIP3   OH2 9896   2.036   4.616   2.279  0.2225  0.1207  0.5665
 3297TIP3    H1 9897   1.947   4.586   2.294  0.1645 -1.2436 -1.8675
 3297TIP3    H2 9898   2.091   4.549   2.319  0.0697 -1.8443 -2.1974
 3298TIP3   OH2 9899   1.558   1.079   4.854  0.1801  0.3905 -0.0232
 3298TIP3    H1 9900   1.585   1.142   4.921 -0.7147  0.3989  0.3442
 3298TIP3    H2 9901   1.559   1.127   4.772  0.3503  0.6411  0.1261
 3299TIP3   OH2 9902   0.532   2.802   3.884  0.0609 -0.0432 -0.4583
 3299TIP3    H1 9903   0.528   2.735   3.953  0.4364  1.0318  0.6416
 3299TIP3    H2 9904   0.511   2.755   3.804  0.9750 -1.6226  0.1838
 3300TIP3   OH2 9905   1.720   2.185   5.006  0.3036  0.1341  0.3013
 3300TIP3    H1 9906   1.771   2.251   4.959 -0.1056 -0.4670 -1.0375
 3300TIP3    H2 9907   1.646   2.234   5.043 -0.2900  0.3934 -1.1302
 3301TIP3   OH2 9908   1.247   5.469   5.085 -0.0117  0.2219  0.1795
 3301TIP3    H1 9909   1.214   5.493   5.171 -1.6512 -0.7994 -0.1325
 3301TIP3    H2 9910   1.177   5.492   5.024  0.9383  0.5094 -0.8453
 3302TIP3   OH2 9911   3.718   0.925   4.234 -0.1491  0.2345 -0.3272
 3302TIP3    H1 9912   3.809   0.924   4.205  0.4371  1.8115  1.2637
 3302TIP3    H2 9913   3.718   0.979   4.313 -3.0190  3.2428 -2.1182
 3303TIP3   OH2 9914   6.256   1.483   0.291  0.1626  0.5402 -0.2917
 3303TIP3    H1 9915   6.195   1.410   0.290  1.7409 -0.8568 -1.6440
 3303TIP3    H2 9916   6.279   1.494   0.383  0.0375 -0.8150 -0.0827
 3304TIP3   OH2 9917   2.371   2.861   1.402  0.1277 -0.6604 -0.3019
 3304TIP3    H1 9918   2.416   2.815   1.331  0.5123  1.1364 -1.2830
 3304TIP3    H2 9919   2.420   2.838   1.480  1.0438 -0.9859 -0.9492
 3305TIP3   OH2 9920   5.956   3.433   3.985 -0.2328 -0.3261 -0.1780
 3305TIP3    H1 9921   5.930   3.355   3.936 -4.0232  1.0392 -0.6901
 3305TIP3    H2 9922   6.039   3.460   3.945 -0.4098 -2.3228 -2.0686
 3306TIP3   OH2 9923   5.683   4.238   0.404 -0.5369  0.3473 -0.3323
 3306TIP3    H1 9924   5.595   4.260   0.374 -0.7652 -0.2219 -0.0804
 3306TIP3    H2 9925   5.694   4.146   0.382 -0.6246 -0.0314  1.1250
 3307TIP3   OH2 9926   4.099   4.322   3.802 -0.3436  0.6304  0.6637
 3307TIP3    H1 9927   4.018   4.335   3.752  0.7645 -2.4008 -2.2246
 3307TIP3    H2 9928   4.080   4.246   3.858  0.2212  0.5173  0.7010
 3308TIP3   OH2 9929   6.104   4.889   3.405 -0.1326 -0.5003 -0.6905
 3308TIP3    H1 9930   6.027   4.919   3.455 -0.4643  0.3257 -1.6739
 3308TIP3    H2 9931   6.163   4.853   3.472 -1.2733 -0.9594  0.1080
 3309TIP3   OH2 9932   0.342   1.977   3.147 -0.6870 -0.0548 -0.4950
 3309TIP3    H1 9933   0.362   2.061   3.106  1.7130  0.0151  0.6364
 3309TIP3    H2 9934   0.367   1.912   3.081 -1.3293  0.0780 -0.8817
 3310TIP3   OH2 9935   0.983   0.926   0.134 -0.0365 -0.1463 -0.1746
 3310TIP3    H1 9936   0.935   0.967   0.206 -0.0788  0.2947 -0.4537
 3310TIP3    H2 9937   0.958   0.976   0.056 -0.6369 -1.1257 -0.6393
 3311TIP3   OH2 9938   5.264   5.187   3.116  0.4183 -0.0331 -0.3063
 3311TIP3    H1 9939   5.207   5.242   3.061 -1.2731 -0.8921  0.4937
 3311TIP3    H2 9940   5.350   5.228   3.110 -0.8555  3.1015  0.7434
 3312TIP3   OH2 9941   2.846   5.133   3.768  0.1206 -0.3013 -0.2752
 3312TIP3    H1 9942   2.835   5.193   3.694  3.3552  0.4687 -0.2875
 3312TIP3    H2 9943   2.848   5.046   3.728  1.8002  0.1023 -1.1495
 3313TIP3   OH2 9944   2.502   0.439   4.401  0.2060  0.2121  0.1129
 3313TIP3    H1 9945   2.580   0.463   4.452  0.3458  0.3838 -0.1830
 3313TIP3    H2 9946   2.444   0.514   4.410 -0.1041 -0.0890  0.6840
 3314TIP3   OH2 9947   5.429   3.546   0.319 -0.1055 -0.4514  1.3860
 3314TIP3    H1 9948   5.395   3.590   0.241  1.2754 -0.5746  0.6788
 3314TIP3    H2 9949   5.493   3.483   0.284 -0.4121 -1.4344  2.5308
 3315TIP3   OH2 9950   1.942   1.559   5.113 -0.1678  0.3679 -0.6346
 3315TIP3    H1 9951   1.975   1.577   5.026  0.1249  0.5856 -0.4784
 3315TIP3    H2 9952   1.848   1.542   5.100 -0.1560  0.5572 -0.9687
 3316TIP3   OH2 9953   3.730   1.305   1.043 -0.2450 -0.3902 -0.1003
 3316TIP3    H1 9954   3.783   1.285   1.120 -0.4257 -2.3632 -0.4225
 3316TIP3    H2 9955   3.661   1.239   1.044 -1.0437  0.3833 -1.2251
 3317TIP3   OH2 9956   5.984   5.736   1.408  0.4602  0.2094  0.5950
 3317TIP3    H1 9957   5.912   5.719   1.348  0.5517  0.9545  0.2698
 3317TIP3    H2 9958   5.952   5.705   1.493 -0.1395  0.2959  0.4031
 3318TIP3   OH2 9959   1.774   5.553   3.938  0.4759 -0.2850  0.5012
 3318TIP3    H1 9960   1.799   5.528   3.849  2.1872  1.1729  0.5328
 3318TIP3    H2 9961   1.687   5.513   3.950 -0.6076  0.9285 -2.4282
 3319TIP3   OH2 9962   2.259   1.837   0.205 -0.4501  0.4122  0.5799
 3319TIP3    H1 9963   2.203   1.837   0.282  1.2745  0.6798  1.9131
 3319TIP3    H2 9964   2.335   1.890   0.231  1.5496 -1.8689 -0.2123
 3320TIP3   OH2 9965   4.442   4.231   0.473  0.6616 -0.2300  0.0240
 3320TIP3    H1 9966   4.362   4.214   0.522  0.7150 -0.4336  0.0423
 3320TIP3    H2 9967   4.472   4.316   0.505 -1.5363  1.7470 -2.6464
 3321TIP3   OH2 9968   4.217   0.260   2.969 -0.4816 -0.3024  0.8059
 3321TIP3    H1 9969   4.279   0.187   2.962  1.6014  1.4912 -0.8119
 3321TIP3    H2 9970   4.162   0.252   2.891  2.1910  1.8156 -1.4977
 3322TIP3   OH2 9971   4.952   0.287   0.887 -0.1375  0.6218 -0.0473
 3322TIP3    H1 9972   5.025   0.226   0.887 -0.2529  0.4825  0.1781
 3322TIP3    H2 9973   4.952   0.324   0.975 -0.5466  0.3678  0.0619
 3323TIP3   OH2 9974   0.300   5.154   3.749 -0.1423 -0.3724  0.2510
 3323TIP3    H1 9975   0.386   5.155   3.791  0.7165  1.0017 -1.4283
 3323TIP3    H2 9976   0.257   5.233   3.780 -0.1313 -0.1790 -0.2233
 3324TIP3   OH2 9977   0.715   4.442   4.347  0.0365 -0.0595 -0.0106
 3324TIP3    H1 9978   0.807   4.457   4.325 -0.0539  0.6413  0.0603
 3324TIP3    H2 9979   0.703   4.486   4.432 -0.3392 -0.2381  0.0327
 3325TIP3   OH2 9980   0.340   2.286   1.724  0.3102  0.3611 -0.4662
 3325TIP3    H1 9981   0.277   2.218   1.700  0.5879 -1.2034  2.7123
 3325TIP3    H2 9982   0.423   2.255   1.690  0.1248  0.0294 -0.6207
 3326TIP3   OH2 9983   3.950   1.246   0.280  0.2911  0.5929 -0.4719
 3326TIP3    H1 9984   3.971   1.183   0.211  0.3635 -0.9593  0.9323
 3326TIP3    H2 9985   3.864   1.279   0.256  0.5250  0.4682 -1.5649
 3327TIP3   OH2 9986   2.208   0.935   2.273 -0.4444  0.0998 -0.4628
 3327TIP3    H1 9987   2.291   0.968   2.309 -0.0324 -0.9041 -0.4663
 3327TIP3    H2 9988   2.218   0.946   2.178 -0.8601  1.1958 -0.3968
 3328TIP3   OH2 9989   2.943   1.047   3.308 -0.1581  0.4037 -0.2824
 3328TIP3    H1 9990   2.999   0.989   3.360 -2.1920 -0.2691  1.2679
 3328TIP3    H2 9991   2.911   0.992   3.237  0.0525  0.4153 -0.3890
 3329TIP3   OH2 9992   0.047   0.247   2.497 -0.1056  0.4534 -0.1921
 3329TIP3    H1 9993  -0.030   0.265   2.443 -1.7645 -1.3144  1.4541
 3329TIP3    H2 9994   0.044   0.311   2.567  0.4575  0.9419 -0.5996
 3330TIP3   OH2 9995   4.155   1.282   4.684  0.0478 -0.6694  0.9728
 3330TIP3    H1 9996   4.166   1.190   4.660 -1.3803 -0.7061  0.3850
 3330TIP3    H2 9997   4.103   1.280   4.764  1.0220 -0.3915  1.6298
 3331TIP3   OH2 9998   3.441   1.127   4.981 -0.4614  0.0258 -0.1568
 3331TIP3    H1 9999   3.399   1.191   4.924  0.3869  0.9547  0.2423
 3331TIP3    H210000   3.368   1.080   5.022 -1.2302 -2.6062 -3.9728
 3332TIP3   OH210001   4.975   0.993   0.567  0.6245  0.0429 -0.0019
 3332TIP3    H110002   4.888   1.030   0.581  0.2201 -1.0102  0.3302
 3332TIP3    H210003   4.959   0.904   0.537  1.5673  0.4605 -1.9160
 3333TIP3   OH210004   2.057   3.277   3.035  0.4241 -0.1745  0.0623
 3333TIP3    H110005   1.995   3.223   2.987 -1.5098  1.5524  0.4635
 3333TIP3    H210006   2.122   3.303   2.970 -0.8857  0.2948 -1.1078
 3334TIP3   OH210007   2.966   4.982   2.884  0.3011  0.7951 -0.1378
 3334TIP3    H110008   2.897   5.018   2.939  0.7674  1.6332 -0.0919
 3334TIP3    H210009   3.007   5.058   2.843  1.2959  0.3274 -0.0458
 3335TIP3   OH210010   4.446   0.546   0.279 -0.0625 -0.0277  0.0082
 3335TIP3    H110011   4.509   0.489   0.234 -1.5865 -1.8455  0.0687
 3335TIP3    H210012   4.425   0.614   0.215  0.0128 -0.9008 -0.9640
 3336TIP3   OH210013   1.339   0.784   4.105 -0.6731  0.0425 -0.7833
 3336TIP3    H110014   1.392   0.719   4.151 -0.4202  0.3475 -0.6361
 3336TIP3    H210015   1.395   0.813   4.032  0.2366  1.8766  0.5551
 3337TIP3   OH210016   4.036   1.012   2.902  0.4418  0.1295 -0.4317
 3337TIP3    H110017   4.042   0.997   2.807 -0.5215 -0.6534 -0.3882
 3337TIP3    H210018   3.942   1.008   2.920  0.6919 -0.9512  0.7413
 3338TIP3   OH210019   4.591   0.254   4.579  0.6120  0.0607 -0.1408
 3338TIP3    H110020   4.592   0.309   4.658 -0.8227  1.2760 -0.9158
 3338TIP3    H210021   4.526   0.187   4.598  0.7459 -0.0404 -0.0389
 3339TIP3   OH210022   4.265   1.690   2.982  0.4492  0.2209 -0.0945
 3339TIP3    H110023   4.292   1.754   2.916  1.0914 -1.1138 -1.1667
 3339TIP3    H210024   4.171   1.702   2.991 -0.1183 -1.2631 -3.1524
 3340TIP3   OH210025   3.216   3.269   3.625  0.5676  0.3527 -0.0106
 3340TIP3    H110026   3.268   3.305   3.554  2.2241 -0.1511  0.8960
 3340TIP3    H210027   3.216   3.175   3.609  0.5970  0.2772  0.4221
 3341TIP3   OH210028   2.533   2.707   4.793  0.1082 -0.4263  0.1111
 3341TIP3    H110029   2.500   2.796   4.803 -0.5193 -0.6665  0.1815
 3341TIP3    H210030   2.465   2.661   4.744  0.9247 -0.5787 -0.9121
 3342TIP3   OH210031   1.001   2.336   2.498  0.2076  0.0316  0.2253
 3342TIP3    H110032   1.077   2.284   2.471  0.8148  0.8246  0.3758
 3342TIP3    H210033   0.981   2.390   2.422 -0.0334  0.0317  0.2875
 3343TIP3   OH210034   1.204   2.687   4.232 -0.4328 -0.2019  0.1928
 3343TIP3    H110035   1.299   2.695   4.242 -0.6417  1.6914  1.0227
 3343TIP3    H210036   1.173   2.661   4.319 -0.7517 -0.0588  0.1221
 3344TIP3   OH210037   4.062   4.273   4.996 -0.0047  0.7529  0.6762
 3344TIP3    H110038   3.972   4.304   5.000 -0.0557  0.6458  0.3955
 3344TIP3    H210039   4.058   4.194   4.941  0.0993  0.1738  1.4909
 3345TIP3   OH210040   1.295   4.605   4.668 -0.0714 -0.4104  0.2339
 3345TIP3    H110041   1.380   4.580   4.703  0.7086  0.8497 -0.6587
 3345TIP3    H210042   1.283   4.696   4.697 -1.4964 -0.8261  1.0289
 3346TIP3   OH210043   5.584   3.354   0.201 -0.7812  0.7128  0.1831
 3346TIP3    H110044   5.648   3.295   0.239  0.2605  1.8079  0.1670
 3346TIP3    H210045   5.505   3.300   0.191  0.6716 -1.2498 -1.6344
 3347TIP3   OH210046   4.810   5.506   1.847  0.2217  0.4265  0.0569
 3347TIP3    H110047   4.834   5.543   1.932  2.5562 -1.2825  0.2339
 3347TIP3    H210048   4.890   5.513   1.794 -0.1600 -1.4833 -0.8792
 3348TIP3   OH210049   1.709   3.233   2.987  0.2821  0.1840  0.8501
 3348TIP3    H110050   1.690   3.253   3.079 -2.0642  2.4523 -0.0395
 3348TIP3    H210051   1.730   3.317   2.947  1.9615 -0.8467 -0.6407
 3349TIP3   OH210052   1.691   2.314   0.045  0.2006  0.1625 -0.1459
 3349TIP3    H110053   1.737   2.309  -0.039  0.4259  0.3106 -0.0320
 3349TIP3    H210054   1.740   2.379   0.095  0.4593 -0.4081  0.3469
 3350TIP3   OH210055   1.848   4.940   3.974  0.3540 -0.1254  0.5155
 3350TIP3    H110056   1.776   5.002   3.962 -0.5465 -0.5707  3.1253
 3350TIP3    H210057   1.882   4.927   3.885 -1.6429  1.4182 -0.5807
 3351TIP3   OH210058   3.835   3.890   4.753 -0.0342 -0.0154 -0.0914
 3351TIP3    H110059   3.828   3.811   4.700 -0.0395 -0.1467  0.1043
 3351TIP3    H210060   3.802   3.960   4.697  0.2816 -0.0974 -0.3873
 3352TIP3   OH210061   0.622   2.967   3.695 -0.0660 -0.3597  0.5849
 3352TIP3    H110062   0.607   2.905   3.766  0.1589 -0.7070  0.3349
 3352TIP3    H210063   0.542   3.019   3.691 -0.6535 -1.2747  0.1670
 3353TIP3   OH210064   3.916   5.739   1.577  0.3844  0.6962  0.3487
 3353TIP3    H110065   3.949   5.701   1.496 -0.0681  0.7087  0.1509
 3353TIP3    H210066   3.983   5.721   1.642  0.9229  1.0076 -0.1113
 3354TIP3   OH210067   0.685   1.919   1.591 -0.3039  0.1185  0.2138
 3354TIP3    H110068   0.776   1.887   1.590  0.2990  1.7566 -0.5440
 3354TIP3    H210069   0.686   1.992   1.653 -1.0383  0.3333 -0.0217
 3355TIP3   OH210070   0.463   4.908   4.173  0.3711 -0.2131  0.1777
 3355TIP3    H110071   0.537   4.968   4.163 -1.1731  1.8922  0.6647
 3355TIP3    H210072   0.503   4.825   4.200  2.4482  1.3016  2.1699
 3356TIP3   OH210073   3.538   0.814   1.551  0.1707 -0.0985 -0.4560
 3356TIP3    H110074   3.536   0.904   1.585  1.1249 -0.2214 -0.0515
 3356TIP3    H210075   3.546   0.826   1.456  1.0911  0.2585 -0.3456
 3357TIP3   OH210076   0.485   2.703   2.770  0.0596 -0.7454 -0.1036
 3357TIP3    H110077   0.464   2.785   2.726  0.2397  0.7386  2.3548
 3357TIP3    H210078   0.413   2.644   2.748 -0.7750  0.5203 -0.8699
 3358TIP3   OH210079   4.081   0.228   2.132  0.1769 -0.0472 -0.2964
 3358TIP3    H110080   4.167   0.265   2.113  0.1750  0.2891  0.3240
 3358TIP3    H210081   4.030   0.243   2.052 -0.0047  1.8271  0.1391
 3359TIP3   OH210082   4.307   0.840   1.774  0.1918 -0.1911  0.9419
 3359TIP3    H110083   4.374   0.781   1.740  1.5149  1.4087  0.6370
 3359TIP3    H210084   4.351   0.886   1.846 -0.3677  1.3026  0.3551
 3360TIP3   OH210085   0.922   5.922   4.386 -0.0961  0.7770 -0.4228
 3360TIP3    H110086   0.873   5.888   4.311  0.4646  0.5697 -0.7038
 3360TIP3    H210087   1.002   5.869   4.387 -0.8882 -0.4829  1.4194
 3361TIP3   OH210088   1.914   5.967   3.129 -0.1568 -0.1173  0.3213
 3361TIP3    H110089   1.868   6.038   3.084  0.7677 -0.4864 -1.2851
 3361TIP3    H210090   1.903   5.892   3.070  0.4690 -0.8141  1.0827
 3362TIP3   OH210091   3.011   4.433   2.205  0.3513 -0.4607  0.2493
 3362TIP3    H110092   3.047   4.444   2.293 -1.8705  0.6288  1.1030
 3362TIP3    H210093   3.052   4.503   2.154 -1.2667  1.5056  1.4888
 3363TIP3   OH210094   1.828   2.147   1.660 -0.5120  0.0902 -0.4047
 3363TIP3    H110095   1.753   2.126   1.716 -2.0704 -0.3853 -2.5394
 3363TIP3    H210096   1.833   2.242   1.662 -0.1938  0.0617  0.9323
 3364TIP3   OH210097   1.887   0.050   3.817 -0.0985 -0.1430  0.7202
 3364TIP3    H110098   1.942   0.032   3.741  0.8621 -0.5893  1.4962
 3364TIP3    H210099   1.941   0.105   3.874 -1.5829  2.0206  0.1526
 3365TIP3   OH210100   3.923   0.154   0.735 -0.0563  0.2025 -0.2189
 3365TIP3    H110101   3.942   0.062   0.753 -0.6570  0.3444  1.2792
 3365TIP3    H210102   3.836   0.168   0.772  0.4344  1.6133  0.4789
 3366TIP3   OH210103   2.108   5.080   1.434  0.9125  0.1423  0.0225
 3366TIP3    H110104   2.053   5.010   1.467  0.1534  0.5785 -0.3054
 3366TIP3    H210105   2.176   5.092   1.501  1.1963 -1.0614 -0.0368
 3367TIP3   OH210106   2.345   4.683   0.163  0.2138  0.3454  0.2404
 3367TIP3    H110107   2.290   4.628   0.107  0.2277  0.0752  0.4861
 3367TIP3    H210108   2.433   4.672   0.128  0.2468  0.0484  0.4125
 3368TIP3   OH210109   2.449   2.607   1.667 -0.1505  0.0716 -0.4496
 3368TIP3    H110110   2.356   2.599   1.689  0.2176 -0.8675  0.9445
 3368TIP3    H210111   2.494   2.589   1.750  1.2528  2.5757 -0.5622
 3369TIP3   OH210112   5.050   5.254   4.796  0.0727  0.6246 -0.5209
 3369TIP3    H110113   5.084   5.298   4.719  0.0013 -0.6764 -1.3317
 3369TIP3    H210114   4.956   5.250   4.783  0.0947  0.0818 -0.5554
 3370TIP3   OH210115   5.534   1.281   3.229 -0.2066 -0.1565 -0.0895
 3370TIP3    H110116   5.526   1.377   3.227  0.0819  0.0069  2.6055
 3370TIP3    H210117   5.578   1.263   3.312  0.2228 -2.6273 -0.7844
 3371TIP3   OH210118   4.870   2.987   4.753  0.3011  0.3607 -0.3803
 3371TIP3    H110119   4.788   3.036   4.750 -0.0308 -0.2166 -1.9547
 3371TIP3    H210120   4.864   2.934   4.832  0.6145  2.6788  1.3065
 3372TIP3   OH210121   4.343   5.509   2.415  0.5325  0.3817 -0.0400
 3372TIP3    H110122   4.369   5.577   2.353  0.3008 -1.0464 -1.7634
 3372TIP3    H210123   4.294   5.446   2.363 -0.8146 -0.2368  1.8705
 3373TIP3   OH210124   4.634   3.576   4.487  0.5612  0.2454  0.4507
 3373TIP3    H110125   4.594   3.559   4.572 -1.5631  0.5995 -0.4107
 3373TIP3    H210126   4.690   3.500   4.471 -1.7867 -1.6525  0.6361
 3374TIP3   OH210127   0.592   0.896   0.370 -0.1139 -0.9474  0.2697
 3374TIP3    H110128   0.527   0.923   0.435 -1.0954 -0.3827 -0.9068
 3374TIP3    H210129   0.580   0.801   0.362 -1.9756 -0.6587 -1.0998
 3375TIP3   OH210130   5.340   2.180   0.615  0.3230  0.4055 -0.0208
 3375TIP3    H110131   5.354   2.088   0.590  0.8373 -0.0876  1.9147
 3375TIP3    H210132   5.390   2.230   0.551 -0.7610 -0.5835 -1.7090
 3376TIP3   OH210133   4.974   1.687   4.542  0.7772 -0.2718 -0.2175
 3376TIP3    H110134   4.928   1.690   4.458  0.0345  0.1803  0.1917
 3376TIP3    H210135   4.938   1.610   4.587 -0.7462  0.9494  0.7334
 3377TIP3   OH210136   1.077   1.751   2.809  0.3070 -0.1255 -0.2559
 3377TIP3    H110137   1.019   1.677   2.789  0.0887  0.6528 -2.9081
 3377TIP3    H210138   1.163   1.722   2.781  0.2463  0.5229 -1.1716
 3378TIP3   OH210139   0.548   5.740   1.991 -0.7980 -0.3922  0.4050
 3378TIP3    H110140   0.550   5.662   1.936 -0.3141 -0.3615  0.3751
 3378TIP3    H210141   0.560   5.708   2.080 -0.5073 -0.3405  0.3831
 3379TIP3   OH210142   2.613   2.733   4.278 -0.4524  0.7432 -0.3760
 3379TIP3    H110143   2.657   2.767   4.355  0.8003 -1.1091 -0.2063
 3379TIP3    H210144   2.531   2.697   4.311  0.8769 -1.7074  0.5086
 3380TIP3   OH210145   0.717   0.879   1.624 -0.3806 -0.0951  0.5000
 3380TIP3    H110146   0.760   0.885   1.710  0.8183  0.6358 -0.1234
 3380TIP3    H210147   0.634   0.925   1.636  0.1897  0.8445  1.0398
 3381TIP3   OH210148   0.318   3.609   2.257 -0.1020 -0.3817 -0.6745
 3381TIP3    H110149   0.240   3.564   2.224  0.3725 -0.4968 -1.7095
 3381TIP3    H210150   0.391   3.566   2.212  0.5424 -0.1179  0.0940
 3382TIP3   OH210151   5.862   3.043   4.547 -0.3609 -0.4932  0.1261
 3382TIP3    H110152   5.777   3.012   4.577 -1.4479  1.1310 -1.1780
 3382TIP3    H210153   5.876   3.126   4.594 -0.3978  0.2155 -1.0912
 3383TIP3   OH210154   1.500   3.211   3.238  0.5201  0.2331  0.1222
 3383TIP3    H110155   1.492   3.119   3.214  0.5909  0.4801 -0.8767
 3383TIP3    H210156   1.437   3.223   3.309  0.3809 -0.5429  0.1314
 3384TIP3   OH210157   5.212   4.700   0.905 -0.8166 -0.1873 -0.5097
 3384TIP3    H110158   5.167   4.624   0.869  0.3102 -1.3654  0.4290
 3384TIP3    H210159   5.302   4.669   0.919 -0.3674  1.2808  0.0155
 3385TIP3   OH210160   1.105   3.198   0.280 -1.0306  0.1683 -0.2145
 3385TIP3    H110161   1.116   3.113   0.322  0.5797  0.7502  0.6263
 3385TIP3    H210162   1.171   3.254   0.322 -0.9367  1.3885 -1.9016
 3386TIP3   OH210163   4.416   4.384   1.002  0.1897  0.0104 -0.1582
 3386TIP3    H110164   4.453   4.470   0.981 -1.4851  0.2782 -2.2682
 3386TIP3    H210165   4.340   4.403   1.057 -1.1114  0.0661 -1.8980
 3387TIP3   OH210166   5.029   0.110   2.656 -0.1622 -0.2588  0.2426
 3387TIP3    H110167   5.069   0.102   2.742  0.9369  0.8280 -0.1307
 3387TIP3    H210168   5.103   0.122   2.596 -0.9619  0.1690 -0.6915
 3388TIP3   OH210169   3.687   0.459   2.620  0.2089 -0.2752 -0.2931
 3388TIP3    H110170   3.657   0.495   2.537 -1.5339 -1.1904 -0.1200
 3388TIP3    H210171   3.716   0.370   2.599 -1.7440 -1.1011  0.2614
 3389TIP3   OH210172   2.676   4.860   0.934 -0.3930 -0.4496  0.5243
 3389TIP3    H110173   2.613   4.803   0.979  0.0398  0.4996  2.4617
 3389TIP3    H210174   2.669   4.944   0.981 -0.9216  1.1081 -2.1301
 3390TIP3   OH210175   4.260   0.800   3.971 -0.0383  0.9825  0.3936
 3390TIP3    H110176   4.280   0.815   3.879 -1.7779  0.5840 -0.0863
 3390TIP3    H210177   4.343   0.768   4.009  1.1189  2.5901 -0.6498
 3391TIP3   OH210178   5.360   0.570   1.779 -1.0189  0.3601 -0.0247
 3391TIP3    H110179   5.319   0.565   1.865 -0.6593 -0.5294  0.1044
 3391TIP3    H210180   5.335   0.656   1.745 -2.1074  0.2623  0.4951
 3392TIP3   OH210181   2.749   4.848   0.657 -0.3518 -0.1613  0.3833
 3392TIP3    H110182   2.711   4.867   0.743 -0.0515  0.3322  0.4175
 3392TIP3    H210183   2.675   4.844   0.598 -0.4769  0.6680  0.4705
 3393TIP3   OH210184   5.939   4.186   2.185  0.1832  0.1013 -0.6879
 3393TIP3    H110185   5.917   4.277   2.166  0.6753  0.0267 -1.6883
 3393TIP3    H210186   5.854   4.141   2.190 -0.1556  0.8769  1.3997
 3394TIP3   OH210187   4.144   0.539   4.344 -0.1966  0.3554  0.1053
 3394TIP3    H110188   4.090   0.536   4.424  0.0223  1.5396  0.3052
 3394TIP3    H210189   4.080   0.534   4.273 -0.3160 -2.8493  0.2537
 3395TIP3   OH210190   6.214   1.771   2.672  0.1973 -0.0774  0.2142
 3395TIP3    H110191   6.301   1.745   2.700 -0.0271 -0.1819  0.8377
 3395TIP3    H210192   6.225   1.802   2.582  0.6663 -1.2144 -0.1262
 3396TIP3   OH210193   1.738   5.189   3.337 -0.7235  0.4852 -0.1743
 3396TIP3    H110194   1.738   5.269   3.285 -0.0952  0.9689  0.5513
 3396TIP3    H210195   1.703   5.122   3.278  2.8603  0.2908 -2.3984
 3397TIP3   OH210196   2.841   0.022   2.929  0.5167 -0.3754  0.1883
 3397TIP3    H110197   2.855   0.088   2.860  0.9039 -0.5326  0.1137
 3397TIP3    H210198   2.806  -0.054   2.883 -1.5513  0.3337  0.4995
 3398TIP3   OH210199   3.775   4.043   3.845  0.1988  0.1668  0.0539
 3398TIP3    H110200   3.789   3.950   3.829 -2.0626  0.0172 -1.5080
 3398TIP3    H210201   3.689   4.061   3.808  0.7586  2.9911 -0.0872
 3399TIP3   OH210202   5.424   5.296   4.885  0.6348 -0.0145  0.5809
 3399TIP3    H110203   5.366   5.247   4.943 -0.2370  0.9280  0.5360
 3399TIP3    H210204   5.503   5.312   4.937  0.0871  0.3352  1.3272
 3400TIP3   OH210205   4.695   5.101   1.126  0.3149 -0.5918  0.7335
 3400TIP3    H110206   4.618   5.126   1.076  0.9835  1.3484  0.5873
 3400TIP3    H210207   4.662   5.083   1.214 -0.4176 -0.7011  0.4428
 3401TIP3   OH210208   4.786   3.140   2.025 -0.2285 -0.4312  0.3777
 3401TIP3    H110209   4.731   3.200   2.075 -0.7260 -1.9623  1.7550
 3401TIP3    H210210   4.806   3.187   1.944  0.9680  2.3540  2.1347
 3402TIP3   OH210211   5.532   0.892   2.043  0.4441 -0.0158 -0.3218
 3402TIP3    H110212   5.508   0.983   2.028  0.2274 -0.1134 -0.5788
 3402TIP3    H210213   5.448   0.845   2.043  0.5436 -0.1991 -0.0730
 3403TIP3   OH210214   4.178   2.207   1.467  0.0320  0.1657  0.2050
 3403TIP3    H110215   4.213   2.288   1.430  2.7126 -0.6560  0.7414
 3403TIP3    H210216   4.183   2.221   1.562 -0.7641 -0.1430  0.2986
 3404TIP3   OH210217   5.460   2.190   4.398  0.3987 -0.2454  0.5856
 3404TIP3    H110218   5.487   2.199   4.489  0.5354  1.1402  0.4302
 3404TIP3    H210219   5.462   2.279   4.364 -0.7152 -0.6022 -0.4736
 3405TIP3   OH210220   3.271   0.133   4.107 -0.7530 -0.2620 -0.5560
 3405TIP3    H110221   3.231   0.199   4.050  2.5699  0.5024 -2.2145
 3405TIP3    H210222   3.270   0.172   4.194  0.7642  1.8897 -1.4267
 3406TIP3   OH210223   5.620   0.629   1.631  0.5269 -0.3127 -0.7991
 3406TIP3    H110224   5.657   0.715   1.650 -1.5246  0.6844 -1.1591
 3406TIP3    H210225   5.542   0.623   1.686  1.4495 -2.6113  0.3770
 3407TIP3   OH210226   1.122   4.715   2.975 -0.3878 -0.4142  0.3151
 3407TIP3    H110227   1.135   4.710   2.881 -1.4676 -0.7782  0.1678
 3407TIP3    H210228   1.196   4.666   3.012 -0.3289 -0.8563 -0.3684
 3408TIP3   OH210229   4.008   4.765   2.870 -0.6245 -0.1051  0.0498
 3408TIP3    H110230   3.971   4.813   2.795  0.6715  0.6156 -0.1549
 3408TIP3    H210231   4.018   4.831   2.938  0.0792 -0.3362  0.1737
 3409TIP3   OH210232   0.202   4.930   3.878 -0.0753 -0.0809 -0.7025
 3409TIP3    H110233   0.236   4.952   3.965 -4.3069  0.3727  1.1261
 3409TIP3    H210234   0.234   4.999   3.821  1.0255  0.9083  1.0342
 3410TIP3   OH210235   4.621   3.557   2.005 -0.1177 -0.6316 -0.3040
 3410TIP3    H110236   4.636   3.614   2.081  0.6266 -2.3247  0.8771
 3410TIP3    H210237   4.706   3.555   1.960 -0.2145 -0.6227 -0.4886
 3411TIP3   OH210238   1.248   0.456   0.655 -0.1557 -0.6397  0.0727
 3411TIP3    H110239   1.306   0.512   0.705 -0.1546 -1.3735  0.9266
 3411TIP3    H210240   1.223   0.386   0.716 -0.9020 -1.0465 -0.6659
 3412TIP3   OH210241   0.063   0.312   0.008  0.3872 -0.0625  0.6202
 3412TIP3    H110242   0.044   0.401  -0.022 -1.0733 -0.5594 -0.0406
 3412TIP3    H210243   0.156   0.314   0.031  0.3663  1.6505  0.7232
 3413TIP3   OH210244   2.421   4.942   4.644 -0.0400  0.3745  0.1213
 3413TIP3    H110245   2.485   4.871   4.642 -0.2418  0.2019 -0.2526
 3413TIP3    H210246   2.404   4.962   4.552 -1.0125 -0.0264  0.2077
 3414TIP3   OH210247   3.904   0.757   3.183 -0.5283  0.0850 -0.0232
 3414TIP3    H110248   3.887   0.683   3.241  0.9172 -1.0122 -0.9272
 3414TIP3    H210249   3.898   0.834   3.239 -3.8182 -0.4854  0.6224
 3415TIP3   OH210250   5.505   0.188   0.298  0.5953 -0.2889  0.1718
 3415TIP3    H110251   5.493   0.277   0.328  0.4614 -0.5395  0.8790
 3415TIP3    H210252   5.599   0.182   0.278  0.5678  0.0628 -0.0687
 3416TIP3   OH210253   0.195   1.056   0.874  0.6967  0.5041 -0.4498
 3416TIP3    H110254   0.185   1.115   0.799  1.6191  0.2124 -0.8156
 3416TIP3    H210255   0.122   1.078   0.931  0.6993  1.6222 -0.8455
 3417TIP3   OH210256   0.417   4.848   0.520 -0.6063  0.0719  0.0341
 3417TIP3    H110257   0.488   4.784   0.528 -0.6839  0.0295  0.4105
 3417TIP3    H210258   0.359   4.829   0.594 -2.5154 -1.7337 -1.8052
 3418TIP3   OH210259   5.959   4.784   4.022  0.3191  0.1619 -0.3100
 3418TIP3    H110260   5.889   4.733   3.980  1.4193 -0.3919 -1.5608
 3418TIP3    H210261   5.932   4.791   4.113 -1.0817 -0.5359 -0.6364
 3419TIP3   OH210262   0.750   3.980   3.692  0.3336  0.6491 -0.0402
 3419TIP3    H110263   0.656   3.968   3.675  0.4613  1.3340 -1.4306
 3419TIP3    H210264   0.781   4.033   3.618  2.0469 -0.4970 -0.1989
 3420TIP3   OH210265   0.147   5.477   0.347 -0.0775  0.0823  0.5613
 3420TIP3    H110266   0.198   5.399   0.325 -3.2405 -2.5160  1.5978
 3420TIP3    H210267   0.069   5.470   0.292 -1.6684  1.0688  2.5804
 3421TIP3   OH210268   1.077   4.143   1.168  0.2817 -0.0616 -0.4650
 3421TIP3    H110269   1.077   4.214   1.103  1.3758  1.8628  1.5109
 3421TIP3    H210270   1.066   4.187   1.252  1.7466 -2.1796  0.9383
 3422TIP3   OH210271   5.209   5.958   0.615  0.3142 -0.4286  0.3363
 3422TIP3    H110272   5.198   6.048   0.646 -0.1565  0.0044 -1.0282
 3422TIP3    H210273   5.126   5.914   0.638 -0.0206 -0.1204 -0.2816
 3423TIP3   OH210274   5.243   1.577   4.550  0.0309  0.3917 -0.4239
 3423TIP3    H110275   5.150   1.598   4.549  0.4081  2.2501 -1.4012
 3423TIP3    H210276   5.248   1.490   4.589 -2.1258  0.1593 -0.5631
 3424TIP3   OH210277   3.491   0.665   2.735  0.2584  0.0434  0.3413
 3424TIP3    H110278   3.515   0.707   2.817  0.9420  0.0219  0.1649
 3424TIP3    H210279   3.430   0.596   2.759  0.3005  0.1688  0.8057
 3425TIP3   OH210280   5.070   4.075   3.487 -0.0115  0.0846 -0.1185
 3425TIP3    H110281   5.142   4.135   3.508 -1.6230  2.5628 -1.2714
 3425TIP3    H210282   5.102   4.025   3.412  0.6981  0.8519 -0.3475
 3426TIP3   OH210283   0.965   1.293   4.303 -0.4132 -0.1062  0.4560
 3426TIP3    H110284   1.044   1.345   4.316 -0.6997 -0.1659  2.8716
 3426TIP3    H210285   0.997   1.207   4.275  0.2098  0.5143 -0.8203
 3427TIP3   OH210286   1.840   2.054   3.668 -0.4269 -0.4635  0.2273
 3427TIP3    H110287   1.759   2.012   3.639 -0.4722  0.0357 -0.3775
 3427TIP3    H210288   1.889   2.071   3.588  1.1795 -2.5080  0.6888
 3428TIP3   OH210289   3.457   5.337   1.329 -0.0349 -0.4351 -0.1933
 3428TIP3    H110290   3.499   5.263   1.373 -0.5554 -0.8809 -0.4367
 3428TIP3    H210291   3.386   5.297   1.279  0.4732  0.0770 -1.3520
 3429TIP3   OH210292   3.610   0.047   3.013 -0.4332 -0.1674  0.6172
 3429TIP3    H110293   3.660   0.047   2.932  0.3368  0.3639  1.0776
 3429TIP3    H210294   3.649   0.117   3.065 -2.3181  0.9685  0.5913
 3430TIP3   OH210295   0.428   0.421   1.259  0.0425 -0.2808 -0.6171
 3430TIP3    H110296   0.482   0.342   1.260 -0.7543 -0.8580  1.3111
 3430TIP3    H210297   0.488   0.490   1.232  2.0501 -0.7546  2.1680
 3431TIP3   OH210298   0.520   1.087   1.728 -0.3553  0.3639  0.4513
 3431TIP3    H110299   0.498   1.160   1.671 -0.9708  0.3654  0.6804
 3431TIP3    H210300   0.439   1.035   1.733  0.6944 -1.6943 -1.6827
 3432TIP3   OH210301   5.003   5.321   1.646 -0.0304 -0.0349  0.2116
 3432TIP3    H110302   5.003   5.227   1.663 -0.0794  0.2338  1.8515
 3432TIP3    H210303   5.003   5.328   1.550 -0.6105 -1.6880  0.0598
 3433TIP3   OH210304   2.888   4.042   2.594  0.5060  0.2141 -0.2589
 3433TIP3    H110305   2.848   3.955   2.590  0.3442  0.2717  0.0771
 3433TIP3    H210306   2.816   4.101   2.618  0.6349  0.4261 -0.3855
 3434TIP3   OH210307   4.416   4.357   2.715  0.0818 -0.3421  0.0666
 3434TIP3    H110308   4.430   4.375   2.622  0.8435  0.8148  0.3798
 3434TIP3    H210309   4.329   4.316   2.719 -0.7511  1.2108 -0.9858
 3435TIP3   OH210310   5.059   0.841   2.993  0.1437  0.0552  0.4982
 3435TIP3    H110311   5.007   0.896   3.051 -0.3668 -0.4587  0.5402
 3435TIP3    H210312   5.006   0.830   2.914  1.3256  1.6992 -0.5791
 3436TIP3   OH210313   4.134   2.091   4.811  0.1647 -0.2589 -1.0447
 3436TIP3    H110314   4.168   2.005   4.834 -0.2140 -0.4073 -1.0216
 3436TIP3    H210315   4.060   2.072   4.753  0.3674  0.0663 -1.4139
 3437TIP3   OH210316   0.891   5.516   1.637  0.2782  0.5003 -0.3579
 3437TIP3    H110317   0.866   5.539   1.726  0.7645  2.5258 -0.7036
 3437TIP3    H210318   0.815   5.539   1.583  0.2593 -0.0129 -0.5555
 3438TIP3   OH210319   3.335   2.358   3.592 -0.6027 -0.4005  0.2402
 3438TIP3    H110320   3.385   2.287   3.552 -0.6882  0.3519 -1.2676
 3438TIP3    H210321   3.250   2.320   3.611 -0.9633 -0.4942 -1.4160
 3439TIP3   OH210322   0.502   2.591   4.775 -0.0471 -0.1998 -0.0772
 3439TIP3    H110323   0.421   2.609   4.727  1.1688  1.7856 -1.5370
 3439TIP3    H210324   0.535   2.510   4.737 -1.2584 -0.9671  0.4499
 3440TIP3   OH210325   0.428   0.385   4.082  0.6246 -0.0515  0.4690
 3440TIP3    H110326   0.393   0.466   4.044 -1.1860 -0.1124  1.8739
 3440TIP3    H210327   0.367   0.317   4.054 -0.7089 -0.1186  3.2109
 3441TIP3   OH210328   1.243   5.367   0.056 -0.0128  0.0562  0.4686
 3441TIP3    H110329   1.227   5.380   0.150  0.6258 -1.1108  0.7520
 3441TIP3    H210330   1.182   5.299   0.030  1.0502 -0.9300  0.4662
 3442TIP3   OH210331   3.229   1.959   0.971  0.1036 -0.0052 -0.2439
 3442TIP3    H110332   3.305   1.998   0.928  0.1586  0.6278  0.4048
 3442TIP3    H210333   3.260   1.938   1.059 -0.3668 -0.0906 -0.0957
 3443TIP3   OH210334   1.800   3.201   0.082  0.2930 -0.6933  0.1965
 3443TIP3    H110335   1.888   3.224   0.112  0.0117  0.4175  0.2092
 3443TIP3    H210336   1.794   3.239  -0.005 -0.3275 -0.3779  0.3755
 3444TIP3   OH210337   0.452   4.460   0.657 -0.3790  0.0702 -0.0021
 3444TIP3    H110338   0.406   4.498   0.732  1.6801  0.7557  1.0035
 3444TIP3    H210339   0.404   4.492   0.581 -0.8972  1.6929  0.9445
 3445TIP3   OH210340   2.613   5.819   3.464  0.6743 -0.3514 -0.6617
 3445TIP3    H110341   2.698   5.779   3.482  0.8166 -0.1324 -0.8482
 3445TIP3    H210342   2.631   5.913   3.458  0.4466 -0.3204 -0.8676
 3446TIP3   OH210343   0.696   4.022   1.905  0.4674  0.2122 -0.5373
 3446TIP3    H110344   0.683   3.997   1.813 -0.8851  0.0320 -0.3199
 3446TIP3    H210345   0.623   3.981   1.951  1.6528 -0.4913  0.7869
 3447TIP3   OH210346   1.285   2.908   2.983 -0.5524  0.2643 -0.0500
 3447TIP3    H110347   1.376   2.937   2.982 -0.4221 -0.1320 -0.9345
 3447TIP3    H210348   1.274   2.862   3.066 -0.5078  2.0016  0.9797
 3448TIP3   OH210349   0.454   1.905   3.538 -0.1823  0.3229  0.1207
 3448TIP3    H110350   0.449   1.840   3.468 -0.1971 -0.0063  0.4275
 3448TIP3    H210351   0.544   1.938   3.534 -0.3316  0.6932 -0.3974
 3449TIP3   OH210352   6.369   3.000   0.933 -0.3883  0.3950  0.0284
 3449TIP3    H110353   6.333   3.064   0.871 -0.0348  0.3435 -0.2347
 3449TIP3    H210354   6.293   2.968   0.981 -0.4186  2.1722  1.2697
 3450TIP3   OH210355   4.272   3.013   2.461  0.1298 -0.3829 -0.1226
 3450TIP3    H110356   4.220   2.961   2.400  1.1666  0.7217 -2.0377
 3450TIP3    H210357   4.299   3.089   2.410  0.8135  0.7399  1.8275
 3451TIP3   OH210358   2.196   5.380   1.458 -0.1250  0.7439  0.9494
 3451TIP3    H110359   2.239   5.448   1.510 -0.5243  1.1162  0.7983
 3451TIP3    H210360   2.124   5.425   1.415 -0.4088  0.2166  0.8664
 3452TIP3   OH210361   5.859   2.076   1.908  0.2774 -0.2706  0.4884
 3452TIP3    H110362   5.802   2.019   1.856 -0.9158 -0.0600  1.5167
 3452TIP3    H210363   5.941   2.079   1.859 -1.0796  0.6915 -1.8982
 3453TIP3   OH210364   5.846   1.402   1.913 -0.4951 -0.0634 -0.0265
 3453TIP3    H110365   5.934   1.393   1.951 -0.4640 -1.3211 -0.3768
 3453TIP3    H210366   5.788   1.359   1.975 -0.7829  0.1272 -0.1613
 3454TIP3   OH210367   0.993   4.363   1.006 -0.0591 -0.1254  0.7321
 3454TIP3    H110368   1.034   4.438   1.049  0.4745  0.8669 -1.3784
 3454TIP3    H210369   0.931   4.401   0.944  3.6128 -0.9609 -3.9837
 3455TIP3   OH210370   4.216   4.961   4.243  0.0308  0.2095 -0.0062
 3455TIP3    H110371   4.226   4.876   4.200 -1.3657 -0.3279  0.7060
 3455TIP3    H210372   4.219   5.024   4.171 -0.9528 -0.5903 -0.7688
 3456TIP3   OH210373   1.804   0.125   0.485 -0.4357 -0.0567  0.0055
 3456TIP3    H110374   1.892   0.108   0.520  0.3197  1.3274 -1.1392
 3456TIP3    H210375   1.778   0.207   0.525 -0.7564  0.0838 -0.4857
 3457TIP3   OH210376   4.399   0.732   0.098 -0.6441 -0.4265  0.2326
 3457TIP3    H110377   4.373   0.764   0.012  1.3965 -0.8766 -0.6242
 3457TIP3    H210378   4.427   0.811   0.146 -1.8962 -0.1617  0.5522
 3458TIP3   OH210379   5.966   0.012   2.976  0.3023 -0.1250  0.3424
 3458TIP3    H110380   5.987   0.072   2.904 -1.1255  0.2311  0.2006
 3458TIP3    H210381   5.936  -0.067   2.932 -4.1296  1.2866  0.3607
 3459TIP3   OH210382   4.735   0.832   4.845 -0.5507 -0.1147  0.0318
 3459TIP3    H110383   4.770   0.890   4.778  1.8136 -1.7050 -0.2402
 3459TIP3    H210384   4.694   0.761   4.796  0.0334 -0.6261  0.2745
 3460TIP3   OH210385   3.858   0.437   2.917  0.0817  0.0103  0.1899
 3460TIP3    H110386   3.841   0.370   2.984 -0.9611 -1.5499 -1.5226
 3460TIP3    H210387   3.941   0.477   2.943  0.4465 -1.5593  1.6142
 3461TIP3   OH210388   2.379   5.274   4.899  0.2495 -0.1889  0.1468
 3461TIP3    H110389   2.392   5.368   4.912 -1.2858  0.0934 -0.1139
 3461TIP3    H210390   2.308   5.251   4.960  2.1439 -1.6943  1.9097
 3462TIP3   OH210391   4.580   5.560   3.717  0.0415 -0.4416  0.0964
 3462TIP3    H110392   4.516   5.489   3.720 -0.8151  0.3666  1.7444
 3462TIP3    H210393   4.529   5.640   3.730  0.8949  0.6041 -2.2832
 3463TIP3   OH210394   0.226   2.588   4.722 -0.1990 -0.3388 -0.1934
 3463TIP3    H110395   0.252   2.524   4.656 -1.9114 -3.3013  1.7636
 3463TIP3    H210396   0.137   2.614   4.697 -0.5531 -0.8642  0.4986
 3464TIP3   OH210397   3.052   0.331   4.985  0.2009 -0.0680 -0.3040
 3464TIP3    H110398   3.010   0.268   4.928 -3.7097  1.6780  0.2877
 3464TIP3    H210399   2.991   0.341   5.059  1.6338  2.7636  0.6702
 3465TIP3   OH210400   1.779   1.725   4.461 -0.2916 -0.2207 -0.0643
 3465TIP3    H110401   1.694   1.692   4.433 -1.1340  1.8393 -0.0662
 3465TIP3    H210402   1.759   1.800   4.517  1.5172 -0.1742  0.6021
 3466TIP3   OH210403   3.874   3.881   2.146 -0.3773 -0.4522 -0.3495
 3466TIP3    H110404   3.778   3.874   2.142 -0.3594 -1.2515  0.3161
 3466TIP3    H210405   3.890   3.968   2.182 -0.8911 -0.8382  0.8476
 3467TIP3   OH210406   1.231   2.024   4.999  0.6919 -0.5317  0.2782
 3467TIP3    H110407   1.211   2.118   5.006  1.4782 -0.3742  0.5443
 3467TIP3    H210408   1.262   2.000   5.087  0.5303 -1.0329  0.1997
 3468TIP3   OH210409   4.497   2.964   1.963 -0.4873  0.0329 -0.4092
 3468TIP3    H110410   4.513   2.900   2.032 -1.7833  0.3291  0.2018
 3468TIP3    H210411   4.581   2.974   1.919 -0.2121 -1.9118 -0.3783
 3469TIP3   OH210412   6.270   5.377   0.733  0.3387  0.6463 -0.3499
 3469TIP3    H110413   6.319   5.295   0.730  0.4002  0.6815 -0.3175
 3469TIP3    H210414   6.314   5.433   0.669 -0.5256  0.2007 -1.3645
 3470TIP3   OH210415   1.374   1.641   3.626 -0.1866  0.2260  0.1792
 3470TIP3    H110416   1.380   1.680   3.713 -1.3841  1.5115 -0.2798
 3470TIP3    H210417   1.338   1.554   3.640  0.6659  0.0011  1.0535
 3471TIP3   OH210418   5.121   1.059   3.944  0.0050  0.0941 -0.4185
 3471TIP3    H110419   5.040   1.056   3.893  0.3396 -0.1036 -0.9422
 3471TIP3    H210420   5.166   0.978   3.922  0.4576  0.3136 -0.3077
 3472TIP3   OH210421   1.755   1.958   5.211  0.2189  0.1235  0.0319
 3472TIP3    H110422   1.791   2.041   5.180  2.2893 -0.5772  0.3851
 3472TIP3    H210423   1.709   1.922   5.136  0.8783  0.7432 -0.6834
 3473TIP3   OH210424   3.780   4.614   0.332  0.3483  0.1116  0.0037
 3473TIP3    H110425   3.709   4.646   0.388  0.5137 -0.7731  0.7342
 3473TIP3    H210426   3.832   4.692   0.313  0.2893  0.4272  1.0882
 3474TIP3   OH210427   2.309   1.669   1.056  0.4321 -0.2188  0.1163
 3474TIP3    H110428   2.270   1.597   1.007  0.7824 -0.0362 -0.4347
 3474TIP3    H210429   2.381   1.700   1.001 -1.8443  2.9170 -1.4424
 3475TIP3   OH210430   6.052   0.489   3.776 -0.4861 -0.9880  0.3374
 3475TIP3    H110431   6.066   0.562   3.716 -1.1877 -1.1087  0.0224
 3475TIP3    H210432   6.027   0.530   3.859  1.5137 -0.7685  0.8812
 3476TIP3   OH210433   5.753   2.384   5.122 -0.5686  0.0663 -0.1049
 3476TIP3    H110434   5.659   2.389   5.140 -0.2618  2.4195  1.2851
 3476TIP3    H210435   5.787   2.322   5.187 -1.2801 -1.7890 -1.4414
 3477TIP3   OH210436   0.302   4.566   0.457 -0.0006 -0.5958  0.5228
 3477TIP3    H110437   0.217   4.569   0.501 -0.3763  0.8501 -0.2450
 3477TIP3    H210438   0.288   4.513   0.379 -0.6639  1.0803 -0.5158
 3478TIP3   OH210439   3.013   2.450   1.588 -0.1041  0.3171 -0.0766
 3478TIP3    H110440   2.950   2.489   1.649 -1.1737 -0.6559 -0.5212
 3478TIP3    H210441   3.030   2.363   1.624 -0.2093 -0.0006 -0.7823
 3479TIP3   OH210442   6.176   2.733   0.434  0.1871  0.4741 -0.0441
 3479TIP3    H110443   6.225   2.811   0.407 -0.8157  1.4070  0.7525
 3479TIP3    H210444   6.097   2.767   0.475 -0.2513 -0.9731  0.3782
 3480TIP3   OH210445   4.546   2.297   0.080 -0.0997 -0.3196 -1.1048
 3480TIP3    H110446   4.479   2.300   0.012  0.5523  1.2434 -1.7290
 3480TIP3    H210447   4.626   2.324   0.036  1.2149 -3.1020 -0.6244
 3481TIP3   OH210448   0.509   4.605   3.451  0.0166 -0.6275 -0.0922
 3481TIP3    H110449   0.544   4.580   3.365 -0.2118 -0.8555 -0.1207
 3481TIP3    H210450   0.449   4.534   3.474  1.6410 -1.6589  1.2082
 3482TIP3   OH210451   3.923   0.576   2.088 -0.0668  0.4475 -0.0037
 3482TIP3    H110452   3.976   0.564   2.010  1.7338  0.5529  1.1499
 3482TIP3    H210453   3.923   0.670   2.103  1.3378  0.2894  1.2271
 3483TIP3   OH210454   2.732   3.618   3.129 -0.2582  0.4932 -0.2694
 3483TIP3    H110455   2.754   3.532   3.094 -1.1308  0.1927 -0.0834
 3483TIP3    H210456   2.773   3.620   3.216  1.7038  1.1500 -1.1376
 3484TIP3   OH210457   2.521   0.786   2.807  0.5647 -0.4250 -0.5114
 3484TIP3    H110458   2.432   0.782   2.842  0.4987 -1.9641 -0.7579
 3484TIP3    H210459   2.522   0.865   2.752  0.2635  1.2577  1.7739
 3485TIP3   OH210460   5.054   0.043   3.812  0.2692  0.5237  0.4687
 3485TIP3    H110461   4.981  -0.002   3.854  0.0535  0.3451 -0.0796
 3485TIP3    H210462   5.123  -0.024   3.804 -0.2824  0.0785 -0.9291
 3486TIP3   OH210463   0.972   3.803   3.676 -0.1126 -0.0107  0.0526
 3486TIP3    H110464   0.905   3.871   3.682 -1.4183 -1.3929  3.2199
 3486TIP3    H210465   0.928   3.729   3.634 -0.3828 -0.6219  1.3520
 3487TIP3   OH210466   1.692   3.840   0.911  0.0741 -0.8028 -0.2498
 3487TIP3    H110467   1.637   3.818   0.986  0.2670  0.3546  0.2418
 3487TIP3    H210468   1.781   3.845   0.947  0.0862  0.3696 -0.4168
 3488TIP3   OH210469   4.035   0.825   2.098  0.3679 -0.0334  0.0802
 3488TIP3    H110470   3.990   0.909   2.110 -0.1168 -0.1088 -1.0670
 3488TIP3    H210471   4.075   0.807   2.183  1.4671  1.9250  0.0411
 3489TIP3   OH210472   1.625   0.191   2.112 -0.6574  0.1866 -0.2260
 3489TIP3    H110473   1.599   0.263   2.055 -0.6331 -0.1978 -0.7322
 3489TIP3    H210474   1.673   0.232   2.183  0.4880  0.5577 -1.1874
 3490TIP3   OH210475   4.458   1.106   1.980 -0.3183 -0.5806  0.7785
 3490TIP3    H110476   4.524   1.067   2.039 -0.2703  0.0195  1.1328
 3490TIP3    H210477   4.439   1.191   2.019 -1.8590 -1.0368  1.0962
 3491TIP3   OH210478   3.116   3.148   0.824  0.0589  0.2916  0.2419
 3491TIP3    H110479   3.132   3.097   0.903 -1.7971  1.9898  1.8081
 3491TIP3    H210480   3.175   3.109   0.759  2.7217 -0.2931  2.7652
 3492TIP3   OH210481   1.321   5.013   2.665 -0.3910 -0.1979 -0.0183
 3492TIP3    H110482   1.362   5.071   2.602  1.6633  2.9364  3.7462
 3492TIP3    H210483   1.231   5.046   2.673 -0.2739  0.2075 -0.3838
 3493TIP3   OH210484   3.021   4.251   3.534  0.1113 -0.6265 -0.2637
 3493TIP3    H110485   2.988   4.250   3.444 -3.5994  0.7832  0.8735
 3493TIP3    H210486   3.072   4.332   3.540 -0.8354  0.0294 -0.7774
 3494TIP3   OH210487   5.088   0.341   1.386  0.1972 -0.0131  0.2192
 3494TIP3    H110488   5.084   0.246   1.393  0.9884 -0.0723 -0.0336
 3494TIP3    H210489   5.161   0.367   1.441  2.1612  0.1160 -2.2815
 3495TIP3   OH210490   1.132   2.736   2.526  0.5656 -0.1112  0.3262
 3495TIP3    H110491   1.050   2.752   2.480  1.6025 -0.0669 -1.6292
 3495TIP3    H210492   1.111   2.668   2.590 -1.3416  1.1064  1.0790
 3496TIP3   OH210493   6.295   3.803   0.422  0.0831 -0.3119  0.0442
 3496TIP3    H110494   6.279   3.713   0.394 -0.3289 -0.4588  0.7480
 3496TIP3    H210495   6.208   3.843   0.424  0.3783  0.4736 -1.4839
 3497TIP3   OH210496   3.172   4.630   3.841  0.1201 -0.2910  0.2380
 3497TIP3    H110497   3.203   4.596   3.924  1.2643 -2.7725 -1.0960
 3497TIP3    H210498   3.216   4.715   3.832  1.0205 -0.5901  1.5458
 3498TIP3   OH210499   3.471   3.840   3.498  0.1459  0.0065 -0.7466
 3498TIP3    H110500   3.405   3.785   3.541  0.6667 -0.8220 -0.9844
 3498TIP3    H210501   3.422   3.887   3.431 -0.7627  1.5951  0.9208
 3499TIP3   OH210502   4.066   1.324   1.463 -0.1892 -0.0074 -0.1833
 3499TIP3    H110503   4.085   1.230   1.454 -0.1057  0.0057 -0.1468
 3499TIP3    H210504   4.044   1.353   1.374 -1.4658 -0.3278  0.0049
 3500TIP3   OH210505   5.475   5.549   2.174 -0.4047  0.3694  0.0934
 3500TIP3    H110506   5.498   5.594   2.255 -0.4295  0.2215  0.1836
 3500TIP3    H210507   5.482   5.456   2.195 -3.0553  0.2365  0.7438
 3501TIP3   OH210508   1.550   1.691   4.325 -0.6085 -0.5931  0.9317
 3501TIP3    H110509   1.506   1.738   4.395 -0.2779 -0.5115  1.0891
 3501TIP3    H210510   1.520   1.733   4.244 -1.2799 -0.9303  0.9967
 3502TIP3   OH210511   0.722   2.433   3.006 -0.7457  0.3703 -0.3458
 3502TIP3    H110512   0.814   2.445   2.982 -0.3076 -1.5342  0.2007
 3502TIP3    H210513   0.719   2.456   3.098 -1.4147  2.9479 -0.9341
 3503TIP3   OH210514   4.568   4.644   0.274  0.0741  0.3293 -0.0652
 3503TIP3    H110515   4.586   4.602   0.190  0.7181 -0.1361  0.2918
 3503TIP3    H210516   4.480   4.615   0.298 -0.6930  1.5971 -1.2355
 3504TIP3   OH210517   6.124   3.712   2.159  0.5386 -0.4079  0.0259
 3504TIP3    H110518   6.067   3.769   2.210 -0.0043 -0.4392 -0.5401
 3504TIP3    H210519   6.107   3.736   2.068  1.5719 -0.2828 -0.1490
 3505TIP3   OH210520   5.512   3.005   0.948  0.1383 -0.1461  0.4176
 3505TIP3    H110521   5.577   3.003   0.878 -0.8856 -0.8493 -0.5411
 3505TIP3    H210522   5.448   2.939   0.923  0.5753 -1.6298  2.8482
 3506TIP3   OH210523   5.190   4.306   3.055 -0.8878 -0.0426 -0.0280
 3506TIP3    H110524   5.141   4.244   3.002 -1.2000 -0.1879  0.4210
 3506TIP3    H210525   5.142   4.310   3.138  0.6276 -1.2364  0.9536
 3507TIP3   OH210526   4.171   3.285   2.515  0.2287 -0.5104  0.2981
 3507TIP3    H110527   4.084   3.274   2.552 -0.5430 -0.2076 -1.3182
 3507TIP3    H210528   4.196   3.374   2.539 -0.5876 -0.0431 -0.5171
 3508TIP3   OH210529   5.795   4.041   4.133 -0.2241 -0.0422 -0.4446
 3508TIP3    H110530   5.879   4.013   4.098 -1.2765 -4.1875 -0.2283
 3508TIP3    H210531   5.811   4.053   4.227  0.1374 -1.0995 -0.3515
 3509TIP3   OH210532   4.595   1.032   1.416 -0.9083  0.7455 -0.1375
 3509TIP3    H110533   4.525   1.058   1.476 -1.0754 -0.2430  0.1163
 3509TIP3    H210534   4.550   1.001   1.338 -0.7305  0.7851 -0.2569
 3510TIP3   OH210535   0.179   5.618   4.095 -0.1109 -0.0432  0.0327
 3510TIP3    H110536   0.184   5.601   4.189  0.3671  2.1933  0.4811
 3510TIP3    H210537   0.227   5.700   4.083 -0.4113 -0.1260 -2.1264
 3511TIP3   OH210538   3.254   4.755   2.360  0.7855  0.4430 -0.4425
 3511TIP3    H110539   3.270   4.842   2.397  1.0488 -0.2160  1.0883
 3511TIP3    H210540   3.288   4.694   2.426 -1.2679 -0.8762 -0.5080
 3512TIP3   OH210541   5.127   2.084   0.803 -0.3646 -0.3333  0.0208
 3512TIP3    H110542   5.052   2.086   0.744  0.1753  0.6923 -0.6791
 3512TIP3    H210543   5.201   2.112   0.749  0.8601 -2.7598  0.2809
 3513TIP3   OH210544   0.723   0.779   4.845  0.5650  0.3861  0.6505
 3513TIP3    H110545   0.706   0.805   4.935  1.1442 -1.0238  1.1900
 3513TIP3    H210546   0.639   0.746   4.813  0.7477 -0.7549  1.2762
 3514TIP3   OH210547   3.811   2.188   0.818  0.2745 -0.2610  0.3189
 3514TIP3    H110548   3.861   2.120   0.773  0.6613 -0.3577  0.8777
 3514TIP3    H210549   3.738   2.207   0.759  0.0597 -1.2854  0.2303
 3515TIP3   OH210550   3.630   2.375   4.816  0.2426  0.3671 -0.3588
 3515TIP3    H110551   3.609   2.464   4.847 -0.0635  0.7762 -1.6865
 3515TIP3    H210552   3.677   2.388   4.734 -0.8119 -0.7044 -1.1737
 3516TIP3   OH210553   3.966   2.306   2.016 -0.0899  0.0585 -0.4362
 3516TIP3    H110554   3.871   2.313   2.008 -0.2125  0.2852  0.8713
 3516TIP3    H210555   3.979   2.227   2.069  0.3464  0.8459  0.6897
 3517TIP3   OH210556   3.357   1.839   5.112  0.6013 -0.2391  0.0145
 3517TIP3    H110557   3.273   1.851   5.157  0.0464  0.2423 -1.1146
 3517TIP3    H210558   3.363   1.745   5.097  0.1517 -0.2504 -0.1108
 3518TIP3   OH210559   0.071   0.951   1.758  0.1086  0.1119 -0.7792
 3518TIP3    H110560   0.156   0.920   1.789 -0.1909  0.4467  0.3973
 3518TIP3    H210561   0.078   0.948   1.662  1.1667 -0.6007 -0.6874
 3519TIP3   OH210562   0.745   1.839   2.877 -0.8633  0.1849 -0.2151
 3519TIP3    H110563   0.838   1.861   2.871 -0.5301 -1.2096 -0.4398
 3519TIP3    H210564   0.737   1.755   2.832 -1.9446 -0.5181  1.2133
 3520TIP3   OH210565   6.318   2.957   2.118  0.1807  0.1776 -0.1571
 3520TIP3    H110566   6.285   2.988   2.033 -1.0676 -0.7327 -0.0294
 3520TIP3    H210567   6.245   2.971   2.178 -0.2221 -2.4084  0.0315
 3521TIP3   OH210568   1.700   0.411   2.257  0.1203  0.1774 -0.3542
 3521TIP3    H110569   1.707   0.488   2.313 -0.1360  0.0113 -0.0898
 3521TIP3    H210570   1.744   0.436   2.175  0.4302  0.4459 -0.1067
 3522TIP3   OH210571   3.244   3.140   3.307 -0.6873 -0.1738 -0.1913
 3522TIP3    H110572   3.185   3.184   3.245 -1.2256 -0.3965  0.1530
 3522TIP3    H210573   3.187   3.117   3.381 -0.7271 -2.5466 -0.8668
 3523TIP3   OH210574   1.153   2.960   0.414 -0.1329  0.3912  0.3910
 3523TIP3    H110575   1.220   2.915   0.364 -0.9736  0.3765 -0.7513
 3523TIP3    H210576   1.200   2.996   0.490  0.9912 -0.3188  0.0569
 3524TIP3   OH210577   5.854   2.088   4.974 -0.3826 -0.1967 -0.0541
 3524TIP3    H110578   5.815   2.030   5.039 -0.6779 -0.7676 -0.7422
 3524TIP3    H210579   5.927   2.130   5.021 -1.4840  0.5247  1.0988
 3525TIP3   OH210580   4.287   5.642   5.023 -0.2866  0.0224  0.4914
 3525TIP3    H110581   4.333   5.568   5.064  0.2749 -0.8318 -1.5384
 3525TIP3    H210582   4.209   5.655   5.077  1.3730  0.3248  2.9816
 3526TIP3   OH210583   1.394   1.894   3.502  0.0941  0.0140 -0.1725
 3526TIP3    H110584   1.334   1.862   3.435  1.2564 -0.2947 -1.0982
 3526TIP3    H210585   1.366   1.849   3.582 -1.4497  0.5540 -0.3781
 3527TIP3   OH210586   0.870   2.077   1.138  0.4242  0.2778  0.1007
 3527TIP3    H110587   0.896   1.989   1.110 -0.1812  0.2093 -0.2800
 3527TIP3    H210588   0.799   2.062   1.200  0.5880  0.4890  0.3389
 3528TIP3   OH210589   1.905   0.024   3.248 -0.4778  0.3442 -0.3801
 3528TIP3    H110590   1.830   0.053   3.300  2.3093  2.3215  2.9341
 3528TIP3    H210591   1.943   0.105   3.214  0.1627 -0.6221 -2.0750
 3529TIP3   OH210592   2.395   1.253   5.122  0.5055 -0.1014 -0.0084
 3529TIP3    H110593   2.391   1.264   5.217  2.0157 -1.5385  0.2607
 3529TIP3    H210594   2.488   1.264   5.101  0.1742  0.3188 -1.3571
 3530TIP3   OH210595   2.758   2.081   3.220  0.1054 -0.0962 -0.3858
 3530TIP3    H110596   2.765   2.056   3.128  0.4018 -2.2906  0.1628
 3530TIP3    H210597   2.839   2.048   3.260  0.0128  0.8785  0.6545
 3531TIP3   OH210598   3.722   3.038   2.793  0.0047  0.0016  0.1101
 3531TIP3    H110599   3.672   2.960   2.818  0.4806 -0.7207 -1.0522
 3531TIP3    H210600   3.799   3.002   2.746  0.5765  1.1471  0.1392
 3532TIP3   OH210601   1.134   4.796   1.952 -0.3566 -0.2590  0.4711
 3532TIP3    H110602   1.215   4.754   1.924 -0.4912 -0.3749  0.2481
 3532TIP3    H210603   1.161   4.881   1.986 -0.0223 -0.7332  1.4150
 3533TIP3   OH210604   5.121   2.387   0.168 -0.6436 -0.1472  0.5443
 3533TIP3    H110605   5.040   2.435   0.185 -1.9110 -1.8461 -0.3563
 3533TIP3    H210606   5.108   2.303   0.212  1.5468  0.3047  2.1667
 3534TIP3   OH210607   1.316   1.554   0.852  0.0411 -0.4285  0.0480
 3534TIP3    H110608   1.291   1.551   0.944  1.4585  0.9742  0.5206
 3534TIP3    H210609   1.342   1.465   0.831 -0.8939 -0.9033  0.8028
 3535TIP3   OH210610   4.126   5.161   2.053  0.3088  0.1541  0.1398
 3535TIP3    H110611   4.127   5.065   2.058 -0.1681  0.1987  1.4964
 3535TIP3    H210612   4.148   5.180   1.962 -2.3812 -1.3374 -0.9688
 3536TIP3   OH210613   1.370   3.959   0.614 -0.3263  0.6492  0.2822
 3536TIP3    H110614   1.295   3.946   0.557  0.0055  1.9607 -0.4986
 3536TIP3    H210615   1.379   4.054   0.621  0.2088  0.5176  1.7850
 3537TIP3   OH210616   1.262   0.362   0.407 -0.2877  0.6890  0.4561
 3537TIP3    H110617   1.171   0.333   0.410 -0.0923  0.1039  0.9497
 3537TIP3    H210618   1.274   0.409   0.489  0.2124 -0.3672  1.0096
 3538TIP3   OH210619   4.443   5.028   1.630  0.3172 -0.4648 -0.5550
 3538TIP3    H110620   4.476   5.086   1.699 -2.2245  1.1718 -0.5853
 3538TIP3    H210621   4.460   4.940   1.663  1.7537  0.2725  0.8174
 3539TIP3   OH210622   6.030   0.520   0.023 -0.5534  0.9011 -0.3806
 3539TIP3    H110623   6.113   0.525  -0.025 -0.9931  0.1580 -1.2420
 3539TIP3    H210624   6.003   0.428   0.015 -0.4009  0.6194  1.7195
 3540TIP3   OH210625   2.517   4.127   3.271 -0.0381 -0.1804  0.2307
 3540TIP3    H110626   2.442   4.105   3.326  0.1681 -1.7416 -0.0720
 3540TIP3    H210627   2.591   4.125   3.331 -0.4078  3.7277  1.0731
 3541TIP3   OH210628   0.191   5.989   0.570  0.5106 -0.5757  0.1045
 3541TIP3    H110629   0.165   5.913   0.518  1.5968 -1.0801  0.2805
 3541TIP3    H210630   0.286   5.986   0.573  0.7247  1.7929 -1.3554
 3542TIP3   OH210631   4.152   0.002   1.825  1.0031 -0.0170 -0.3262
 3542TIP3    H110632   4.109   0.041   1.901  1.7631  1.5404 -0.6571
 3542TIP3    H210633   4.092   0.021   1.752  0.6286 -0.8669 -0.2537
 3543TIP3   OH210634   3.420   5.076   2.804  0.4656  0.2294 -0.3535
 3543TIP3    H110635   3.330   5.041   2.804  1.0338 -1.3489  0.7007
 3543TIP3    H210636   3.429   5.116   2.890  0.4387  1.3738 -0.8697
 3544TIP3   OH210637   1.780   1.410   4.191 -0.0348  0.5409 -0.4345
 3544TIP3    H110638   1.815   1.370   4.111 -0.2864 -1.7216  0.5225
 3544TIP3    H210639   1.799   1.504   4.180  1.8089  0.0556 -2.1978
 3545TIP3   OH210640   6.341   1.019   3.291  0.5015 -0.6633 -0.0789
 3545TIP3    H110641   6.321   1.092   3.350 -1.3860 -0.8700 -0.3979
 3545TIP3    H210642   6.326   0.941   3.345 -0.7864 -0.8436 -0.6660
 3546TIP3   OH210643   0.034   2.578   3.342  0.4603  0.4529 -0.0427
 3546TIP3    H110644   0.058   2.588   3.250  0.0929  2.0681  0.0090
 3546TIP3    H210645   0.009   2.486   3.351 -2.6194  0.9281 -2.3169
 3547TIP3   OH210646   4.808   0.939   0.226  0.0086  0.3156 -0.2236
 3547TIP3    H110647   4.832   0.859   0.272 -2.4077 -1.2256 -1.4232
 3547TIP3    H210648   4.887   0.993   0.228  1.3603 -1.5843  1.6559
 3548TIP3   OH210649   2.354   4.367   3.254  0.1000 -0.3986  0.5398
 3548TIP3    H110650   2.417   4.306   3.291 -1.0124 -1.2686  1.0601
 3548TIP3    H210651   2.270   4.321   3.258 -0.5217  0.5741 -0.4792
 3549TIP3   OH210652   4.792   2.198   5.110  0.4515 -0.3015 -0.1836
 3549TIP3    H110653   4.704   2.216   5.076 -0.2213 -0.0977  1.5733
 3549TIP3    H210654   4.849   2.210   5.034 -0.8425  1.2300 -0.9998
 3550TIP3   OH210655   5.265   0.820   3.967 -0.6076  1.2824  0.1920
 3550TIP3    H110656   5.308   0.777   3.893 -0.4242  0.1173  0.9469
 3550TIP3    H210657   5.182   0.774   3.977  1.0814 -1.5751  3.2791
 3551TIP3   OH210658   1.887   0.838   2.322 -0.0336  0.1238 -0.1345
 3551TIP3    H110659   1.900   0.925   2.358  1.1143 -0.0176 -0.1647
 3551TIP3    H210660   1.968   0.791   2.343 -0.2788 -0.6620 -0.8781
 3552TIP3   OH210661   0.193   3.426   2.784  0.0303 -0.0707 -0.0819
 3552TIP3    H110662   0.228   3.347   2.825  1.5950  1.0364  0.8072
 3552TIP3    H210663   0.107   3.400   2.752 -0.7321 -1.3961  2.7332
 3553TIP3   OH210664   3.307   2.434   4.918  0.2276 -0.0510 -0.7618
 3553TIP3    H110665   3.345   2.446   4.831  0.9666 -0.4721 -0.5061
 3553TIP3    H210666   3.256   2.514   4.934 -1.8384 -0.9087 -2.5091
 3554TIP3   OH210667   5.890   1.860   2.375  0.2515  0.3125 -0.3387
 3554TIP3    H110668   5.968   1.810   2.348 -0.1529  0.0249 -0.9895
 3554TIP3    H210669   5.868   1.913   2.299  0.1232  0.7924  0.0307
 3555TIP3   OH210670   2.683   5.091   4.418  0.5355  0.5305  0.4023
 3555TIP3    H110671   2.631   5.018   4.386  0.4532  0.4488  0.7119
 3555TIP3    H210672   2.729   5.124   4.341  0.5325  0.1866  0.2499
 3556TIP3   OH210673   1.429   5.857   1.387 -0.0329  0.4380 -0.0232
 3556TIP3    H110674   1.414   5.827   1.477 -0.0694  1.1463  0.2151
 3556TIP3    H210675   1.442   5.951   1.395 -3.0648  1.0595 -1.0701
 3557TIP3   OH210676   2.537   5.229   2.229  0.0308 -0.6439 -0.3921
 3557TIP3    H110677   2.468   5.286   2.194 -0.0420 -0.5284 -0.0617
 3557TIP3    H210678   2.541   5.250   2.322  0.4586 -0.7061 -0.3929
 3558TIP3   OH210679   5.053   5.119   4.185  0.1833  0.9407  0.0730
 3558TIP3    H110680   5.066   5.118   4.091 -0.1541  1.0213  0.0233
 3558TIP3    H210681   5.141   5.126   4.222  0.2695  1.6368 -0.2521
 3559TIP3   OH210682   1.374   3.428   0.734  0.2107  0.1045  0.0556
 3559TIP3    H110683   1.460   3.389   0.750  0.0391 -0.5419 -0.5728
 3559TIP3    H210684   1.388   3.484   0.658  0.2825  0.7222  0.5116
 3560TIP3   OH210685   4.158   1.415   3.457  0.7074 -0.1519 -0.1400
 3560TIP3    H110686   4.183   1.458   3.375 -0.0230 -0.5573 -0.5922
 3560TIP3    H210687   4.114   1.335   3.429 -1.6378  0.7942  0.5492
 3561TIP3   OH210688   2.837   3.465   4.028 -0.4139 -0.1969 -0.3891
 3561TIP3    H110689   2.866   3.377   4.002 -0.4272 -0.8438  1.5733
 3561TIP3    H210690   2.743   3.455   4.044 -0.0540 -0.4294  1.9041
 3562TIP3   OH210691   1.622   4.592   3.559 -0.4116  0.4170  0.9660
 3562TIP3    H110692   1.649   4.641   3.636 -0.2278  0.1849  1.0498
 3562TIP3    H210693   1.633   4.500   3.583 -2.1790  0.2721  1.3424
 3563TIP3   OH210694   1.277   3.794   1.852 -0.3094  0.1208  0.0484
 3563TIP3    H110695   1.250   3.703   1.838 -1.5106  0.5286 -0.3202
 3563TIP3    H210696   1.218   3.846   1.798 -1.4356  1.3341  2.3008
 3564TIP3   OH210697   0.748   0.926   1.171  0.3821 -0.1923  0.1193
 3564TIP3    H110698   0.800   0.955   1.246 -0.6263  0.3489  0.6365
 3564TIP3    H210699   0.661   0.909   1.208 -0.2913  0.6452 -1.0272
 3565TIP3   OH210700   4.072   3.250   1.081 -0.7132  0.0943  0.3113
 3565TIP3    H110701   3.982   3.277   1.064 -0.7741 -0.2743  0.0331
 3565TIP3    H210702   4.094   3.291   1.164 -0.5132  1.6909 -0.4900
 3566TIP3   OH210703   4.628   0.951   1.779 -0.0753 -0.1650 -0.0439
 3566TIP3    H110704   4.552   1.006   1.798  0.0289 -0.0501  0.0423
 3566TIP3    H210705   4.663   0.928   1.865 -0.2651 -0.5710 -0.0757
 3567TIP3   OH210706   1.566   5.307   1.384  0.0806 -0.5121  0.2827
 3567TIP3    H110707   1.563   5.227   1.436 -1.4609 -1.0594 -0.5785
 3567TIP3    H210708   1.570   5.276   1.293 -0.3026  0.3807 -0.0545
 3568TIP3   OH210709   4.254   0.407   1.640 -0.7165  0.4225 -0.1952
 3568TIP3    H110710   4.219   0.427   1.727 -1.7499 -0.9303 -0.2636
 3568TIP3    H210711   4.180   0.368   1.593  0.4997 -1.2874 -0.8045
 3569TIP3   OH210712   2.301   3.780   3.719 -0.0917 -0.1989  0.4408
 3569TIP3    H110713   2.295   3.775   3.815  1.4382  0.4867  0.6067
 3569TIP3    H210714   2.221   3.824   3.692 -1.0000 -1.2733  1.3096
 3570TIP3   OH210715   2.707   3.257   2.793  0.1697 -0.1376  0.0413
 3570TIP3    H110716   2.723   3.249   2.699  1.0402  1.2586  0.0530
 3570TIP3    H210717   2.623   3.213   2.806 -0.4653  0.5204 -1.5541
 3571TIP3   OH210718   2.934   5.289   1.622  0.3009 -0.1551 -0.5834
 3571TIP3    H110719   2.862   5.233   1.651  0.3616 -1.0002 -1.9892
 3571TIP3    H210720   3.013   5.236   1.636  0.2428 -1.1500 -3.3767
 3572TIP3   OH210721   2.455   3.944   4.879  0.6725 -1.1955  0.1189
 3572TIP3    H110722   2.442   3.865   4.826 -1.0437 -1.1800  0.4529
 3572TIP3    H210723   2.411   4.013   4.829 -2.7956 -1.5509  2.3851
 3573TIP3   OH210724   4.859   1.231   0.796 -0.1762 -0.1125  0.6661
 3573TIP3    H110725   4.777   1.203   0.755  0.0624 -1.5903  1.1359
 3573TIP3    H210726   4.859   1.187   0.882  1.5123 -0.9069  0.3061
 3574TIP3   OH210727   4.723   2.438   2.459 -0.2320 -0.2300 -0.5194
 3574TIP3    H110728   4.796   2.407   2.513  0.9364  1.6156 -0.9657
 3574TIP3    H210729   4.724   2.380   2.383 -0.3193 -1.2742  0.2353
 3575TIP3   OH210730   0.383   3.035   3.967  0.4995 -0.0540 -0.2865
 3575TIP3    H110731   0.421   2.960   3.922  0.6401 -1.1328  1.5409
 3575TIP3    H210732   0.414   3.111   3.918 -0.1762 -1.1657 -2.5883
 3576TIP3   OH210733   3.601   1.181   3.755 -0.2267  0.1365  0.0385
 3576TIP3    H110734   3.671   1.226   3.803 -1.0553 -0.0023  1.4628
 3576TIP3    H210735   3.580   1.105   3.810 -0.9865 -0.2302 -0.7405
 3577TIP3   OH210736   3.321   0.203   5.061  0.2132 -0.1367  0.4692
 3577TIP3    H110737   3.286   0.256   4.989 -1.0534 -0.9762  0.4304
 3577TIP3    H210738   3.289   0.247   5.140  0.9271  0.3290  0.5062
 3578TIP3   OH210739   3.464   0.820   2.041 -0.1447 -0.0446 -0.6558
 3578TIP3    H110740   3.514   0.753   1.996 -0.4597 -0.4260 -0.4472
 3578TIP3    H210741   3.516   0.841   2.119 -0.4860 -0.7271 -0.2292
 3579TIP3   OH210742   5.835   5.893   0.625  0.3958 -0.0001 -0.1132
 3579TIP3    H110743   5.898   5.952   0.582  0.1575 -0.7404 -1.5292
 3579TIP3    H210744   5.758   5.948   0.641  0.5278  0.3193 -0.5480
 3580TIP3   OH210745   1.156   0.926   1.520  0.4754  0.4256  0.0510
 3580TIP3    H110746   1.135   1.003   1.574  0.3466  0.2560  0.2449
 3580TIP3    H210747   1.199   0.866   1.581  0.9912  0.5297 -0.2076
 3581TIP3   OH210748   4.444   3.564   1.791 -0.4934  0.3958 -0.2753
 3581TIP3    H110749   4.506   3.570   1.863 -0.4833 -0.9574 -0.1323
 3581TIP3    H210750   4.468   3.483   1.746 -1.7204  0.2002 -0.6304
 3582TIP3   OH210751   5.561   0.448   4.586  0.3458  0.4797  0.2686
 3582TIP3    H110752   5.557   0.439   4.681 -0.7905  0.7570  0.2636
 3582TIP3    H210753   5.494   0.387   4.554  1.2696 -0.2162 -0.4077
 3583TIP3   OH210754   3.852   5.295   0.145 -0.5223 -0.1649 -0.4440
 3583TIP3    H110755   3.898   5.346   0.078 -1.0496 -1.1265 -1.5575
 3583TIP3    H210756   3.775   5.261   0.100 -1.6336  0.3164  1.0365
 3584TIP3   OH210757   1.385   5.467   0.760 -0.2599 -0.1716  0.5837
 3584TIP3    H110758   1.339   5.492   0.840 -1.6804 -0.8639  0.0365
 3584TIP3    H210759   1.451   5.403   0.788 -0.5738 -0.2152  1.2401
 3585TIP3   OH210760   3.116   3.408   1.297  0.0741 -0.0619  0.0954
 3585TIP3    H110761   3.184   3.453   1.247  0.8834 -2.6699 -1.3683
 3585TIP3    H210762   3.072   3.352   1.233 -1.5812 -0.5795  1.5763
 3586TIP3   OH210763   5.916   3.612   1.423  0.2226  0.1062 -0.1930
 3586TIP3    H110764   5.988   3.675   1.420  0.2188  0.1635  0.5447
 3586TIP3    H210765   5.879   3.623   1.511 -1.5500  1.0317 -1.0213
 3587TIP3   OH210766   4.878   2.700   4.834 -0.3746 -0.1578 -0.0335
 3587TIP3    H110767   4.957   2.666   4.791  0.7052 -1.0047  2.4342
 3587TIP3    H210768   4.851   2.630   4.893 -3.1614  0.0367 -0.9499
 3588TIP3   OH210769   2.084   4.202   2.175 -0.6590 -0.1553 -0.1092
 3588TIP3    H110770   2.053   4.132   2.118  0.0174 -0.9339  0.4509
 3588TIP3    H210771   2.088   4.162   2.262  3.3798 -0.6977 -0.3178
 3589TIP3   OH210772   0.886   1.804   2.593 -0.3692 -0.1491 -0.1688
 3589TIP3    H110773   0.913   1.861   2.521 -1.3254  0.1114 -0.3348
 3589TIP3    H210774   0.954   1.816   2.660  0.8780 -0.8824 -1.2575
 3590TIP3   OH210775   5.557   2.963   0.651 -0.1316 -0.4125 -0.8998
 3590TIP3    H110776   5.625   2.988   0.589 -0.6479  1.4259 -0.7861
 3590TIP3    H210777   5.487   3.026   0.636 -0.7719 -0.7020  0.7035
 3591TIP3   OH210778   4.105   2.861   1.313  0.1208  0.4898  0.2542
 3591TIP3    H110779   4.152   2.944   1.308  1.7541 -0.3472  0.8460
 3591TIP3    H210780   4.110   2.837   1.406 -2.4356  0.8518  0.5540
 3592TIP3   OH210781   2.410   3.209   4.469 -0.0081  0.0410  0.2130
 3592TIP3    H110782   2.473   3.174   4.406  1.8131  0.5094  1.6972
 3592TIP3    H210783   2.328   3.163   4.449  0.2126  0.8562 -3.0598
 3593TIP3   OH210784   5.308   1.927   2.951 -0.4295 -0.3791 -0.1005
 3593TIP3    H110785   5.398   1.903   2.928  0.2395 -0.9717  2.7764
 3593TIP3    H210786   5.266   1.845   2.976 -1.5286  0.0155 -0.5477
 3594TIP3   OH210787   1.537   5.164   0.212  0.4658 -0.1321 -0.3728
 3594TIP3    H110788   1.452   5.132   0.182  0.7331  0.7494 -2.2454
 3594TIP3    H210789   1.594   5.087   0.212  0.4384 -0.2087 -2.2267
 3595TIP3   OH210790   4.134   5.640   1.745  0.0496 -0.5187 -0.0494
 3595TIP3    H110791   4.185   5.687   1.810  0.9373  1.4982 -2.0808
 3595TIP3    H210792   4.194   5.575   1.709 -0.3991 -1.5372  0.9779
 3596TIP3   OH210793   4.957   0.475   2.302 -0.4589  0.3483  0.1259
 3596TIP3    H110794   4.980   0.404   2.241  2.1644  1.0928  0.1214
 3596TIP3    H210795   4.906   0.536   2.249  0.4872  0.2475 -0.9377
 3597TIP3   OH210796   1.847   5.271   2.792  0.7390  0.4537 -0.3655
 3597TIP3    H110797   1.871   5.215   2.866 -0.6941  0.8330  0.4340
 3597TIP3    H210798   1.929   5.309   2.763  1.6247 -1.3110 -0.3203
 3598TIP3   OH210799   5.571   2.968   4.629 -0.5191 -0.5142  0.5115
 3598TIP3    H110800   5.502   2.904   4.649  0.8732 -3.1032 -2.1648
 3598TIP3    H210801   5.525   3.043   4.591 -1.9933 -1.4024  0.4644
 3599TIP3   OH210802   5.287   4.372   4.296  0.7148 -0.1395  0.2187
 3599TIP3    H110803   5.273   4.374   4.390 -1.0919  1.3551 -0.0226
 3599TIP3    H210804   5.231   4.442   4.262  1.7627 -0.2611 -1.9101
 3600TIP3   OH210805   0.416   3.378   3.514 -0.3918 -0.0338 -0.1437
 3600TIP3    H110806   0.329   3.415   3.525 -0.4436 -0.3462  0.5572
 3600TIP3    H210807   0.471   3.427   3.574 -0.0796  0.1712 -0.5941
 3601TIP3   OH210808   3.981   1.573   2.780 -0.1868  0.2076 -0.1589
 3601TIP3    H110809   4.032   1.492   2.774 -0.9232 -0.3543  1.0093
 3601TIP3    H210810   3.978   1.593   2.873 -1.3271  0.7398 -0.2944
 3602TIP3   OH210811   2.181   4.825   2.177  0.1479 -0.5053  0.3672
 3602TIP3    H110812   2.221   4.853   2.259 -0.5465 -0.6089  0.7502
 3602TIP3    H210813   2.148   4.737   2.195 -0.4634 -0.3287  0.1335
 3603TIP3   OH210814   0.329   3.969   1.073 -0.1082  0.7996 -0.6789
 3603TIP3    H110815   0.366   3.892   1.116  0.7174  1.9326  0.7759
 3603TIP3    H210816   0.385   3.983   0.997 -0.1940  0.0236 -0.8861
 3604TIP3   OH210817   0.334   2.530   1.872 -0.6539  0.0065  0.2152
 3604TIP3    H110818   0.316   2.545   1.964 -1.2384 -1.3062  0.3418
 3604TIP3    H210819   0.310   2.438   1.858  1.4086 -0.4364 -0.7504
 3605TIP3   OH210820   6.087   4.124   0.220 -0.3662 -0.0440 -0.5230
 3605TIP3    H110821   6.035   4.199   0.189  0.2752  0.6907  0.1465
 3605TIP3    H210822   6.177   4.157   0.224 -0.0660 -0.8728 -0.2732
 3606TIP3   OH210823   5.757   2.248   2.075  0.5291 -0.1137 -0.2862
 3606TIP3    H110824   5.794   2.199   2.001 -0.7483  0.6811 -1.5027
 3606TIP3    H210825   5.801   2.333   2.070  0.1266  0.0868 -0.3858
 3607TIP3   OH210826   4.362   5.241   4.947  0.2035 -0.4032  0.0764
 3607TIP3    H110827   4.324   5.158   4.978 -0.1327 -0.4963 -0.5605
 3607TIP3    H210828   4.440   5.214   4.897  0.6992 -0.2603  0.7570
 3608TIP3   OH210829   5.114   4.346   5.006 -0.6715  0.1475  0.0938
 3608TIP3    H110830   5.194   4.357   4.955  0.6467 -1.0613  1.8324
 3608TIP3    H210831   5.064   4.426   4.989  0.9327  0.9717 -0.9521
 3609TIP3   OH210832   3.019   5.342   4.063  0.0886 -0.2322  0.2066
 3609TIP3    H110833   3.014   5.435   4.042  2.2780  0.0887  0.7978
 3609TIP3    H210834   3.037   5.339   4.157  0.7732 -1.1993  0.0648
 3610TIP3   OH210835   1.479   2.394   0.953 -0.0317  0.2337 -0.6598
 3610TIP3    H110836   1.477   2.470   0.894 -0.4907 -0.3895 -1.4722
 3610TIP3    H210837   1.418   2.331   0.913 -0.1716 -0.3053  0.3546
 3611TIP3   OH210838   4.372   0.956   2.907  0.3299  0.7231 -0.0438
 3611TIP3    H110839   4.301   0.986   2.850 -1.5699  0.4045  2.0160
 3611TIP3    H210840   4.369   0.860   2.900  0.2340  0.6904  0.4004
 3612TIP3   OH210841   2.010   4.203   1.443  0.1959 -0.0456  0.0885
 3612TIP3    H110842   2.085   4.241   1.396  0.5153  1.6311  1.8521
 3612TIP3    H210843   1.956   4.165   1.373  1.9832 -0.1122 -1.3583
 3613TIP3   OH210844   3.166   2.218   4.853 -0.3283 -0.0961  0.3779
 3613TIP3    H110845   3.203   2.293   4.899  0.5123  0.2681 -0.8485
 3613TIP3    H210846   3.085   2.251   4.814 -0.3013 -0.0209  0.3864
 3614TIP3   OH210847   6.112   5.328   4.161 -0.1279 -0.1488 -0.5109
 3614TIP3    H110848   6.207   5.314   4.161  0.0672  0.9967  0.5273
 3614TIP3    H210849   6.078   5.259   4.104  1.4733  0.4690 -2.3681
 3615TIP3   OH210850   6.293   5.051   1.535  0.8279 -0.0061 -0.0259
 3615TIP3    H110851   6.364   4.993   1.507  0.8770 -0.3270  0.7409
 3615TIP3    H210852   6.213   5.004   1.510  0.8452 -0.8781  1.4316
 3616TIP3   OH210853   4.678   4.397   1.092 -0.4002 -0.2740  0.4824
 3616TIP3    H110854   4.584   4.400   1.108 -0.6929 -0.4200 -1.0578
 3616TIP3    H210855   4.687   4.349   1.009  1.0776 -0.9310  0.9807
 3617TIP3   OH210856   4.445   5.167   0.303 -0.5643  0.2287  0.1740
 3617TIP3    H110857   4.366   5.207   0.265 -0.2815 -0.0209 -0.6859
 3617TIP3    H210858   4.442   5.076   0.275  1.8170  0.9417 -2.9132
 3618TIP3   OH210859   2.307   2.230   2.363 -0.2698  0.0241  0.3614
 3618TIP3    H110860   2.258   2.304   2.326 -0.5137 -0.1482  0.3428
 3618TIP3    H210861   2.361   2.270   2.432 -2.5159 -0.1618  2.3775
 3619TIP3   OH210862   6.080   5.662   4.917  0.7376 -0.1548  0.2836
 3619TIP3    H110863   6.052   5.752   4.935  2.3602  0.4873 -0.2083
 3619TIP3    H210864   6.059   5.649   4.825  0.7585 -0.1944  0.2850
 3620TIP3   OH210865   2.688   3.597   1.327  0.3817 -0.6220 -0.0325
 3620TIP3    H110866   2.626   3.650   1.276  2.1708  3.0411  1.2252
 3620TIP3    H210867   2.701   3.519   1.274 -1.3315  0.8406 -2.8868
 3621TIP3   OH210868   1.561   1.229   3.395  0.3156  0.2195 -0.3005
 3621TIP3    H110869   1.554   1.300   3.459  0.9561 -0.8122  0.9647
 3621TIP3    H210870   1.600   1.270   3.318  0.8679  1.2018  0.4804
 3622TIP3   OH210871   5.169   5.799   3.670 -0.2207 -0.3158  0.1328
 3622TIP3    H110872   5.157   5.758   3.584 -2.2561 -0.2920  0.3495
 3622TIP3    H210873   5.192   5.727   3.728  0.1555 -0.5049 -0.2503
 3623TIP3   OH210874   1.065   5.961   2.716 -0.1542  0.1809 -0.4071
 3623TIP3    H110875   1.055   6.052   2.747  0.0936  0.6993 -1.7820
 3623TIP3    H210876   1.013   5.909   2.778  1.7559  0.9113  1.9997
 3624TIP3   OH210877   4.058   3.509   4.114 -0.3530  0.0542  0.1814
 3624TIP3    H110878   3.982   3.485   4.167 -1.0195 -2.0326 -1.5912
 3624TIP3    H210879   4.133   3.488   4.170 -0.9863  1.5441  1.7093
 3625TIP3   OH210880   4.011   4.472   0.417 -0.2703 -0.3658 -0.4575
 3625TIP3    H110881   3.921   4.505   0.417 -0.6202 -1.1249 -2.7348
 3625TIP3    H210882   4.042   4.489   0.329  1.3092 -1.4602 -0.1468
 3626TIP3   OH210883   4.950   3.533   3.152 -0.3452  0.0112  0.2354
 3626TIP3    H110884   4.863   3.551   3.116  0.0055  0.7268 -0.2730
 3626TIP3    H210885   4.987   3.467   3.094  0.0458  0.8386 -0.4763
 3627TIP3   OH210886   3.508   3.720   1.744 -0.2225 -0.2792  0.0203
 3627TIP3    H110887   3.428   3.674   1.717 -0.5076  0.5689 -0.6372
 3627TIP3    H210888   3.579   3.661   1.719 -0.5129  0.1374 -1.9710
 3628TIP3   OH210889   5.566   4.484   5.044 -0.0034  0.0152 -0.4071
 3628TIP3    H110890   5.557   4.508   5.136  2.2810  0.3070 -0.2103
 3628TIP3    H210891   5.551   4.565   4.996 -2.8280 -0.4413 -0.4907
 3629TIP3   OH210892   0.044   4.367   4.953  0.2467 -0.6323 -0.2263
 3629TIP3    H110893   0.065   4.338   5.041  0.1879  2.4782  0.9166
 3629TIP3    H210894  -0.052   4.363   4.948  0.3007 -2.7650 -0.9906
 3630TIP3   OH210895   2.311   2.123   4.301 -0.0288 -0.6489 -0.0081
 3630TIP3    H110896   2.226   2.081   4.293  0.2003 -1.0607 -0.3562
 3630TIP3    H210897   2.325   2.133   4.395  0.2910 -2.1634  0.1425
 3631TIP3   OH210898   3.025   2.762   2.579  0.1029  0.1513 -0.1125
 3631TIP3    H110899   3.003   2.775   2.671  1.2343  1.1852  0.0274
 3631TIP3    H210900   3.056   2.672   2.574  2.2554  0.7623  1.0096
 3632TIP3   OH210901   2.630   5.116   3.935  0.2791 -0.0080  0.3346
 3632TIP3    H110902   2.712   5.107   3.886 -0.0822  2.4040 -0.8880
 3632TIP3    H210903   2.591   5.197   3.901 -3.0961 -1.5329  0.1879
 3633TIP3   OH210904   2.882   2.431   1.864 -0.1380 -0.2055  0.5844
 3633TIP3    H110905   2.900   2.466   1.951  0.9970 -0.1298  0.3271
 3633TIP3    H210906   2.832   2.501   1.821 -0.7456 -0.2605  1.1701
 3634TIP3   OH210907   3.310   3.773   4.713  0.0051 -0.2738  0.0421
 3634TIP3    H110908   3.267   3.764   4.798 -0.1239 -0.5813 -0.0536
 3634TIP3    H210909   3.268   3.706   4.658  0.2944 -0.2758 -0.1776
 3635TIP3   OH210910   2.496   0.449   2.305 -0.7078  0.1478  0.0733
 3635TIP3    H110911   2.420   0.415   2.353 -0.0844 -0.8637  0.3747
 3635TIP3    H210912   2.505   0.390   2.231 -0.9493  1.0094 -0.6610
 3636TIP3   OH210913   0.505   5.963   3.769 -0.1310  0.0042 -0.3182
 3636TIP3    H110914   0.546   6.044   3.801  0.9755 -0.6969  0.0662
 3636TIP3    H210915   0.481   5.915   3.848 -1.8358  0.4282 -0.5243
 3637TIP3   OH210916   0.710   0.344   2.927 -0.2553  0.2112  0.2428
 3637TIP3    H110917   0.716   0.438   2.945  2.0028  0.6968 -2.3845
 3637TIP3    H210918   0.647   0.338   2.856  0.9972  0.0033 -0.8781
 3638TIP3   OH210919   4.338   5.447   3.809  0.3597  0.1003  0.0420
 3638TIP3    H110920   4.250   5.423   3.838 -0.4905  0.0158 -2.3381
 3638TIP3    H210921   4.335   5.435   3.714  2.2686  2.2453 -0.3655
 3639TIP3   OH210922   5.694   4.295   4.285  0.6989  0.1218 -0.5580
 3639TIP3    H110923   5.749   4.223   4.315  0.1403  0.3075  1.0348
 3639TIP3    H210924   5.642   4.258   4.214  0.7383 -0.9322 -0.0543
 3640TIP3   OH210925   3.226   5.717   2.185  0.8840  0.3338 -0.3121
 3640TIP3    H110926   3.231   5.664   2.105  2.0463 -1.5049  0.8842
 3640TIP3    H210927   3.310   5.702   2.228  0.5675  1.8754  0.9128
 3641TIP3   OH210928   5.520   2.145   1.111  0.2605 -0.5485 -0.2294
 3641TIP3    H110929   5.567   2.070   1.076  0.0812  0.5050 -2.9249
 3641TIP3    H210930   5.556   2.220   1.064 -0.9525  0.8333  0.9562
 3642TIP3   OH210931   5.234   2.489   1.247 -0.4319 -0.5359 -0.2004
 3642TIP3    H110932   5.275   2.501   1.161 -1.1186  1.1243 -0.3252
 3642TIP3    H210933   5.288   2.541   1.306 -1.6255  0.6943 -0.1564
 3643TIP3   OH210934   6.297   2.061   0.597  0.4168 -0.3116 -0.4754
 3643TIP3    H110935   6.302   1.985   0.539 -1.1792 -0.9884  0.1974
 3643TIP3    H210936   6.385   2.069   0.634  0.9331 -1.0641 -1.4775
 3644TIP3   OH210937   1.724   1.019   2.752  0.2155 -0.0156 -0.2549
 3644TIP3    H110938   1.798   0.960   2.761  0.7673  0.8387  1.0037
 3644TIP3    H210939   1.663   0.993   2.821  1.3451  2.0941  1.6412
 3645TIP3   OH210940   5.005   2.693   1.394  0.0691  0.2895  0.4713
 3645TIP3    H110941   5.002   2.787   1.376 -1.4208  0.1198 -0.3081
 3645TIP3    H210942   5.074   2.660   1.337 -1.7909  0.4117 -2.0226
 3646TIP3   OH210943   4.511   1.100   4.676 -0.5255  0.0383 -0.7713
 3646TIP3    H110944   4.450   1.044   4.629 -0.0655 -1.4008  0.2647
 3646TIP3    H210945   4.598   1.068   4.651 -0.2724 -0.5129  0.7207
 3647TIP3   OH210946   2.233   2.351   3.444 -0.2542 -0.4195 -0.3007
 3647TIP3    H110947   2.267   2.376   3.358  0.8077  1.0540  0.5145
 3647TIP3    H210948   2.179   2.425   3.471  0.5336 -0.2523  0.8825
 3648TIP3   OH210949   0.122   3.674   4.519  0.3579  0.6530 -0.0341
 3648TIP3    H110950   0.084   3.661   4.606  1.4632  0.2890  0.4113
 3648TIP3    H210951   0.048   3.701   4.464 -0.7998 -1.2628  0.4961
 3649TIP3   OH210952   4.447   4.525   1.812 -0.2712 -0.3478  0.1659
 3649TIP3    H110953   4.493   4.502   1.893  1.5821  0.8075 -0.4940
 3649TIP3    H210954   4.481   4.463   1.747 -0.2205  0.0262 -0.1671
 3650TIP3   OH210955   1.726   4.767   4.417  0.4159 -0.5751  0.0192
 3650TIP3    H110956   1.737   4.762   4.322  1.1923 -1.8924  0.1598
 3650TIP3    H210957   1.816   4.772   4.450  0.1422  0.1845  0.6902
 3651TIP3   OH210958   2.054   2.150   3.463  0.3589  0.3092  0.3591
 3651TIP3    H110959   2.059   2.140   3.368 -0.5665  1.3469  0.1904
 3651TIP3    H210960   2.118   2.219   3.483  1.1339 -0.4565  0.6055
 3652TIP3   OH210961   0.917   0.322   3.327  0.0787 -0.1399 -0.8275
 3652TIP3    H110962   0.990   0.337   3.388 -0.7540 -0.3760  0.2661
 3652TIP3    H210963   0.924   0.230   3.303 -1.4065 -0.9223  1.4468
 3653TIP3   OH210964   4.884   5.269   0.020 -0.1979  0.4029 -0.7939
 3653TIP3    H110965   4.974   5.244  -0.000  0.1688  0.8076  0.2298
 3653TIP3    H210966   4.830   5.199  -0.016  0.4954  0.3245 -1.7213
 3654TIP3   OH210967   1.518   2.485   1.765 -0.4298  0.7656  0.0828
 3654TIP3    H110968   1.498   2.578   1.776  0.9654  0.8957  2.0321
 3654TIP3    H210969   1.506   2.448   1.852  0.9425 -0.4743 -0.2258
 3655TIP3   OH210970   4.046   0.681   0.882  0.0995  0.1057 -0.2963
 3655TIP3    H110971   4.056   0.725   0.798  0.7636  0.6529  0.0609
 3655TIP3    H210972   4.068   0.589   0.864  4.5678  0.8931  0.0525
 3656TIP3   OH210973   5.063   0.430   1.792  0.2029  0.2386  0.4294
 3656TIP3    H110974   5.025   0.457   1.708 -2.7303 -1.9960  0.8931
 3656TIP3    H210975   5.138   0.376   1.767 -0.4032 -0.0957 -0.7567
 3657TIP3   OH210976   3.190   5.727   1.031 -0.3268 -0.0518 -0.0240
 3657TIP3    H110977   3.128   5.794   1.058  0.0657  0.0246  0.7050
 3657TIP3    H210978   3.197   5.737   0.936  1.0987  2.1400  0.2612
 3658TIP3   OH210979   3.114   5.662   4.276 -0.1707  0.1609 -0.0703
 3658TIP3    H110980   3.026   5.670   4.239  0.1167  0.6501 -0.6786
 3658TIP3    H210981   3.156   5.746   4.254 -0.3251  0.9382  2.2967
 3659TIP3   OH210982   1.276   3.459   2.289  0.6841  0.0717 -0.1452
 3659TIP3    H110983   1.261   3.515   2.364  0.7618 -0.0130 -0.0663
 3659TIP3    H210984   1.371   3.463   2.274  0.6699  0.0832 -0.2340
 3660TIP3   OH210985   3.322   2.223   1.705  0.3418 -0.4910 -0.1531
 3660TIP3    H110986   3.260   2.164   1.662  0.9380 -1.1207 -0.1599
 3660TIP3    H210987   3.361   2.171   1.774  0.4454  0.0840  0.2257
 3661TIP3   OH210988   0.323   3.974   4.267  0.2954 -0.1332  0.1571
 3661TIP3    H110989   0.290   3.944   4.352  1.3306 -1.4003  0.1575
 3661TIP3    H210990   0.415   3.995   4.283  1.0893 -2.3581 -1.0243
 3662TIP3   OH210991   5.521   3.422   2.743 -0.2319  0.0157 -0.6076
 3662TIP3    H110992   5.581   3.348   2.752 -0.7013 -0.3528 -0.4817
 3662TIP3    H210993   5.547   3.464   2.661  1.8784  1.3833  0.6524
 3663TIP3   OH210994   4.517   0.114   2.413  0.3537 -0.4316 -0.4377
 3663TIP3    H110995   4.465   0.055   2.468  1.9196  0.1457  1.7906
 3663TIP3    H210996   4.601   0.069   2.402  2.2256  1.8206  2.6985
 3664TIP3   OH210997   5.936   0.453   0.296  0.9086  0.2020 -0.3076
 3664TIP3    H110998   5.989   0.451   0.216  1.8022  0.7799  0.2579
 3664TIP3    H210999   5.993   0.491   0.362  0.1201 -0.1109  0.5770
 3665TIP3   OH211000   5.630   0.751   4.125  0.3742  0.1523 -0.2881
 3665TIP3    H111001   5.586   0.690   4.067  1.5116  0.3948 -1.4408
 3665TIP3    H211002   5.606   0.722   4.213 -3.4499  1.2478 -0.7687
 3666TIP3   OH211003   0.685   1.912   2.292  0.3067  0.1209 -0.1928
 3666TIP3    H111004   0.675   1.885   2.201  0.7877 -1.2433  0.1365
 3666TIP3    H211005   0.779   1.926   2.302  0.2911 -0.0298  0.1703
 3667TIP3   OH211006   4.954   3.695   3.627  0.6573  0.1765 -0.0029
 3667TIP3    H111007   4.886   3.739   3.678  1.3105  3.0570 -1.4260
 3667TIP3    H211008   4.908   3.663   3.549  1.0121  3.6403 -1.8276
 3668TIP3   OH211009   2.341   2.693   3.358 -0.0429  0.5793  0.4498
 3668TIP3    H111010   2.366   2.612   3.313 -1.2555 -0.6915  1.9296
 3668TIP3    H211011   2.262   2.723   3.313  0.1210  0.6568  0.2152
 3669TIP3   OH211012   2.694   4.736   3.643 -0.0064  0.4866 -0.0118
 3669TIP3    H111013   2.749   4.801   3.598  1.2383 -0.0671  0.6436
 3669TIP3    H211014   2.738   4.652   3.626 -0.6110  0.0369  0.5900
 3670TIP3   OH211015   3.911   0.582   1.263  0.1399  0.1177  0.2871
 3670TIP3    H111016   3.996   0.610   1.297 -0.0789  0.4342  0.5758
 3670TIP3    H211017   3.902   0.492   1.293  0.4564  0.0210  0.0984
 3671TIP3   OH211018   0.208   3.823   0.625 -0.0970 -0.4731 -0.2702
 3671TIP3    H111019   0.140   3.772   0.581 -0.2625 -0.5714  0.0958
 3671TIP3    H211020   0.240   3.766   0.695 -0.1120 -0.1723 -0.0137
 3672TIP3   OH211021   1.970   0.430   0.749 -0.2093 -0.2464  0.1717
 3672TIP3    H111022   2.031   0.443   0.677  1.4719  0.2805  1.6479
 3672TIP3    H211023   2.025   0.408   0.825 -1.8490  0.0451  1.5118
 3673TIP3   OH211024   0.016   5.435   2.969  0.5276 -0.0794  0.5969
 3673TIP3    H111025  -0.041   5.449   2.893 -0.4224  0.6241  1.4203
 3673TIP3    H211026   0.063   5.354   2.949 -1.2486 -1.0618  0.1753
 3674TIP3   OH211027   5.490   1.232   0.090  0.0829  0.3671 -0.0061
 3674TIP3    H111028   5.572   1.275   0.114  0.6499 -0.3560 -0.5709
 3674TIP3    H211029   5.430   1.303   0.068 -0.1214  1.0103  2.3773
 3675TIP3   OH211030   0.224   2.425   4.947 -0.1629  0.4054  0.3266
 3675TIP3    H111031   0.147   2.462   4.989 -0.0322  2.4081 -1.0405
 3675TIP3    H211032   0.247   2.489   4.879 -0.0452 -2.3034 -2.4334
 3676TIP3   OH211033   4.402   0.469   3.535  0.1059  0.0392 -0.5789
 3676TIP3    H111034   4.417   0.543   3.476 -0.1318  0.1225 -0.5354
 3676TIP3    H211035   4.318   0.433   3.508  0.6076 -0.7273 -1.1394
 3677TIP3   OH211036   5.709   3.664   5.052  0.0786  0.1207  0.1620
 3677TIP3    H111037   5.681   3.573   5.045 -1.2047  0.5548 -0.6321
 3677TIP3    H211038   5.785   3.671   4.994 -0.3118 -0.2545 -0.3978
 3678TIP3   OH211039   0.053   1.997   1.966  0.1030  0.0137 -0.5018
 3678TIP3    H111040   0.009   1.935   2.024 -0.8249 -1.4692 -2.6425
 3678TIP3    H211041   0.120   1.944   1.922  1.1263  1.2182 -0.4289
 3679TIP3   OH211042   2.168   0.461   1.669 -0.8305  0.6017  0.0626
 3679TIP3    H111043   2.179   0.551   1.638 -0.3037  0.7518  0.6597
 3679TIP3    H211044   2.258   0.430   1.683 -1.0464  0.3602  0.9164
 3680TIP3   OH211045   5.656   5.337   3.917 -0.5064 -0.1778  0.3006
 3680TIP3    H111046   5.638   5.270   3.851  1.3119 -1.5287  1.1230
 3680TIP3    H211047   5.747   5.324   3.941 -0.2068  2.3377  0.8219
 3681TIP3   OH211048   1.451   0.717   0.446  0.4701  0.2899  0.2047
 3681TIP3    H111049   1.502   0.777   0.500 -0.3706  1.1212  0.1026
 3681TIP3    H211050   1.505   0.638   0.439  1.3359  0.8189  0.8230
 3682TIP3   OH211051   1.573   2.589   0.220 -0.0456  0.1433  0.1449
 3682TIP3    H111052   1.554   2.634   0.303 -1.1775  1.3325 -0.7225
 3682TIP3    H211053   1.661   2.554   0.231 -0.5397 -0.6083  2.2294
 3683TIP3   OH211054   4.592   1.240   3.803 -0.0095  0.0002  0.1476
 3683TIP3    H111055   4.511   1.249   3.853 -0.2309 -1.1710  0.0316
 3683TIP3    H211056   4.660   1.276   3.861 -0.5784  0.8144  0.3192
 3684TIP3   OH211057   5.272   3.792   0.482  0.2997 -0.3556 -0.3661
 3684TIP3    H111058   5.273   3.878   0.440 -2.1822  0.3144  0.7458
 3684TIP3    H211059   5.218   3.738   0.425 -1.7084  0.0973  1.0100
 3685TIP3   OH211060   0.858   2.604   4.181  0.4945 -0.8164  0.0752
 3685TIP3    H111061   0.904   2.642   4.106  0.4919 -1.4275 -0.2482
 3685TIP3    H211062   0.832   2.679   4.234 -2.5871  0.0073 -2.2492
 3686TIP3   OH211063   0.927   3.616   0.355  0.2368 -0.4783 -0.2336
 3686TIP3    H111064   0.935   3.684   0.289 -0.5584  0.6445  0.7921
 3686TIP3    H211065   0.876   3.547   0.313  2.2657 -1.1256 -1.7691
 3687TIP3   OH211066   2.685   2.038   3.534  0.0654 -0.2433 -0.5095
 3687TIP3    H111067   2.727   2.097   3.471  0.3410 -0.2250 -0.3128
 3687TIP3    H211068   2.751   2.026   3.603  0.7954 -2.3022 -1.4680
 3688TIP3   OH211069   5.708   1.423   4.450  0.3422 -0.0485  0.3094
 3688TIP3    H111070   5.770   1.460   4.388 -2.0875  1.4835 -1.3952
 3688TIP3    H211071   5.739   1.334   4.466  2.1281  0.1687 -1.6029
 3689TIP3   OH211072   5.978   5.477   2.522  0.9664 -0.4364  0.3793
 3689TIP3    H111073   5.940   5.423   2.592  1.3855 -1.7722 -0.3866
 3689TIP3    H211074   6.028   5.415   2.469 -0.8847  0.1683 -2.2229
 3690TIP3   OH211075   1.802   5.721   2.324 -0.5053  0.7087 -0.1688
 3690TIP3    H111076   1.815   5.646   2.383 -0.1065  0.7812 -0.1600
 3690TIP3    H211077   1.843   5.694   2.242 -0.0515  1.0502 -0.0570
 3691TIP3   OH211078   3.214   1.941   4.372  0.7320 -0.0028  0.3330
 3691TIP3    H111079   3.180   2.028   4.392  0.9468  0.8339 -2.4716
 3691TIP3    H211080   3.135   1.887   4.360  0.5826 -0.0136  1.3500
 3692TIP3   OH211081   2.871   0.648   1.897 -0.0739  0.7058 -0.2097
 3692TIP3    H111082   2.928   0.655   1.974 -0.2237 -0.2473  0.0070
 3692TIP3    H211083   2.817   0.727   1.899  0.7092  1.2420  0.0185
 3693TIP3   OH211084   0.771   3.485   4.691 -0.3264  0.8211 -0.0782
 3693TIP3    H111085   0.840   3.431   4.729  0.6245  2.3268  0.4110
 3693TIP3    H211086   0.716   3.423   4.642  0.0136 -0.7488  1.4456
 3694TIP3   OH211087   3.074   2.427   5.168 -0.5191 -0.1511 -0.0164
 3694TIP3    H111088   3.153   2.477   5.148 -0.1184 -0.4894  0.7009
 3694TIP3    H211089   3.006   2.493   5.182 -0.5354  0.1334 -1.2611
 3695TIP3   OH211090   2.514   0.235   2.075 -0.8518  0.2058 -0.3532
 3695TIP3    H111091   2.580   0.202   2.014  1.5865  2.3241  0.9108
 3695TIP3    H211092   2.530   0.188   2.156 -1.3668  0.2376 -0.2297
 3696TIP3   OH211093   1.795   3.920   3.737  0.2691 -0.1477  0.0228
 3696TIP3    H111094   1.769   3.829   3.754 -1.5048  0.3019 -0.1130
 3696TIP3    H211095   1.766   3.937   3.648  1.2008  0.3672 -0.1952
 3697TIP3   OH211096   2.543   1.217   3.827  0.1625 -0.1194  0.3836
 3697TIP3    H111097   2.544   1.310   3.852 -0.9889 -0.3027  1.1823
 3697TIP3    H211098   2.472   1.179   3.878  1.2008 -1.6507  0.7570
 3698TIP3   OH211099   1.360   4.661   1.899  0.4470 -0.7776  0.6149
 3698TIP3    H111100   1.442   4.635   1.941  1.1402 -0.9865 -0.8120
 3698TIP3    H211101   1.325   4.580   1.862 -0.1017 -0.5794  0.6885
 3699TIP3   OH211102   1.487   4.912   2.852 -0.2714 -0.6685 -0.0993
 3699TIP3    H111103   1.461   4.822   2.871 -1.0266 -0.5073 -0.3226
 3699TIP3    H211104   1.433   4.936   2.776 -0.5007  0.1659  0.3217
 3700TIP3   OH211105   1.570   3.392   4.974 -0.1279  0.2559 -0.2411
 3700TIP3    H111106   1.583   3.486   4.984  2.7533 -0.0432 -0.2274
 3700TIP3    H211107   1.594   3.374   4.883 -1.9592 -0.3268 -0.6446
 3701TIP3   OH211108   2.944   0.398   4.618  0.6137 -0.1661  0.1524
 3701TIP3    H111109   2.996   0.320   4.598  0.7628  0.2004 -0.9269
 3701TIP3    H211110   2.921   0.388   4.711  2.2563 -0.5317  0.5484
 3702TIP3   OH211111   1.657   5.467   0.865 -0.0862 -0.0234  0.1313
 3702TIP3    H111112   1.734   5.466   0.808 -0.3858 -2.2463 -0.2957
 3702TIP3    H211113   1.691   5.450   0.952 -0.1638 -2.5859 -0.2656
 3703TIP3   OH211114   6.181   0.987   3.646  0.0483 -0.3017  0.2083
 3703TIP3    H111115   6.215   0.907   3.605 -1.6167 -0.2342 -1.4421
 3703TIP3    H211116   6.236   1.057   3.613  1.5514 -0.7069  1.7002
 3704TIP3   OH211117   4.038   4.400   1.341 -0.7384 -0.1566  0.5169
 3704TIP3    H111118   3.950   4.364   1.340 -0.5919 -0.8111  3.1107
 3704TIP3    H211119   4.068   4.388   1.431  1.4387  1.4282  0.1020
 3705TIP3   OH211120   2.051   4.751   3.258  0.6735  0.0935  0.6564
 3705TIP3    H111121   2.105   4.804   3.316  0.4203  1.3213 -0.2048
 3705TIP3    H211122   1.962   4.766   3.287  0.4566  1.5365 -0.6725
 3706TIP3   OH211123   1.143   4.156   3.199 -0.1821 -0.5954 -0.6970
 3706TIP3    H111124   1.137   4.129   3.107 -0.6888 -0.4981 -0.6951
 3706TIP3    H211125   1.224   4.208   3.203  0.1097 -1.0164 -0.9766
 3707TIP3   OH211126   3.848   1.532   0.952  0.0811 -0.2149  0.7800
 3707TIP3    H111127   3.910   1.482   0.899 -1.2041 -0.0975 -0.9151
 3707TIP3    H211128   3.796   1.465   0.997 -1.9801 -0.5875 -1.8825
 3708TIP3   OH211129   3.466   0.166   3.630  0.0130 -0.3269 -0.0906
 3708TIP3    H111130   3.440   0.255   3.654  1.5309  0.1768 -0.2268
 3708TIP3    H211131   3.463   0.165   3.535  1.9809  0.2400 -0.1877
 3709TIP3   OH211132   3.398   1.744   1.797 -0.1766 -0.1359  0.6640
 3709TIP3    H111133   3.367   1.687   1.726 -0.6608  0.8595  0.0500
 3709TIP3    H211134   3.488   1.718   1.812 -0.5239 -1.3726  0.7156
 3710TIP3   OH211135   3.070   2.221   3.604 -0.1177 -0.1496 -0.1318
 3710TIP3    H111136   3.069   2.204   3.509  0.4553 -0.9432 -0.0058
 3710TIP3    H211137   2.980   2.248   3.624  0.0058  1.0402 -1.0679
 3711TIP3   OH211138   3.703   2.118   4.086  0.7352  0.4963 -0.4476
 3711TIP3    H111139   3.691   2.166   4.005  2.3829  1.7852  0.0184
 3711TIP3    H211140   3.794   2.087   4.083  0.0935 -1.6028 -0.1874
 3712TIP3   OH211141   1.050   1.582   0.113 -0.3153 -0.0254 -0.1927
 3712TIP3    H111142   1.131   1.607   0.068  0.5786 -1.3408  0.6218
 3712TIP3    H211143   1.012   1.514   0.057 -0.6815  0.3476 -0.3981
 3713TIP3   OH211144   5.003   5.568   5.020  0.4359  0.2549  0.2766
 3713TIP3    H111145   5.078   5.592   5.074 -0.9755  1.6879  1.6885
 3713TIP3    H211146   4.988   5.475   5.040  1.1585  0.2467  0.8074
 3714TIP3   OH211147   1.922   4.954   3.684  0.2795 -0.6899  0.4956
 3714TIP3    H111148   1.943   5.010   3.609  0.7645  1.4208  2.1107
 3714TIP3    H211149   1.834   4.921   3.666 -0.6529  1.8178  0.1431
 3715TIP3   OH211150   4.421   2.745   1.353 -0.2500 -0.2583  0.3279
 3715TIP3    H111151   4.502   2.694   1.346  0.7805  1.3620 -0.2630
 3715TIP3    H211152   4.361   2.704   1.291  0.6078 -0.6507 -0.2653
 3716TIP3   OH211153   2.275   3.665   1.545 -0.1759  0.0318  0.3913
 3716TIP3    H111154   2.288   3.639   1.636 -1.4922  2.1725  1.2586
 3716TIP3    H211155   2.353   3.633   1.499  0.3299 -1.4250  2.1681
 3717TIP3   OH211156   3.523   2.884   2.369  0.6149  0.0754  0.4293
 3717TIP3    H111157   3.489   2.828   2.439  2.5755 -0.1890  1.2221
 3717TIP3    H211158   3.618   2.874   2.374  0.8605  1.1419 -1.3835
 3718TIP3   OH211159   1.518   0.370   1.890 -0.2292 -0.6644  0.1869
 3718TIP3    H111160   1.462   0.388   1.815  1.7578 -1.7539 -1.6881
 3718TIP3    H211161   1.546   0.456   1.921  0.1434 -0.2037 -1.3545
 3719TIP3   OH211162   3.452   2.177   4.708  0.6077 -0.6130  0.4086
 3719TIP3    H111163   3.498   2.253   4.741 -1.9532  0.6225  1.4261
 3719TIP3    H211164   3.416   2.205   4.624  0.7409 -1.1665  0.1573
 3720TIP3   OH211165   5.047   1.140   1.905  0.1215 -0.4821  0.1984
 3720TIP3    H111166   5.070   1.233   1.899  0.1553 -0.5353 -0.6135
 3720TIP3    H211167   5.047   1.110   1.815  0.5305 -1.3787  0.4921
 3721TIP3   OH211168   1.156   2.507   3.405 -0.0891 -0.2346 -0.0495
 3721TIP3    H111169   1.180   2.433   3.350 -1.1878 -0.2263 -0.5712
 3721TIP3    H211170   1.225   2.572   3.389  0.7184 -1.0203  0.1853
 3722TIP3   OH211171   6.248   2.705   4.891 -0.1587  0.5818  0.2639
 3722TIP3    H111172   6.166   2.748   4.914  0.2412  0.5285  1.9458
 3722TIP3    H211173   6.258   2.720   4.797 -1.2558  2.0217  0.3435
 3723TIP3   OH211174   5.800   3.709   3.308  0.9238  0.7886 -0.4048
 3723TIP3    H111175   5.783   3.747   3.222  1.3098 -1.1481 -1.3720
 3723TIP3    H211176   5.763   3.621   3.304  2.2654  0.1207  0.8845
 3724TIP3   OH211177   1.871   4.126   0.557  0.7484  0.0871 -0.1336
 3724TIP3    H111178   1.789   4.089   0.590  0.9463 -2.2482 -1.9836
 3724TIP3    H211179   1.847   4.212   0.522 -0.6353 -0.0484  0.4259
 3725TIP3   OH211180   3.300   4.507   0.371  0.0101  0.3248 -0.2615
 3725TIP3    H111181   3.314   4.416   0.398 -0.1111  0.3685 -0.0494
 3725TIP3    H211182   3.340   4.559   0.441  0.3496  0.4304 -0.5363
 3726TIP3   OH211183   2.146   3.566   4.565 -0.5956 -0.2404  0.6523
 3726TIP3    H111184   2.232   3.590   4.529 -0.5323 -0.5220  0.6149
 3726TIP3    H211185   2.165   3.538   4.654 -0.8567  1.2765  1.2181
 3727TIP3   OH211186   6.255   4.834   2.175 -0.1101 -0.4024  0.0122
 3727TIP3    H111187   6.342   4.872   2.167  0.4499 -1.4137  1.0131
 3727TIP3    H211188   6.203   4.879   2.108  0.8177  1.1775  0.3083
 3728TIP3   OH211189   2.939   2.044   0.575  0.2079 -0.7960  0.2263
 3728TIP3    H111190   3.005   1.991   0.620  0.7403 -0.2089  0.1669
 3728TIP3    H211191   2.981   2.130   0.565  0.3291 -1.0487 -1.8802
 3729TIP3   OH211192   1.708   1.143   2.239  0.0362 -0.2782 -0.1171
 3729TIP3    H111193   1.651   1.077   2.199  0.4277  1.0501 -3.1675
 3729TIP3    H211194   1.661   1.226   2.227  1.8658  0.6483 -1.3635
 3730TIP3   OH211195   2.840   5.442   0.463  0.1930  0.0449  0.1946
 3730TIP3    H111196   2.862   5.535   0.465  0.1889  0.0814 -0.9013
 3730TIP3    H211197   2.889   5.408   0.388 -2.9184 -0.0000 -1.9848
 3731TIP3   OH211198   5.842   4.882  -0.002 -0.2760  0.5348 -0.1815
 3731TIP3    H111199   5.814   4.919   0.082 -0.6601  0.5158 -0.2973
 3731TIP3    H211200   5.884   4.955  -0.047 -1.3562  0.9504 -0.5591
 3732TIP3   OH211201   5.424   2.658   3.635 -0.3103  0.1099  0.9882
 3732TIP3    H111202   5.511   2.688   3.663 -0.2423  1.0420 -0.1609
 3732TIP3    H211203   5.418   2.683   3.543 -0.6509 -2.5900  0.1936
 3733TIP3   OH211204   3.835   1.292   3.834 -0.5890  0.0587  0.5401
 3733TIP3    H111205   3.919   1.290   3.880 -0.5200 -1.2851  0.4242
 3733TIP3    H211206   3.825   1.382   3.805  0.1661  0.5430  1.7230
 3734TIP3   OH211207   5.236   0.234   1.938  0.3378 -0.2122  0.2679
 3734TIP3    H111208   5.305   0.271   1.883  0.1973 -0.1168  0.1574
 3734TIP3    H211209   5.243   0.140   1.925 -1.7981 -0.1190 -2.4960
 3735TIP3   OH211210   2.060   0.066   0.594 -0.2155 -0.1415  0.1334
 3735TIP3    H111211   2.155   0.066   0.583 -0.1590  0.3908  0.5733
 3735TIP3    H211212   2.047   0.039   0.685 -0.4667  0.3130  0.2305
 3736TIP3   OH211213   6.015   5.360   0.329 -0.0764  0.0209  0.2443
 3736TIP3    H111214   5.943   5.311   0.290 -0.2362  1.3117 -1.1690
 3736TIP3    H211215   5.978   5.446   0.350  1.2447  1.0702 -1.4599
 3737TIP3   OH211216   4.231   4.457   0.210 -0.4533 -0.2889  0.8289
 3737TIP3    H111217   4.245   4.366   0.235 -1.0591 -0.6837 -0.2300
 3737TIP3    H211218   4.178   4.453   0.130  2.5071  0.8623 -1.3880
 3738TIP3   OH211219   3.130   3.797   2.473  0.0373 -0.3612  0.5845
 3738TIP3    H111220   3.056   3.742   2.501  0.1577 -0.5310  0.5650
 3738TIP3    H211221   3.136   3.864   2.541 -0.1033 -0.3780  0.6139
 3739TIP3   OH211222   0.302   5.726   4.784  0.1576 -0.0149 -0.1228
 3739TIP3    H111223   0.279   5.726   4.692  3.6191 -0.8438 -1.1345
 3739TIP3    H211224   0.218   5.725   4.830 -1.7459  2.4071 -3.1601
 3740TIP3   OH211225   2.786   1.728   4.977 -0.0309  0.5903 -0.1527
 3740TIP3    H111226   2.765   1.708   4.885 -1.1726  1.0360  0.0104
 3740TIP3    H211227   2.803   1.642   5.016  0.2789  0.3820 -0.7216
 3741TIP3   OH211228   3.509   3.435   0.934 -0.4097 -0.4007  0.2347
 3741TIP3    H111229   3.588   3.382   0.948  0.2835  0.1362 -1.3405
 3741TIP3    H211230   3.475   3.405   0.849  0.1238  1.7476 -0.8165
 3742TIP3   OH211231   0.455   1.015   3.038  0.2085  0.3542  0.3556
 3742TIP3    H111232   0.452   0.920   3.039  2.5229  0.1661 -1.6643
 3742TIP3    H211233   0.498   1.038   3.121 -0.2407 -0.3346  0.7905
 3743TIP3   OH211234   6.200   5.323   3.313 -0.1952 -0.3002  0.5765
 3743TIP3    H111235   6.251   5.393   3.355 -1.4659  0.5404  0.7931
 3743TIP3    H211236   6.155   5.280   3.386  0.1015 -0.9425  0.3794
 3744TIP3   OH211237   0.945   4.308   2.237 -0.2404  0.0999 -0.6197
 3744TIP3    H111238   1.033   4.284   2.267 -1.2901 -2.0093  1.0279
 3744TIP3    H211239   0.936   4.266   2.152 -0.7139 -2.4527  0.6039
 3745TIP3   OH211240   0.175   0.956   0.241  0.0961  0.5549  0.0409
 3745TIP3    H111241   0.084   0.957   0.272  0.9292 -0.2823  2.7904
 3745TIP3    H211242   0.214   1.033   0.283  1.2249 -0.4721  0.9190
 3746TIP3   OH211243   5.239   1.296   4.086  0.2922  0.1348 -0.4441
 3746TIP3    H111244   5.172   1.239   4.048  0.7889 -0.9970  0.3687
 3746TIP3    H211245   5.225   1.380   4.041 -0.7422 -0.4697 -1.3197
 3747TIP3   OH211246   6.195   5.040   0.556 -0.4028  0.4895 -0.1028
 3747TIP3    H111247   6.211   5.083   0.472 -0.9864 -1.4754 -1.3105
 3747TIP3    H211248   6.100   5.046   0.569 -0.2000  1.7159  0.9940
 3748TIP3   OH211249   4.736   2.737   3.723  0.1971  0.2268 -0.6612
 3748TIP3    H111250   4.699   2.790   3.653 -0.1494  0.3508 -0.3864
 3748TIP3    H211251   4.660   2.698   3.767  0.4080  0.1934 -0.3239
 3749TIP3   OH211252   6.271   4.326   2.243 -0.0493  0.2911  0.0130
 3749TIP3    H111253   6.224   4.385   2.302  2.2760  1.4147  0.8552
 3749TIP3    H211254   6.329   4.383   2.193  0.6104 -1.0420 -0.8009
 3750TIP3   OH211255   5.598   2.064   0.845  0.4594 -0.0323  0.0126
 3750TIP3    H111256   5.615   2.026   0.759 -1.0389 -1.6752  0.3810
 3750TIP3    H211257   5.669   2.029   0.900  1.1075  0.5842 -0.4129
 3751TIP3   OH211258   2.655   4.855   1.932 -0.4581 -0.3387  0.1781
 3751TIP3    H111259   2.672   4.937   1.978  0.3744  0.2713 -1.1861
 3751TIP3    H211260   2.563   4.837   1.950 -0.6140  0.8018  0.6271
 3752TIP3   OH211261   5.382   4.946   2.064 -0.2726 -0.4057  0.2222
 3752TIP3    H111262   5.344   4.975   2.147 -0.0539  0.8558 -0.1020
 3752TIP3    H211263   5.317   4.885   2.028 -1.0511  0.1588  0.6320
 3753TIP3   OH211264   1.234   3.084   0.984 -0.7177  0.6068  0.0172
 3753TIP3    H111265   1.260   3.161   0.934 -0.8256 -0.8695 -2.4825
 3753TIP3    H211266   1.307   3.068   1.044  0.0839  1.6158 -0.6611
 3754TIP3   OH211267   4.854   2.363   1.844 -0.4222 -0.6485  0.7489
 3754TIP3    H111268   4.844   2.455   1.818 -1.0653 -0.7980  0.4506
 3754TIP3    H211269   4.852   2.314   1.762  1.6787 -0.8092  0.7376
 3755TIP3   OH211270   5.599   2.975   0.059  0.0588  0.1445  0.7024
 3755TIP3    H111271   5.639   3.042   0.005  0.2562  0.5943  1.3908
 3755TIP3    H211272   5.662   2.960   0.129 -0.4336 -0.0211  1.1224
 3756TIP3   OH211273   5.725   1.620   1.238  0.2587  0.8505  0.3730
 3756TIP3    H111274   5.669   1.684   1.281  0.5651  1.5272 -0.2288
 3756TIP3    H211275   5.706   1.630   1.145 -1.2515 -1.3886  0.3644
 3757TIP3   OH211276   5.863   4.065   3.701  0.2246  0.4218  0.0224
 3757TIP3    H111277   5.863   3.984   3.651 -0.1554  0.6367 -0.3359
 3757TIP3    H211278   5.792   4.054   3.765 -1.2479  1.2718 -1.3855
 3758TIP3   OH211279   0.569   5.778   4.518 -0.2439 -0.0395 -0.2492
 3758TIP3    H111280   0.480   5.790   4.550  0.4016  1.4655  1.1141
 3758TIP3    H211281   0.590   5.687   4.539 -1.1094 -0.1203  0.2961
 3759TIP3   OH211282   4.784   4.283   0.872  0.3713  0.0853  0.0094
 3759TIP3    H111283   4.715   4.217   0.870  0.9981 -0.5936  0.2106
 3759TIP3    H211284   4.831   4.271   0.789  1.1651 -0.4835  0.5219
 3760TIP3   OH211285   4.515   0.392   4.320 -0.1409 -0.2131  0.0307
 3760TIP3    H111286   4.567   0.399   4.400 -1.0880  0.8270  0.5941
 3760TIP3    H211287   4.425   0.383   4.352 -0.7121  1.7690 -0.8942
 3761TIP3   OH211288   5.658   4.709   2.162  0.2688  0.3758 -0.5511
 3761TIP3    H111289   5.646   4.804   2.161  0.7997  0.4542 -0.1084
 3761TIP3    H211290   5.750   4.697   2.187  0.2322 -0.2527 -0.6994
 3762TIP3   OH211291   5.178   3.920   3.780 -0.4834 -0.1736 -0.2546
 3762TIP3    H111292   5.242   3.891   3.715  0.0593  0.1515  0.1273
 3762TIP3    H211293   5.093   3.909   3.737 -0.1325  0.0661 -1.0248
 3763TIP3   OH211294   0.433   1.298   0.090  0.1120  0.0615  0.0053
 3763TIP3    H111295   0.406   1.230   0.029 -1.3358 -0.9933  1.7118
 3763TIP3    H211296   0.358   1.357   0.095  0.4348  0.4539  0.3616
 3764TIP3   OH211297   3.636   0.414   0.116 -0.2313  0.0361  0.0094
 3764TIP3    H111298   3.731   0.424   0.116 -0.2169 -0.1051  0.0034
 3764TIP3    H211299   3.613   0.404   0.024 -0.1389 -1.0376  0.0971
 3765TIP3   OH211300   2.849   5.699   1.278 -0.1541  0.2327 -0.1630
 3765TIP3    H111301   2.851   5.790   1.250  0.3657  0.8478  1.7169
 3765TIP3    H211302   2.921   5.657   1.231 -0.9374  0.5539 -1.7032
 3766TIP3   OH211303   5.744   1.190   2.713  0.8678 -0.4949  0.4181
 3766TIP3    H111304   5.805   1.117   2.722 -0.2138 -1.6784 -1.1288
 3766TIP3    H211305   5.675   1.173   2.777 -0.6618 -2.3154 -1.5206
 3767TIP3   OH211306   5.364   4.360   2.015  0.4921  0.1587 -0.5756
 3767TIP3    H111307   5.444   4.308   2.016  0.0569 -0.5124 -0.0398
 3767TIP3    H211308   5.308   4.319   2.081 -0.8140 -0.1948 -1.8534
 3768TIP3   OH211309   4.113   1.889   3.243  0.5510  0.2154 -0.1838
 3768TIP3    H111310   4.196   1.850   3.268 -0.9584 -1.9232  1.8782
 3768TIP3    H211311   4.066   1.902   3.326 -1.8076 -0.2021 -1.3649
 3769TIP3   OH211312   0.157   4.662   3.791 -0.1383 -0.8546  0.2881
 3769TIP3    H111313   0.159   4.747   3.834 -0.5842  0.5153 -2.2403
 3769TIP3    H211314   0.089   4.613   3.837  0.3313  0.0081  1.9771
 3770TIP3   OH211315   6.204   3.334   3.627 -0.3118 -0.2865 -0.0274
 3770TIP3    H111316   6.183   3.333   3.534 -2.5358 -0.7302  0.4428
 3770TIP3    H211317   6.277   3.273   3.636 -0.6677 -0.9337 -1.3480
 3771TIP3   OH211318   3.902   0.609   2.368  0.2583  0.5058  0.4070
 3771TIP3    H111319   3.964   0.677   2.341  0.0447  0.6742  0.3350
 3771TIP3    H211320   3.926   0.533   2.315  0.8003  0.3755  0.8268
 3772TIP3   OH211321   2.486   3.751   1.199 -0.9091 -0.2371 -0.4542
 3772TIP3    H111322   2.452   3.679   1.145  1.3225 -1.1509 -0.7193
 3772TIP3    H211323   2.563   3.782   1.152  0.0846  0.1194  1.3272
 3773TIP3   OH211324   3.968   1.733   3.056  0.4385 -0.0787  0.2140
 3773TIP3    H111325   3.925   1.803   3.007  0.8732  0.0864  0.0677
 3773TIP3    H211326   4.028   1.778   3.116  2.2124 -0.3514 -1.2657
 3774TIP3   OH211327   3.121   4.612   2.049 -0.5620 -0.4644  0.5806
 3774TIP3    H111328   3.071   4.681   2.004  0.4202  0.2143  0.4994
 3774TIP3    H211329   3.211   4.643   2.046 -0.1521 -1.6204  0.8267
 3775TIP3   OH211330   4.808   0.725   1.539 -0.0242 -0.4798  0.0911
 3775TIP3    H111331   4.843   0.636   1.544  0.2157 -0.3502  0.8780
 3775TIP3    H211332   4.854   0.765   1.465  0.7242 -0.6491  0.4531
 3776TIP3   OH211333   1.577   5.195   4.873 -0.3888  0.4682 -0.0584
 3776TIP3    H111334   1.489   5.216   4.840 -0.3198  1.2219  0.2063
 3776TIP3    H211335   1.615   5.280   4.894  0.4936  0.1662 -0.3773
 3777TIP3   OH211336   3.176   2.132   3.321  0.1746  0.4060  0.1473
 3777TIP3    H111337   3.210   2.045   3.304  1.1877  0.7035  0.6128
 3777TIP3    H211338   3.128   2.155   3.241 -1.0710 -1.0052  0.4474
 3778TIP3   OH211339   2.078   5.084   3.227  0.3243  0.1702  1.0295
 3778TIP3    H111340   2.123   5.003   3.252 -0.2267 -0.5434 -0.1909
 3778TIP3    H211341   2.132   5.120   3.157 -1.6396 -1.4791 -1.5342
 3779TIP3   OH211342   5.365   3.970   1.896  0.1714 -0.0286 -0.4022
 3779TIP3    H111343   5.309   4.005   1.965  0.0404  1.4235 -1.2007
 3779TIP3    H211344   5.375   3.877   1.918  0.0156  0.3575  1.4633
 3780TIP3   OH211345   3.295   1.467   0.098  0.6639 -0.0049 -0.5897
 3780TIP3    H111346   3.202   1.444   0.093  0.5516 -0.8981  2.9574
 3780TIP3    H211347   3.296   1.560   0.122  0.6397 -0.1313 -0.0833
 3781TIP3   OH211348   4.654   5.478   2.208  0.0650 -0.2103 -0.7378
 3781TIP3    H111349   4.699   5.419   2.148 -0.3656  0.7208 -2.0143
 3781TIP3    H211350   4.690   5.565   2.188 -0.2211  0.1470  0.2350
 3782TIP3   OH211351   3.215   3.667   1.355 -0.0549  0.1069  0.9319
 3782TIP3    H111352   3.178   3.753   1.372 -1.4360  0.0581 -1.3369
 3782TIP3    H211353   3.140   3.608   1.358  0.5953 -0.7478  0.7799
 3783TIP3   OH211354   3.739   5.920   2.443  0.7872  0.3667 -0.1233
 3783TIP3    H111355   3.790   5.856   2.394 -2.0468 -1.4326 -0.9533
 3783TIP3    H211356   3.707   5.981   2.376  0.7667  0.7198  0.2056
 3784TIP3   OH211357   2.521   5.283   0.169  0.7289  0.1920  0.1037
 3784TIP3    H111358   2.556   5.333   0.243  0.5720  1.4918 -0.6778
 3784TIP3    H211359   2.576   5.308   0.095 -0.4869  0.6112 -0.6875
 3785TIP3   OH211360   3.536   5.696   3.485 -0.2834 -0.2130  0.3433
 3785TIP3    H111361   3.539   5.674   3.391 -3.1129  1.8193 -0.3361
 3785TIP3    H211362   3.581   5.780   3.491 -1.4850  0.4323  0.5048
 3786TIP3   OH211363   5.798   2.000   2.167 -0.0128 -0.0670 -1.0095
 3786TIP3    H111364   5.712   1.969   2.141 -0.3432 -0.8035  0.8711
 3786TIP3    H211365   5.796   2.094   2.149 -0.9953 -0.1774 -1.5180
 3787TIP3   OH211366   5.216   5.774   2.499 -0.7232 -0.4711 -0.1424
 3787TIP3    H111367   5.209   5.788   2.405 -1.4249 -0.0800 -0.0394
 3787TIP3    H211368   5.238   5.681   2.508 -0.1579 -0.3954 -0.6979
 3788TIP3   OH211369   0.834   4.410   3.890 -0.5673  0.1071  0.0765
 3788TIP3    H111370   0.908   4.391   3.948  1.9773  0.2274 -2.8389
 3788TIP3    H211371   0.860   4.491   3.845 -1.5061 -0.9150 -2.4430
 3789TIP3   OH211372   0.198   5.445   0.620 -0.9986 -0.2185  0.3460
 3789TIP3    H111373   0.191   5.350   0.635 -2.0712 -0.2105 -0.0489
 3789TIP3    H211374   0.184   5.455   0.526 -0.0508  0.2691  0.2443
 3790TIP3   OH211375   6.306   1.515   1.885 -0.0232 -0.3334  0.8005
 3790TIP3    H111376   6.400   1.502   1.868  0.1473 -2.5119  2.9106
 3790TIP3    H211377   6.264   1.497   1.801  1.3664 -0.5697  0.1247
 3791TIP3   OH211378   2.910   4.475   1.435 -0.4308 -0.0727 -0.1995
 3791TIP3    H111379   2.844   4.492   1.502 -0.7228 -0.4719 -0.3722
 3791TIP3    H211380   2.994   4.484   1.479 -0.6282 -1.6622  0.5721
 3792TIP3   OH211381   5.212   5.145   0.573  0.4866 -0.2944  0.4430
 3792TIP3    H111382   5.128   5.112   0.606  0.2973  0.1277  0.3847
 3792TIP3    H211383   5.234   5.085   0.501  0.0892 -0.2303  0.2676
 3793TIP3   OH211384   1.533   0.545   4.654 -0.0906 -0.6628 -0.0626
 3793TIP3    H111385   1.579   0.468   4.687  0.1637 -0.0170  1.1445
 3793TIP3    H211386   1.590   0.618   4.675 -1.0631  0.0250  0.2640
 3794TIP3   OH211387   4.391   1.142   4.950 -0.3226  0.1968 -0.1826
 3794TIP3    H111388   4.436   1.084   5.012 -1.3384  0.0131  0.4071
 3794TIP3    H211389   4.435   1.126   4.867  0.9808  0.3465  0.4432
 3795TIP3   OH211390   1.331   4.316   4.103  0.3989 -0.1236  0.5208
 3795TIP3    H111391   1.383   4.349   4.176  0.0590  0.0281  0.6942
 3795TIP3    H211392   1.386   4.329   4.026  1.7608 -2.4169  1.0093
 3796TIP3   OH211393   4.133   2.524   1.364  0.5216 -0.1841  0.1721
 3796TIP3    H111394   4.068   2.463   1.329  0.9311 -1.2606  1.2306
 3796TIP3    H211395   4.163   2.573   1.287  1.1689 -2.2562 -0.9917
 3797TIP3   OH211396   3.340   3.722   3.805 -0.2621  0.4443  0.0426
 3797TIP3    H111397   3.305   3.812   3.805 -1.6027 -0.0488 -0.4795
 3797TIP3    H211398   3.314   3.687   3.720  1.3745 -0.0382 -0.2852
 3798TIP3   OH211399   0.420   1.255   2.201  0.1276 -0.4313  0.1335
 3798TIP3    H111400   0.328   1.246   2.228  0.2812 -3.2665 -0.0023
 3798TIP3    H211401   0.416   1.285   2.110 -0.7734 -2.3883 -0.5167
 3799TIP3   OH211402   6.329   1.704   4.540 -0.3391 -0.1078 -0.0517
 3799TIP3    H111403   6.375   1.647   4.602  0.1371  0.8008  0.4536
 3799TIP3    H211404   6.242   1.666   4.532  0.1736 -1.2850 -0.2487
 3800TIP3   OH211405   3.061   1.324   0.837  0.0815 -0.2362 -0.1170
 3800TIP3    H111406   3.032   1.404   0.794 -0.9784 -0.5263  0.0258
 3800TIP3    H211407   3.003   1.315   0.912  2.2010  0.5171  1.7153
 3801TIP3   OH211408   1.920   5.650   1.573 -0.5786  0.1800 -0.6696
 3801TIP3    H111409   1.849   5.699   1.531 -0.5486 -0.9803 -2.1697
 3801TIP3    H211410   1.932   5.573   1.517  0.5396 -0.6480  0.6514
 3802TIP3   OH211411   2.100   3.891   0.091  0.1592 -0.3682 -0.2480
 3802TIP3    H111412   2.096   3.852   0.004  1.7466  1.2218 -1.1092
 3802TIP3    H211413   2.148   3.827   0.144 -1.6565 -1.7784 -0.2303
 3803TIP3   OH211414   2.515   2.077   0.466  0.1336 -0.3046  0.0977
 3803TIP3    H111415   2.444   2.140   0.470  0.3239 -0.0529 -0.4094
 3803TIP3    H211416   2.569   2.096   0.542 -0.4922 -0.6889  0.6525
 3804TIP3   OH211417   3.212   0.966   1.379  0.2263  0.0549 -0.1501
 3804TIP3    H111418   3.257   0.918   1.309  0.7441 -0.0650  0.2599
 3804TIP3    H211419   3.157   1.029   1.333  1.2599  0.6158 -0.6570
 3805TIP3   OH211420   1.060   0.383   4.205 -0.6138  0.3178 -0.3255
 3805TIP3    H111421   0.989   0.327   4.235 -0.6082  1.0711  1.1994
 3805TIP3    H211422   1.086   0.346   4.121 -0.2130 -2.3149  0.8566
 3806TIP3   OH211423   6.243   4.514   0.050 -0.3051  0.0901 -0.0574
 3806TIP3    H111424   6.304   4.439   0.045  0.0318  0.2060  1.6448
 3806TIP3    H211425   6.158   4.476   0.030 -0.0245 -0.5856 -0.0167
 3807TIP3   OH211426   0.784   2.953   3.461 -0.0088  0.2942 -0.7809
 3807TIP3    H111427   0.732   3.033   3.469 -1.7281 -0.8307 -0.2564
 3807TIP3    H211428   0.781   2.913   3.548 -2.5998 -2.3398 -1.9386
 3808TIP3   OH211429   5.894   1.585   4.292 -0.4695  0.6543  0.0786
 3808TIP3    H111430   5.854   1.672   4.297  1.4141  1.5144  1.0538
 3808TIP3    H211431   5.960   1.594   4.224 -1.9330 -0.8033 -1.6433
 3809TIP3   OH211432   3.342   5.078   3.213  0.0324 -0.1314  0.0253
 3809TIP3    H111433   3.333   5.026   3.293  0.1245  0.9019  0.7209
 3809TIP3    H211434   3.252   5.095   3.185 -0.0089 -1.6002 -0.8565
 3810TIP3   OH211435   1.853   2.081   4.330  0.7585  0.1377 -0.7096
 3810TIP3    H111436   1.917   2.071   4.400  0.7185  0.6111 -0.6038
 3810TIP3    H211437   1.906   2.106   4.253  0.5666  2.1455 -0.2490
 3811TIP3   OH211438   4.294   3.609   2.841 -0.0118 -0.0253  0.4976
 3811TIP3    H111439   4.318   3.688   2.889 -0.3097 -0.6743  1.7634
 3811TIP3    H211440   4.238   3.560   2.902  0.6335 -1.4825 -0.0393
 3812TIP3   OH211441   3.227   0.172   1.030 -0.0307  0.2731  0.5846
 3812TIP3    H111442   3.290   0.125   1.085 -0.6378 -2.0391 -0.5783
 3812TIP3    H211443   3.184   0.104   0.978 -2.9224  1.8266  0.7172
 3813TIP3   OH211444   3.480   4.596   4.760  0.0037  0.1032 -0.1613
 3813TIP3    H111445   3.426   4.670   4.734  0.3830  0.7316  0.8045
 3813TIP3    H211446   3.418   4.522   4.766 -0.6716  0.7051  0.4677
 3814TIP3   OH211447   1.373   4.552   0.116 -0.2030  0.1636 -0.4391
 3814TIP3    H111448   1.385   4.643   0.144 -0.1953 -0.0302  0.2079
 3814TIP3    H211449   1.306   4.557   0.048 -1.1583  0.5191  0.4867
 3815TIP3   OH211450   6.204   1.535   1.625 -0.5748  0.2087 -0.0422
 3815TIP3    H111451   6.207   1.442   1.602  1.6389 -0.5877  2.8805
 3815TIP3    H211452   6.121   1.566   1.590 -1.5474 -2.9457 -0.8228
 3816TIP3   OH211453   0.653   3.029   1.419  0.3168  0.7019  0.5336
 3816TIP3    H111454   0.678   2.937   1.408 -0.8031  0.3732  0.5118
 3816TIP3    H211455   0.677   3.049   1.510  1.4999  0.7119  0.2317
 3817TIP3   OH211456   5.875   1.770   3.402 -0.1198 -0.1038  0.0045
 3817TIP3    H111457   5.781   1.772   3.420 -0.2569  1.8461 -0.6195
 3817TIP3    H211458   5.881   1.749   3.309  0.3774 -5.1744  0.8945
 3818TIP3   OH211459   1.851   3.499   3.324 -0.2249  0.1402 -0.2394
 3818TIP3    H111460   1.931   3.536   3.362 -0.3638  0.6020 -0.3903
 3818TIP3    H211461   1.790   3.494   3.397 -0.9615  2.3254 -0.6293
 3819TIP3   OH211462   1.872   1.704   2.902  0.0222 -0.2641 -0.4220
 3819TIP3    H111463   1.845   1.733   2.814  0.4339 -2.0908 -1.2051
 3819TIP3    H211464   1.967   1.692   2.895 -0.1341 -1.8938 -0.2255
 3820TIP3   OH211465   0.753   5.771   2.264  0.9340  0.4053 -0.2441
 3820TIP3    H111466   0.719   5.697   2.215  2.3345 -0.7557  0.4401
 3820TIP3    H211467   0.740   5.747   2.356  3.2331  0.0003  0.0477
 3821TIP3   OH211468   3.533   0.105   3.371 -0.1892  0.4812 -0.4314
 3821TIP3    H111469   3.451   0.134   3.331 -0.0626  0.4903 -0.6894
 3821TIP3    H211470   3.601   0.146   3.318 -0.0168  1.5758  0.6004
 3822TIP3   OH211471   4.826   1.075   4.976 -0.0787 -0.2518 -0.1058
 3822TIP3    H111472   4.917   1.046   4.973  0.3469  0.9938  0.0468
 3822TIP3    H211473   4.776   0.999   4.947  0.8884 -1.3928  1.0758
 3823TIP3   OH211474   5.331   3.401   0.894 -0.4632 -0.0370 -0.5381
 3823TIP3    H111475   5.300   3.332   0.954  1.0461  0.2042  0.5860
 3823TIP3    H211476   5.422   3.378   0.877  0.0041  1.5352 -0.3254
 3824TIP3   OH211477   5.471   0.400   2.072  0.2944 -0.1310  0.1123
 3824TIP3    H111478   5.483   0.342   2.147 -0.6646  0.1690  0.5221
 3824TIP3    H211479   5.532   0.472   2.088 -0.4389  0.3148  1.0265
 3825TIP3   OH211480   5.037   5.053   1.793 -0.2925  0.0209 -0.5070
 3825TIP3    H111481   4.976   5.027   1.862  1.9048 -0.3162  1.4287
 3825TIP3    H211482   5.092   5.119   1.833  0.7893  0.1276 -2.0921
 3826TIP3   OH211483   0.492   2.721   1.272 -0.5726  0.1164 -0.2118
 3826TIP3    H111484   0.459   2.648   1.220 -0.7952 -1.7588  2.3732
 3826TIP3    H211485   0.441   2.796   1.242 -0.1983 -0.6252 -3.1077
 3827TIP3   OH211486   4.451   0.551   2.697 -0.1756 -0.4394  0.2634
 3827TIP3    H111487   4.527   0.589   2.653 -1.9841 -0.4258 -3.2367
 3827TIP3    H211488   4.467   0.456   2.695  0.0133 -0.4035  0.0700
 3828TIP3   OH211489   5.750   5.680   1.246 -0.1286 -0.5024 -0.1804
 3828TIP3    H111490   5.700   5.760   1.261 -0.1187 -0.5152 -0.0764
 3828TIP3    H211491   5.684   5.611   1.239 -0.2016 -0.3397 -1.2849
 3829TIP3   OH211492   1.331   0.397   1.429 -0.6548  0.0260  0.4790
 3829TIP3    H111493   1.307   0.489   1.423 -0.8071  0.1110  2.0323
 3829TIP3    H211494   1.344   0.381   1.523 -0.2324 -1.4296  0.2045
 3830TIP3   OH211495   5.978  -0.032   3.252 -0.7719  0.1181  0.5520
 3830TIP3    H111496   5.973  -0.024   3.156  0.1370  3.0810  0.6475
 3830TIP3    H211497   5.983   0.058   3.283 -2.5892 -0.6688  3.5519
 3831TIP3   OH211498   5.719   2.118   4.718 -0.3438  0.5343  0.2395
 3831TIP3    H111499   5.751   2.092   4.804  2.0342 -1.8912 -1.2166
 3831TIP3    H211500   5.664   2.044   4.690  1.8452 -0.5352 -1.6574
 3832TIP3   OH211501   1.880   3.449   0.440  0.3437 -0.8294 -0.5696
 3832TIP3    H111502   1.931   3.498   0.376 -0.2736 -1.3704 -1.5032
 3832TIP3    H211503   1.942   3.386   0.478  0.3536 -1.6253 -1.8479
 3833TIP3   OH211504   0.152   0.038   4.222 -0.0595 -0.1693 -0.4248
 3833TIP3    H111505   0.103  -0.043   4.237  0.8432 -0.9249 -1.4925
 3833TIP3    H211506   0.193   0.027   4.137  2.1001  0.3862  0.4782
 3834TIP3   OH211507   1.478   4.487   0.777  0.2439 -0.1739 -0.1329
 3834TIP3    H111508   1.442   4.528   0.855  0.9190  0.2862 -0.0494
 3834TIP3    H211509   1.521   4.407   0.809 -0.6827 -0.7239 -0.2339
 3835TIP3   OH211510   1.855   3.668   2.442  0.2416  0.6324 -0.6668
 3835TIP3    H111511   1.795   3.617   2.498  1.5084 -0.7507 -0.5215
 3835TIP3    H211512   1.885   3.740   2.498  0.1673  0.2487 -0.1285
 3836TIP3   OH211513   6.163   4.787   4.964 -0.1054  0.1677 -0.7709
 3836TIP3    H111514   6.094   4.823   5.020 -0.7704 -1.6739 -0.3226
 3836TIP3    H211515   6.209   4.724   5.019  1.8238  1.2024 -1.1443
 3837TIP3   OH211516   6.015   2.164   4.074  0.1520 -0.2437 -0.6809
 3837TIP3    H111517   5.953   2.234   4.052 -0.4639 -0.7248 -0.5151
 3837TIP3    H211518   5.994   2.141   4.164  0.0366 -0.9559 -0.8830
 3838TIP3   OH211519   0.970   2.085   0.710  0.2911  0.4153  0.0282
 3838TIP3    H111520   1.020   2.042   0.641  1.1450 -0.8228  1.3539
 3838TIP3    H211521   1.007   2.050   0.792 -0.6442  1.8574  1.1199
 3839TIP3   OH211522   1.029   1.376   2.656  0.8865  0.3235 -0.0605
 3839TIP3    H111523   0.974   1.427   2.716 -1.5820 -1.5760 -0.5474
 3839TIP3    H211524   1.026   1.424   2.573  1.3422  1.0594  0.3310
 3840TIP3   OH211525   5.009   2.995   1.387  0.3500  0.5244  0.0344
 3840TIP3    H111526   5.088   2.965   1.342  1.6109  4.4261 -0.7060
 3840TIP3    H211527   5.035   3.077   1.428 -3.3916  2.1525 -0.4684
 3841TIP3   OH211528   1.945   0.775   0.722 -0.4482 -0.3230 -0.4316
 3841TIP3    H111529   1.866   0.766   0.774  0.4162 -2.3866  0.6662
 3841TIP3    H211530   1.932   0.718   0.646  0.7230 -2.3841  0.8235
 3842TIP3   OH211531   5.878   3.723   4.198 -0.6316  0.3253  0.1071
 3842TIP3    H111532   5.898   3.799   4.252 -0.5018  0.7120 -0.4723
 3842TIP3    H211533   5.900   3.750   4.109  0.8362 -0.8752  0.0545
 3843TIP3   OH211534   3.173   5.928   2.840 -0.1019  0.0889  0.4219
 3843TIP3    H111535   3.222   5.987   2.782  0.9208 -0.0709  1.0966
 3843TIP3    H211536   3.240   5.888   2.896 -1.1331  1.0907  2.4932
 3844TIP3   OH211537   0.208   1.437   4.663  0.0273  0.3949  0.2710
 3844TIP3    H111538   0.193   1.443   4.568  2.2515  2.4375 -0.0492
 3844TIP3    H211539   0.187   1.346   4.684  0.5937 -0.4704 -2.4211
 3845TIP3   OH211540   2.756   4.375   4.087  0.2443  0.1576 -0.0723
 3845TIP3    H111541   2.843   4.387   4.126 -0.1986  0.8017  0.7430
 3845TIP3    H211542   2.745   4.450   4.029  0.1879  0.1212 -0.1088
 3846TIP3   OH211543   0.283   5.448   1.749 -0.5027  0.1678  0.1084
 3846TIP3    H111544   0.368   5.426   1.787 -0.5194 -1.4533 -0.6973
 3846TIP3    H211545   0.245   5.363   1.726 -3.3859  0.6374  2.5921
 3847TIP3   OH211546   5.144   2.904   2.256 -1.0225  0.5326  0.1842
 3847TIP3    H111547   5.141   2.838   2.187  4.3777 -0.1160  0.1760
 3847TIP3    H211548   5.145   2.853   2.337  1.7283  0.5646  0.2349
 3848TIP3   OH211549   5.176   0.630   4.324 -0.3475 -0.1115  0.4075
 3848TIP3    H111550   5.115   0.646   4.253 -0.5604  0.0666  0.6305
 3848TIP3    H211551   5.123   0.636   4.404 -0.2352 -0.8909  0.5548
 3849TIP3   OH211552   3.401   4.348   1.797 -0.5012 -0.0896 -0.2080
 3849TIP3    H111553   3.441   4.262   1.807 -0.9793 -0.2921 -0.0182
 3849TIP3    H211554   3.343   4.356   1.873  0.3824  0.8713  0.3904
 3850TIP3   OH211555   0.794   4.078   0.902  0.1557 -0.2050 -0.5309
 3850TIP3    H111556   0.889   4.082   0.899  0.0992  1.1926 -1.6814
 3850TIP3    H211557   0.765   4.145   0.840 -1.5734 -1.5330 -1.2774
 3851TIP3   OH211558   6.235   1.030   2.749 -0.5942 -0.0870  0.1531
 3851TIP3    H111559   6.270   0.985   2.825 -0.0559 -1.3320 -0.7955
 3851TIP3    H211560   6.308   1.081   2.716 -0.8190  0.4292  0.4408
 3852TIP3   OH211561   1.383   5.824   1.657 -0.1252 -0.2925 -0.4547
 3852TIP3    H111562   1.303   5.772   1.659 -0.0131 -0.5477 -1.7141
 3852TIP3    H211563   1.375   5.883   1.732 -1.5610 -0.2029 -0.6504
 3853TIP3   OH211564   3.366   4.040   0.345  0.2311 -0.0026 -0.0719
 3853TIP3    H111565   3.391   4.072   0.259  0.2032 -0.4260 -0.2399
 3853TIP3    H211566   3.376   3.945   0.339  2.3664  0.0964  1.0577
 3854TIP3   OH211567   4.499   2.193   4.678  0.2027  0.5432  0.5457
 3854TIP3    H111568   4.492   2.112   4.728  0.5361 -0.7766 -1.4283
 3854TIP3    H211569   4.409   2.226   4.673  0.0547  0.2708  1.2895
 3855TIP3   OH211570   3.804   3.863   1.009 -0.8730  0.1017 -0.6232
 3855TIP3    H111571   3.796   3.959   1.009  0.2914  0.2673  1.6271
 3855TIP3    H211572   3.714   3.831   1.010 -1.2872  1.2354  0.2705
 3856TIP3   OH211573   4.217   2.710   0.470  0.2445  0.0732 -0.1938
 3856TIP3    H111574   4.169   2.778   0.516 -0.1536  0.5243 -1.2465
 3856TIP3    H211575   4.217   2.738   0.378  0.1271 -1.3167 -0.6386
 3857TIP3   OH211576   0.578   1.369   4.830  0.1180 -0.0350  0.4980
 3857TIP3    H111577   0.571   1.273   4.829  1.4011 -0.1455  0.9332
 3857TIP3    H211578   0.508   1.398   4.888 -1.1851 -0.6020 -0.7260
 3858TIP3   OH211579   0.435   3.436   0.915 -0.7058 -0.0501 -0.0319
 3858TIP3    H111580   0.395   3.379   0.980  1.5462 -0.8914  0.7183
 3858TIP3    H211581   0.510   3.475   0.960 -0.6589  1.4827 -1.3325
 3859TIP3   OH211582   6.300   3.785   3.822 -0.0330 -0.0969  0.0565
 3859TIP3    H111583   6.368   3.820   3.764 -0.9467  2.7374  0.5197
 3859TIP3    H211584   6.307   3.690   3.813  3.4906  0.0809 -0.4417
 3860TIP3   OH211585   5.567   5.674   0.590 -0.5412  0.3435 -0.0754
 3860TIP3    H111586   5.535   5.712   0.508 -1.1204  0.1894  0.0723
 3860TIP3    H211587   5.656   5.647   0.570 -1.0223 -0.6665 -0.9903
 3861TIP3   OH211588   4.548   2.345   3.327  0.5775  0.0074 -0.8864
 3861TIP3    H111589   4.580   2.312   3.412  0.9579 -0.6340 -1.2690
 3861TIP3    H211590   4.545   2.440   3.338  1.0660 -0.0351 -0.3035
 3862TIP3   OH211591   4.021   3.586   4.969  0.0922  0.2472  0.0287
 3862TIP3    H111592   4.035   3.569   4.875 -0.6938 -1.0540  0.1204
 3862TIP3    H211593   3.934   3.623   4.973 -0.4654 -1.0389  0.3498
 3863TIP3   OH211594   1.003   1.034   4.287 -0.2701  0.1301  0.1361
 3863TIP3    H111595   0.984   1.024   4.193 -2.2815  2.0856  0.2558
 3863TIP3    H211596   0.934   0.983   4.330  0.5197 -0.5773  0.5952
 3864TIP3   OH211597   0.327   3.183   2.759  0.2679  0.4469  0.1316
 3864TIP3    H111598   0.371   3.158   2.840  0.8493  0.3376 -0.2144
 3864TIP3    H211599   0.395   3.179   2.692  0.3051  2.4979 -0.0288
 3865TIP3   OH211600   2.520   0.796   4.483 -0.0034  0.2139 -0.2473
 3865TIP3    H111601   2.506   0.872   4.540  1.6098  1.4737 -1.4492
 3865TIP3    H211602   2.609   0.766   4.505  0.0216 -0.2713 -0.9803
 3866TIP3   OH211603   2.850   0.288   4.121 -0.1372 -0.8480  0.1157
 3866TIP3    H111604   2.807   0.370   4.148 -0.1244 -0.5017 -0.8766
 3866TIP3    H211605   2.812   0.221   4.179 -1.2229 -0.3732 -0.0251
 3867TIP3   OH211606   5.904   5.284   3.836  0.1742 -0.3517 -0.1406
 3867TIP3    H111607   5.985   5.316   3.797  0.8820 -1.6480  0.2392
 3867TIP3    H211608   5.904   5.190   3.820 -0.7227 -0.5379  0.8309
 3868TIP3   OH211609   3.441   1.127   2.344 -0.0071 -0.0281  0.3864
 3868TIP3    H111610   3.396   1.185   2.405  1.1165  0.4128  0.8381
 3868TIP3    H211611   3.534   1.139   2.365  0.2576 -1.9940  0.4703
 3869TIP3   OH211612   1.573   1.381   2.195  0.2669 -0.1275  0.0366
 3869TIP3    H111613   1.606   1.420   2.114 -1.1980 -1.1811 -1.1020
 3869TIP3    H211614   1.482   1.361   2.177 -0.0527 -0.5505  1.9115
 3870TIP3   OH211615   4.042   1.652   3.472  0.1112 -0.4315 -0.1786
 3870TIP3    H111616   4.046   1.691   3.559  0.5812 -1.4511  0.2620
 3870TIP3    H211617   4.089   1.569   3.480  0.8809 -0.1647 -1.6004
 3871TIP3   OH211618   4.543   2.060   1.416  0.4536 -0.1542 -0.2680
 3871TIP3    H111619   4.507   2.035   1.331  0.5962  1.0833 -0.7203
 3871TIP3    H211620   4.589   2.142   1.399  0.2177  0.2858  1.0654
 3872TIP3   OH211621   4.917   2.212   3.374 -0.3130  0.4171  0.1804
 3872TIP3    H111622   4.992   2.218   3.433 -0.4670  0.7541  0.3383
 3872TIP3    H211623   4.935   2.276   3.306  0.3048 -0.5889 -0.6388
 3873TIP3   OH211624   0.631   5.510   2.171 -0.0237  0.5829  0.0798
 3873TIP3    H111625   0.691   5.441   2.200  0.0964  0.1331 -1.1822
 3873TIP3    H211626   0.555   5.464   2.136 -0.6537  1.1353  0.6684
 3874TIP3   OH211627   3.548   5.038   5.025  0.4681 -0.0849 -0.1119
 3874TIP3    H111628   3.499   4.963   4.991  1.1219 -0.4382 -0.3063
 3874TIP3    H211629   3.493   5.075   5.093 -0.0030 -0.5539 -0.2371
 3875TIP3   OH211630   6.138   1.790   2.255  0.2082 -0.2882  0.0995
 3875TIP3    H111631   6.202   1.842   2.304  1.3372 -0.3797 -1.2325
 3875TIP3    H211632   6.103   1.850   2.189  0.4391 -0.8041 -0.4984
 3876TIP3   OH211633   0.004   4.283   1.349  0.2186 -0.5440 -0.8019
 3876TIP3    H111634   0.052   4.350   1.300 -2.4593  1.0536 -1.4338
 3876TIP3    H211635   0.030   4.296   1.440  0.0555  1.1322 -0.9663
 3877TIP3   OH211636   4.220   3.800   3.136  0.3333 -0.0088 -0.4593
 3877TIP3    H111637   4.142   3.847   3.166  1.1441  1.7252 -0.9409
 3877TIP3    H211638   4.262   3.860   3.075  0.4853 -2.1056 -2.5552
 3878TIP3   OH211639   0.474   2.130   4.510  0.2481  0.6390  0.3805
 3878TIP3    H111640   0.458   2.117   4.417  1.0823 -0.1100  0.3255
 3878TIP3    H211641   0.415   2.068   4.554  0.5208  0.3244  0.3083
 3879TIP3   OH211642   0.294   0.379   2.500 -0.3797  0.1258  0.0886
 3879TIP3    H111643   0.232   0.325   2.451 -1.1639  0.9418  0.1569
 3879TIP3    H211644   0.268   0.469   2.480  0.2483  0.4756  0.8129
 3880TIP3   OH211645   3.146   0.769   2.011  0.1511 -0.3908  0.0674
 3880TIP3    H111646   3.182   0.710   1.945 -0.2082 -0.9361  0.3537
 3880TIP3    H211647   3.220   0.787   2.069  0.8716  1.2564 -1.2683
 3881TIP3   OH211648   4.384   0.143   1.929  0.0288  0.6029  0.1217
 3881TIP3    H111649   4.315   0.087   1.896 -0.3307  1.6916 -1.0370
 3881TIP3    H211650   4.430   0.175   1.851 -0.4937  2.7946  0.6326
 3882TIP3   OH211651   0.540   4.760   1.522  0.1159  0.6426  0.3196
 3882TIP3    H111652   0.482   4.757   1.446 -1.6619  0.6217  1.6030
 3882TIP3    H211653   0.533   4.673   1.561  0.3746  0.8997  0.9585
 3883TIP3   OH211654   4.774   5.334   4.694 -0.3895 -0.1188 -0.6871
 3883TIP3    H111655   4.745   5.418   4.728  1.9659  0.5488 -0.1293
 3883TIP3    H211656   4.804   5.353   4.605  2.7773  0.3793  0.3420
 3884TIP3   OH211657   3.336   3.524   3.207 -0.0862 -0.1438 -0.0813
 3884TIP3    H111658   3.248   3.495   3.185  0.3358 -1.2475 -0.3978
 3884TIP3    H211659   3.333   3.619   3.200 -1.3725 -0.1360  0.3927
 3885TIP3   OH211660   2.488   2.898   1.661  0.8438 -0.1609  0.4119
 3885TIP3    H111661   2.430   2.947   1.718 -0.8172  0.0131 -1.3455
 3885TIP3    H211662   2.490   2.810   1.699  1.0736  0.3419  1.6168
 3886TIP3   OH211663   2.612   1.452   1.652 -0.4204  0.3245 -0.4463
 3886TIP3    H111664   2.614   1.548   1.644 -1.3138  0.2962 -1.1519
 3886TIP3    H211665   2.574   1.436   1.738 -0.7747  0.6090 -0.5447
 3887TIP3   OH211666   0.540   1.080   3.807  0.3732 -0.4845  0.4977
 3887TIP3    H111667   0.550   0.986   3.797  2.5768 -0.2324 -0.3678
 3887TIP3    H211668   0.539   1.094   3.902 -2.0108 -1.4919  0.6758
 3888TIP3   OH211669   0.797   0.914   4.430 -0.0902  0.2960 -0.1785
 3888TIP3    H111670   0.795   0.818   4.436  0.3086  0.2254 -1.0057
 3888TIP3    H211671   0.791   0.944   4.521 -2.0024 -0.4696 -0.0166
 3889TIP3   OH211672   5.238   2.775   4.287  0.1102 -0.2116 -0.4078
 3889TIP3    H111673   5.219   2.700   4.343 -1.6626  0.1704 -0.4503
 3889TIP3    H211674   5.254   2.847   4.348  1.2836 -0.4891 -0.3743
 3890TIP3   OH211675   3.518   3.776   0.364  0.1090 -0.1676  0.2695
 3890TIP3    H111676   3.568   3.773   0.446  0.8241  0.5308 -0.1257
 3890TIP3    H211677   3.582   3.804   0.298 -0.6582  0.0984 -0.3705
 3891TIP3   OH211678   3.856   4.971   3.821 -0.0335 -0.2507 -0.2234
 3891TIP3    H111679   3.802   5.048   3.800 -0.0162 -0.2089 -0.1154
 3891TIP3    H211680   3.889   4.988   3.909 -0.1297 -0.4396 -0.1502
 3892TIP3   OH211681   5.841   2.468   4.044  0.1577  0.2275 -0.0783
 3892TIP3    H111682   5.818   2.453   4.136  1.6563 -0.3818  0.2391
 3892TIP3    H211683   5.835   2.563   4.033  1.2503  0.4632  1.0626
 3893TIP3   OH211684   1.323   4.277   1.307 -0.1284  0.5356 -0.1673
 3893TIP3    H111685   1.295   4.229   1.385  1.9111 -1.4371 -0.5764
 3893TIP3    H211686   1.241   4.311   1.270 -1.9395 -3.6485 -0.4868
 3894TIP3   OH211687   4.546   1.925   1.143 -0.0911 -0.0422 -0.0923
 3894TIP3    H111688   4.577   1.856   1.084  2.5105 -0.5012  1.6484
 3894TIP3    H211689   4.573   2.007   1.102 -0.9947 -0.1679 -0.9679
 3895TIP3   OH211690   6.125   0.229   3.773  0.3977  0.1900  0.4890
 3895TIP3    H111691   6.101   0.322   3.768 -0.1385  0.1936  2.2788
 3895TIP3    H211692   6.070   0.195   3.844  0.5414 -1.5143 -0.1929
 3896TIP3   OH211693   5.493   2.194   3.869  0.2435 -0.2041  0.0190
 3896TIP3    H111694   5.407   2.227   3.843  0.5270  0.8721  0.4045
 3896TIP3    H211695   5.556   2.250   3.823  0.7429  0.1667  1.1257
 3897TIP3   OH211696   5.343   3.948   3.497 -0.0668  0.1272 -0.2639
 3897TIP3    H111697   5.373   3.868   3.539 -0.9456 -0.2298 -0.2895
 3897TIP3    H211698   5.380   4.019   3.549 -1.3821 -0.2965  1.3443
 3898TIP3   OH211699   5.071   3.482   0.845 -0.8141  0.3205  0.0902
 3898TIP3    H111700   5.071   3.516   0.756 -2.0318 -0.7761 -0.3578
 3898TIP3    H211701   5.164   3.473   0.867 -0.3413  3.9820  0.3333
 3899TIP3   OH211702   1.368   4.699   0.977 -0.0072 -0.0653 -0.5751
 3899TIP3    H111703   1.365   4.645   1.056  0.9271  1.1889  0.3544
 3899TIP3    H211704   1.311   4.774   0.996  0.2634  0.2724 -1.0696
 3900TIP3   OH211705   2.755   1.369   0.611  0.3753 -0.6823 -0.2072
 3900TIP3    H111706   2.702   1.333   0.539 -2.1142  1.7694  0.2080
 3900TIP3    H211707   2.833   1.405   0.567  1.0231 -2.9744 -1.0593
 3901TIP3   OH211708   1.446   0.819   1.362  0.9580 -0.3381  0.1453
 3901TIP3    H111709   1.493   0.899   1.343  1.1671 -0.6547 -0.7218
 3901TIP3    H211710   1.491   0.751   1.310  0.0330 -0.7797 -0.1080
 3902TIP3   OH211711   1.769   1.635   2.616  0.0223 -0.3069 -0.2410
 3902TIP3    H111712   1.745   1.572   2.548 -0.4659 -0.1932 -0.1776
 3902TIP3    H211713   1.827   1.586   2.675  0.1877 -0.4990 -0.5552
 3903TIP3   OH211714   4.701   4.405   4.422 -0.8555 -0.2355 -0.0604
 3903TIP3    H111715   4.640   4.408   4.348  0.1400  0.9407 -0.8727
 3903TIP3    H211716   4.780   4.364   4.386 -0.9368 -1.2060  0.8228
 3904TIP3   OH211717   2.821   5.315   0.723 -0.2692 -0.0646  0.6673
 3904TIP3    H111718   2.833   5.225   0.692 -1.4588  0.3177 -1.0021
 3904TIP3    H211719   2.841   5.370   0.647  0.5038  1.1135  1.6777
 3905TIP3   OH211720   1.889   1.449   3.338 -0.2950 -0.5568  0.5713
 3905TIP3    H111721   1.896   1.540   3.365 -1.5775  0.2637 -1.6423
 3905TIP3    H211722   1.937   1.444   3.255  0.7035 -2.1801  1.1914
 3906TIP3   OH211723   4.414   5.870   2.805 -0.4076  0.3354 -0.3003
 3906TIP3    H111724   4.450   5.958   2.793 -1.9927  0.9134 -1.0549
 3906TIP3    H211725   4.440   5.823   2.726  0.2639  0.1651  0.0102
 3907TIP3   OH211726   5.657   2.825   0.408 -0.2249  0.7105  0.1685
 3907TIP3    H111727   5.572   2.866   0.398 -0.8511  0.3176  3.0369
 3907TIP3    H211728   5.655   2.750   0.349 -0.0255  3.1247 -3.2355
 3908TIP3   OH211729   1.284   5.853   4.172 -0.0971  0.1821  0.3391
 3908TIP3    H111730   1.241   5.933   4.142  0.4882  0.3397 -0.1018
 3908TIP3    H211731   1.353   5.837   4.107  1.6170  0.8868  1.8828
 3909TIP3   OH211732   1.673   0.177   1.784  0.2635  0.6462 -0.9706
 3909TIP3    H111733   1.652   0.255   1.837  1.2298  1.5987 -1.9295
 3909TIP3    H211734   1.738   0.208   1.721  1.8351 -1.3071 -0.4166
 3910TIP3   OH211735   5.812   1.871   0.805 -0.3409  0.2023 -0.0851
 3910TIP3    H111736   5.893   1.905   0.765  0.3674 -0.5624  0.6517
 3910TIP3    H211737   5.817   1.901   0.896  0.6128 -2.2935  0.7578
 3911TIP3   OH211738   4.827   4.791   3.082 -0.3185  0.5013  0.4672
 3911TIP3    H111739   4.812   4.757   2.994 -1.8552  0.3678  0.7580
 3911TIP3    H211740   4.810   4.717   3.140 -0.2595  0.8455  0.9260
 3912TIP3   OH211741   4.432   4.146   0.201  0.5160 -0.1116 -0.3715
 3912TIP3    H111742   4.341   4.116   0.198  0.3750  0.3642 -0.9148
 3912TIP3    H211743   4.439   4.190   0.286 -0.9192  3.3949 -1.8957
 3913TIP3   OH211744   3.511   1.503   2.051 -0.1381  0.1960  0.3682
 3913TIP3    H111745   3.518   1.408   2.042 -0.7797  0.1995 -0.2665
 3913TIP3    H211746   3.514   1.536   1.961 -2.9044  0.5268  0.2900
 3914TIP3   OH211747   3.307   0.614   2.954 -0.3345  0.0510 -0.5772
 3914TIP3    H111748   3.238   0.621   2.888 -0.7417  1.0079 -0.0720
 3914TIP3    H211749   3.297   0.693   3.007  0.4184 -0.3710  0.2106
 3915TIP3   OH211750   3.861   2.717   0.778 -0.7181  0.1345  0.0141
 3915TIP3    H111751   3.950   2.717   0.743 -0.8692 -0.4270 -0.3979
 3915TIP3    H211752   3.856   2.794   0.834 -0.2475  0.6689 -0.6699
 3916TIP3   OH211753   2.154   1.628   3.280  0.3573 -0.0278  0.2277
 3916TIP3    H111754   2.134   1.721   3.269  0.6747  0.0469  0.2645
 3916TIP3    H211755   2.108   1.584   3.208 -2.8116 -0.2846  2.1965
 3917TIP3   OH211756   4.829   3.839   0.491  0.0390  0.1681  0.0568
 3917TIP3    H111757   4.896   3.878   0.547  1.0303 -0.5495 -0.6046
 3917TIP3    H211758   4.850   3.868   0.403 -0.9012  0.4483 -0.0860
 3918TIP3   OH211759   1.622   0.596   1.304  0.7118 -0.3785 -0.0171
 3918TIP3    H111760   1.592   0.506   1.309  2.7580 -1.2416 -1.6953
 3918TIP3    H211761   1.687   0.604   1.373  0.1044  0.0259  0.5207
 3919TIP3   OH211762   6.239   5.604   0.443  0.1417  0.9124 -0.2317
 3919TIP3    H111763   6.234   5.549   0.365  1.6731  2.0245 -1.1537
 3919TIP3    H211764   6.152   5.598   0.482  0.1075 -1.7704 -0.5367
 3920TIP3   OH211765   4.163   1.635   1.127 -0.2652 -0.5037 -0.1927
 3920TIP3    H111766   4.255   1.639   1.100 -1.0676 -0.6642 -3.3361
 3920TIP3    H211767   4.164   1.661   1.219  3.0028 -1.3435  0.1516
 3921TIP3   OH211768   4.308   0.656   2.907 -0.4293 -0.2648 -0.4718
 3921TIP3    H111769   4.382   0.642   2.965 -1.0981 -0.8010  0.2718
 3921TIP3    H211770   4.331   0.610   2.826  0.0641 -0.3726 -0.2687
 3922TIP3   OH211771   0.018   4.496   2.060 -0.1326  0.2774  0.3371
 3922TIP3    H111772   0.111   4.483   2.079 -0.1338  0.4770  0.4845
 3922TIP3    H211773   0.015   4.578   2.012 -0.1112 -0.3211 -0.7110
 3923TIP3   OH211774   2.766   2.607   1.649 -0.8209  0.4864  0.1006
 3923TIP3    H111775   2.707   2.537   1.620  0.9802 -0.7357 -0.8179
 3923TIP3    H211776   2.745   2.681   1.593 -1.0584 -0.1272 -0.6401
 3924TIP3   OH211777   1.355   3.212   4.482 -0.2768  0.2541 -0.1158
 3924TIP3    H111778   1.298   3.288   4.498 -1.3679 -0.1029 -1.9476
 3924TIP3    H211779   1.430   3.248   4.435  0.1491  0.4663  0.7166
 3925TIP3   OH211780   5.860   4.284   0.176  0.3684 -0.6948  0.4928
 3925TIP3    H111781   5.840   4.257   0.265 -0.2753 -0.6180  0.3819
 3925TIP3    H211782   5.789   4.343   0.153  1.1459  0.1943  0.3278
 3926TIP3   OH211783   1.970   4.488   3.154  0.0553 -0.3886 -0.1616
 3926TIP3    H111784   1.960   4.559   3.091  1.8852  0.2152  0.1590
 3926TIP3    H211785   1.962   4.531   3.239 -2.4327 -1.1987  0.0899
 3927TIP3   OH211786   2.287   4.765   3.772  0.1032  0.1004 -0.4037
 3927TIP3    H111787   2.345   4.712   3.826 -1.2363 -0.9963  0.0335
 3927TIP3    H211788   2.341   4.791   3.697  1.4631  0.1138  0.5435
 3928TIP3   OH211789   0.280   0.259   1.933 -0.1593 -0.0322  0.0385
 3928TIP3    H111790   0.374   0.249   1.947  0.0378 -0.9944 -1.7012
 3928TIP3    H211791   0.266   0.232   1.842 -1.8986  1.5597 -0.2274
 3929TIP3   OH211792   2.609   2.467   3.471 -0.0325 -0.1116 -0.2819
 3929TIP3    H111793   2.549   2.541   3.484 -1.3713 -1.1934 -0.1431
 3929TIP3    H211794   2.555   2.389   3.484  1.6909 -1.1375  1.1593
 3930TIP3   OH211795   4.384   1.110   1.570  0.2351 -0.0725 -0.1164
 3930TIP3    H111796   4.314   1.053   1.602  0.3925 -0.5609 -0.6051
 3930TIP3    H211797   4.380   1.187   1.625  0.7111 -1.0225  1.2923
 3931TIP3   OH211798   2.315   5.230   0.498 -0.0371  0.0202  0.1987
 3931TIP3    H111799   2.390   5.286   0.476 -1.1320  0.6372 -2.2774
 3931TIP3    H211800   2.327   5.152   0.443 -0.8155 -0.2238  0.3723
 3932TIP3   OH211801   0.523   3.500   2.127 -0.5797 -0.4295  0.3518
 3932TIP3    H111802   0.597   3.536   2.078 -0.3944  1.1257  1.6810
 3932TIP3    H211803   0.562   3.442   2.192 -0.3342  1.2715  1.8206
 3933TIP3   OH211804   1.298   0.527   4.241 -0.2727 -0.9957 -0.1004
 3933TIP3    H111805   1.218   0.477   4.224 -0.5600 -0.5400 -0.0979
 3933TIP3    H211806   1.348   0.521   4.160  0.3216 -2.4277  0.3461
 3934TIP3   OH211807   1.808   4.283   3.488 -0.1613  0.9091 -0.2236
 3934TIP3    H111808   1.865   4.354   3.459 -1.9561  2.0906 -1.0296
 3934TIP3    H211809   1.773   4.314   3.572  1.5088 -0.5049  1.0792
 3935TIP3   OH211810   5.045   0.463   0.696  0.0597 -0.1820  0.7703
 3935TIP3    H111811   5.083   0.424   0.618 -2.0819 -0.8704  0.0058
 3935TIP3    H211812   5.024   0.388   0.752 -0.8097  0.1028  0.8417
 3936TIP3   OH211813   1.393   0.020   4.057  0.0415  0.3717 -0.2264
 3936TIP3    H111814   1.388   0.047   4.149 -0.5991 -1.4697  0.3236
 3936TIP3    H211815   1.313   0.057   4.018  0.2583  1.0666 -0.0345
 3937TIP3   OH211816   2.203   3.739   0.965 -0.3609  0.0831  0.1344
 3937TIP3    H111817   2.150   3.671   0.923  2.0954 -1.6120 -0.4731
 3937TIP3    H211818   2.207   3.712   1.057  0.5874 -0.6494 -0.1000
 3938TIP3   OH211819   5.273   3.262   3.454 -0.2154 -0.7100  0.2302
 3938TIP3    H111820   5.187   3.270   3.412 -0.2645  0.2112  0.4719
 3938TIP3    H211821   5.335   3.258   3.381 -0.5375 -2.6867  0.0316
 3939TIP3   OH211822   0.460   2.201   3.026 -0.1096 -0.0785 -0.6585
 3939TIP3    H111823   0.551   2.173   3.032  0.4651  1.6812 -0.7099
 3939TIP3    H211824   0.458   2.262   2.953 -0.6381  2.3037  1.2367
 3940TIP3   OH211825   1.035   4.697   2.201 -0.2557 -0.0477 -0.2119
 3940TIP3    H111826   1.095   4.758   2.243 -1.5746  1.6904 -0.7053
 3940TIP3    H211827   1.070   4.686   2.113  0.8575 -1.3059  0.3612
 3941TIP3   OH211828   2.069   3.919   3.671 -0.5255 -0.0240 -0.0097
 3941TIP3    H111829   2.002   3.973   3.712  0.6997  1.3050  0.3101
 3941TIP3    H211830   2.072   3.949   3.580  0.0871  0.3926  0.1426
 3942TIP3   OH211831   4.409   2.653   0.752 -0.5933 -0.6608 -0.3673
 3942TIP3    H111832   4.322   2.617   0.734 -1.2740  0.2632  0.9058
 3942TIP3    H211833   4.394   2.720   0.818  1.1519 -0.7281  0.1521
 3943TIP3   OH211834   5.858   0.486   4.463 -0.1175 -0.4129  0.3838
 3943TIP3    H111835   5.774   0.444   4.478 -0.6360  0.5014  0.0846
 3943TIP3    H211836   5.840   0.580   4.467  1.4639 -0.0637  3.8984
 3944TIP3   OH211837   4.189   0.323   3.442  0.0023  0.2234 -0.0071
 3944TIP3    H111838   4.111   0.272   3.463 -0.1745 -1.0336 -3.2338
 3944TIP3    H211839   4.182   0.341   3.349  3.0747  0.9651 -0.1933
 3945TIP3   OH211840   0.086   1.625   1.511  0.2145  0.1393  0.2381
 3945TIP3    H111841   0.070   1.574   1.431  1.4513  1.6689 -1.0572
 3945TIP3    H211842   0.011   1.607   1.567 -2.0444  0.9803 -2.3154
 3946TIP3   OH211843   0.147   4.461   1.199  0.6805 -0.1726 -0.6525
 3946TIP3    H111844   0.116   4.468   1.108 -0.7420  1.2160 -0.1193
 3946TIP3    H211845   0.229   4.413   1.193  0.1696 -0.8885 -2.5758
 3947TIP3   OH211846   3.328   5.602   3.824  0.4479 -0.3349  0.2039
 3947TIP3    H111847   3.292   5.536   3.766 -0.7514  0.6301 -0.2084
 3947TIP3    H211848   3.253   5.629   3.879  1.0538  0.2232  0.7788
 3948TIP3   OH211849   2.215   2.034   2.155  0.0279  0.0595  0.5386
 3948TIP3    H111850   2.282   2.008   2.091 -0.7833  0.3732 -0.4740
 3948TIP3    H211851   2.253   2.110   2.200  0.4995  0.0208  0.2135
 3949TIP3   OH211852   0.763   0.434   1.239  0.3739  0.2921  0.2349
 3949TIP3    H111853   0.849   0.476   1.244  0.4280  0.3217 -0.7173
 3949TIP3    H211854   0.701   0.506   1.228  0.3466  0.2064 -0.2030
 3950TIP3   OH211855   3.539   1.857   3.468  0.0596  0.1056 -0.0148
 3950TIP3    H111856   3.632   1.869   3.448 -0.2190 -0.1095 -1.5166
 3950TIP3    H211857   3.537   1.834   3.561  1.4739  0.4881  0.1248
 3951TIP3   OH211858   5.635   5.479   4.562  0.1721  0.1884 -0.2673
 3951TIP3    H111859   5.688   5.493   4.641 -1.3574  1.0698  0.6719
 3951TIP3    H211860   5.664   5.394   4.529  0.8447 -0.2327  1.2701
 3952TIP3   OH211861   2.129   0.584   5.072 -0.9380 -0.1173  0.0640
 3952TIP3    H111862   2.131   0.493   5.102 -0.7535  0.4830  2.0172
 3952TIP3    H211863   2.212   0.621   5.102 -0.7859  0.5983 -1.1495
 3953TIP3   OH211864   3.468   4.833   0.345 -0.1326 -0.4365 -0.3188
 3953TIP3    H111865   3.512   4.902   0.396 -2.1506  1.2132 -0.6688
 3953TIP3    H211866   3.400   4.800   0.404 -1.1169  0.0000 -1.1882
 3954TIP3   OH211867   1.032   5.008   2.407  0.0496 -0.7182  0.4556
 3954TIP3    H111868   1.017   4.985   2.499 -1.8611  2.0393  0.9577
 3954TIP3    H211869   1.049   5.102   2.408 -0.0323 -0.6087 -2.0299
 3955TIP3   OH211870   3.420   4.329   5.134  0.0318  0.1275  0.0018
 3955TIP3    H111871   3.364   4.294   5.203 -0.9773  1.1981 -0.2477
 3955TIP3    H211872   3.387   4.290   5.053  1.3764 -1.3284  0.0957
 3956TIP3   OH211873   0.735   5.080   2.518  0.7905 -0.4701 -0.2815
 3956TIP3    H111874   0.681   5.097   2.594  2.0453 -0.4162  0.6283
 3956TIP3    H211875   0.732   4.985   2.507  0.4565 -0.4601 -0.2905
 3957TIP3   OH211876   1.255   0.859   3.438 -0.6592 -0.2012 -0.0253
 3957TIP3    H111877   1.163   0.864   3.414 -1.4115  1.3727  2.7411
 3957TIP3    H211878   1.295   0.934   3.395 -0.7799 -0.5571 -0.7673
 3958TIP3   OH211879   5.141   1.234   2.996 -0.0524  0.3529  0.0342
 3958TIP3    H111880   5.171   1.204   2.910  0.4768 -2.0374  0.9724
 3958TIP3    H211881   5.126   1.327   2.984 -1.1299 -0.0806 -2.9551
 3959TIP3   OH211882   3.845   3.780   1.845 -0.2282  0.1192  0.1353
 3959TIP3    H111883   3.916   3.758   1.905 -0.1949  1.7405  0.7298
 3959TIP3    H211884   3.766   3.754   1.893 -0.0887 -1.1330 -0.2819
 3960TIP3   OH211885  -0.005   3.604   4.754 -0.2129 -0.8984 -0.2144
 3960TIP3    H111886   0.072   3.566   4.795  1.0901 -1.0231 -2.6436
 3960TIP3    H211887  -0.066   3.531   4.744  0.4553 -1.3879 -0.7490
 3961TIP3   OH211888   1.063   4.745   1.707 -0.0869 -0.1364 -0.2574
 3961TIP3    H111889   1.066   4.743   1.803 -1.8604  1.8577 -0.0914
 3961TIP3    H211890   0.973   4.719   1.686 -0.2150  1.0501 -1.2648
 3962TIP3   OH211891   2.297   3.226   1.515  0.1883  0.1316 -0.0977
 3962TIP3    H111892   2.215   3.238   1.563 -0.6594  0.4376 -1.5524
 3962TIP3    H211893   2.273   3.171   1.440  0.8137  1.9410 -1.7091
 3963TIP3   OH211894   4.335   5.465   0.191  0.2836  0.6972  0.6308
 3963TIP3    H111895   4.261   5.412   0.162  0.8643 -0.4038  1.1064
 3963TIP3    H211896   4.296   5.550   0.213 -0.3709  1.1313 -1.9610
 3964TIP3   OH211897   5.817   4.317   0.641  0.2107 -0.1015  0.5094
 3964TIP3    H111898   5.758   4.292   0.569 -0.4675  0.6306  0.8010
 3964TIP3    H211899   5.896   4.348   0.597  0.5676 -1.4599  0.1183
 3965TIP3   OH211900   5.825   2.785   3.038 -0.5210  0.5177 -0.0650
 3965TIP3    H111901   5.909   2.797   3.083  0.6031 -3.6857 -0.6345
 3965TIP3    H211902   5.845   2.794   2.945 -1.3641  2.1670 -0.1284
 3966TIP3   OH211903   5.552   4.074   2.643  0.4575 -0.6395 -0.1115
 3966TIP3    H111904   5.521   4.100   2.729 -0.2004 -1.0266 -0.2231
 3966TIP3    H211905   5.507   4.132   2.582  1.5393  0.1822 -0.1554
 3967TIP3   OH211906   4.927   5.289   5.069 -0.0791  0.1729 -0.8196
 3967TIP3    H111907   4.921   5.249   5.156 -0.3934 -0.4723 -1.1293
 3967TIP3    H211908   4.862   5.242   5.017 -1.5370  2.0664 -0.8276
 3968TIP3   OH211909   0.965   1.565   0.869 -0.2951 -0.0743  0.5143
 3968TIP3    H111910   0.933   1.626   0.936  1.3653  0.2075  1.0978
 3968TIP3    H211911   1.020   1.504   0.917 -1.5400 -1.7882 -0.1478
 3969TIP3   OH211912   3.676   4.560   4.534  0.3348  0.1480 -0.7377
 3969TIP3    H111913   3.620   4.581   4.609 -0.2058  2.7695 -1.7649
 3969TIP3    H211914   3.621   4.508   4.476  0.0270  0.0027 -0.3174
 3970TIP3   OH211915   4.596   2.361   1.368 -0.1678  0.2950  0.0433
 3970TIP3    H111916   4.505   2.376   1.393 -0.2718  0.4502 -0.4219
 3970TIP3    H211917   4.632   2.449   1.354 -0.6583  0.1879 -2.2763
 3971TIP3   OH211918   2.965   3.790   4.966  0.1431  0.0971 -0.1103
 3971TIP3    H111919   2.951   3.834   4.882  1.7366 -1.5359 -1.3185
 3971TIP3    H211920   3.057   3.804   4.986 -0.2132  0.4514  1.3915
 3972TIP3   OH211921   4.985   5.712   1.056  0.4368 -0.0538  0.2377
 3972TIP3    H111922   4.895   5.683   1.069  1.5626 -3.4063  1.4660
 3972TIP3    H211923   5.012   5.670   0.975  0.4038  2.5535 -1.2326
 3973TIP3   OH211924   4.863   2.205   3.836 -0.0432  0.0722 -0.2722
 3973TIP3    H111925   4.892   2.114   3.840  1.7971  0.5649 -1.2077
 3973TIP3    H211926   4.911   2.242   3.761 -0.3022  1.9592  0.4369
 3974TIP3   OH211927   5.258   1.850   3.569  0.2521 -0.1822  0.0542
 3974TIP3    H111928   5.213   1.771   3.537  1.3157 -1.1242  0.8080
 3974TIP3    H211929   5.190   1.917   3.569 -0.8044 -1.2054 -0.1737
 3975TIP3   OH211930   1.505   0.662   3.500  0.1123  0.9674  0.4321
 3975TIP3    H111931   1.423   0.700   3.469 -1.6875 -3.0042 -0.2545
 3975TIP3    H211932   1.545   0.624   3.422  0.2756 -1.0364  1.4328
 3976TIP3   OH211933   2.513   0.507   1.926  0.2438 -0.2468 -0.6198
 3976TIP3    H111934   2.532   0.420   1.960 -0.3928 -0.3627 -0.5365
 3976TIP3    H211935   2.594   0.535   1.883  0.1487 -1.2962 -1.5241
 3977TIP3   OH211936   3.795   1.354   2.662  0.8238 -0.5997  0.2188
 3977TIP3    H111937   3.720   1.318   2.710 -0.0903  0.8331 -0.0575
 3977TIP3    H211938   3.822   1.429   2.715  1.2366 -0.3354 -0.3622
 3978TIP3   OH211939   5.057   1.405   0.709  0.0771  0.0027  0.7740
 3978TIP3    H111940   4.970   1.366   0.711 -0.7482  1.5134 -1.4857
 3978TIP3    H211941   5.107   1.351   0.648  1.0135 -1.2522  2.5529
 3979TIP3   OH211942   0.008   4.226   0.197  0.5996  0.2051  0.4824
 3979TIP3    H111943   0.053   4.180   0.267 -0.3200  0.8223  1.5141
 3979TIP3    H211944   0.075   4.242   0.131  1.0472 -2.1212  0.3052
 3980TIP3   OH211945   0.039   5.815   3.812  0.0823 -0.0727  0.6544
 3980TIP3    H111946   0.106   5.772   3.759  0.6102 -0.1710  1.3804
 3980TIP3    H211947  -0.044   5.780   3.779  0.4539 -0.9664  0.6271
 3981TIP3   OH211948   4.428   4.910   3.751  0.3699 -0.7473  0.1028
 3981TIP3    H111949   4.393   4.873   3.669  0.2181 -0.6676  0.1314
 3981TIP3    H211950   4.350   4.928   3.804  0.5079 -1.7247  0.6678
 3982TIP3   OH211951   3.997   2.057   4.568  0.4066 -0.4907  0.1701
 3982TIP3    H111952   3.913   2.103   4.573 -1.5005 -3.1323 -3.3990
 3982TIP3    H211953   4.032   2.081   4.482  1.7476 -1.8772  0.3036
 3983TIP3   OH211954   0.495   4.074   2.293  0.3478 -0.2963  1.0216
 3983TIP3    H111955   0.412   4.107   2.258  0.1805 -1.7375 -0.0183
 3983TIP3    H211956   0.468   4.015   2.364  0.4498 -1.1570  0.3509
 3984TIP3   OH211957   4.934   1.791   1.946 -0.0796 -0.1455  0.4747
 3984TIP3    H111958   4.899   1.851   2.012 -0.7550  0.7484 -0.6745
 3984TIP3    H211959   5.029   1.799   1.956 -0.1514 -1.1013  2.2776
 3985TIP3   OH211960   3.734   1.950   2.391  0.2649 -0.3526 -0.1351
 3985TIP3    H111961   3.743   2.040   2.361  1.9859 -0.5349 -0.2856
 3985TIP3    H211962   3.665   1.954   2.458 -2.2128  0.3956 -2.5822
 3986TIP3   OH211963   2.910   2.938   0.685 -0.2877 -0.5154 -0.0558
 3986TIP3    H111964   2.878   2.848   0.683  0.2929 -0.7606  0.9178
 3986TIP3    H211965   2.956   2.945   0.769 -2.3777  1.3922  1.0697
 3987TIP3   OH211966   3.737   0.370   4.890 -0.7591  0.4535  0.1809
 3987TIP3    H111967   3.731   0.368   4.795  1.8121 -0.1349 -0.0492
 3987TIP3    H211968   3.731   0.463   4.913 -0.6255  0.6721 -0.6542
 3988TIP3   OH211969   1.650   0.809   4.428  0.1994  0.2986 -0.1759
 3988TIP3    H111970   1.563   0.772   4.441  0.6047 -1.1499 -1.3256
 3988TIP3    H211971   1.635   0.891   4.379 -0.5081  0.0076 -0.4511
 3989TIP3   OH211972   0.726   0.230   0.975 -0.3378  0.7590 -0.5825
 3989TIP3    H111973   0.659   0.161   0.981  0.9837 -0.4938  0.4097
 3989TIP3    H211974   0.759   0.238   1.064  2.3524 -0.2423 -1.3999
 3990TIP3   OH211975   1.800   2.182   0.942  0.3879 -0.0560 -0.4008
 3990TIP3    H111976   1.721   2.130   0.931  0.3116  0.0952 -0.5728
 3990TIP3    H211977   1.822   2.213   0.854 -0.9820  2.2603 -0.0074
 3991TIP3   OH211978   0.056   0.189   3.712  0.2434  0.4901 -0.6437
 3991TIP3    H111979   0.051   0.170   3.619 -1.9776  0.3824 -0.5575
 3991TIP3    H211980  -0.035   0.209   3.737  1.2557  4.1546  0.7197
 3992TIP3   OH211981   3.562   1.762   0.353  0.2223  0.2530  0.3871
 3992TIP3    H111982   3.538   1.675   0.385  0.4690  0.4230  1.0563
 3992TIP3    H211983   3.655   1.771   0.376  0.5662  0.1807 -0.8533
 3993TIP3   OH211984   0.436   2.262   2.159 -0.1473  0.6166 -0.1124
 3993TIP3    H111985   0.385   2.226   2.232  1.9114 -2.0896  0.1759
 3993TIP3    H211986   0.438   2.191   2.094  0.8008  1.7259 -1.3670
 3994TIP3   OH211987   2.814   5.071   3.073 -0.6090 -0.0094 -0.1405
 3994TIP3    H111988   2.795   4.984   3.108  0.5835  0.2470  1.2098
 3994TIP3    H211989   2.797   5.131   3.146  0.2390  0.7138 -0.5169
 3995TIP3   OH211990   2.282   1.607   3.540  0.2721 -0.2668  0.3916
 3995TIP3    H111991   2.365   1.617   3.494  0.2162 -0.8962  0.1482
 3995TIP3    H211992   2.215   1.631   3.476  0.1558 -1.7772 -0.0924
 3996TIP3   OH211993   0.125   5.911   3.408 -0.4521  0.2390 -0.1485
 3996TIP3    H111994   0.214   5.896   3.441 -0.3228 -1.0062 -0.9839
 3996TIP3    H211995   0.115   6.006   3.408  0.4460  0.3575  1.0734
 3997TIP3   OH211996   1.047   0.569   4.413  0.1564 -0.4044 -0.2494
 3997TIP3    H111997   1.047   0.506   4.341  0.2159 -1.3496  0.5651
 3997TIP3    H211998   1.129   0.552   4.460  1.0245  1.4476 -0.9930
 3998TIP3   OH211999   5.288   3.286   0.361  0.3354 -0.2480  0.0726
 3998TIP3    H112000   5.346   3.357   0.389  0.1036 -0.0950  0.1618
 3998TIP3    H212001   5.248   3.254   0.442  2.5860 -2.4103  0.4708
 3999TIP3   OH212002   2.489   5.653   2.316 -0.9940 -0.5205  0.7685
 3999TIP3    H112003   2.568   5.692   2.278 -0.8393 -0.3143  1.2796
 3999TIP3    H212004   2.473   5.575   2.264 -1.5075  0.3978 -0.5126
 4000TIP3   OH212005   0.361   3.214   0.276 -0.0003  0.2462 -0.0679
 4000TIP3    H112006   0.369   3.143   0.213 -0.2003  0.3825 -0.2459
 4000TIP3    H212007   0.407   3.288   0.236  0.4857  0.1265  0.2571
 4001TIP3   OH212008   3.737   2.570   2.976  0.0854 -0.2569  0.0645
 4001TIP3    H112009   3.674   2.603   3.040  0.0302  0.3579 -0.3010
 4001TIP3    H212010   3.691   2.499   2.931  0.2618 -0.9648  0.9652
 4002TIP3   OH212011   5.929   5.030   0.649  0.4274  0.7614  0.5328
 4002TIP3    H112012   5.862   4.966   0.624  0.8235  0.6419 -0.2724
 4002TIP3    H212013   5.942   5.016   0.743 -1.0373  1.1407  0.8288
 4003TIP3   OH212014   3.670   5.133   1.910 -0.3634 -0.0322 -0.0047
 4003TIP3    H112015   3.742   5.089   1.865  0.1159 -1.9283  2.4190
 4003TIP3    H212016   3.711   5.206   1.957 -0.5199  0.6067 -0.8314
 4004TIP3   OH212017   3.656   1.579   1.843  0.3964  0.0136  0.3422
 4004TIP3    H112018   3.732   1.544   1.889  1.0481  2.3620  1.1989
 4004TIP3    H212019   3.688   1.596   1.754  0.0881 -1.3990 -0.0669
 4005TIP3   OH212020   1.291   0.802   3.091  0.3902  0.2131 -0.3056
 4005TIP3    H112021   1.223   0.747   3.052  0.1077 -0.3469  0.9322
 4005TIP3    H212022   1.354   0.814   3.020 -0.4027 -0.2432 -1.1281
 4006TIP3   OH212023   2.735   4.149   0.776  0.4565  0.3680 -0.7703
 4006TIP3    H112024   2.721   4.056   0.757 -1.4545  0.6491 -1.0049
 4006TIP3    H212025   2.739   4.154   0.872 -2.4827  0.3129 -0.5504
 4007TIP3   OH212026   2.189   2.463   2.239 -0.7841  0.2943  0.0045
 4007TIP3    H112027   2.096   2.441   2.236 -0.2393 -2.3515 -2.4247
 4007TIP3    H212028   2.191   2.556   2.262 -4.1042  0.8188 -1.1923
 4008TIP3   OH212029   2.985   4.871   4.319 -0.0083 -0.1532  0.5450
 4008TIP3    H112030   2.916   4.831   4.266  2.2890 -1.6883 -1.4640
 4008TIP3    H212031   3.014   4.946   4.269 -1.2484  1.5339  2.1979
 4009TIP3   OH212032   1.950   2.242   0.706  0.2121 -0.4207  0.4028
 4009TIP3    H112033   1.987   2.330   0.699 -0.8998  0.1633  1.4631
 4009TIP3    H212034   2.020   2.190   0.747  0.2115  0.4424  1.5594
 4010TIP3   OH212035   1.913   2.895   4.024  0.0216 -0.3632  0.5636
 4010TIP3    H112036   1.955   2.885   3.938 -1.3681  1.0352 -0.3345
 4010TIP3    H212037   1.913   2.807   4.061  0.4018 -1.0533 -0.9899
 4011TIP3   OH212038   1.960   1.805   3.737  0.1057 -0.2162  0.3294
 4011TIP3    H112039   2.036   1.845   3.694 -1.1391  1.5337 -0.3936
 4011TIP3    H212040   1.899   1.878   3.748 -1.1934 -1.4358  1.5146
 4012TIP3   OH212041   3.955   0.398   0.354  0.4289 -0.2953 -0.0696
 4012TIP3    H112042   3.899   0.476   0.347 -0.5222 -1.0467 -1.1720
 4012TIP3    H212043   3.954   0.360   0.266 -0.3760 -2.3852  0.7680
 4013TIP3   OH212044   2.167   5.014   0.901 -0.0958  0.9452  0.5305
 4013TIP3    H112045   2.135   5.078   0.837  2.1151  0.9522 -0.6864
 4013TIP3    H212046   2.136   5.046   0.985 -0.5912  2.6124 -0.2371
 4014TIP3   OH212047   4.902   1.420   0.182 -0.1136 -0.3249 -0.0448
 4014TIP3    H112048   4.828   1.394   0.238 -1.1826 -1.2476 -1.7730
 4014TIP3    H212049   4.974   1.363   0.209 -0.5897 -0.7094  0.4415
 4015TIP3   OH212050   0.145   0.912   1.482  0.0158 -0.2276  0.5051
 4015TIP3    H112051   0.192   0.995   1.480 -0.5982  0.1527  1.4185
 4015TIP3    H212052   0.059   0.932   1.444  0.3979 -0.8225 -0.7569
 4016TIP3   OH212053   4.128   0.155   5.053 -0.1127  0.4287 -0.3553
 4016TIP3    H112054   4.086   0.227   5.006  0.5470  0.0035 -1.6385
 4016TIP3    H212055   4.220   0.180   5.059 -0.0042  0.0052 -0.1946
 4017TIP3   OH212056   2.628   5.462   3.160  0.2205 -0.1280  0.3767
 4017TIP3    H112057   2.539   5.459   3.195  0.3806  0.1173  0.8195
 4017TIP3    H212058   2.619   5.437   3.068 -0.2090 -0.7940  0.5955
 4018TIP3   OH212059   4.642   5.945   4.337 -0.5350  0.3929 -0.2004
 4018TIP3    H112060   4.558   5.968   4.298 -0.0025  0.5933 -1.2657
 4018TIP3    H212061   4.691   6.027   4.340 -1.6668  1.1314  3.9237
 4019TIP3   OH212062   0.857   1.212   3.245  0.2012  0.0578 -0.0124
 4019TIP3    H112063   0.910   1.228   3.167 -0.0665  0.2906 -0.1474
 4019TIP3    H212064   0.821   1.298   3.268  2.3642  0.5397  1.9214
 4020TIP3   OH212065   4.144   3.984   2.689  0.2161  0.0773  0.1915
 4020TIP3    H112066   4.236   3.980   2.662 -0.3621  0.0900 -1.9654
 4020TIP3    H212067   4.147   4.012   2.780  2.4137 -1.6326  0.7448
 4021TIP3   OH212068   6.341   0.972   2.245 -0.2864 -0.0900 -0.2618
 4021TIP3    H112069   6.248   0.998   2.246 -0.7279 -1.3070  2.8412
 4021TIP3    H212070   6.384   1.037   2.301  0.6892  0.1376 -1.2336
 4022TIP3   OH212071   2.491   0.049   1.321  0.2393  0.2330  0.0795
 4022TIP3    H112072   2.548   0.120   1.350 -1.0474  1.2788  0.1369
 4022TIP3    H212073   2.405   0.072   1.356 -0.7636  0.0165 -2.1086
 4023TIP3   OH212074   6.238   0.193   3.089  0.0787 -0.1663 -0.2722
 4023TIP3    H112075   6.223   0.287   3.076  2.3497  0.4631  1.2123
 4023TIP3    H212076   6.281   0.165   3.008 -0.6125  0.0610 -0.7256
 4024TIP3   OH212077   2.913   0.759   4.090 -0.0816 -0.1194  0.1050
 4024TIP3    H112078   2.928   0.746   4.183 -1.3548 -1.2219  0.1886
 4024TIP3    H212079   2.966   0.690   4.048 -0.8195 -0.7133  0.1249
 4025TIP3   OH212080   5.694   3.299   4.060  0.4822 -0.4614 -0.4413
 4025TIP3    H112081   5.660   3.342   3.982  1.1459  0.0935 -0.4380
 4025TIP3    H212082   5.760   3.238   4.027  1.2577  0.2631 -0.2909
 4026TIP3   OH212083   1.322   1.715   3.027  0.1327  0.2442 -0.4926
 4026TIP3    H112084   1.374   1.653   3.078  0.7988  0.5766 -0.7657
 4026TIP3    H212085   1.385   1.760   2.971 -0.0571  2.3942  0.9085
 4027TIP3   OH212086   4.720   5.639   4.037  0.1112  0.6992  0.0803
 4027TIP3    H112087   4.629   5.657   4.015  0.1191  0.9984  0.2822
 4027TIP3    H212088   4.725   5.544   4.044  0.0859  0.5972 -1.1067
 4028TIP3   OH212089   5.595   3.780   4.121 -0.2585 -0.5363 -0.2977
 4028TIP3    H112090   5.658   3.844   4.154 -0.0895 -0.8067 -0.1057
 4028TIP3    H212091   5.555   3.742   4.199 -1.6302  0.5894 -0.4076
 4029TIP3   OH212092   2.072   2.987   4.215 -0.7956  0.2110  0.2515
 4029TIP3    H112093   2.021   2.962   4.138 -1.0040 -0.5883  0.6423
 4029TIP3    H212094   2.068   3.083   4.216  0.1004  0.2953 -1.3317
 4030TIP3   OH212095   0.449   0.360   1.537  0.2560 -0.1788  1.0330
 4030TIP3    H112096   0.535   0.321   1.554  1.0963  1.3071  0.4126
 4030TIP3    H212097   0.445   0.368   1.442 -0.2792  0.3623  1.0980
 4031TIP3   OH212098   1.556   5.588   3.126  0.6403  0.0197  0.3324
 4031TIP3    H112099   1.580   5.495   3.132 -2.5914 -0.9175  0.2054
 4031TIP3    H212100   1.630   5.634   3.166  1.7269 -2.6738  1.6678
 4032TIP3   OH212101   3.931   3.163   4.904  0.4881  0.4498  0.0323
 4032TIP3    H112102   3.879   3.084   4.885 -0.2533  1.1105 -0.7884
 4032TIP3    H212103   3.867   3.234   4.902  0.6603  0.8434  3.4024
 4033TIP3   OH212104   3.051   2.748   3.890 -0.4065 -0.0649  0.5648
 4033TIP3    H112105   3.033   2.724   3.981 -0.5839  1.7252  1.0457
 4033TIP3    H212106   2.985   2.814   3.870 -0.9421 -1.0820 -1.1842
 4034TIP3   OH212107   2.018   2.118   4.119 -0.4186 -0.3478  0.1123
 4034TIP3    H112108   2.064   2.035   4.112  0.1633  0.0406 -0.9091
 4034TIP3    H212109   2.087   2.184   4.130 -0.8271  0.0621  0.2677
 4035TIP3   OH212110   1.035   4.359   3.648 -0.3224 -0.1943  0.2726
 4035TIP3    H112111   1.128   4.378   3.642 -0.3427 -0.0070  0.5495
 4035TIP3    H212112   1.006   4.350   3.558  0.1939 -1.3634  0.2084
 4036TIP3   OH212113   4.853   2.648   0.471 -0.2794  0.1362  1.1885
 4036TIP3    H112114   4.764   2.614   0.467 -0.8280  1.6190 -1.2028
 4036TIP3    H212115   4.908   2.570   0.460 -1.3688 -0.5097  0.0642
 4037TIP3   OH212116   4.599   4.066   3.648  0.3432 -0.0623  0.1186
 4037TIP3    H112117   4.691   4.083   3.631  0.2318  0.7973  0.3192
 4037TIP3    H212118   4.567   4.146   3.692  0.1748 -1.3657  2.5824
 4038TIP3   OH212119   5.049   3.383   0.062  0.2040  0.2567 -0.1270
 4038TIP3    H112120   4.965   3.420   0.032 -0.1362  1.2202  1.8135
 4038TIP3    H212121   5.026   3.334   0.141  1.3797 -0.0583  0.0341
 4039TIP3   OH212122   1.601   0.532   2.763 -0.0373 -0.5540 -0.1875
 4039TIP3    H112123   1.522   0.541   2.709  0.1838  1.5118 -0.2544
 4039TIP3    H212124   1.567   0.530   2.853 -0.1900  1.1448 -0.1645
 4040TIP3   OH212125   3.329   2.586   3.072  0.3274  0.2579 -0.3832
 4040TIP3    H112126   3.337   2.669   3.025  0.4910 -0.4232 -1.5679
 4040TIP3    H212127   3.331   2.612   3.165 -1.4986  1.7502 -0.7019
 4041TIP3   OH212128   1.680   2.137   2.095 -0.0389  0.8563 -0.3001
 4041TIP3    H112129   1.759   2.184   2.122 -1.2039  2.4327  0.5253
 4041TIP3    H212130   1.639   2.109   2.177  0.0452 -0.6808 -0.7477
 4042TIP3   OH212131   0.384   5.442   2.110 -0.0804  0.1387  0.1534
 4042TIP3    H112132   0.314   5.378   2.101  0.5590 -0.3642 -1.5708
 4042TIP3    H212133   0.341   5.527   2.100 -0.5985 -0.1176  0.1732
 4043TIP3   OH212134   3.577   1.301   2.800  0.2774  0.1086 -0.5316
 4043TIP3    H112135   3.553   1.287   2.892 -2.3209 -1.8690 -1.3924
 4043TIP3    H212136   3.524   1.376   2.772  0.7682  0.4565 -0.5474
 4044TIP3   OH212137   5.318   3.754   2.985  0.9690 -0.7829  0.5830
 4044TIP3    H112138   5.331   3.744   2.891  1.0176  0.9688  0.3632
 4044TIP3    H212139   5.318   3.849   2.999  0.3016 -0.9938  2.2547
 4045TIP3   OH212140   4.840   5.795   4.232 -0.1518 -0.4885  0.9939
 4045TIP3    H112141   4.761   5.816   4.283  0.1656  0.0844  1.2593
 4045TIP3    H212142   4.811   5.728   4.171 -1.7184  1.9094 -1.1393
 4046TIP3   OH212143   2.515   0.814   2.134 -0.1355  0.5664 -0.6453
 4046TIP3    H112144   2.511   0.886   2.197 -0.3975  0.8036 -0.9303
 4046TIP3    H212145   2.448   0.753   2.164  1.0514 -0.2621  0.4398
 4047TIP3   OH212146   4.090   3.331   1.830  0.0952 -0.1119 -0.0608
 4047TIP3    H112147   4.100   3.422   1.801 -0.9406  0.8085  2.2055
 4047TIP3    H212148   4.153   3.322   1.902 -0.1365 -1.0535  0.0330
 4048TIP3   OH212149   0.868   3.816   0.569 -0.1870 -0.0684 -0.1203
 4048TIP3    H112150   0.891   3.757   0.498  0.2846  1.5026 -1.3469
 4048TIP3    H212151   0.941   3.808   0.631 -0.0295 -0.6184 -0.3729
 4049TIP3   OH212152   1.784   4.444   1.725  0.0765 -0.3849 -0.1140
 4049TIP3    H112153   1.731   4.407   1.654  1.0126  2.3018 -2.3703
 4049TIP3    H212154   1.725   4.505   1.769  0.0515 -0.6506  0.2255
 4050TIP3   OH212155   5.379   5.425   1.452  0.1114  0.0249  0.2074
 4050TIP3    H112156   5.314   5.494   1.441  0.0295 -0.1235 -0.2243
 4050TIP3    H212157   5.354   5.383   1.535  0.6955  1.0836  0.9442
 4051TIP3   OH212158   5.263   5.915   1.840  0.1638  0.6271  0.3949
 4051TIP3    H112159   5.276   5.828   1.876  1.9702  1.0129  0.7587
 4051TIP3    H212160   5.351   5.948   1.825 -0.5041  2.0188 -0.6604
 4052TIP3   OH212161   2.549   1.696   3.393  0.9187 -0.0133  0.4827
 4052TIP3    H112162   2.627   1.735   3.353 -0.0190  1.1002 -0.3152
 4052TIP3    H212163   2.584   1.631   3.454  2.5374  1.5616  1.3324
 4053TIP3   OH212164   5.935   5.387   4.598 -0.7182 -0.5012 -0.7861
 4053TIP3    H112165   5.952   5.338   4.678 -3.0344 -1.3980 -0.7611
 4053TIP3    H212166   5.995   5.349   4.533 -0.4295 -1.3624 -0.0371
 4054TIP3   OH212167   0.770   0.542   2.190 -0.0964  0.6615  0.2352
 4054TIP3    H112168   0.683   0.552   2.227  0.6708 -0.0062  2.3330
 4054TIP3    H212169   0.767   0.457   2.145 -0.9049  1.2858 -0.9591
 4055TIP3   OH212170   1.228   3.523   0.123 -0.2953 -0.4094  0.4066
 4055TIP3    H112171   1.281   3.602   0.112  0.0282 -0.5930  0.6262
 4055TIP3    H212172   1.266   3.479   0.199 -0.4384 -0.8034  0.2515
 4056TIP3   OH212173   1.675   2.269   3.553 -0.6879  0.8243  0.5574
 4056TIP3    H112174   1.598   2.326   3.561  0.5831  2.4898  1.4222
 4056TIP3    H212175   1.682   2.225   3.637 -1.7980 -0.8909 -0.1807
 4057TIP3   OH212176   1.370   0.443   0.153 -0.1113 -0.9231 -0.4248
 4057TIP3    H112177   1.363   0.538   0.161  1.2963 -0.5741 -2.6211
 4057TIP3    H212178   1.328   0.410   0.232 -2.2033  1.4531 -0.4025
 4058TIP3   OH212179   5.692   5.451   3.074 -0.3636 -0.2409  0.4626
 4058TIP3    H112180   5.740   5.490   3.148 -0.9188 -0.4311  0.9355
 4058TIP3    H212181   5.731   5.490   2.996  1.3341 -1.2302  0.7614
 4059TIP3   OH212182   4.370   5.585   1.405 -0.2292  0.0031 -0.2280
 4059TIP3    H112183   4.380   5.675   1.436 -0.8589 -0.4098  1.2568
 4059TIP3    H212184   4.295   5.588   1.345 -0.9498  0.2900  0.6637
 4060TIP3   OH212185   0.674   1.288   4.290 -0.2098 -0.5866 -0.0170
 4060TIP3    H112186   0.766   1.292   4.316 -0.0392  0.5827 -0.7250
 4060TIP3    H212187   0.628   1.260   4.369  0.8656 -2.4432  0.0160
 4061TIP3   OH212188   0.024   4.226   0.916 -0.1703 -0.6401 -0.0162
 4061TIP3    H112189   0.111   4.227   0.955 -0.5944 -2.8157  1.1545
 4061TIP3    H212190   0.033   4.175   0.836 -0.1565  0.1152 -0.5033
 4062TIP3   OH212191   1.292   3.613   1.354 -0.1380 -0.2355 -0.6924
 4062TIP3    H112192   1.316   3.603   1.262  1.1147 -0.7959 -0.3249
 4062TIP3    H212193   1.370   3.651   1.395 -1.3307  1.8483 -0.1993
 4063TIP3   OH212194   2.755   5.963   1.874 -0.0374  0.9902 -0.2543
 4063TIP3    H112195   2.790   5.874   1.872  0.3920  1.1159  0.7174
 4063TIP3    H212196   2.780   5.996   1.961 -0.2525  2.0297 -0.5730
 4064TIP3   OH212197   3.430   1.619   4.574  0.1231 -0.4719  0.2930
 4064TIP3    H112198   3.343   1.635   4.613 -0.2321  0.0638 -0.6765
 4064TIP3    H212199   3.478   1.572   4.642 -0.8950 -0.6955  0.8898
 4065TIP3   OH212200   0.982   3.786   3.991 -1.1589  0.1500  0.0296
 4065TIP3    H112201   0.905   3.731   3.981  0.1055 -1.6177 -0.6755
 4065TIP3    H212202   1.030   3.774   3.909  1.5252 -1.6445  1.6835
 4066TIP3   OH212203   5.235   3.114   4.216  0.1224  0.1718  0.0998
 4066TIP3    H112204   5.273   3.104   4.129  1.4077  1.0756  0.5148
 4066TIP3    H212205   5.300   3.075   4.275  0.7948  2.2989  0.8848
 4067TIP3   OH212206   0.104   5.829   5.106 -0.2548  0.4426  0.8947
 4067TIP3    H112207   0.152   5.758   5.150 -0.0243  0.5276  0.7790
 4067TIP3    H212208   0.089   5.796   5.017 -1.6471 -0.1732  1.3269
 4068TIP3   OH212209   3.125   1.282   0.384  0.2215  0.3319  0.4762
 4068TIP3    H112210   3.129   1.264   0.290  0.8905  1.1956  0.3272
 4068TIP3    H212211   3.069   1.359   0.391  1.8498  1.5705  0.5599
 4069TIP3   OH212212   0.777   5.702   4.752 -0.0600 -0.0568 -0.4136
 4069TIP3    H112213   0.759   5.736   4.840 -2.5924  0.0442 -0.9011
 4069TIP3    H212214   0.749   5.772   4.693 -0.2352 -0.8796 -1.3308
 4070TIP3   OH212215   4.797   3.617   5.090 -0.5812  0.3877  0.5846
 4070TIP3    H112216   4.787   3.615   4.995 -1.8261 -0.2999  0.7107
 4070TIP3    H212217   4.717   3.660   5.122 -0.3169  0.3375  1.3384
 4071TIP3   OH212218   4.618   1.327   3.536 -0.7083 -0.4886 -0.3546
 4071TIP3    H112219   4.630   1.307   3.628 -0.3193 -0.5826 -0.4219
 4071TIP3    H212220   4.696   1.290   3.493  1.0547  2.7149 -0.2470
 4072TIP3   OH212221   6.173   1.277   3.038 -0.7108  0.2869 -0.5301
 4072TIP3    H112222   6.099   1.305   2.985 -0.4799 -0.5464 -1.3170
 4072TIP3    H212223   6.250   1.303   2.989 -0.4914 -1.4499 -1.1764
 4073TIP3   OH212224   3.672   4.782   5.122 -0.2926 -0.2282  0.2023
 4073TIP3    H112225   3.610   4.830   5.178  0.2353  0.7967 -0.0535
 4073TIP3    H212226   3.635   4.788   5.034 -0.5570 -0.8716  0.2674
 4074TIP3   OH212227   4.416   4.676   0.964  0.2970 -0.3601 -1.0756
 4074TIP3    H112228   4.448   4.708   1.048  1.3538  0.0078 -1.5967
 4074TIP3    H212229   4.333   4.722   0.950  0.1581 -0.3666 -0.2820
 4075TIP3   OH212230   0.859   0.677   0.405 -0.1690  0.3119  0.0003
 4075TIP3    H112231   0.904   0.756   0.377  0.5457 -0.7733 -2.1275
 4075TIP3    H212232   0.905   0.651   0.486  0.6936  1.1399 -0.2050
 4076TIP3   OH212233   0.555   1.673   0.769  0.5724  0.2621  0.1562
 4076TIP3    H112234   0.486   1.630   0.719 -0.1001  0.6244  0.7427
 4076TIP3    H212235   0.627   1.685   0.707  1.0069 -2.1817  0.0968
 4077TIP3   OH212236   2.723   0.561   4.167 -0.0123  0.1569  0.3928
 4077TIP3    H112237   2.628   0.550   4.170 -0.2021  1.4758  0.1310
 4077TIP3    H212238   2.743   0.568   4.073  0.0526  1.8319  0.4986
 4078TIP3   OH212239   1.420   3.611   0.478  0.2554  0.2340  0.4556
 4078TIP3    H112240   1.507   3.630   0.511  1.3789 -1.6799 -1.1640
 4078TIP3    H212241   1.376   3.696   0.474  0.8094  0.8617  4.3852
 4079TIP3   OH212242   4.466   1.560   3.521 -0.4956  0.1671 -0.6581
 4079TIP3    H112243   4.400   1.541   3.454 -0.5397  0.6891 -0.7678
 4079TIP3    H212244   4.519   1.481   3.525 -0.3500  0.2166 -1.4754
 4080TIP3   OH212245   1.097   5.591   0.544  0.0276  0.0114  0.1383
 4080TIP3    H112246   1.056   5.512   0.509 -0.7272 -0.0093  1.0339
 4080TIP3    H212247   1.138   5.632   0.468 -2.6837  0.6528 -1.0985
 4081TIP3   OH212248   0.849   1.552   1.272  0.2814 -0.2534 -0.8061
 4081TIP3    H112249   0.854   1.457   1.283 -2.8588 -0.8630 -3.2825
 4081TIP3    H212250   0.939   1.578   1.253  1.6429 -2.2988  2.1589
 4082TIP3   OH212251   2.889   4.774   2.687  0.0821  0.1766  0.0346
 4082TIP3    H112252   2.854   4.837   2.625  0.0863  0.1872  0.0430
 4082TIP3    H212253   2.928   4.827   2.757 -1.7256  0.2005  1.0939
 4083TIP3   OH212254   2.959   4.751   3.987 -0.5419 -0.0258 -0.4569
 4083TIP3    H112255   3.050   4.731   3.964 -0.2452 -2.0224  2.0893
 4083TIP3    H212256   2.960   4.844   4.008  1.3891 -0.3870  1.3449
 4084TIP3   OH212257   2.484   4.046   2.142  0.1100 -0.1978 -0.0736
 4084TIP3    H112258   2.507   4.006   2.226 -1.8424  0.1347  0.6594
 4084TIP3    H212259   2.568   4.058   2.098  1.0937 -1.3585  1.3724
 4085TIP3   OH212260   0.621   0.776   1.917  0.5741 -0.4744  0.0937
 4085TIP3    H112261   0.585   0.693   1.948  0.1032 -0.3376 -0.0807
 4085TIP3    H212262   0.707   0.753   1.881 -0.1723 -1.1447 -1.3455
 4086TIP3   OH212263   3.056   2.612   0.438 -0.3573  0.6745  0.4498
 4086TIP3    H112264   3.030   2.644   0.524  3.0591 -0.5715  2.1204
 4086TIP3    H212265   3.127   2.671   0.411 -1.5464  1.2209 -1.7223
 4087TIP3   OH212266   4.426   3.574   4.027 -0.2368 -0.7841  0.5797
 4087TIP3    H112267   4.405   3.594   4.118 -1.6057 -1.3301  0.4144
 4087TIP3    H212268   4.477   3.493   4.032 -0.0554 -0.6569  0.8658
 4088TIP3   OH212269   2.842   1.293   4.811 -0.4743  0.0461  0.5885
 4088TIP3    H112270   2.924   1.243   4.803  0.2253  1.3857 -1.2254
 4088TIP3    H212271   2.856   1.350   4.886  0.6201  0.8515 -0.1981
 4089TIP3   OH212272   4.711   0.679   2.411  0.1115 -0.3442 -0.3126
 4089TIP3    H112273   4.736   0.705   2.323  0.4106 -0.2072 -0.1867
 4089TIP3    H212274   4.675   0.591   2.400  0.3870 -0.4299 -0.5321
 4090TIP3   OH212275   0.219   3.354   3.109 -0.1298 -0.0932  0.0455
 4090TIP3    H112276   0.289   3.383   3.167  2.0408 -0.8812 -2.0065
 4090TIP3    H212277   0.213   3.423   3.043 -0.5637 -0.5348 -0.3857
 4091TIP3   OH212278   4.821   0.040   2.462 -0.3887 -0.2985  0.0720
 4091TIP3    H112279   4.799  -0.033   2.520  0.1181  0.6050  1.4542
 4091TIP3    H212280   4.882   0.093   2.513 -1.6611  1.7397 -0.4397
 4092TIP3   OH212281   1.021   5.292   0.891  0.0545 -0.3642  0.7798
 4092TIP3    H112282   0.984   5.275   0.804  0.0706  0.1355  0.6679
 4092TIP3    H212283   1.112   5.262   0.884 -0.6218 -2.7512  1.4387
 4093TIP3   OH212284   5.537   3.827   1.565  0.5040 -0.7295  0.6031
 4093TIP3    H112285   5.480   3.817   1.488 -0.1620  1.0553  0.8360
 4093TIP3    H212286   5.612   3.876   1.533  0.2112  0.0478  1.0975
 4094TIP3   OH212287   2.938   0.050   2.374 -0.7389  0.3486 -0.0396
 4094TIP3    H112288   2.954   0.096   2.292  2.0460  0.6134  0.5544
 4094TIP3    H212289   2.917  -0.040   2.348  0.6495  0.2903 -1.0558
 4095TIP3   OH212290   5.249   1.616   0.692 -0.1189  0.2485 -0.0569
 4095TIP3    H112291   5.318   1.550   0.684 -0.3341  0.0650 -0.4129
 4095TIP3    H212292   5.173   1.568   0.725 -0.0126  0.4939  0.5478
 4096TIP3   OH212293   5.229   3.890   0.218  0.4074  0.1352 -0.3268
 4096TIP3    H112294   5.190   3.940   0.146  0.3096  0.4778 -0.0359
 4096TIP3    H212295   5.261   3.810   0.176 -0.5700 -0.1455 -0.5847
 4097TIP3   OH212296   4.919   0.731   0.413  0.1403 -0.0234  0.2477
 4097TIP3    H112297   4.836   0.691   0.438 -0.3116  1.2804  0.9207
 4097TIP3    H212298   4.982   0.659   0.417 -1.0597 -1.1843 -0.9707
 4098TIP3   OH212299   4.408   4.661   4.415 -0.0494  0.2998  0.1714
 4098TIP3    H112300   4.423   4.755   4.419 -0.1033  0.3289 -0.2699
 4098TIP3    H212301   4.324   4.648   4.459 -0.5139  0.5775 -0.6220
 4099TIP3   OH212302   1.163   2.028   1.621 -0.2467  0.8465 -0.3464
 4099TIP3    H112303   1.111   2.073   1.555  0.0544  1.1229 -0.3928
 4099TIP3    H212304   1.110   2.033   1.701 -0.3427  1.0273 -0.4221
 4100TIP3   OH212305   0.733   5.455   0.045  0.2372 -0.4556  0.7855
 4100TIP3    H112306   0.789   5.380   0.023  0.6878  0.0550  0.1332
 4100TIP3    H212307   0.663   5.452  -0.020  0.2648 -0.3059  0.7479
 4101TIP3   OH212308   0.161   0.508   3.561 -0.4576 -0.0503 -0.2056
 4101TIP3    H112309   0.253   0.480   3.558 -1.1639 -2.6409  0.0269
 4101TIP3    H212310   0.143   0.540   3.473  0.6699  0.5419 -0.2385
 4102TIP3   OH212311   0.675   3.346   1.428  0.1556 -0.3703  0.4352
 4102TIP3    H112312   0.654   3.423   1.482  1.1540  0.3753 -0.2018
 4102TIP3    H212313   0.766   3.326   1.451  0.8689  0.4292 -1.4804
 4103TIP3   OH212314   2.868   5.629   3.957  0.2145  0.0479  0.2544
 4103TIP3    H112315   2.849   5.722   3.940  0.8663  0.3664  1.2051
 4103TIP3    H212316   2.791   5.598   4.005  1.3243  0.9649  2.8112
 4104TIP3   OH212317   2.220   3.035   1.033 -0.5380  0.8352  0.1444
 4104TIP3    H112318   2.238   3.086   0.954  0.5378 -0.0710 -0.2105
 4104TIP3    H212319   2.297   2.978   1.044 -1.4454 -0.2995  0.8575
 4105TIP3   OH212320   3.883   2.484   1.598  0.0841 -0.4831  0.4452
 4105TIP3    H112321   3.945   2.506   1.528  0.5096  0.5820  1.1264
 4105TIP3    H212322   3.809   2.543   1.584  0.7814  0.7414  1.6812
 4106TIP3   OH212323   5.805   4.595   0.832 -0.2274 -0.3354 -0.5350
 4106TIP3    H112324   5.779   4.684   0.807  0.1184 -0.3814 -1.0837
 4106TIP3    H212325   5.784   4.542   0.755  0.4645 -0.5567 -0.5754
 4107TIP3   OH212326   3.876   5.519   4.719  0.2285 -0.4434 -0.0367
 4107TIP3    H112327   3.933   5.585   4.680 -0.4519  0.0769 -0.1651
 4107TIP3    H212328   3.897   5.523   4.813  0.7148 -0.5696 -0.1345
 4108TIP3   OH212329   5.749   3.097   2.311 -0.0740 -0.5665 -0.0503
 4108TIP3    H112330   5.687   3.171   2.311  0.5079 -0.0619 -0.8301
 4108TIP3    H212331   5.790   3.101   2.397 -0.1676 -0.0833 -0.0238
 4109TIP3   OH212332   1.491   2.270   0.246  0.0848  0.8884 -0.4757
 4109TIP3    H112333   1.562   2.292   0.184  0.2881  0.2888 -0.4573
 4109TIP3    H212334   1.519   2.188   0.286 -0.3296  0.9754 -0.0095
 4110TIP3   OH212335   3.453   3.587   2.824  0.3250 -0.0723  0.2028
 4110TIP3    H112336   3.484   3.511   2.774  3.6516  1.2449  0.0733
 4110TIP3    H212337   3.440   3.553   2.913  0.4291 -1.0586 -0.1395
 4111TIP3   OH212338   2.835   4.868   3.231  0.5465 -0.2118 -0.1939
 4111TIP3    H112339   2.742   4.849   3.246  0.8695 -1.9967 -0.2015
 4111TIP3    H212340   2.874   4.782   3.214  1.8656  0.6950 -2.1217
 4112TIP3   OH212341   6.342   3.115   2.466 -0.3842  0.4747 -0.1056
 4112TIP3    H112342   6.277   3.181   2.491 -0.9530 -0.5163  1.1321
 4112TIP3    H212343   6.350   3.124   2.371 -0.9604  1.8496 -0.0436
 4113TIP3   OH212344   0.150   2.717   4.353  0.0193  0.1296  0.5378
 4113TIP3    H112345   0.213   2.649   4.330  0.0894  0.3455  0.0696
 4113TIP3    H212346   0.203   2.796   4.367 -0.1769  0.4639 -0.4607
 4114TIP3   OH212347   4.735   3.565   3.002  0.1779 -0.5955 -0.4395
 4114TIP3    H112348   4.774   3.593   2.919 -0.0965  1.2927  0.0079
 4114TIP3    H212349   4.660   3.512   2.976  0.5245 -0.6381 -1.3866
 4115TIP3   OH212350   1.081   0.855   4.936 -0.0456  0.2655 -0.0109
 4115TIP3    H112351   1.152   0.919   4.927 -0.8401  1.0813 -0.5912
 4115TIP3    H212352   1.026   0.890   5.006  1.0082 -1.2379  1.6582
 4116TIP3   OH212353   0.987   3.259   0.538  0.1008  0.6746 -0.2227
 4116TIP3    H112354   1.039   3.336   0.561  0.9136 -0.4153  1.7642
 4116TIP3    H212355   1.003   3.246   0.444  2.1278  1.3122 -0.0045
 4117TIP3   OH212356   5.126   3.912   3.267 -0.2291 -0.0541  0.0336
 4117TIP3    H112357   5.164   3.943   3.186 -1.5206  1.4800 -0.0474
 4117TIP3    H212358   5.158   3.822   3.277  1.0915  0.2296 -1.4076
 4118TIP3   OH212359   6.026   4.032   1.786 -0.4683  0.3005 -0.7859
 4118TIP3    H112360   5.958   4.078   1.736 -0.6810  0.4562 -0.3541
 4118TIP3    H212361   6.093   4.098   1.801 -1.0164  0.6291  0.3010
 4119TIP3   OH212362   1.004   1.941   4.087 -0.4124 -0.1361 -0.5329
 4119TIP3    H112363   1.048   1.996   4.152  0.3783  0.4942 -1.5623
 4119TIP3    H212364   0.918   1.925   4.124  0.4233 -0.8363  1.2347
 4120TIP3   OH212365   2.254   3.991   2.024  0.2781  0.1446  0.2697
 4120TIP3    H112366   2.327   4.026   2.076  1.1364 -1.7502  0.4255
 4120TIP3    H212367   2.296   3.930   1.962 -1.1426 -0.8325  0.2225
 4121TIP3   OH212368   2.933   4.695   1.019 -0.2212 -0.2480  0.2232
 4121TIP3    H112369   3.004   4.754   1.045 -0.2771 -0.7586  1.6308
 4121TIP3    H212370   2.875   4.750   0.966  0.7237  0.4266 -0.1430
 4122TIP3   OH212371   5.016   0.570   3.508 -0.4401 -0.2853 -0.1357
 4122TIP3    H112372   5.055   0.646   3.551 -0.1358  0.1998 -1.2353
 4122TIP3    H212373   5.075   0.550   3.435 -1.8890  0.1146 -1.4888
 4123TIP3   OH212374   5.063   1.289   4.997 -0.1491  0.0123  0.4959
 4123TIP3    H112375   5.156   1.281   5.016 -0.1029 -0.0057  0.2600
 4123TIP3    H212376   5.036   1.201   4.971 -0.1108  0.1371  0.0240
 4124TIP3   OH212377   5.315   0.098   2.554 -0.6341  0.0067  0.2292
 4124TIP3    H112378   5.326   0.012   2.513 -1.5883  0.7582 -1.7335
 4124TIP3    H212379   5.404   0.130   2.568 -0.2831 -0.6670 -0.4469
 4125TIP3   OH212380   2.132   5.883   2.780 -0.3402  0.2917  0.1572
 4125TIP3    H112381   2.059   5.882   2.718 -1.0882 -1.6560  0.9747
 4125TIP3    H212382   2.104   5.823   2.850  2.2538 -0.8849  0.2692
 4126TIP3   OH212383   3.590   2.571   3.223  0.1807 -0.3732 -0.3455
 4126TIP3    H112384   3.575   2.558   3.316 -1.2843 -3.3536 -0.8645
 4126TIP3    H212385   3.625   2.659   3.216 -1.2568  0.5984  2.8401
 4127TIP3   OH212386   4.559   1.455   0.983 -0.5740 -0.0217  0.0919
 4127TIP3    H112387   4.575   1.365   0.955  0.3537  0.4195 -0.8717
 4127TIP3    H212388   4.480   1.450   1.037 -1.4833 -1.1588 -1.2801
 4128TIP3   OH212389   4.421   0.135   0.047  0.4359 -0.0876  0.2365
 4128TIP3    H112390   4.467   0.051   0.055 -1.1163 -1.1103 -0.9151
 4128TIP3    H212391   4.378   0.130  -0.038  0.6405  2.0761 -0.0354
 4129TIP3   OH212392   4.011   1.888   2.350  0.1229  0.3584  0.1009
 4129TIP3    H112393   3.919   1.913   2.358  0.0499  0.2891 -0.5175
 4129TIP3    H212394   4.011   1.792   2.359 -0.0728  0.1760 -1.5955
 4130TIP3   OH212395   5.837   3.187   2.556  0.6074  0.3079 -0.2996
 4130TIP3    H112396   5.771   3.191   2.626  0.3502  0.1935 -0.5366
 4130TIP3    H212397   5.918   3.166   2.602  0.0910 -1.7602 -0.2549
 4131TIP3   OH212398   1.947   2.435   4.338 -0.3309 -0.1531 -0.2733
 4131TIP3    H112399   2.007   2.395   4.275 -0.0521 -0.1088 -0.0394
 4131TIP3    H212400   1.994   2.430   4.422  1.1894  3.6393 -0.7082
 4132TIP3   OH212401   6.263   5.127   5.081  0.1591 -0.0671 -0.5765
 4132TIP3    H112402   6.253   5.157   5.171  0.0521  0.5642 -0.8012
 4132TIP3    H212403   6.182   5.079   5.062  0.7050 -1.3114  0.0817
 4133TIP3   OH212404   5.901   4.018   2.746 -0.4771 -0.1390  0.0491
 4133TIP3    H112405   5.904   4.075   2.669  1.4539 -0.7232 -0.3637
 4133TIP3    H212406   5.970   4.051   2.803 -1.1474 -0.4121  1.0357
 4134TIP3   OH212407   5.223   2.425   4.078  0.5264 -0.3336 -0.0359
 4134TIP3    H112408   5.154   2.492   4.078 -1.4699 -2.2311  1.1453
 4134TIP3    H212409   5.208   2.376   3.997  1.5217  0.1758 -0.5445
 4135TIP3   OH212410   5.614   1.444   3.955  0.5113  0.1809  0.4433
 4135TIP3    H112411   5.570   1.500   3.891 -0.5608 -0.2088  0.8314
 4135TIP3    H212412   5.705   1.439   3.924  0.4152  1.4128 -0.0769
 4136TIP3   OH212413   0.601   4.233   2.859 -0.4943 -0.1183 -0.1985
 4136TIP3    H112414   0.602   4.180   2.779 -3.3066 -1.1918  0.3721
 4136TIP3    H212415   0.691   4.265   2.867  0.5324 -2.1535 -2.3208
 4137TIP3   OH212416   2.258   4.913   2.432 -0.0852  0.4118 -0.4927
 4137TIP3    H112417   2.171   4.943   2.455 -0.0073  1.7945 -1.8359
 4137TIP3    H212418   2.317   4.978   2.469  0.3661 -0.2854  0.0410
 4138TIP3   OH212419   1.063   3.120   1.915 -0.4511 -0.5099 -0.1595
 4138TIP3    H112420   1.118   3.052   1.954  1.3760  0.8108 -0.3267
 4138TIP3    H212421   1.039   3.177   1.988  1.3169  0.8367 -0.5602
 4139TIP3   OH212422   1.372   4.042   4.012 -0.3769  0.2519 -0.4497
 4139TIP3    H112423   1.297   4.074   4.061 -0.4274  0.2038 -0.4965
 4139TIP3    H212424   1.447   4.084   4.054 -0.4790  0.7882 -0.7965
 4140TIP3   OH212425   5.273   3.230   1.416  0.7334  0.8457  0.3032
 4140TIP3    H112426   5.337   3.211   1.485 -1.3905 -0.4931  2.0533
 4140TIP3    H212427   5.202   3.275   1.462 -0.1124  1.2569 -1.3432
 4141TIP3   OH212428   1.053   4.904   0.069  0.1711 -0.1595 -0.0902
 4141TIP3    H112429   1.116   4.883  -0.000  1.5472 -1.6665  1.5193
 4141TIP3    H212430   1.041   4.822   0.117 -0.5284  0.8646  1.5900
 4142TIP3   OH212431   4.196   4.607   2.046 -0.0974  0.2634 -0.0863
 4142TIP3    H112432   4.157   4.582   2.129  0.1480 -0.1163 -0.0789
 4142TIP3    H212433   4.186   4.529   1.991  1.8719 -0.3731  0.3548
 4143TIP3   OH212434   2.284  -0.022   4.396  0.1557 -0.0840 -0.2801
 4143TIP3    H112435   2.326   0.063   4.398  0.4988 -0.2576  0.0746
 4143TIP3    H212436   2.223  -0.018   4.323 -1.9191  1.4765  1.4092
 4144TIP3   OH212437   4.433   2.760   3.802 -0.4900 -0.6659 -0.5035
 4144TIP3    H112438   4.345   2.726   3.820 -0.3158 -0.4181  0.8846
 4144TIP3    H212439   4.481   2.749   3.884  0.1169  1.2590 -0.5397
 4145TIP3   OH212440   2.214   3.271   1.883  0.2310 -1.2586 -0.5718
 4145TIP3    H112441   2.139   3.213   1.872  0.1383 -1.1438 -0.5460
 4145TIP3    H212442   2.289   3.218   1.858  0.2516 -1.6929  0.3929
 4146TIP3   OH212443   2.974   3.439   0.449  0.0609  0.3023 -0.2180
 4146TIP3    H112444   2.933   3.523   0.430  1.3063  0.8499 -0.6291
 4146TIP3    H212445   3.056   3.462   0.493 -0.5412 -0.7854  1.5890
 4147TIP3   OH212446   2.527   3.291   1.620  0.2297  0.0882  1.0852
 4147TIP3    H112447   2.546   3.379   1.589  0.7375 -0.1029  0.8287
 4147TIP3    H212448   2.436   3.275   1.595  0.4461  0.1594  0.2074
 4148TIP3   OH212449   5.020   2.245   4.913 -0.0339  0.8260  0.9410
 4148TIP3    H112450   4.960   2.246   4.838 -0.2692  0.7668  1.1256
 4148TIP3    H212451   5.025   2.153   4.939  0.7807  0.7157  0.4221
 4149TIP3   OH212452   6.191   3.327   3.334 -0.1698  0.0182 -0.7655
 4149TIP3    H112453   6.170   3.417   3.360 -0.1612 -0.0846 -0.4066
 4149TIP3    H212454   6.149   3.317   3.248 -1.6213 -0.1879 -0.0636
 4150TIP3   OH212455   5.720   4.335   3.412 -0.0949  0.2497 -0.4262
 4150TIP3    H112456   5.753   4.355   3.500 -0.2132 -0.2254 -0.2722
 4150TIP3    H212457   5.757   4.249   3.392  1.5681  1.1893 -1.6523
 4151TIP3   OH212458   2.862   2.808   0.201 -0.4409  0.0069 -0.3472
 4151TIP3    H112459   2.955   2.793   0.184 -0.3285 -0.1479  0.3810
 4151TIP3    H212460   2.828   2.840   0.118 -0.3363 -2.5914 -1.5000
 4152TIP3   OH212461   2.574   0.209   2.859  0.1871  0.4134  0.1047
 4152TIP3    H112462   2.568   0.280   2.795 -0.4433  0.7678  0.5491
 4152TIP3    H212463   2.596   0.132   2.806  0.5419  0.8703 -0.4242
 4153TIP3   OH212464   3.899   2.004   1.704 -0.2032 -0.0488 -0.1201
 4153TIP3    H112465   3.866   1.970   1.787  0.1711  0.5327  0.2635
 4153TIP3    H212466   3.856   2.089   1.694  0.3654  0.2383 -0.1331
 4154TIP3   OH212467   2.375   0.199   4.817 -0.4449  0.5676 -0.0687
 4154TIP3    H112468   2.322   0.128   4.780 -2.0836  1.7630 -0.1372
 4154TIP3    H212469   2.392   0.257   4.743 -0.2086  0.8945  0.2391
 4155TIP3   OH212470   5.333   4.312   2.764  0.1572 -0.0068 -0.1588
 4155TIP3    H112471   5.248   4.345   2.792  0.7817  2.3056 -0.7406
 4155TIP3    H212472   5.392   4.332   2.837  0.9524  2.2365 -1.3026
 4156TIP3   OH212473   3.659   5.795   0.902 -0.7795 -0.0354 -0.1093
 4156TIP3    H112474   3.687   5.715   0.858  0.1479  0.2465 -0.0462
 4156TIP3    H212475   3.729   5.859   0.884 -1.8321  0.9774 -0.7621
 4157TIP3   OH212476   6.198   1.819   4.247 -0.2395 -0.3205  0.0361
 4157TIP3    H112477   6.227   1.872   4.321 -1.3471 -0.0918  0.3246
 4157TIP3    H212478   6.112   1.853   4.225 -0.3325 -1.0214 -0.7445
 4158TIP3   OH212479   3.354   0.483   4.093  0.0545  0.3599  0.0128
 4158TIP3    H112480   3.334   0.571   4.123 -2.5778 -0.4370  0.8182
 4158TIP3    H212481   3.324   0.482   4.002 -0.5594  0.0876  0.2201
 4159TIP3   OH212482   2.648   3.889   3.986  0.3153 -0.1949  0.7631
 4159TIP3    H112483   2.736   3.851   3.977  0.3493  0.3105 -1.9418
 4159TIP3    H212484   2.663   3.971   4.033  1.5929  0.6146 -0.9218
 4160TIP3   OH212485   5.191   1.597   1.063 -0.1915 -0.1407 -0.0640
 4160TIP3    H112486   5.156   1.686   1.060 -0.3119 -0.1921 -0.2579
 4160TIP3    H212487   5.285   1.607   1.047  0.5610  0.3365  3.7611
 4161TIP3   OH212488   4.363   5.449   3.303  0.2432 -0.1748 -0.4015
 4161TIP3    H112489   4.415   5.529   3.311  0.2207 -0.1105 -0.8520
 4161TIP3    H212490   4.421   5.388   3.257  0.9133 -1.0207  1.4399
 4162TIP3   OH212491   3.459   5.062   3.885 -0.1274  0.2828  0.1685
 4162TIP3    H112492   3.507   5.051   3.968 -0.1680  3.0295  0.6287
 4162TIP3    H212493   3.527   5.076   3.820 -0.0770 -2.1824 -0.4310
 4163TIP3   OH212494   3.115   3.965   2.969  0.0394 -0.1070 -0.1141
 4163TIP3    H112495   3.185   4.011   3.016 -0.8666 -0.4175  1.6278
 4163TIP3    H212496   3.041   4.026   2.970 -0.3120 -0.5236 -0.2380
 4164TIP3   OH212497   5.925   1.655   4.747  0.2898  0.0807  0.2862
 4164TIP3    H112498   5.900   1.652   4.654 -0.8743 -1.4428  0.6153
 4164TIP3    H212499   5.934   1.749   4.766 -0.8131  0.4938 -1.0301
 4165TIP3   OH212500   0.110   0.091   3.468  0.1624  0.8204  0.2239
 4165TIP3    H112501   0.043   0.048   3.416 -1.6102  2.2191  1.2260
 4165TIP3    H212502   0.185   0.100   3.409 -0.7122 -0.2727 -1.1076
 4166TIP3   OH212503   0.224   4.158   2.279  0.2344 -0.4571  0.4382
 4166TIP3    H112504   0.132   4.164   2.303  0.0440  2.9555 -0.6438
 4166TIP3    H212505   0.237   4.227   2.214  3.4601 -1.1553  0.1532
 4167TIP3   OH212506   6.219   0.510   0.610  0.0189  0.1635 -0.2602
 4167TIP3    H112507   6.260   0.591   0.641  0.3693  0.4628 -1.4537
 4167TIP3    H212508   6.209   0.523   0.516 -1.4306 -0.5352 -0.2283
 4168TIP3   OH212509   0.530   5.785   4.006  0.5507  0.0614 -0.4162
 4168TIP3    H112510   0.560   5.724   4.073  2.2184  0.4639 -0.7541
 4168TIP3    H212511   0.434   5.783   4.013  0.5290 -2.5669 -0.4206
 4169TIP3   OH212512   0.602   4.016   4.260 -0.1347  0.1134  0.0531
 4169TIP3    H112513   0.591   4.111   4.259  1.1952  0.3007  0.7914
 4169TIP3    H212514   0.658   3.998   4.185  0.4813  0.0528  0.5169
 4170TIP3   OH212515   5.718   5.904   3.142  0.4239 -0.3384  0.2262
 4170TIP3    H112516   5.711   5.992   3.105  1.7945  0.5086  1.8628
 4170TIP3    H212517   5.800   5.870   3.107  0.1063 -0.8254 -0.0635
 4171TIP3   OH212518   3.031   1.974   0.003 -0.8042 -0.2922  0.1210
 4171TIP3    H112519   3.025   2.037   0.074  0.9340 -0.2151  0.2226
 4171TIP3    H212520   3.013   1.890   0.044  1.4541 -0.4249  0.9813
 4172TIP3   OH212521   5.977   5.172   5.102  0.0796 -0.4104 -0.5349
 4172TIP3    H112522   6.030   5.246   5.132  1.2533 -1.9259  1.3724
 4172TIP3    H212523   5.944   5.132   5.182 -0.9883 -1.6319 -1.5407
 4173TIP3   OH212524   0.776   3.845   5.149 -0.2931  0.1353  0.3795
 4173TIP3    H112525   0.753   3.753   5.160 -2.0863  0.5315  0.1695
 4173TIP3    H212526   0.728   3.890   5.219 -0.9851  1.1176 -0.6898
 4174TIP3   OH212527   3.618   4.176   4.134  0.3426  0.6681  0.2615
 4174TIP3    H112528   3.651   4.104   4.187  0.1551 -0.4706 -1.0962
 4174TIP3    H212529   3.608   4.138   4.046 -1.2557  1.9154 -0.1388
 4175TIP3   OH212530   1.091   4.578   1.179  0.0738  0.7233  0.2457
 4175TIP3    H112531   1.181   4.569   1.210  0.3246  0.3305 -0.5700
 4175TIP3    H212532   1.080   4.672   1.162 -0.3410  1.0772  2.2773
 4176TIP3   OH212533   4.284   0.540   4.956  0.2302  0.2642  0.0245
 4176TIP3    H112534   4.318   0.455   4.984  1.1369  0.8014  0.6224
 4176TIP3    H212535   4.291   0.539   4.861  0.3595 -0.2849  0.0367
 4177TIP3   OH212536   2.804   0.870   1.676  0.8135 -0.1796 -0.3445
 4177TIP3    H112537   2.722   0.821   1.676  0.0458  0.9724  1.6514
 4177TIP3    H212538   2.782   0.954   1.635  1.6909 -0.7993 -2.1900
 4178TIP3   OH212539   0.303   3.720   4.782  0.3807 -0.3923  0.5345
 4178TIP3    H112540   0.398   3.718   4.775  0.3412  0.0971 -0.3309
 4178TIP3    H212541   0.279   3.632   4.809  1.0800 -0.5189  0.7621
 4179TIP3   OH212542   2.634   3.818   1.666  0.4746 -0.0855  0.4662
 4179TIP3    H112543   2.652   3.897   1.717  1.0087  0.9109 -1.2066
 4179TIP3    H212544   2.697   3.821   1.594 -1.0201 -0.8327 -0.9264
 4180TIP3   OH212545   0.693   2.046   0.710 -0.5899 -0.0552 -0.4765
 4180TIP3    H112546   0.665   2.094   0.788 -1.5391  0.1370 -0.9209
 4180TIP3    H212547   0.787   2.059   0.707 -0.6688  0.7418  0.1055
 4181TIP3   OH212548   3.490   5.289   4.397  0.0946 -1.0707  0.3232
 4181TIP3    H112549   3.451   5.323   4.316  0.3394 -1.4545  0.0412
 4181TIP3    H212550   3.451   5.343   4.467 -0.4589 -1.0341 -0.0082
 4182TIP3   OH212551   4.233   2.710   2.046  0.0237 -0.0054 -0.3316
 4182TIP3    H112552   4.152   2.665   2.069  0.5568 -1.4353 -1.1785
 4182TIP3    H212553   4.220   2.800   2.078 -1.7963 -0.2590 -0.2581
 4183TIP3   OH212554   2.724   3.757   1.948  0.1370 -0.4088 -0.0209
 4183TIP3    H112555   2.765   3.835   1.912 -0.3392  0.2982  0.9255
 4183TIP3    H212556   2.737   3.690   1.881  1.5928  0.1558 -0.3331
 4184TIP3   OH212557   4.477   1.120   3.326 -0.6209  0.1448  0.4066
 4184TIP3    H112558   4.473   1.181   3.400 -1.5204  2.0384 -1.1127
 4184TIP3    H212559   4.407   1.057   3.343 -2.1032  1.6890  0.2936
 4185TIP3   OH212560   6.298   1.094   0.493 -0.2503  0.0740 -0.2895
 4185TIP3    H112561   6.233   1.155   0.456 -0.2724  0.5690  0.5357
 4185TIP3    H212562   6.247   1.036   0.549 -0.1062 -0.1503 -0.3909
 4186TIP3   OH212563   1.492   1.552   3.175 -0.1282 -0.1160 -0.7770
 4186TIP3    H112564   1.575   1.600   3.183 -1.5021  2.1712  0.6006
 4186TIP3    H212565   1.461   1.543   3.265 -1.2061 -1.3476 -1.2434
 4187TIP3   OH212566   2.052   3.036   0.552 -0.5932  0.3186  0.1571
 4187TIP3    H112567   2.014   3.092   0.620 -1.5206 -1.5891  1.2677
 4187TIP3    H212568   2.045   2.947   0.586  2.5560 -0.4004 -0.7330
 4188TIP3   OH212569   4.374   3.829   4.802  0.1571  0.5817 -0.2835
 4188TIP3    H112570   4.429   3.876   4.740  0.5030 -0.0638 -0.4708
 4188TIP3    H212571   4.400   3.862   4.888  0.6455  0.4740 -0.3898
 4189TIP3   OH212572   1.263   4.291   4.834 -0.5316  0.3888 -0.1659
 4189TIP3    H112573   1.331   4.344   4.874 -0.4826  1.2518 -1.3501
 4189TIP3    H212574   1.259   4.212   4.888 -0.2862  1.3729  1.3552
 4190TIP3   OH212575   0.187   5.681   1.308  0.2597 -0.0041 -0.4407
 4190TIP3    H112576   0.142   5.716   1.384 -1.3633 -1.0920 -0.8449
 4190TIP3    H212577   0.189   5.586   1.322  1.7932 -0.0694 -0.8025
 4191TIP3   OH212578   0.177   5.613   0.859  0.1162 -0.4892 -0.7269
 4191TIP3    H112579   0.256   5.611   0.913  0.0123 -0.8853 -0.5864
 4191TIP3    H212580   0.178   5.530   0.811 -0.0182 -0.3290 -1.0093
 4192TIP3   OH212581   5.415   4.594   2.253  0.0467 -0.2635 -0.1303
 4192TIP3    H112582   5.436   4.505   2.226  1.0517 -0.2035  0.4385
 4192TIP3    H212583   5.489   4.647   2.222  1.8781 -0.3475  3.6294
 4193TIP3   OH212584   4.100   1.527   1.876  0.1710 -0.1013 -0.3957
 4193TIP3    H112585   4.138   1.579   1.804 -0.9899 -1.4662 -2.0666
 4193TIP3    H212586   4.119   1.436   1.853  1.3686 -0.5199  2.0139
 4194TIP3   OH212587   0.628   3.436   3.151 -0.2687 -0.3412  0.7614
 4194TIP3    H112588   0.671   3.508   3.103 -0.2468 -0.7132  0.2108
 4194TIP3    H212589   0.538   3.465   3.161 -0.7738 -1.0654 -1.2340
 4195TIP3   OH212590   3.665   2.524   3.500 -0.3943 -0.0886  0.4481
 4195TIP3    H112591   3.597   2.519   3.567  1.3848  0.0553  2.3923
 4195TIP3    H212592   3.712   2.605   3.520  0.5336 -0.3241 -0.6579
 4196TIP3   OH212593   1.236   1.117   0.942 -0.2200  1.0336  0.3580
 4196TIP3    H112594   1.197   1.201   0.966 -0.3127  0.9895  0.3628
 4196TIP3    H212595   1.330   1.129   0.958 -0.1081  1.4414 -0.5445
 4197TIP3   OH212596   2.707   1.687   2.955  0.2331 -0.0448 -0.4619
 4197TIP3    H112597   2.755   1.604   2.954  1.9987  0.8992  0.5750
 4197TIP3    H212598   2.668   1.692   3.042 -2.7159 -1.2501 -1.6082
 4198TIP3   OH212599   5.228   0.128   5.170 -0.0119 -0.4908 -0.1039
 4198TIP3    H112600   5.186   0.160   5.091 -0.1034 -1.0687 -0.2980
 4198TIP3    H212601   5.226   0.202   5.231 -2.3365 -0.8155  0.3041
 4199TIP3   OH212602   4.197   2.526   2.434 -0.3350 -0.2075  0.3724
 4199TIP3    H112603   4.281   2.572   2.432 -1.3212  1.7100  0.0534
 4199TIP3    H212604   4.220   2.434   2.427  1.7366  0.2567  0.3061
 4200TIP3   OH212605   5.271   0.420   3.407 -0.4120  0.2986  0.2507
 4200TIP3    H112606   5.279   0.507   3.368 -0.2507 -0.2846 -1.0633
 4200TIP3    H212607   5.196   0.380   3.362  1.6203 -1.5089 -1.7293
 4201TIP3   OH212608   4.788   4.233   2.481  0.4665 -0.1880  0.2468
 4201TIP3    H112609   4.753   4.201   2.564 -0.3492 -1.0000 -0.3936
 4201TIP3    H212610   4.760   4.325   2.478 -0.8916 -0.5818  0.1543
 4202TIP3   OH212611   4.122   2.781   2.344 -0.1910  0.0011  0.2821
 4202TIP3    H112612   4.207   2.768   2.301  0.1260  1.7053  0.3035
 4202TIP3    H212613   4.110   2.703   2.398  0.6353 -0.9773 -0.8886
 4203TIP3   OH212614   0.584   2.826   2.372  0.5310  0.7340  0.0946
 4203TIP3    H112615   0.545   2.741   2.396  0.2146  0.2658 -1.9309
 4203TIP3    H212616   0.621   2.859   2.454  0.7667 -1.4113  0.9144
 4204TIP3   OH212617   5.034   4.231   4.617  0.3872 -0.8369 -0.6439
 4204TIP3    H112618   5.070   4.156   4.665  1.6177  0.5386  0.6876
 4204TIP3    H212619   5.040   4.206   4.525  1.6174 -2.0189 -0.2675
 4205TIP3   OH212620   1.597   2.632   2.115  0.3600  0.1850 -0.0161
 4205TIP3    H112621   1.534   2.565   2.089  1.4966 -1.4629  1.2340
 4205TIP3    H212622   1.615   2.614   2.207  1.6371  1.4556  0.0284
 4206TIP3   OH212623   3.426   0.398   3.773 -0.4996  0.1937 -0.0140
 4206TIP3    H112624   3.332   0.395   3.759 -0.3696 -0.7595 -0.7954
 4206TIP3    H212625   3.447   0.491   3.775 -1.0600  0.4977 -2.9232
 4207TIP3   OH212626   3.552   4.425   3.950 -0.0628  0.1542 -0.4165
 4207TIP3    H112627   3.641   4.436   3.917 -0.4692  3.2860 -0.7084
 4207TIP3    H212628   3.497   4.438   3.873 -0.8245  0.8303  0.2324
 4208TIP3   OH212629   1.011   2.644   4.936 -0.5718  0.0935  0.1892
 4208TIP3    H112630   1.037   2.652   5.028  0.4215 -1.0203  0.0380
 4208TIP3    H212631   0.995   2.550   4.924 -0.9655  0.2645 -0.7075
 4209TIP3   OH212632   3.059   1.846   3.817 -0.3040 -0.1682  0.1614
 4209TIP3    H112633   3.084   1.807   3.901 -0.2997  2.3796  1.4379
 4209TIP3    H212634   3.062   1.941   3.833 -1.0217  0.3789 -2.5244
 4210TIP3   OH212635   0.627   5.276   1.011 -0.0728 -0.6855  0.5422
 4210TIP3    H112636   0.644   5.216   0.938  0.3320  0.1050 -0.0370
 4210TIP3    H212637   0.536   5.304   0.998  0.1909 -0.0532 -0.0590
 4211TIP3   OH212638   0.974   2.142   2.184  0.4058  0.7289  0.8089
 4211TIP3    H112639   0.931   2.176   2.105  0.4694  1.4615  1.0810
 4211TIP3    H212640   1.058   2.189   2.188  0.8504 -0.0429  0.7664
 4212TIP3   OH212641   1.760   0.904   5.000  0.4375 -0.4650 -0.0568
 4212TIP3    H112642   1.811   0.832   4.962  0.9638  0.1087 -0.4714
 4212TIP3    H212643   1.697   0.927   4.932 -0.5909 -1.3702  0.5717
 4213TIP3   OH212644   0.686   1.081   2.734  0.4581 -0.3074  0.4165
 4213TIP3    H112645   0.608   1.061   2.787 -0.8540  1.1021 -0.8698
 4213TIP3    H212646   0.650   1.114   2.652  2.3815  3.4077  0.8857
 4214TIP3   OH212647   3.378   4.716   3.588  0.2361  0.1885 -0.4849
 4214TIP3    H112648   3.428   4.778   3.535  0.7138 -0.6449 -1.0254
 4214TIP3    H212649   3.291   4.715   3.548  0.7806 -0.9371 -1.7050
 4215TIP3   OH212650   0.674   0.833   5.132  0.4789  0.2999 -0.4901
 4215TIP3    H112651   0.723   0.762   5.172 -0.4747 -0.8184 -1.2360
 4215TIP3    H212652   0.584   0.800   5.127 -0.2666  2.0560  0.3179
 4216TIP3   OH212653   2.436   2.469   4.338 -0.5240 -0.0664  0.3507
 4216TIP3    H112654   2.361   2.515   4.375  0.3671  1.9346 -0.1927
 4216TIP3    H212655   2.504   2.475   4.405  0.5044  1.9687 -0.8089
 4217TIP3   OH212656   0.715   1.750   4.370  0.6619  0.3022 -0.4390
 4217TIP3    H112657   0.716   1.703   4.453  2.2177 -0.2651 -0.7605
 4217TIP3    H212658   0.627   1.735   4.335 -0.0523  0.6498  1.1459
 4218TIP3   OH212659   3.304   3.247   3.049  0.6444  0.0850 -0.3325
 4218TIP3    H112660   3.324   3.250   3.142  0.0863 -2.0633 -0.1001
 4218TIP3    H212661   3.236   3.312   3.036 -0.2214 -0.5185  1.0328
 4219TIP3   OH212662   1.377   4.463   2.389  0.2216  0.3140  0.0144
 4219TIP3    H112663   1.446   4.434   2.330 -0.1180  1.1246 -0.7990
 4219TIP3    H212664   1.352   4.549   2.357 -1.3760 -0.0763  0.1018
 4220TIP3   OH212665   3.122   0.405   3.284  0.2028 -0.1795 -0.5028
 4220TIP3    H112666   3.091   0.476   3.341 -1.5246 -1.3722  0.1243
 4220TIP3    H212667   3.211   0.387   3.315  0.3046  1.0385 -0.0219
 4221TIP3   OH212668   0.748   3.380   2.692 -0.0267 -0.3161 -0.2822
 4221TIP3    H112669   0.831   3.392   2.646  0.5845  0.5527  1.0063
 4221TIP3    H212670   0.702   3.463   2.678 -0.8813 -0.9470 -1.3473
 4222TIP3   OH212671   2.758   1.392   2.366  0.0406  0.0359  0.0795
 4222TIP3    H112672   2.732   1.461   2.304  0.3242  0.4478  0.4168
 4222TIP3    H212673   2.850   1.374   2.344 -0.6995 -1.9925 -1.6572
 4223TIP3   OH212674   2.811   0.424   2.100 -0.1100 -0.1741  0.0596
 4223TIP3    H112675   2.848   0.458   2.019 -0.6079  1.8453  0.6292
 4223TIP3    H212676   2.772   0.500   2.143 -0.4642 -1.3099  1.8774
 4224TIP3   OH212677   1.744   3.709   1.625 -0.8051  0.0202 -0.4880
 4224TIP3    H112678   1.819   3.654   1.605  0.0539  1.1431 -0.4256
 4224TIP3    H212679   1.765   3.748   1.710 -2.0974 -0.7114  0.2142
 4225TIP3   OH212680   5.787   1.110   3.858  0.2808 -0.3200 -0.1499
 4225TIP3    H112681   5.764   1.201   3.842  1.0822  0.0088  0.4911
 4225TIP3    H212682   5.708   1.061   3.834 -0.3547  0.5861  0.0194
 4226TIP3   OH212683   0.947   2.997   1.694  0.1885 -0.7845  0.3985
 4226TIP3    H112684   0.994   3.035   1.768  1.7283  0.9159 -1.3599
 4226TIP3    H212685   0.855   3.012   1.715  0.5928  4.3124 -0.1204
 4227TIP3   OH212686   1.171   2.164   0.217 -0.1544 -0.6682 -0.2606
 4227TIP3    H112687   1.155   2.085   0.166  1.2940 -1.2992  0.1967
 4227TIP3    H212688   1.262   2.187   0.196 -0.2688  0.3483  0.3135
 4228TIP3   OH212689   3.484   3.349   2.672 -0.4249  0.1906  0.3464
 4228TIP3    H112690   3.389   3.339   2.665 -0.4423  0.0345  0.7731
 4228TIP3    H212691   3.514   3.358   2.582 -0.7684 -0.4772  0.1575
 4229TIP3   OH212692   1.613   2.895   3.613 -0.1962 -0.7761 -0.3447
 4229TIP3    H112693   1.671   2.971   3.610 -0.5651 -0.4555  0.3648
 4229TIP3    H212694   1.665   2.826   3.652  0.0560 -0.8193 -0.7486
 4230TIP3   OH212695   0.876   3.488   5.039 -0.0924  0.5023 -0.1416
 4230TIP3    H112696   0.808   3.520   5.099 -0.3557 -2.4825  1.3440
 4230TIP3    H212697   0.943   3.451   5.097  0.9893  0.0016 -1.6600
 4231TIP3   OH212698   3.572   3.478   2.430  0.0647  0.7609 -0.0787
 4231TIP3    H112699   3.608   3.515   2.511 -0.9981  0.6746  0.4533
 4231TIP3    H212700   3.626   3.515   2.360 -0.5708  2.8409  0.4670
 4232TIP3   OH212701   1.095   0.298   1.857  0.6721 -0.1469 -0.0596
 4232TIP3    H112702   1.031   0.231   1.832  0.4160  0.4565 -1.0928
 4232TIP3    H212703   1.084   0.367   1.791  0.2331  1.3862  1.5179
 4233TIP3   OH212704   4.797   1.874   0.368  0.0702 -0.6379 -0.1739
 4233TIP3    H112705   4.846   1.819   0.430  1.8390  1.2649  0.2286
 4233TIP3    H212706   4.830   1.848   0.282 -1.4607 -2.3889 -0.2937
 4234TIP3   OH212707   2.649   2.320   2.808 -0.1474 -0.1823  0.1708
 4234TIP3    H112708   2.655   2.414   2.790 -0.0260 -0.4625 -1.3530
 4234TIP3    H212709   2.730   2.284   2.772  0.6575 -0.6697  2.3344
 4235TIP3   OH212710   5.747   2.957   4.847 -0.4197  0.0605 -0.1383
 4235TIP3    H112711   5.685   2.992   4.783 -0.3535  3.3588  1.4065
 4235TIP3    H212712   5.708   2.875   4.876 -2.9949  0.9668 -0.8005
 4236TIP3   OH212713   3.072   2.424   2.167 -0.1704  0.2943 -0.3841
 4236TIP3    H112714   3.027   2.497   2.125 -1.0394  0.4601  0.8019
 4236TIP3    H212715   3.005   2.357   2.180  0.1776  0.0722  0.3375
 4237TIP3   OH212716   3.241   3.804   4.992  0.3064  0.1526  0.0463
 4237TIP3    H112717   3.315   3.864   4.989  0.9650 -0.6932 -1.4718
 4237TIP3    H212718   3.250   3.758   5.076  0.9405  0.7064  0.2907
 4238TIP3   OH212719   6.186   2.717   1.936 -0.0600 -0.0977  0.1911
 4238TIP3    H112720   6.234   2.799   1.944 -0.8807  0.2278  2.5039
 4238TIP3    H212721   6.102   2.742   1.896 -0.0663  0.0738  0.3129
 4239TIP3   OH212722   3.444   3.989   5.047  0.1328  0.1733  0.3148
 4239TIP3    H112723   3.539   3.996   5.048  0.1271  0.6201 -0.7341
 4239TIP3    H212724   3.416   4.020   5.133  0.9868 -1.0253  1.0469
 4240TIP3   OH212725  -0.002   3.371   1.421  0.6729  0.2065  0.2859
 4240TIP3    H112726   0.057   3.308   1.380 -0.3678 -0.5968 -0.0396
 4240TIP3    H212727  -0.045   3.322   1.491 -0.9268  0.1788 -0.6398
 4241TIP3   OH212728   2.460   4.541   3.642 -0.5161 -0.0957  0.1217
 4241TIP3    H112729   2.520   4.477   3.601 -0.1985  0.6904 -0.6698
 4241TIP3    H212730   2.430   4.596   3.569 -1.5446  0.0622  0.6459
 4242TIP3   OH212731   2.368   0.721   0.407  0.1111  0.1312 -0.3585
 4242TIP3    H112732   2.312   0.756   0.476  1.5116 -1.1295  1.5169
 4242TIP3    H212733   2.311   0.715   0.331 -1.7392  0.7558  0.9034
 4243TIP3   OH212734   4.144   5.850   2.327 -0.3007 -0.1349 -0.2811
 4243TIP3    H112735   4.153   5.945   2.339 -0.1548 -0.0494 -0.9920
 4243TIP3    H212736   4.234   5.820   2.311 -0.1584 -0.6009  1.2269
 4244TIP3   OH212737   0.323   0.588   2.753 -0.0141 -0.1022  0.3711
 4244TIP3    H112738   0.319   0.681   2.731 -0.9055  0.1683  1.5412
 4244TIP3    H212739   0.249   0.548   2.707  0.0755 -0.1394  0.2596
 4245TIP3   OH212740   3.073   1.671   4.916  0.2600  0.1826 -0.2261
 4245TIP3    H112741   3.031   1.587   4.937  0.0329  0.7018  1.5732
 4245TIP3    H212742   3.108   1.701   5.000  0.2863  1.9206 -0.8339
 4246TIP3   OH212743   3.477   4.397   3.233  0.3067 -0.0513 -0.6273
 4246TIP3    H112744   3.472   4.487   3.200 -0.2117 -0.9874 -3.3261
 4246TIP3    H212745   3.394   4.357   3.206  0.9614 -1.6278 -0.3955
 4247TIP3   OH212746   6.039   3.145   0.387  0.0328 -0.1589  0.0951
 4247TIP3    H112747   6.110   3.133   0.450  1.4138  0.2065 -1.3164
 4247TIP3    H212748   6.037   3.063   0.337 -1.0443 -0.4499  0.5924
 4248TIP3   OH212749   2.319   0.651   2.188 -0.1850  0.2706  0.2233
 4248TIP3    H112750   2.230   0.622   2.207 -0.5997  1.7631  0.6891
 4248TIP3    H212751   2.368   0.570   2.172 -1.2754 -0.6587  1.4437
 4249TIP3   OH212752   2.472   3.021   1.178 -0.4448  0.1803  0.1281
 4249TIP3    H112753   2.551   3.049   1.225  0.0796  0.8989 -1.1472
 4249TIP3    H212754   2.411   2.998   1.248  1.5618 -2.4898  1.1999
 4250TIP3   OH212755   0.815   0.190   4.168 -1.0133  0.4731 -0.0952
 4250TIP3    H112756   0.769   0.144   4.238 -0.5814 -0.8253 -0.6308
 4250TIP3    H212757   0.903   0.154   4.170 -0.5383  1.5851 -0.2921
 4251TIP3   OH212758   1.365   3.584   1.052 -0.6207  0.6224  0.4430
 4251TIP3    H112759   1.349   3.609   0.961 -0.0418  0.7292  0.3665
 4251TIP3    H212760   1.354   3.489   1.054  0.0101  0.5405  0.1223
 4252TIP3   OH212761   6.036   4.650   0.991 -0.2935 -0.1236  0.2977
 4252TIP3    H112762   5.947   4.626   0.967 -0.8013 -1.7060  3.2641
 4252TIP3    H212763   6.092   4.594   0.936 -1.0556  0.6145 -1.3120
 4253TIP3   OH212764   3.186   4.216   0.477 -0.1449 -0.1860  0.0681
 4253TIP3    H112765   3.251   4.149   0.455 -0.5021 -1.0483  1.4709
 4253TIP3    H212766   3.130   4.174   0.543 -2.4978  0.3067 -1.4687
 4254TIP3   OH212767   5.929   1.339   3.473 -0.0277  0.2853  0.0942
 4254TIP3    H112768   5.963   1.282   3.404  0.4742  0.4355  0.2094
 4254TIP3    H212769   6.008   1.378   3.511 -0.3779  1.1749 -0.0890
 4255TIP3   OH212770   5.312   2.819   0.898  0.2853 -0.2845 -0.1609
 4255TIP3    H112771   5.382   2.756   0.915 -0.5504 -0.8406  1.4496
 4255TIP3    H212772   5.232   2.772   0.922 -0.5915  0.6062 -1.2023
 4256TIP3   OH212773   1.767   5.092   2.072 -0.6570 -0.1477 -0.0031
 4256TIP3    H112774   1.836   5.157   2.079 -1.9629  1.1559  1.4797
 4256TIP3    H212775   1.794   5.022   2.131 -2.1112  1.9082  3.3927
 4257TIP3   OH212776   4.615   4.386   4.894 -0.3123 -0.1339  0.5956
 4257TIP3    H112777   4.663   4.370   4.812  0.2497 -0.3736  0.9629
 4257TIP3    H212778   4.538   4.435   4.867 -0.1842 -0.2925 -0.0948
 4258TIP3   OH212779   3.150   2.786   2.833 -0.0539 -0.5160  0.0178
 4258TIP3    H112780   3.218   2.798   2.899 -0.6187  1.9119  0.2417
 4258TIP3    H212781   3.175   2.844   2.761  0.2175 -2.6372 -1.7006
 4259TIP3   OH212782   0.783   5.645   3.395 -0.0365 -0.1587 -0.0869
 4259TIP3    H112783   0.858   5.604   3.439 -0.8039  1.1096  2.6689
 4259TIP3    H212784   0.813   5.733   3.374 -0.4544  0.0565  0.2023
 4260TIP3   OH212785   5.001   3.814   3.010  0.2192 -0.0443 -0.0528
 4260TIP3    H112786   5.025   3.772   2.927 -1.5772 -1.2471 -0.0370
 4260TIP3    H212787   5.039   3.757   3.077 -0.0146 -0.1967 -0.0480
 4261TIP3   OH212788   1.468   4.207   3.258 -0.4842  0.2151  0.3315
 4261TIP3    H112789   1.469   4.273   3.327 -0.9499 -0.6994  1.2401
 4261TIP3    H212790   1.554   4.165   3.263 -1.3252 -1.4806  2.0316
 4262TIP3   OH212791   4.354   4.053   3.090 -0.1761  0.4887 -0.4761
 4262TIP3    H112792   4.447   4.073   3.102 -0.2823  0.1566  1.0715
 4262TIP3    H212793   4.310   4.099   3.162 -1.1922  0.4657 -1.0662
 4263TIP3   OH212794   1.561   4.054   1.277 -0.6009 -0.3211 -0.1714
 4263TIP3    H112795   1.552   3.971   1.231  0.9166  0.4175 -1.9636
 4263TIP3    H212796   1.600   4.031   1.361 -1.1037 -1.4990 -0.2391
 4264TIP3   OH212797   2.573   2.786   3.716  0.2502  0.2500 -0.5372
 4264TIP3    H112798   2.531   2.872   3.712  0.4077  0.3108 -0.9107
 4264TIP3    H212799   2.508   2.729   3.759 -0.0819  0.4159 -0.8182
 4265TIP3   OH212800   2.402   4.164   4.720  0.4297 -0.1750  0.7953
 4265TIP3    H112801   2.388   4.154   4.626  1.1589 -0.9221  0.7519
 4265TIP3    H212802   2.483   4.214   4.726  0.0753  0.3718  1.0295
 4266TIP3   OH212803   2.789   5.816   0.692  0.1581 -0.3002 -0.2350
 4266TIP3    H112804   2.882   5.837   0.687  0.0481  0.9207  1.6107
 4266TIP3    H212805   2.780   5.763   0.771 -1.0137  2.1621  1.4510
 4267TIP3   OH212806   2.832   1.497   0.269  0.8977  0.2559  0.1978
 4267TIP3    H112807   2.858   1.542   0.349 -1.4054  0.5821  0.8309
 4267TIP3    H212808   2.754   1.448   0.293  0.6396 -0.3266 -1.6521
 4268TIP3   OH212809   1.544   5.390   3.981 -0.1723 -0.0139  0.1717
 4268TIP3    H112810   1.503   5.345   4.055 -2.0225 -0.2727 -0.9411
 4268TIP3    H212811   1.547   5.324   3.912 -3.3029  1.4659 -1.6408
 4269TIP3   OH212812   5.103   3.279   1.939  0.2194  0.5380  0.2013
 4269TIP3    H112813   5.100   3.249   2.030 -0.5188  1.8931  0.6582
 4269TIP3    H212814   5.013   3.276   1.909  0.0070  2.6677  0.4462
 4270TIP3   OH212815   3.789   4.255   4.873  0.6490 -0.3225 -0.1657
 4270TIP3    H112816   3.759   4.337   4.911  0.5775 -0.5649  0.3050
 4270TIP3    H212817   3.853   4.281   4.807 -0.6573  0.1995 -1.2519
 4271TIP3   OH212818   3.160   4.883   1.134 -0.0791  0.0235  0.0253
 4271TIP3    H112819   3.146   4.864   1.227 -1.3251 -3.1179 -0.6601
 4271TIP3    H212820   3.181   4.976   1.131  0.8587  0.0510  3.5139
 4272TIP3   OH212821   2.079   1.990   4.482 -0.0635 -0.5077  0.3037
 4272TIP3    H112822   2.143   2.004   4.552 -1.7995  1.1860  1.6667
 4272TIP3    H212823   2.072   1.895   4.474  0.4576 -0.7559  2.2093
 4273TIP3   OH212824   0.147   0.970   4.023 -0.1341  0.1506  0.2852
 4273TIP3    H112825   0.140   0.892   4.078 -0.6324  1.3270  1.9678
 4273TIP3    H212826   0.229   0.958   3.974 -0.1290 -1.3374  0.6108
 4274TIP3   OH212827   2.356   3.034   2.549 -0.3476 -0.5347 -0.4476
 4274TIP3    H112828   2.410   2.956   2.541  0.8557 -0.2038  2.8053
 4274TIP3    H212829   2.305   3.020   2.629 -0.5924  1.6593 -0.1450
 4275TIP3   OH212830   0.516   3.056   1.051  0.0611  0.5029 -0.6515
 4275TIP3    H112831   0.479   3.121   0.992  0.5734  1.1990 -0.2142
 4275TIP3    H212832   0.607   3.083   1.062  0.2207 -0.1614 -0.2901
 4276TIP3   OH212833   3.272   4.768   0.514  0.2540  0.2169  0.0157
 4276TIP3    H112834   3.186   4.806   0.531  0.6963  1.3280 -0.1103
 4276TIP3    H212835   3.298   4.728   0.597 -0.6226 -0.6370 -0.1121
 4277TIP3   OH212836   1.777   0.491   4.782  0.9034  0.1044 -0.3323
 4277TIP3    H112837   1.755   0.433   4.855  0.7829  1.0361  0.3957
 4277TIP3    H212838   1.857   0.535   4.810  1.4727 -0.3218 -1.2442
 4278TIP3   OH212839   3.923   5.148   3.109 -0.2509 -0.1256 -0.2453
 4278TIP3    H112840   3.928   5.149   3.205 -0.4762  0.9684 -0.2420
 4278TIP3    H212841   3.874   5.068   3.089 -1.7872  0.5494  0.6298
 4279TIP3   OH212842   0.757   2.595   2.666 -0.4688 -0.3441 -0.4981
 4279TIP3    H112843   0.740   2.501   2.667  0.3321 -0.5056 -1.0047
 4279TIP3    H212844   0.685   2.633   2.715 -1.0671 -1.1829 -0.7071
 4280TIP3   OH212845   2.985   3.506   4.983 -0.3668 -0.2016 -0.1982
 4280TIP3    H112846   2.976   3.601   4.978 -0.4196 -0.2475 -1.2698
 4280TIP3    H212847   3.070   3.491   5.024 -0.5535  0.3027  0.3801
 4281TIP3   OH212848   1.340   0.627   1.046  0.0172 -0.0815 -0.0319
 4281TIP3    H112849   1.248   0.646   1.062 -0.7269 -0.9805 -2.6814
 4281TIP3    H212850   1.359   0.549   1.099 -0.4006  0.7315  1.3529
 4282TIP3   OH212851   0.123   0.159   1.365  0.6869 -0.1796 -0.0695
 4282TIP3    H112852   0.031   0.143   1.387  0.7781 -1.1833 -0.3633
 4282TIP3    H212853   0.124   0.248   1.329 -0.5249 -0.8932 -1.9959
 4283TIP3   OH212854   5.590   0.260   4.293  0.5284  0.4680  0.7602
 4283TIP3    H112855   5.523   0.315   4.333  0.2303  0.1837  0.6564
 4283TIP3    H212856   5.571   0.172   4.326  0.3238  0.2419  0.0565
 4284TIP3   OH212857   4.089   2.362   4.775 -0.3410 -0.2764  0.2746
 4284TIP3    H112858   4.130   2.410   4.847  0.3596  0.3666 -0.5352
 4284TIP3    H212859   4.134   2.277   4.774 -1.0901 -0.7063  1.2567
 4285TIP3   OH212860   6.167   4.478   0.793  0.2610  0.3328  0.1537
 4285TIP3    H112861   6.104   4.495   0.723  1.8346  0.5288 -1.2776
 4285TIP3    H212862   6.142   4.392   0.827 -2.3958  1.4953  1.5187
 4286TIP3   OH212863   6.033   3.428   2.079  0.0753  0.0527  0.0615
 4286TIP3    H112864   5.941   3.451   2.087 -0.0961  0.9278 -2.8712
 4286TIP3    H212865   6.080   3.505   2.111 -0.2529  0.0859  0.4571
 4287TIP3   OH212866   4.106   5.186   3.633 -0.3160  0.3314 -0.0748
 4287TIP3    H112867   4.082   5.194   3.725  1.3727 -0.0739  0.4366
 4287TIP3    H212868   4.169   5.257   3.618  0.2174 -0.2402 -0.6156
 4288TIP3   OH212869   3.795   2.679   1.845 -0.1043 -0.0975  0.0686
 4288TIP3    H112870   3.810   2.737   1.770 -0.6987  1.3880  1.0406
 4288TIP3    H212871   3.725   2.723   1.895  0.2671 -1.0522  1.4741
 4289TIP3   OH212872   4.151   5.039   2.845  0.0703  0.4386  0.0286
 4289TIP3    H112873   4.165   4.980   2.919 -0.7450 -0.4646 -0.5081
 4289TIP3    H212874   4.175   5.126   2.878  0.6231 -0.0832  1.0509
 4290TIP3   OH212875   0.953   1.810   1.037  0.4337  0.2868  0.2164
 4290TIP3    H112876   1.012   1.858   0.979  0.6899 -0.2718  0.0097
 4290TIP3    H212877   1.010   1.752   1.086  0.0688 -0.1754  0.0999
 4291TIP3   OH212878   3.649   3.021   1.701  0.3573  0.7586  0.4372
 4291TIP3    H112879   3.634   3.035   1.795 -1.9344 -0.3344  0.2870
 4291TIP3    H212880   3.733   2.974   1.698 -0.0181 -0.1046  2.0297
 4292TIP3   OH212881   3.157   0.340   4.238  0.2850  0.0571 -0.3581
 4292TIP3    H112882   3.215   0.393   4.183  0.4604  0.2590  0.0201
 4292TIP3    H212883   3.079   0.325   4.184  0.2568  0.6576 -0.4845
 4293TIP3   OH212884   2.792   3.580   3.419  0.1078  0.0946  0.5256
 4293TIP3    H112885   2.729   3.516   3.387  0.0225 -0.4182  1.6507
 4293TIP3    H212886   2.738   3.654   3.447  0.2768  1.1690 -1.7875
 4294TIP3   OH212887   2.415   2.706   4.467  0.0713 -0.4261 -0.4639
 4294TIP3    H112888   2.425   2.779   4.528 -0.3284 -0.9415  0.2220
 4294TIP3    H212889   2.392   2.748   4.384  1.8725  0.3676 -0.6128
 4295TIP3   OH212890   5.902  -0.016   4.359 -0.1481 -0.0439  0.3540
 4295TIP3    H112891   5.878   0.010   4.270  0.2130  1.5138  0.6872
 4295TIP3    H212892   5.904   0.066   4.408  1.6356 -0.6197  1.3267
 4296TIP3   OH212893   2.057   2.191   1.513 -0.3467  0.3959 -0.5715
 4296TIP3    H112894   2.143   2.201   1.556 -0.2960  0.2872 -0.6477
 4296TIP3    H212895   2.019   2.114   1.555 -0.0398 -0.0817 -1.1486
 4297TIP3   OH212896   2.160   0.415   4.580 -0.1815  0.5454  0.5961
 4297TIP3    H112897   2.109   0.423   4.499 -0.0247  0.1065  0.4535
 4297TIP3    H212898   2.130   0.334   4.620  1.7146 -0.7431 -0.4343
 4298TIP3   OH212899   4.324   5.522   1.051  0.2036  0.3146 -0.0395
 4298TIP3    H112900   4.407   5.483   1.080 -0.8962 -1.2082  1.3027
 4298TIP3    H212901   4.274   5.534   1.132 -2.2175 -2.1608 -0.9861
 4299TIP3   OH212902   6.315   3.965   0.013 -0.1960  0.7249 -0.0837
 4299TIP3    H112903   6.407   3.989   0.028 -0.2018  1.3577 -1.0099
 4299TIP3    H212904   6.267   4.011   0.082  0.2034  0.0995  0.6350
 4300TIP3   OH212905   0.268   4.316   3.003 -0.5595  0.6965  0.0917
 4300TIP3    H112906   0.319   4.284   2.928  1.5708  2.6507  0.5675
 4300TIP3    H212907   0.185   4.344   2.966 -0.3627 -0.3332 -1.1853
 4301TIP3   OH212908   0.259   1.568   4.120  0.1688  0.7913 -0.2089
 4301TIP3    H112909   0.236   1.592   4.029  0.7661  0.6163 -0.4105
 4301TIP3    H212910   0.179   1.586   4.170 -0.4571  0.0410 -0.9140
 4302TIP3   OH212911   0.251   3.255   1.700  0.6458  0.2945  0.2531
 4302TIP3    H112912   0.325   3.237   1.642  0.3587 -0.9108  0.2370
 4302TIP3    H212913   0.287   3.313   1.767  1.3156  0.6337 -0.3821
 4303TIP3   OH212914   5.250   0.403   4.687 -0.0196  0.3953 -0.0457
 4303TIP3    H112915   5.177   0.341   4.680  0.8220 -0.4693 -1.4938
 4303TIP3    H212916   5.306   0.366   4.755 -0.2014  0.2928  0.0509
 4304TIP3   OH212917   2.394   2.156   3.810  0.1359  0.2267 -0.0729
 4304TIP3    H112918   2.434   2.122   3.890  1.6453 -0.2808 -1.0039
 4304TIP3    H212919   2.462   2.211   3.770 -1.0078  1.4332 -0.4250
 4305TIP3   OH212920   1.068   2.774   4.713  0.7939  0.5657 -0.5780
 4305TIP3    H112921   1.052   2.720   4.790  0.6244  2.3235  0.6909
 4305TIP3    H212922   1.148   2.738   4.674 -0.0012 -1.3492 -0.5371
 4306TIP3   OH212923   4.638   0.449   3.727  0.1117 -0.4876  0.8935
 4306TIP3    H112924   4.658   0.483   3.640  1.7053  1.7394  2.0291
 4306TIP3    H212925   4.544   0.464   3.738  0.0168 -0.2198 -0.1954
 4307TIP3   OH212926   4.770   5.932   4.671 -0.2064 -0.4875 -0.5167
 4307TIP3    H112927   4.796   5.863   4.733  0.8926 -1.0710 -1.5819
 4307TIP3    H212928   4.734   5.885   4.596  2.2936 -0.1135 -2.0898
 4308TIP3   OH212929   2.695   4.861   4.905  0.0620  0.3201 -0.1202
 4308TIP3    H112930   2.675   4.826   4.818  1.3594  0.8598 -0.6653
 4308TIP3    H212931   2.679   4.955   4.898 -0.2933  0.3040  0.3835
 4309TIP3   OH212932   1.962   0.330   2.469  0.3015 -0.0189 -0.1191
 4309TIP3    H112933   1.923   0.417   2.480 -0.6865 -0.3944 -0.4935
 4309TIP3    H212934   1.936   0.281   2.546  0.9099  0.0262  0.1213
 4310TIP3   OH212935   5.194   0.379   4.147 -0.0865  0.2501  0.2096
 4310TIP3    H112936   5.252   0.304   4.136 -0.8271 -0.4307  0.8172
 4310TIP3    H212937   5.241   0.452   4.106  0.5743 -0.5693 -0.5267
 4311TIP3   OH212938   5.853   0.877   4.034  0.9670 -0.3787  0.2325
 4311TIP3    H112939   5.836   0.952   3.976  0.8999  0.8530  1.7843
 4311TIP3    H212940   5.766   0.846   4.059  0.9853  0.0083  0.7941
 4312TIP3   OH212941   4.557   2.367   0.765  0.1101  0.1182 -0.6189
 4312TIP3    H112942   4.639   2.326   0.792  1.1956  1.7617 -1.2914
 4312TIP3    H212943   4.583   2.448   0.722 -1.8814  0.7286 -0.7924
 4313TIP3   OH212944   4.467   2.061   2.505  0.0080  0.3076 -0.0960
 4313TIP3    H112945   4.472   2.064   2.600 -1.2574 -0.3413  0.0172
 4313TIP3    H212946   4.377   2.035   2.487  0.3012  0.1787 -1.4699
 4314TIP3   OH212947   3.290   2.821   4.040 -0.0294 -0.1631  0.1527
 4314TIP3    H112948   3.283   2.905   4.085  1.2041 -0.1889  0.4330
 4314TIP3    H212949   3.242   2.833   3.958 -0.2711  0.6538  0.4086
 4315TIP3   OH212950   2.256   4.725   2.841 -0.0349 -0.1177 -0.2238
 4315TIP3    H112951   2.263   4.670   2.763  0.5788  1.3879 -1.2711
 4315TIP3    H212952   2.170   4.765   2.835  0.2691  0.5056 -0.4850
 4316TIP3   OH212953   3.189   3.544   4.517  0.0364  0.1469  0.3742
 4316TIP3    H112954   3.134   3.616   4.485 -0.3027 -0.2840 -0.0300
 4316TIP3    H212955   3.127   3.473   4.534  0.1901  0.4158  2.1546
 4317TIP3   OH212956   2.172   3.938   1.647 -0.0454 -0.2655  0.0419
 4317TIP3    H112957   2.110   3.880   1.693 -0.6069  2.0151  2.4549
 4317TIP3    H212958   2.258   3.904   1.670 -0.3638 -0.8553  0.4025
 4318TIP3   OH212959   4.190   0.018   1.106  0.2685 -0.3872 -0.3705
 4318TIP3    H112960   4.179  -0.018   1.194 -1.0950 -0.9898 -0.7607
 4318TIP3    H212961   4.184   0.112   1.118  0.1247 -0.4623  0.1819
 4319TIP3   OH212962   0.092   4.400   1.581  0.1918  0.5216 -0.8069
 4319TIP3    H112963   0.174   4.402   1.531  1.7289  0.0095  1.5675
 4319TIP3    H212964   0.119   4.395   1.672 -2.4149 -4.2011  0.0119
 4320TIP3   OH212965   5.717   5.779   3.914 -0.0849 -0.1429 -0.4683
 4320TIP3    H112966   5.642   5.723   3.935 -0.3501  0.8195  1.2998
 4320TIP3    H212967   5.701   5.860   3.961  1.3207  0.6623 -1.3147
 4321TIP3   OH212968   5.377   5.854   0.437 -0.3002 -0.1671  0.0976
 4321TIP3    H112969   5.332   5.771   0.448 -1.0692  0.0256 -1.3433
 4321TIP3    H212970   5.321   5.918   0.481  0.1622 -0.3682  0.9858
 4322TIP3   OH212971   3.675   2.301   1.920  0.3547  0.3439 -0.1992
 4322TIP3    H112972   3.627   2.372   1.962  1.3578  1.6556 -1.1815
 4322TIP3    H212973   3.677   2.232   1.986 -1.7072  0.7221  0.3395
 4323TIP3   OH212974   4.913   2.982   3.405 -0.8200  0.1848 -0.5089
 4323TIP3    H112975   4.978   2.915   3.382 -1.0406 -0.1755 -0.0839
 4323TIP3    H212976   4.959   3.041   3.464 -0.4077  0.8211 -1.4367
 4324TIP3   OH212977   2.229   3.700   0.257  0.2681 -0.6757 -0.8356
 4324TIP3    H112978   2.287   3.625   0.241  0.3651 -0.5178 -1.2326
 4324TIP3    H212979   2.142   3.661   0.262  0.4954 -1.0596  0.8368
 4325TIP3   OH212980   4.716   5.884   3.852  0.3946 -0.1284 -0.0099
 4325TIP3    H112981   4.804   5.875   3.887  0.3349  0.0452  0.1849
 4325TIP3    H212982   4.727   5.937   3.773  0.4047  0.2977  0.2744
 4326TIP3   OH212983   1.682   1.510   0.891  0.2265 -0.4375 -0.4110
 4326TIP3    H112984   1.642   1.467   0.815  0.2067 -1.1425 -0.0128
 4326TIP3    H212985   1.608   1.534   0.946  0.2598 -0.2494 -0.4490
 4327TIP3   OH212986   3.510   2.697   0.977  0.4775 -0.6296 -0.1010
 4327TIP3    H112987   3.587   2.640   0.976  1.5141  0.6977 -1.6516
 4327TIP3    H212988   3.534   2.768   1.037 -0.0088 -0.8004  0.3004
 4328TIP3   OH212989   2.418   4.841   1.689 -0.1067 -0.2365  0.2828
 4328TIP3    H112990   2.401   4.792   1.770  0.0243 -1.6167 -0.4854
 4328TIP3    H212991   2.511   4.864   1.695 -0.3117  0.4398  0.9214
 4329TIP3   OH212992   1.224   0.259   0.856 -0.1819  0.6339 -0.0404
 4329TIP3    H112993   1.214   0.306   0.939 -0.1662  0.2098  0.2029
 4329TIP3    H212994   1.273   0.180   0.879 -0.7543  0.1915 -0.3366
 4330TIP3   OH212995   4.131   3.795   1.854  0.0915  0.5070  0.8055
 4330TIP3    H112996   4.189   3.863   1.888  1.9244 -1.4356  1.8292
 4330TIP3    H212997   4.098   3.750   1.932 -0.5197 -0.2206  0.1481
 4331TIP3   OH212998   1.076   4.405   5.165  0.5776  0.0090 -0.0835
 4331TIP3    H112999   0.984   4.377   5.156 -0.1632  1.8108  1.1258
 4331TIP3    H213000   1.089   4.468   5.094  1.0865 -0.6483 -0.5899
 4332TIP3   OH213001   3.810   4.827   1.198 -0.3156 -0.8477 -0.4697
 4332TIP3    H113002   3.897   4.826   1.160 -0.5730 -0.8869 -1.0705
 4332TIP3    H213003   3.755   4.783   1.133 -0.7566 -0.9411 -0.0388
 4333TIP3   OH213004   3.935   5.428   1.810 -0.1499 -0.1180 -0.6133
 4333TIP3    H113005   3.977   5.514   1.799  1.0382 -0.3895  1.3935
 4333TIP3    H213006   3.965   5.377   1.735  0.8673  0.5602 -0.6867
 4334TIP3   OH213007   4.112   4.222   0.609 -0.6842 -0.4907 -0.0664
 4334TIP3    H113008   4.141   4.273   0.685 -3.0228 -2.7171  2.5203
 4334TIP3    H213009   4.025   4.257   0.589 -1.8664 -2.5961  1.0806
 4335TIP3   OH213010   1.229   2.310   3.156 -0.3760  0.1377 -0.2364
 4335TIP3    H113011   1.270   2.239   3.107 -2.8064 -0.0960 -2.1729
 4335TIP3    H213012   1.255   2.389   3.109  0.5210  0.3360  0.5707
 4336TIP3   OH213013   2.741   3.968   4.296 -0.2553  0.7175  0.2190
 4336TIP3    H113014   2.686   4.039   4.263 -0.1334  1.3353  1.3080
 4336TIP3    H213015   2.800   4.011   4.358 -0.7836 -0.4720  1.5790
 4337TIP3   OH213016   2.301   4.154   2.994 -0.1694 -0.3565  0.6323
 4337TIP3    H113017   2.335   4.138   3.083  1.1315  2.9387  0.8741
 4337TIP3    H213018   2.296   4.249   2.988  3.1493 -0.1429 -3.9556
 4338TIP3   OH213019   2.785   2.096   2.948 -0.4146  0.2820 -0.4884
 4338TIP3    H113020   2.758   2.181   2.913  0.4043  0.4348 -0.7906
 4338TIP3    H213021   2.757   2.033   2.882  0.9447  0.5489 -1.3610
 4339TIP3   OH213022   4.182   1.922   1.740 -0.0540 -0.1544 -0.4948
 4339TIP3    H113023   4.097   1.950   1.706 -0.5204 -0.5105  0.3473
 4339TIP3    H213024   4.161   1.876   1.822  1.0729  0.9722  0.4536
 4340TIP3   OH213025   1.442   5.079   1.618  0.3683  0.1743  0.1923
 4340TIP3    H113026   1.377   5.094   1.550 -0.9205 -0.1250  1.3010
 4340TIP3    H213027   1.418   4.994   1.656  1.5455 -0.0466  0.5064
 4341TIP3   OH213028   5.720   0.962   0.878 -0.0082 -0.0776 -0.8145
 4341TIP3    H113029   5.634   0.959   0.836 -0.2980  0.2359 -0.2628
 4341TIP3    H213030   5.713   1.035   0.940 -0.0519 -1.3657  0.7483
 4342TIP3   OH213031   3.515   2.036   4.991  0.3342 -0.0506  0.0663
 4342TIP3    H113032   3.471   1.965   5.038 -0.9796  1.0171  0.5257
 4342TIP3    H213033   3.465   2.045   4.910  2.2632 -1.5211 -1.3706
 4343TIP3   OH213034   3.391   4.730   2.124  0.5985 -0.2318  0.0615
 4343TIP3    H113035   3.445   4.808   2.117  0.8735 -0.1071  2.7531
 4343TIP3    H213036   3.330   4.748   2.196 -1.0741 -1.5261 -0.9265
 4344TIP3   OH213037   3.478   2.478   3.946  0.3106  0.0587 -0.0520
 4344TIP3    H113038   3.468   2.523   3.862 -0.8394 -1.0918 -0.5756
 4344TIP3    H213039   3.551   2.418   3.933 -0.1421 -0.4265 -0.3850
 4345TIP3   OH213040   6.291   1.721   3.556 -0.5081 -0.4607  0.3366
 4345TIP3    H113041   6.210   1.762   3.587 -1.8770 -0.7465 -2.5773
 4345TIP3    H213042   6.334   1.789   3.505 -1.1280 -1.5003 -1.7064
 4346TIP3   OH213043   5.276   5.225   1.279  0.9098  0.3391 -0.1805
 4346TIP3    H113044   5.221   5.289   1.233  0.1833  0.0609  0.2777
 4346TIP3    H213045   5.334   5.278   1.333  1.9887  0.6855 -1.6069
 4347TIP3   OH213046   1.124   1.383   3.953  0.2669 -0.6749  1.1803
 4347TIP3    H113047   1.075   1.397   3.872 -0.2243  0.9134  1.7214
 4347TIP3    H213048   1.057   1.368   4.019  0.5876 -0.3019  1.5937
 4348TIP3   OH213049   4.064   1.979   2.749 -0.3697 -0.0657 -0.1301
 4348TIP3    H113050   4.140   2.011   2.796 -0.3814  1.3330 -1.0124
 4348TIP3    H213051   4.096   1.956   2.662 -0.4646 -2.0657  0.2962
 4349TIP3   OH213052   4.824   4.092   2.241  0.8011 -0.1169 -0.3728
 4349TIP3    H113053   4.785   4.141   2.313 -1.1555  1.7392 -2.5074
 4349TIP3    H213054   4.916   4.117   2.241  0.3648  1.6373  0.1771
 4350TIP3   OH213055   3.323   5.932   5.060  0.0843 -0.5070 -0.0367
 4350TIP3    H113056   3.355   5.877   5.132 -1.4039  0.6252  1.5841
 4350TIP3    H213057   3.252   5.983   5.099 -1.0207 -0.0795 -2.4202
 4351TIP3   OH213058   2.125   0.538   3.812 -0.0043 -0.1054  0.4274
 4351TIP3    H113059   2.191   0.560   3.747  0.0091 -0.2794  0.3826
 4351TIP3    H213060   2.050   0.507   3.762 -0.2730  0.4792  0.4574
 4352TIP3   OH213061   4.077   3.967   4.843  0.5409 -0.1556 -0.2621
 4352TIP3    H113062   3.995   3.934   4.807  0.9120  0.1666 -1.4470
 4352TIP3    H213063   4.134   3.891   4.848  0.4265 -0.2358 -0.1718
 4353TIP3   OH213064   3.863   5.180   2.811  0.4184  0.1312 -0.3706
 4353TIP3    H113065   3.946   5.137   2.832  0.8021  1.4576  1.0491
 4353TIP3    H213066   3.797   5.124   2.852  1.0751  2.0602  3.9033
 4354TIP3   OH213067   3.595   5.491   3.664 -0.3549  0.1152  0.1622
 4354TIP3    H113068   3.584   5.549   3.589 -2.5625 -2.4171 -1.6722
 4354TIP3    H213069   3.681   5.452   3.652 -0.7103 -0.3153 -1.1796
 4355TIP3   OH213070   2.225   4.988   1.807 -0.3804  0.5723 -0.3123
 4355TIP3    H113071   2.155   5.017   1.749 -0.1260 -0.0524 -0.9460
 4355TIP3    H213072   2.303   4.986   1.751 -0.2960 -0.8432 -0.1770
 4356TIP3   OH213073   3.818   2.964   0.919 -0.0907  0.3544  0.5247
 4356TIP3    H113074   3.780   3.022   0.985  0.0278  0.7340  0.2589
 4356TIP3    H213075   3.766   2.979   0.840  1.1259  1.5353 -0.1083
 4357TIP3   OH213076   1.083   4.013   0.836  0.4810  0.0376 -0.7747
 4357TIP3    H113077   1.137   4.092   0.835  1.1289 -0.4054 -1.1274
 4357TIP3    H213078   1.054   4.002   0.746 -0.8758  0.7063 -0.4593
 4358TIP3   OH213079   3.937   4.758   2.454  0.1316 -0.0515  0.0149
 4358TIP3    H113080   3.926   4.809   2.534  0.3121  1.0454 -0.6433
 4358TIP3    H213081   4.006   4.803   2.405  0.9219 -1.4245 -0.2055
 4359TIP3   OH213082   3.995   2.875   3.083  0.0735 -0.7905 -0.5846
 4359TIP3    H113083   4.012   2.818   3.008 -2.5852 -1.1579 -1.0054
 4359TIP3    H213084   4.013   2.821   3.159  1.2736 -0.9140 -0.9329
 4360TIP3   OH213085   4.021   3.543   3.616  0.0491 -0.0705  0.6410
 4360TIP3    H113086   4.024   3.483   3.691 -0.2452 -1.4284 -0.3902
 4360TIP3    H213087   3.943   3.516   3.568  0.5524  0.4079 -0.4592
 4361TIP3   OH213088   2.736   3.012   1.258  0.2365 -0.3007  0.3265
 4361TIP3    H113089   2.727   3.079   1.326 -1.0359  1.3435 -1.3604
 4361TIP3    H213090   2.824   3.026   1.223 -1.0474  2.8219 -2.1562
 4362TIP3   OH213091   1.077   3.143   4.200 -0.4174 -0.1270 -0.2889
 4362TIP3    H113092   1.147   3.186   4.151  0.5722  0.1983  1.3261
 4362TIP3    H213093   1.121   3.073   4.248 -1.4698 -0.8953 -0.4225
 4363TIP3   OH213094   1.777   5.382   2.278  0.7014  0.2874 -0.7784
 4363TIP3    H113095   1.766   5.339   2.363  0.5040  1.2009 -0.3323
 4363TIP3    H213096   1.840   5.327   2.231 -1.1862 -1.7375 -1.1006
 4364TIP3   OH213097   3.260   5.042   2.467 -0.5750 -0.4792 -0.1615
 4364TIP3    H113098   3.189   5.107   2.468 -0.4652 -0.3431  1.5921
 4364TIP3    H213099   3.260   5.006   2.555  0.9195 -1.1860 -0.4301
 4365TIP3   OH213100   2.192   5.544   4.303 -0.1802  0.0394  0.1644
 4365TIP3    H113101   2.122   5.503   4.354  0.4762 -0.6402  0.5407
 4365TIP3    H213102   2.209   5.484   4.231 -1.0451  0.9577 -0.8506
 4366TIP3   OH213103   5.720   0.387   0.594 -0.5158  0.2162  0.0741
 4366TIP3    H113104   5.789   0.454   0.595  0.7522 -1.0277  1.8517
 4366TIP3    H213105   5.709   0.366   0.501 -0.0750  2.0041 -0.4115
 4367TIP3   OH213106   2.435   1.920   3.508  0.1135 -0.3456  0.1703
 4367TIP3    H113107   2.455   1.843   3.455 -2.4659 -0.5850 -0.6122
 4367TIP3    H213108   2.514   1.974   3.503  0.8817 -1.5486 -1.8161
 4368TIP3   OH213109   5.402   2.489   2.739 -0.6925  0.0465  0.0416
 4368TIP3    H113110   5.335   2.530   2.793  0.3402  1.9522 -0.0530
 4368TIP3    H213111   5.459   2.561   2.711  0.4589 -1.2743 -1.2266
 4369TIP3   OH213112   5.096   1.005   4.962 -0.5057 -0.2417 -0.3653
 4369TIP3    H113113   5.053   0.980   5.043  0.0558  0.8958  0.3119
 4369TIP3    H213114   5.186   0.972   4.970 -0.8088 -1.3111 -1.1295
 4370TIP3   OH213115   5.545   1.947   4.253  0.3395 -0.4989  0.0860
 4370TIP3    H113116   5.498   1.874   4.293 -0.8282 -1.0884 -2.2035
 4370TIP3    H213117   5.504   2.026   4.289  0.5091 -0.9650  1.3360
 4371TIP3   OH213118   4.401   5.945   2.421  0.0117 -0.5874  1.2277
 4371TIP3    H113119   4.369   6.034   2.437  0.6156 -0.5255  2.1560
 4371TIP3    H213120   4.490   5.957   2.389  0.4204 -0.8658  2.2031
 4372TIP3   OH213121   0.840   4.722   1.575  0.6168  0.0937  0.4552
 4372TIP3    H113122   0.899   4.771   1.518 -0.3973 -1.5243 -2.1338
 4372TIP3    H213123   0.753   4.752   1.551  0.1953  0.3548  2.1784
 4373TIP3   OH213124   2.807   0.693   1.397  0.4022  0.2073  0.1773
 4373TIP3    H113125   2.881   0.744   1.430  0.3352  0.5214 -0.1423
 4373TIP3    H213126   2.733   0.754   1.400  0.7508  0.8475 -2.1900
 4374TIP3   OH213127   4.750   2.531   5.032  0.0418  0.1523 -0.0359
 4374TIP3    H113128   4.699   2.464   4.987 -0.5600  0.1379  0.6576
 4374TIP3    H213129   4.688   2.575   5.090  0.4381  1.2968 -0.4543
 4375TIP3   OH213130   5.403   1.614   2.386  0.6427 -0.3241  0.0877
 4375TIP3    H113131   5.426   1.577   2.300 -2.6756  0.5362 -1.3397
 4375TIP3    H213132   5.436   1.704   2.383 -1.5204  0.4995 -1.4027
 4376TIP3   OH213133   1.426   2.067   4.669  0.3614  0.2712 -0.4994
 4376TIP3    H113134   1.369   2.029   4.736  0.1202  1.0262 -0.2716
 4376TIP3    H213135   1.501   2.007   4.665  0.0310 -0.1795 -0.0797
 4377TIP3   OH213136   5.699   4.724   4.143 -0.4787  0.1740  0.3848
 4377TIP3    H113137   5.726   4.737   4.234 -2.1902 -1.9157  1.2853
 4377TIP3    H213138   5.628   4.786   4.130  1.2446  2.0843 -0.3334
 4378TIP3   OH213139   5.345   4.473   3.751 -0.1436 -0.7161 -0.2784
 4378TIP3    H113140   5.268   4.490   3.806  0.0329 -0.5020 -0.0946
 4378TIP3    H213141   5.345   4.544   3.687 -0.0773 -0.6957 -0.2558
 4379TIP3   OH213142   0.383   5.181   1.633 -0.0680  0.7350  0.0571
 4379TIP3    H113143   0.409   5.131   1.555 -1.5357 -0.9891  0.5836
 4379TIP3    H213144   0.464   5.193   1.681  0.4018 -1.0448 -0.1970
 4380TIP3   OH213145   0.015   3.128   1.646  0.1311  0.0342 -0.2142
 4380TIP3    H113146   0.076   3.197   1.673 -0.0431 -0.2807  1.0162
 4380TIP3    H213147   0.024   3.060   1.712 -1.6653  0.0481  0.0810
 4381TIP3   OH213148   2.681   0.451   5.125 -0.3558 -0.3762  0.3762
 4381TIP3    H113149   2.671   0.534   5.172 -0.6970 -0.4648  0.4613
 4381TIP3    H213150   2.593   0.413   5.124 -0.0525 -1.1445  1.1060
 4382TIP3   OH213151   2.680   4.992   2.210  0.1685 -0.2149  0.9044
 4382TIP3    H113152   2.733   4.957   2.281 -0.4508 -0.9560  1.0275
 4382TIP3    H213153   2.652   5.078   2.240  1.0010  0.0368  0.9799
 4383TIP3   OH213154   4.411   3.183   2.932  0.5164 -0.2541 -0.1825
 4383TIP3    H113155   4.382   3.191   2.841 -1.0102 -0.5384  0.2635
 4383TIP3    H213156   4.504   3.161   2.925  0.3809 -0.4651 -1.6723
 4384TIP3   OH213157   4.487   3.318   1.676 -0.2971  0.5198 -0.3109
 4384TIP3    H113158   4.559   3.275   1.630 -0.0337 -0.2596  0.7946
 4384TIP3    H213159   4.408   3.278   1.639 -0.1069  0.3126 -0.4949
 4385TIP3   OH213160   6.124   3.065   5.012 -0.1832  0.0288 -0.2192
 4385TIP3    H113161   6.134   3.079   5.106 -1.0015 -0.7319 -0.0059
 4385TIP3    H213162   6.039   3.102   4.991 -1.2301 -2.1682 -0.1243
 4386TIP3   OH213163   5.782   2.719   4.477 -0.1707  0.3035  0.4601
 4386TIP3    H113164   5.800   2.699   4.569 -0.8591  1.1441  0.7899
 4386TIP3    H213165   5.823   2.805   4.463  1.2963 -0.5038 -0.4657
 4387TIP3   OH213166   3.041   4.138   0.888  0.2838 -0.1747 -0.3961
 4387TIP3    H113167   3.067   4.205   0.951  3.4919 -1.0463 -0.6041
 4387TIP3    H213168   3.017   4.062   0.942  2.5740 -0.7662 -0.0968
 4388TIP3   OH213169   0.936   1.650   4.246  0.4740  0.3322  0.3715
 4388TIP3    H113170   0.864   1.656   4.310  1.5452  0.4562  1.5961
 4388TIP3    H213171   1.015   1.665   4.298  1.3260  1.2932 -1.1366
 4389TIP3   OH213172   5.249   4.509   0.136 -0.6882 -0.0668 -0.0010
 4389TIP3    H113173   5.208   4.475   0.056 -2.6310  1.2916  0.3649
 4389TIP3    H213174   5.236   4.440   0.201  0.3636 -0.9177 -0.6407
 4390TIP3   OH213175   5.617   1.583   2.748  0.0069  0.6383 -0.5859
 4390TIP3    H113176   5.630   1.595   2.842 -0.3863 -1.4929 -0.1947
 4390TIP3    H213177   5.534   1.626   2.729  0.1355  1.1603  0.0206
 4391TIP3   OH213178   3.325   1.105   3.415  0.3756  0.1486  0.0618
 4391TIP3    H113179   3.417   1.084   3.429  0.6919  1.1073 -0.4245
 4391TIP3    H213180   3.311   1.188   3.461  0.0866  0.6342 -0.8579
 4392TIP3   OH213181   2.078   2.211   1.077 -0.4217  0.3640  0.1152
 4392TIP3    H113182   2.002   2.169   1.037 -1.1315  0.5261  1.2704
 4392TIP3    H213183   2.137   2.138   1.099  0.3593  0.3162 -1.9099
 4393TIP3   OH213184   6.217   0.137   0.958 -0.3498  0.5147 -0.4308
 4393TIP3    H113185   6.267   0.107   0.883  1.3562 -0.1074  0.8964
 4393TIP3    H213186   6.261   0.217   0.987 -0.2177  0.0803  0.6269
 4394TIP3   OH213187   1.731   3.089   0.945 -0.5255 -0.2407  0.1277
 4394TIP3    H113188   1.660   3.153   0.939 -0.1830  0.0589 -1.2424
 4394TIP3    H213189   1.795   3.129   1.004 -0.6150  0.3893 -0.1951
 4395TIP3   OH213190   1.341   5.510   3.700  0.5778  0.3854 -0.4596
 4395TIP3    H113191   1.377   5.549   3.620  1.2668 -0.2910 -0.4918
 4395TIP3    H213192   1.410   5.450   3.731  0.1630  0.3452  0.4260
 4396TIP3   OH213193   4.702   3.355   3.300 -0.1922  0.6427 -0.2236
 4396TIP3    H113194   4.654   3.306   3.367 -1.1590  0.7824 -0.8010
 4396TIP3    H213195   4.639   3.369   3.230  0.4962  1.4346 -0.7099
 4397TIP3   OH213196   0.635   4.224   1.518  0.2945  0.4801  0.1191
 4397TIP3    H113197   0.694   4.300   1.521  1.9228 -0.6794 -1.0574
 4397TIP3    H213198   0.671   4.163   1.582 -0.0393  0.0297 -0.1164
 4398TIP3   OH213199   1.009   0.861   3.354  0.3945 -0.5951  0.3361
 4398TIP3    H113200   0.983   0.780   3.311  1.5143 -1.0758  0.5335
 4398TIP3    H213201   0.944   0.873   3.424 -0.5673 -0.5830 -0.5414
 4399TIP3   OH213202   1.574   3.279   3.700 -0.1753  0.2016 -0.5616
 4399TIP3    H113203   1.627   3.206   3.669  1.0687  0.8300  0.0023
 4399TIP3    H213204   1.574   3.270   3.796 -0.7978  0.4212 -0.5301
 4400TIP3   OH213205   3.014   2.889   4.359 -0.3421  0.7701  0.2010
 4400TIP3    H113206   3.097   2.841   4.359 -0.3687  0.7231  0.0897
 4400TIP3    H213207   2.972   2.864   4.277 -0.8778  0.0897  0.6758
 4401TIP3   OH213208   3.396   1.092   1.543  0.2697 -0.1738 -0.7720
 4401TIP3    H113209   3.327   1.043   1.498 -0.0631  0.4547 -0.9566
 4401TIP3    H213210   3.352   1.170   1.576  0.5286 -0.5441  0.5436
 4402TIP3   OH213211   5.236   2.933   1.164  0.0534  0.0433 -0.1498
 4402TIP3    H113212   5.296   2.882   1.109 -0.0880 -0.8658  0.5029
 4402TIP3    H213213   5.192   2.992   1.104  0.1156 -0.7220 -0.9716
 4403TIP3   OH213214   1.534   3.768   4.350 -0.6936  0.0869 -0.2421
 4403TIP3    H113215   1.466   3.816   4.398 -1.5162  0.2708 -1.5358
 4403TIP3    H213216   1.489   3.735   4.272  1.4233  3.2164 -3.0268
 4404TIP3   OH213217   3.873   4.851   0.678  0.1166  0.1136  0.4384
 4404TIP3    H113218   3.833   4.897   0.752  0.4306  0.5735  0.3295
 4404TIP3    H213219   3.937   4.793   0.719  1.6825  1.7593  0.4662
 4405TIP3   OH213220   2.387   4.179   3.691 -0.1537 -0.1020  0.0787
 4405TIP3    H113221   2.362   4.112   3.627 -1.3923 -1.5183  1.9465
 4405TIP3    H213222   2.480   4.163   3.706 -0.0773 -0.3760 -0.6218
 4406TIP3   OH213223   5.491   0.463   0.316  0.5211 -0.3520  0.3536
 4406TIP3    H113224   5.436   0.536   0.290  0.3053 -0.0902  1.4584
 4406TIP3    H213225   5.580   0.492   0.298  0.3732 -0.2900 -0.2939
 4407TIP3   OH213226   5.987   0.341   2.837 -0.1068  0.2301 -0.2813
 4407TIP3    H113227   6.029   0.298   2.763 -1.1725  0.6452 -1.1651
 4407TIP3    H213228   5.964   0.428   2.805 -1.3227  0.1346  0.2568
 4408TIP3   OH213229   5.289   2.172   4.855  0.4935  0.0627  0.6568
 4408TIP3    H113230   5.295   2.235   4.926  0.7410 -0.0786  0.7617
 4408TIP3    H213231   5.195   2.164   4.838  0.4849  0.8754  0.2689
 4409TIP3   OH213232   2.999   4.540   0.352 -0.2468  0.0265 -0.4599
 4409TIP3    H113233   3.084   4.507   0.381 -0.3236 -1.6824 -2.0248
 4409TIP3    H213234   3.017   4.582   0.268 -0.9642 -0.4208 -0.8429
 4410TIP3   OH213235   3.038   3.028   0.420  0.3289  0.1638 -0.0377
 4410TIP3    H113236   3.010   3.024   0.511 -1.4221 -0.7921 -0.5807
 4410TIP3    H213237   3.002   2.949   0.380  3.2655 -0.8340 -1.0033
 4411TIP3   OH213238   0.754   2.809   1.266  0.1102  0.1164 -0.1336
 4411TIP3    H113239   0.668   2.769   1.253  0.0593  0.5742 -1.3165
 4411TIP3    H213240   0.811   2.737   1.292 -1.2526  0.2373  4.0103
 4412TIP3   OH213241   1.320   5.950   0.563 -0.6983 -0.3604 -0.5507
 4412TIP3    H113242   1.330   6.034   0.607  1.2290 -0.6555 -0.3531
 4412TIP3    H213243   1.288   5.891   0.631 -0.9079 -0.0651 -0.3913
 4413TIP3   OH213244   5.308   3.673   0.715 -0.5405 -0.1473 -0.3150
 4413TIP3    H113245   5.276   3.697   0.628 -2.3700  1.9255  0.8302
 4413TIP3    H213246   5.388   3.725   0.726  0.5241 -1.5137 -1.2522
 4414TIP3   OH213247   5.429   4.316   3.361 -0.4020  0.3539  0.1253
 4414TIP3    H113248   5.455   4.391   3.307  0.2079 -0.4197 -0.6878
 4414TIP3    H213249   5.508   4.262   3.367 -0.1782  0.8265  2.5505
 4415TIP3   OH213250   0.386   5.645   3.351 -0.1476  0.0002  0.2910
 4415TIP3    H113251   0.412   5.693   3.272  0.9918  0.4944  0.9408
 4415TIP3    H213252   0.291   5.654   3.354 -0.0820  1.0705 -0.3380
 4416TIP3   OH213253   3.803   1.983   0.456 -0.3469 -0.0267 -1.0782
 4416TIP3    H113254   3.862   1.990   0.531 -2.0393 -1.7488  0.5447
 4416TIP3    H213255   3.737   2.051   0.470 -1.1623 -0.9076 -0.4505
 4417TIP3   OH213256   2.952   2.144   1.831 -0.3019 -0.3553 -0.1395
 4417TIP3    H113257   2.982   2.133   1.741 -1.3966 -1.3189 -0.4140
 4417TIP3    H213258   2.934   2.237   1.839  0.4945 -0.1458 -0.6845
 4418TIP3   OH213259   3.912   4.859   4.859  0.5129 -0.1950  0.5794
 4418TIP3    H113260   3.830   4.904   4.836  0.9934 -0.0123 -0.8884
 4418TIP3    H213261   3.949   4.912   4.929 -0.4850 -0.1273  1.0750
 4419TIP3   OH213262   2.179   5.840   0.721  0.1362 -0.3252  0.1011
 4419TIP3    H113263   2.189   5.785   0.643  0.3701  0.2844 -0.3070
 4419TIP3    H213264   2.218   5.924   0.696 -0.6502  0.1852  0.5367
 4420TIP3   OH213265   0.714   1.997   4.204  0.2380 -0.5115 -0.0284
 4420TIP3    H113266   0.622   2.023   4.209  0.4333  0.9302 -2.2752
 4420TIP3    H213267   0.717   1.910   4.243 -1.9644 -0.3539  0.6072
 4421TIP3   OH213268   2.578   5.398   0.482 -0.2412 -0.0839 -0.7909
 4421TIP3    H113269   2.672   5.401   0.465 -0.1842 -1.2676 -0.8040
 4421TIP3    H213270   2.561   5.473   0.539  1.0344 -0.8516  0.6771
 4422TIP3   OH213271   4.255   3.012   3.145  0.2521 -0.1130  0.0170
 4422TIP3    H113272   4.166   2.989   3.118  0.9449 -1.3463 -1.3528
 4422TIP3    H213273   4.287   3.069   3.075  1.0537 -0.9342 -0.3079
 4423TIP3   OH213274   5.780   1.941   3.614  0.1004  0.3372  0.2268
 4423TIP3    H113275   5.808   1.942   3.522 -0.3703 -1.4625  0.0267
 4423TIP3    H213276   5.688   1.968   3.611  0.9052  3.4922  0.5827
 4424TIP3   OH213277   4.000   3.534   2.395  0.0412  0.0499 -0.5218
 4424TIP3    H113278   4.047   3.605   2.439 -0.4029  0.4443 -0.6787
 4424TIP3    H213279   4.069   3.475   2.365  0.3564 -0.2269  0.6852
 4425TIP3   OH213280   1.229   1.602   5.003  0.4433 -0.1702 -0.3241
 4425TIP3    H113281   1.247   1.509   4.990 -0.8102 -0.3487 -0.9026
 4425TIP3    H213282   1.233   1.615   5.098  1.3910 -0.6315 -0.2886
 4426TIP3   OH213283   1.023   3.698   4.875  0.3018  0.1278  0.1480
 4426TIP3    H113284   0.985   3.620   4.916  0.4601 -0.1273 -0.1838
 4426TIP3    H213285   0.953   3.732   4.819  1.0593 -1.3383 -1.8359
 4427TIP3   OH213286   0.760   5.014   0.912  0.5317 -0.6708 -0.2100
 4427TIP3    H113287   0.745   5.077   0.842  0.4742 -0.6831 -0.2094
 4427TIP3    H213288   0.706   4.938   0.888 -0.6155 -0.1418  0.5641
 4428TIP3   OH213289   4.486   5.204   3.267  0.2736  0.0451  0.1111
 4428TIP3    H113290   4.578   5.228   3.268  0.2762  0.2024  2.6292
 4428TIP3    H213291   4.483   5.117   3.307 -0.5268 -0.7811 -1.6350
 4429TIP3   OH213292   4.231   0.092   3.882  0.1334 -0.1204 -0.0536
 4429TIP3    H113293   4.227   0.149   3.958  2.0364 -1.6940  1.3605
 4429TIP3    H213294   4.315   0.113   3.840  0.3332 -1.0407 -0.1568
 4430TIP3   OH213295   5.360   3.877   4.909 -0.1443  0.2458  0.5889
 4430TIP3    H113296   5.377   3.893   5.001 -2.2944  0.8331  0.9401
 4430TIP3    H213297   5.276   3.831   4.908  0.5975 -1.1836 -1.0108
 4431TIP3   OH213298   1.306   4.878   1.739  0.6872  0.4453  0.4813
 4431TIP3    H113299   1.236   4.828   1.698  2.8546 -1.0621 -1.6563
 4431TIP3    H213300   1.347   4.816   1.800  0.0917  1.3805  1.8828
 4432TIP3   OH213301   2.417   3.460   4.583 -0.0872 -0.5284  0.3751
 4432TIP3    H113302   2.406   3.386   4.643  1.6592 -0.4762  0.8115
 4432TIP3    H213303   2.415   3.420   4.495  1.9152 -1.3108  0.6258
 4433TIP3   OH213304   2.984   1.893   1.923  0.2854 -0.1821  0.5870
 4433TIP3    H113305   2.993   1.978   1.879 -0.1252  1.0126  2.6585
 4433TIP3    H213306   2.910   1.905   1.983  0.1895 -2.0376  0.8821
 4434TIP3   OH213307   1.565   4.097   2.776  0.3557 -0.0814 -0.5404
 4434TIP3    H113308   1.553   4.033   2.846  0.8752 -0.1081 -0.4719
 4434TIP3    H213309   1.482   4.145   2.773  1.1367  1.6292  1.7923
 4435TIP3   OH213310   0.879   1.248   1.207 -0.0603 -0.0767  0.5682
 4435TIP3    H113311   0.874   1.175   1.269  0.8671 -1.3065 -0.7173
 4435TIP3    H213312   0.794   1.249   1.163  0.1960 -0.9734  0.0120
 4436TIP3   OH213313   5.170   2.964   3.110  0.0714 -0.3446 -0.0378
 4436TIP3    H113314   5.097   3.010   3.069 -0.8991 -1.7572  0.0459
 4436TIP3    H213315   5.130   2.915   3.181  1.0012 -1.6621 -0.3949
 4437TIP3   OH213316   4.770   2.945   1.274  0.3192  0.5034  0.7513
 4437TIP3    H113317   4.840   2.993   1.319  0.9329 -0.7372  1.1634
 4437TIP3    H213318   4.752   2.871   1.331  0.4734 -0.6150 -0.6048
 4438TIP3   OH213319   3.849   1.427   2.173 -0.1196  0.0470 -0.3660
 4438TIP3    H113320   3.885   1.340   2.194 -0.6902  0.0251  0.6075
 4438TIP3    H213321   3.756   1.411   2.157 -0.1533  0.4246 -0.5563
 4439TIP3   OH213322   0.117   1.358   3.865 -1.1628  0.0767 -0.8900
 4439TIP3    H113323   0.155   1.298   3.801  3.8931  1.6975  0.1171
 4439TIP3    H213324   0.096   1.436   3.814 -0.3532  0.1478 -1.1382
 4440TIP3   OH213325   2.979   3.886   4.678  0.2216  0.4230 -0.0147
 4440TIP3    H113326   2.884   3.875   4.668  0.0634 -0.6177  2.1056
 4440TIP3    H213327   3.016   3.837   4.605 -0.8747 -0.5636  0.0543
 4441TIP3   OH213328   1.581   2.249   3.893 -0.0313 -0.4782  0.6447
 4441TIP3    H113329   1.672   2.226   3.914  0.4770 -0.0131 -0.9495
 4441TIP3    H213330   1.540   2.165   3.870  0.3116 -0.5272  0.2113
 4442TIP3   OH213331   5.446   4.750   1.426  0.2614  0.4225 -0.0030
 4442TIP3    H113332   5.402   4.770   1.343  1.8178 -1.3641 -1.3564
 4442TIP3    H213333   5.538   4.741   1.403  0.5120 -1.9320  1.5406
 4443TIP3   OH213334   3.944   0.659   4.215 -0.0662 -0.4642 -0.3958
 4443TIP3    H113335   3.867   0.603   4.205  0.8527 -1.7507 -0.6017
 4443TIP3    H213336   3.963   0.690   4.126 -0.6311  0.2711 -0.2677
 4444TIP3   OH213337   5.996   1.222   4.653 -0.6603  0.2499  0.4212
 4444TIP3    H113338   5.971   1.210   4.562  1.4883 -2.8695  0.1032
 4444TIP3    H213339   5.932   1.172   4.703  0.1440 -0.9422  0.2889
 4445TIP3   OH213340   5.042   2.214   2.234  0.0114  0.1149  0.2891
 4445TIP3    H113341   5.056   2.240   2.143 -0.1096  0.6201  0.4071
 4445TIP3    H213342   5.094   2.135   2.245 -1.2898 -0.9076 -0.6810
 4446TIP3   OH213343   4.003   2.131   2.239  0.1731  0.2056  0.2960
 4446TIP3    H113344   4.092   2.151   2.212  0.7154 -0.1098  1.7297
 4446TIP3    H213345   4.004   2.037   2.258 -0.5271  0.1572  0.1258
 4447TIP3   OH213346   0.054   4.698   1.315  0.5759 -0.3499 -0.1290
 4447TIP3    H113347  -0.041   4.707   1.326  0.6388 -1.4829  1.8518
 4447TIP3    H213348   0.064   4.617   1.265  0.4974 -1.3306  1.3769
 4448TIP3   OH213349   4.772   2.484   3.863 -0.0280  0.3790 -0.0317
 4448TIP3    H113350   4.686   2.514   3.832  0.9907 -0.1737 -3.8459
 4448TIP3    H213351   4.764   2.389   3.867  0.3474  0.3416 -0.1468
 4449TIP3   OH213352   3.052   3.126   2.985  0.3794  0.4487 -0.4162
 4449TIP3    H113353   3.049   3.049   3.042  0.9889  1.8746  1.6244
 4449TIP3    H213354   3.144   3.150   2.982  0.5198 -0.1581 -2.8848
 4450TIP3   OH213355   4.860   5.779   2.421 -0.2800 -0.7990 -0.3381
 4450TIP3    H113356   4.898   5.837   2.487  2.4053 -0.7785 -1.7782
 4450TIP3    H213357   4.804   5.836   2.368  2.2765  0.6188 -1.7105
 4451TIP3   OH213358   6.199   4.846   2.896 -0.2350 -0.0688 -0.3764
 4451TIP3    H113359   6.105   4.843   2.913 -0.3542  1.8567 -0.5299
 4451TIP3    H213360   6.238   4.868   2.981  0.0310 -0.2690 -0.4441
 4452TIP3   OH213361   2.066   4.334   0.393  0.0531  0.3478  0.0317
 4452TIP3    H113362   2.063   4.279   0.316 -0.3635  1.5673 -0.8564
 4452TIP3    H213363   2.039   4.277   0.465 -2.7122 -0.0595 -1.2078
 4453TIP3   OH213364   2.518   2.054   5.055 -0.0313 -0.1067  0.3638
 4453TIP3    H113365   2.531   2.051   5.150 -2.5285 -1.1637  0.7660
 4453TIP3    H213366   2.603   2.031   5.018  1.0892  0.6155  2.3123
 4454TIP3   OH213367   2.066   2.971   0.294  0.3516 -0.1789 -0.9885
 4454TIP3    H113368   2.155   2.967   0.258 -0.0439  2.5310 -2.4592
 4454TIP3    H213369   2.079   2.995   0.386  1.1414  0.9291 -1.3727
 4455TIP3   OH213370   0.252   5.102   4.407 -0.0144 -0.4465 -0.3741
 4455TIP3    H113371   0.233   5.009   4.410  0.2122 -0.5226 -1.1072
 4455TIP3    H213372   0.166   5.145   4.406 -0.1303 -0.5792  1.2884
 4456TIP3   OH213373   3.530   1.182   1.280 -0.2472  0.2360 -0.1935
 4456TIP3    H113374   3.517   1.122   1.354 -1.8110 -1.7034 -1.9127
 4456TIP3    H213375   3.523   1.269   1.319  0.5164 -0.6602  2.1642
 4457TIP3   OH213376   4.010   3.891   1.606 -0.0752 -0.0634 -0.2925
 4457TIP3    H113377   3.995   3.867   1.698  0.2140  2.0063  0.3571
 4457TIP3    H213378   3.933   3.858   1.560  0.4728 -2.4600  0.3874
 4458TIP3   OH213379   0.274   3.973   3.374 -0.0849 -0.0985  0.4868
 4458TIP3    H113380   0.222   4.053   3.383 -3.3365 -1.9532 -0.1919
 4458TIP3    H213381   0.293   3.967   3.281  0.3350 -0.0363  0.5668
 4459TIP3   OH213382   6.305   4.008   0.744  0.5679 -0.5615 -0.2100
 4459TIP3    H113383   6.313   3.954   0.665  0.2243  0.2231 -0.7926
 4459TIP3    H213384   6.308   3.945   0.816  2.5274 -1.1597 -0.7505
 4460TIP3   OH213385   0.861   1.983   4.712  0.1989 -0.2085 -0.0416
 4460TIP3    H113386   0.839   2.069   4.675 -0.4515 -1.0931 -1.8368
 4460TIP3    H213387   0.778   1.949   4.745  0.5611  0.0665  1.1998
 4461TIP3   OH213388   1.733   4.796   2.417  0.3860  0.3375 -0.2150
 4461TIP3    H113389   1.640   4.787   2.438  0.3599 -1.2366 -0.8643
 4461TIP3    H213390   1.768   4.708   2.429  1.3562  0.4372 -2.0120
 4462TIP3   OH213391   1.972   1.282   4.348  0.3797  0.0311  1.0224
 4462TIP3    H113392   1.896   1.318   4.302  0.2920 -2.2262 -0.8066
 4462TIP3    H213393   1.948   1.285   4.440 -2.5927 -1.7880  0.4475
 4463TIP3   OH213394   1.122   3.595   3.504 -0.3116 -0.0704  0.0409
 4463TIP3    H113395   1.027   3.583   3.512 -0.0562 -2.3481  0.3896
 4463TIP3    H213396   1.133   3.638   3.419 -1.6832  1.2663  0.4947
 4464TIP3   OH213397   4.135   2.953   1.821 -0.0566 -0.5284 -0.4369
 4464TIP3    H113398   4.180   2.875   1.789  0.5430 -0.1403 -0.5549
 4464TIP3    H213399   4.184   2.979   1.899 -1.3897 -1.3482  0.7144
 4465TIP3   OH213400   0.679   0.578   3.475 -1.1176 -0.1313 -0.0536
 4465TIP3    H113401   0.677   0.649   3.539  3.1649  2.7595 -2.6399
 4465TIP3    H213402   0.636   0.615   3.398 -3.2218 -2.3447 -0.0670
 4466TIP3   OH213403  -0.013   1.237   4.108 -0.0124 -0.1489  0.0900
 4466TIP3    H113404   0.009   1.168   4.045  0.4800  1.6161 -1.7643
 4466TIP3    H213405   0.042   1.311   4.083 -1.6932  1.4710  0.9720
 4467TIP3   OH213406   6.020   1.984   3.875 -0.5120 -0.3273  0.1195
 4467TIP3    H113407   6.015   2.043   3.951 -0.1452  1.7117 -1.3727
 4467TIP3    H213408   6.096   2.014   3.826 -3.0117  1.1468 -3.1920
 4468TIP3   OH213409   3.445   0.709   3.230 -0.2666  0.6441  0.0823
 4468TIP3    H113410   3.459   0.615   3.224 -0.4992  0.5486  0.9072
 4468TIP3    H213411   3.532   0.747   3.223 -0.0840  0.3181  0.5011
 4469TIP3   OH213412   5.798   5.511   2.291 -0.0595 -0.0125 -0.2466
 4469TIP3    H113413   5.775   5.426   2.255  0.3778  0.0971 -0.7849
 4469TIP3    H213414   5.868   5.493   2.353 -1.6142 -0.3697  1.5115
 4470TIP3   OH213415   3.363   0.980   0.698  0.0571  0.7824 -0.2344
 4470TIP3    H113416   3.323   1.007   0.781 -0.2939 -0.3279 -0.0169
 4470TIP3    H213417   3.454   1.007   0.706  0.3145 -0.3085  1.0243
 4471TIP3   OH213418   4.553   5.549   0.849  0.3842 -0.2468 -0.5365
 4471TIP3    H113419   4.587   5.469   0.809 -0.9220 -1.1118  0.0292
 4471TIP3    H213420   4.464   5.527   0.876  0.5098  0.9416  0.9977
 4472TIP3   OH213421   0.138   4.948   4.764 -0.4595 -0.7838  0.5288
 4472TIP3    H113422   0.108   4.868   4.807 -3.2166 -0.3061 -0.3071
 4472TIP3    H213423   0.062   4.979   4.716  1.3386  0.8635 -1.4536
 4473TIP3   OH213424   0.079   0.496   0.888 -0.0397  0.7307  0.0955
 4473TIP3    H113425   0.090   0.516   0.981  0.6387  3.0840 -0.4301
 4473TIP3    H213426   0.132   0.417   0.875 -0.9766 -0.2670  1.8626
 4474TIP3   OH213427   0.297   4.374   4.214 -0.2131  0.1142  0.4888
 4474TIP3    H113428   0.391   4.361   4.224 -0.3016 -0.2992  0.7736
 4474TIP3    H213429   0.266   4.398   4.301 -0.6368 -1.4051  0.7873
 4475TIP3   OH213430   3.706   2.052   4.771  0.4789  0.0239 -0.2947
 4475TIP3    H113431   3.631   2.044   4.830 -0.2895  0.2757 -1.2010
 4475TIP3    H213432   3.710   2.145   4.750  0.8947 -0.0260 -0.4450
 4476TIP3   OH213433   5.979   5.042   0.943 -0.2038 -0.6248  0.9188
 4476TIP3    H113434   6.029   5.119   0.915  3.3651 -1.8482  3.1959
 4476TIP3    H213435   5.891   5.076   0.961  0.6330  2.4609 -0.1720
 4477TIP3   OH213436   3.641   0.910   3.281  0.2926 -0.4738 -0.2971
 4477TIP3    H113437   3.621   0.998   3.313  1.2306  0.0745 -1.1346
 4477TIP3    H213438   3.709   0.877   3.341  0.4663 -0.3245 -0.4089
 4478TIP3   OH213439   2.008   0.038   3.551 -0.0905 -0.3266 -0.6780
 4478TIP3    H113440   1.918   0.006   3.559  0.3024 -1.1690  0.7638
 4478TIP3    H213441   2.057  -0.037   3.516  0.2161 -0.1653 -0.6019
 4479TIP3   OH213442   0.639   2.934   4.151 -0.4280  0.1238 -0.0963
 4479TIP3    H113443   0.593   2.882   4.085 -0.1254 -1.8534  1.2050
 4479TIP3    H213444   0.711   2.975   4.103 -1.3381  0.3113 -1.3721
 4480TIP3   OH213445   4.377   2.115   0.305 -0.1495 -0.0862  0.6151
 4480TIP3    H113446   4.343   2.064   0.231 -0.4136  1.7701 -0.5951
 4480TIP3    H213447   4.440   2.175   0.265  2.0093 -1.0429  2.3338
 4481TIP3   OH213448   4.123   1.721   1.423  0.4987  0.0554  0.4994
 4481TIP3    H113449   4.047   1.772   1.453 -0.2511  0.9570 -2.4910
 4481TIP3    H213450   4.194   1.785   1.417  0.6552 -0.1207  0.4684
 4482TIP3   OH213451   6.151   1.434   4.723  0.4229 -0.0790 -0.7393
 4482TIP3    H113452   6.102   1.355   4.703  0.7479 -0.2953 -0.6887
 4482TIP3    H213453   6.128   1.496   4.654  1.3484 -0.7282 -1.6422
 4483TIP3   OH213454   5.191   1.191   0.565  0.3159 -0.4186  0.6609
 4483TIP3    H113455   5.219   1.205   0.475  0.4639  0.4248  0.8290
 4483TIP3    H213456   5.143   1.109   0.563  1.5460 -1.1507  0.0807
 4484TIP3   OH213457   2.243   1.259   4.211 -0.8319  0.0274 -0.2649
 4484TIP3    H113458   2.226   1.234   4.302 -0.8565  1.2434  0.0861
 4484TIP3    H213459   2.160   1.247   4.166 -0.9917  0.0396  0.0267
 4485TIP3   OH213460   4.799   5.051   5.004  0.3649 -0.3013 -0.2388
 4485TIP3    H113461   4.808   4.996   5.082 -1.3641 -2.5367 -1.5025
 4485TIP3    H213462   4.816   4.991   4.931  0.4567  1.3793 -1.6434
 4486TIP3   OH213463   2.663   0.766   3.386  0.1403  0.3366 -0.4318
 4486TIP3    H113464   2.614   0.838   3.346  0.7865  0.0572 -1.7711
 4486TIP3    H213465   2.595   0.712   3.427 -0.4849  0.9620 -0.6127
 4487TIP3   OH213466   4.804   2.968   2.245 -0.8650 -0.6751  0.6415
 4487TIP3    H113467   4.887   2.931   2.215 -1.1501 -0.6138 -0.2309
 4487TIP3    H213468   4.775   3.024   2.174 -0.9068  0.5158  1.5735
 4488TIP3   OH213469   4.531   3.814   3.623 -0.3289  0.5064 -0.5978
 4488TIP3    H113470   4.468   3.805   3.694  0.3047 -2.6950 -0.2908
 4488TIP3    H213471   4.564   3.904   3.630 -1.6277  0.8564  1.9425
 4489TIP3   OH213472   5.602   5.061   4.474  0.0344  0.3395  0.3732
 4489TIP3    H113473   5.645   4.978   4.492 -0.6719  0.0197  0.6153
 4489TIP3    H213474   5.567   5.090   4.558 -0.2274  0.5878  0.1843
 4490TIP3   OH213475   4.880   1.902   4.202  0.1173 -0.5910  0.7187
 4490TIP3    H113476   4.819   1.929   4.134 -0.0081  1.2942  1.5333
 4490TIP3    H213477   4.939   1.840   4.159 -0.2398  0.2067 -0.9657
 4491TIP3   OH213478   4.419   4.190   3.376 -0.0356 -0.0834 -0.1926
 4491TIP3    H113479   4.513   4.203   3.363 -0.1646  1.0282 -0.0564
 4491TIP3    H213480   4.410   4.096   3.390  1.4638  0.1505  3.2181
 4492TIP3   OH213481   4.749   5.357   4.033 -0.5978  0.0587  0.5576
 4492TIP3    H113482   4.744   5.323   3.943  0.4535 -2.2171  1.2705
 4492TIP3    H213483   4.776   5.281   4.085 -3.1612  0.7389  3.1495
 4493TIP3   OH213484   4.471   5.446   5.113 -0.1506  0.3561 -0.0509
 4493TIP3    H113485   4.514   5.382   5.055  0.8413  0.1663  0.8639
 4493TIP3    H213486   4.508   5.428   5.199 -0.5374  1.5802  0.3830
 4494TIP3   OH213487   5.580   2.509   0.660  0.6299 -0.3111  0.5725
 4494TIP3    H113488   5.520   2.583   0.649  1.0507  0.0020  0.3776
 4494TIP3    H213489   5.547   2.443   0.599 -0.0491 -0.4845  1.1102
 4495TIP3   OH213490   3.617   4.737   1.005  0.3946 -0.3972  0.4696
 4495TIP3    H113491   3.542   4.724   1.063  0.3460  1.0551  0.7472
 4495TIP3    H213492   3.580   4.770   0.923  0.6608 -0.4705  0.3159
 4496TIP3   OH213493   2.494   3.417   2.965 -0.1532 -0.3596 -0.3089
 4496TIP3    H113494   2.550   3.342   2.944 -0.5307 -0.4552 -1.0240
 4496TIP3    H213495   2.540   3.492   2.928  0.2435 -0.2271  0.4414
 4497TIP3   OH213496   4.792   5.518   2.442  0.1742  0.2178 -0.1085
 4497TIP3    H113497   4.735   5.498   2.368 -0.9775  0.6942  0.6193
 4497TIP3    H213498   4.811   5.612   2.432 -0.0859  0.3108  0.2587
 4498TIP3   OH213499   5.382   5.859   3.328  0.3180 -0.3950 -0.4355
 4498TIP3    H113500   5.308   5.822   3.376 -0.3572 -0.4635 -1.4876
 4498TIP3    H213501   5.432   5.782   3.299  0.6260 -0.3611  0.0042
 4499TIP3   OH213502   1.414   3.685   4.820  0.3033 -0.1504  0.9506
 4499TIP3    H113503   1.476   3.716   4.887  2.1249 -0.6596 -0.4147
 4499TIP3    H213504   1.470   3.645   4.753 -1.5832 -1.2041 -0.0597
 4500TIP3   OH213505   2.573   3.218   4.786 -0.4965  0.2367 -0.3613
 4500TIP3    H113506   2.664   3.244   4.799 -1.0066  1.4168  1.1252
 4500TIP3    H213507   2.571   3.125   4.809 -0.0289  0.6772  1.6631
 4501TIP3   OH213508   3.703   1.991   0.994 -0.1760 -0.3735 -0.7020
 4501TIP3    H113509   3.762   1.922   1.024 -0.1212 -1.0247 -2.2269
 4501TIP3    H213510   3.757   2.070   0.990  0.0317 -0.4790  0.0123
 4502TIP3   OH213511   0.233   4.478   4.531 -0.0243  0.0434  0.8684
 4502TIP3    H113512   0.312   4.524   4.502 -0.1504  0.1902  0.7554
 4502TIP3    H213513   0.254   4.447   4.619  0.1320  0.1490  0.8681
 4503TIP3   OH213514   3.824   4.413   2.812 -0.3411 -0.1368 -0.6286
 4503TIP3    H113515   3.763   4.473   2.771 -2.0999 -0.1251  1.8041
 4503TIP3    H213516   3.775   4.332   2.823  0.0962 -0.2036  1.1566
 4504TIP3   OH213517   1.054   4.303   1.406  0.4639 -0.4230  0.0426
 4504TIP3    H113518   1.094   4.389   1.411  1.1763 -0.7344 -0.1513
 4504TIP3    H213519   0.987   4.303   1.475  1.0877 -0.0410  0.6598
 4505TIP3   OH213520   4.322   2.747   2.735  0.2968  0.1485 -0.1794
 4505TIP3    H113521   4.376   2.778   2.662 -0.1458  1.0000 -0.1474
 4505TIP3    H213522   4.253   2.812   2.744 -1.1445 -1.2388 -0.6389
 4506TIP3   OH213523   2.142   1.887   3.541 -0.2021 -0.5939  0.0253
 4506TIP3    H113524   2.104   1.964   3.500 -0.5497  0.9094  2.9480
 4506TIP3    H213525   2.235   1.890   3.516 -0.7055 -0.7959 -2.0381
 4507TIP3   OH213526   3.368   3.348   4.824  0.2480  0.3389 -0.7115
 4507TIP3    H113527   3.329   3.261   4.815 -3.1771  1.4897  1.3651
 4507TIP3    H213528   3.394   3.354   4.916 -1.2796  2.0673 -0.3270
 4508TIP3   OH213529   2.639   5.417   0.942  0.7114 -0.1347 -0.4879
 4508TIP3    H113530   2.585   5.353   0.988 -0.7631  1.2593 -0.1691
 4508TIP3    H213531   2.677   5.369   0.868  0.6531 -1.6471  0.4237
 4509TIP3   OH213532   2.689   2.350   3.231 -0.3208  0.4099  0.3124
 4509TIP3    H113533   2.672   2.369   3.323  0.4803  0.5066  0.4556
 4509TIP3    H213534   2.712   2.257   3.230  0.0712  0.5049  0.2770
 4510TIP3   OH213535   2.781   5.421   1.334  0.1246 -0.1829  0.2220
 4510TIP3    H113536   2.698   5.404   1.379  0.6864  0.2865  1.4776
 4510TIP3    H213537   2.775   5.513   1.307  0.1254 -0.2291  0.0649
 4511TIP3   OH213538   0.799   0.931   3.011  0.3076  0.2928  0.1215
 4511TIP3    H113539   0.880   0.948   3.059  0.8405  0.7423 -0.9082
 4511TIP3    H213540   0.733   0.982   3.058  0.2546 -1.2942  1.9195
 4512TIP3   OH213541   3.056   0.690   0.443 -0.0351 -0.1256 -0.3971
 4512TIP3    H113542   3.077   0.651   0.358 -0.7362 -1.6569  0.1125
 4512TIP3    H213543   2.997   0.763   0.421  0.3707 -0.0354 -1.2609
 4513TIP3   OH213544   3.798   3.313   1.072 -0.0173  0.2971 -0.0726
 4513TIP3    H113545   3.786   3.232   1.122  2.9443 -0.0985  0.1748
 4513TIP3    H213546   3.811   3.380   1.138  0.8540  0.3443 -0.2855
 4514TIP3   OH213547   0.746   5.071   1.415  0.0538 -0.1598  0.0031
 4514TIP3    H113548   0.797   5.148   1.389  1.2191 -0.5791  0.9554
 4514TIP3    H213549   0.721   5.087   1.506  1.2346 -1.3472  0.5708
 4515TIP3   OH213550   1.175   2.806   1.232  0.3349 -0.7236  0.2854
 4515TIP3    H113551   1.240   2.875   1.221  0.2674 -0.5501  0.9413
 4515TIP3    H213552   1.090   2.851   1.225  0.2789 -0.4663  2.1846
 4516TIP3   OH213553   1.445   4.505   3.364  0.3195  0.7161 -0.4819
 4516TIP3    H113554   1.487   4.550   3.437 -0.3756  0.4422  0.0931
 4516TIP3    H213555   1.500   4.526   3.288  1.0931  0.9279  0.1320
 4517TIP3   OH213556   0.201   3.872   0.281  0.1127  0.0292  0.4284
 4517TIP3    H113557   0.198   3.960   0.320 -0.1474  0.8968 -1.4581
 4517TIP3    H213558   0.118   3.832   0.307 -0.2224  0.7226  0.4405
 4518TIP3   OH213559   5.038   4.074   5.054 -0.3096  0.5361  0.1887
 4518TIP3    H113560   5.072   4.161   5.073  0.9797 -0.1915  1.4630
 4518TIP3    H213561   5.086   4.046   4.976  2.0625 -0.4084  1.8647
 4519TIP3   OH213562   1.101   0.861   2.418 -0.3260  0.8302 -0.0970
 4519TIP3    H113563   1.061   0.924   2.477 -1.9857 -0.4351  0.2048
 4519TIP3    H213564   1.033   0.796   2.402  1.3063 -0.9138 -0.3720
 4520TIP3   OH213565   1.702   4.703   1.356 -0.0643 -0.1605 -0.4965
 4520TIP3    H113566   1.749   4.780   1.324 -0.5580  0.3483 -0.0141
 4520TIP3    H213567   1.637   4.738   1.417 -0.6287 -0.9090 -0.6532
 4521TIP3   OH213568   1.321   3.128   1.766  0.1278  0.2484 -0.1655
 4521TIP3    H113569   1.247   3.129   1.826 -2.0560  2.4822 -2.6404
 4521TIP3    H213570   1.319   3.041   1.726 -0.1552 -0.2545  0.9214
 4522TIP3   OH213571   5.714   5.914   5.099 -0.0476  0.4198  0.5173
 4522TIP3    H113572   5.724   5.846   5.165  1.0890  0.2636  0.2002
 4522TIP3    H213573   5.802   5.926   5.062 -0.3607  1.5660  0.0813
 4523TIP3   OH213574   2.624   0.146   2.322 -0.4062 -0.2123 -0.6128
 4523TIP3    H113575   2.633   0.211   2.392  0.3551  2.8282 -3.2572
 4523TIP3    H213576   2.714   0.116   2.305 -0.5754 -0.8837 -0.3381
 4524TIP3   OH213577   0.432   4.651   1.887  0.2914  0.4676  0.4666
 4524TIP3    H113578   0.350   4.627   1.845  0.3130  1.6057 -0.2589
 4524TIP3    H213579   0.406   4.685   1.973  0.0204  0.6812  0.2986
 4525TIP3   OH213580   1.599   1.035   3.980 -0.5763  0.3915  0.1195
 4525TIP3    H113581   1.570   0.954   3.937  1.4621  1.4949 -3.8159
 4525TIP3    H213582   1.684   1.014   4.017 -0.7465  0.3541  0.4933
 4526TIP3   OH213583   5.043   3.616   3.938  0.6883  0.1217 -0.1212
 4526TIP3    H113584   5.030   3.608   3.844  1.6430 -1.7265 -0.1432
 4526TIP3    H213585   4.955   3.629   3.974  0.3965  1.7043 -1.2885
 4527TIP3   OH213586   1.285   5.237   2.227 -0.3814 -0.3772  0.1474
 4527TIP3    H113587   1.268   5.329   2.208 -0.2189 -0.0056  1.6955
 4527TIP3    H213588   1.367   5.218   2.182 -1.3630 -0.3448 -1.8104
 4528TIP3   OH213589   1.117   1.574   0.644 -0.4556 -0.4657 -0.3787
 4528TIP3    H113590   1.197   1.550   0.692  0.3106  0.3461 -1.2135
 4528TIP3    H213591   1.048   1.571   0.710  0.2331 -1.2978  0.3387
 4529TIP3   OH213592   1.019   3.239   1.122  0.0739  0.1513  0.2501
 4529TIP3    H113593   1.077   3.178   1.075 -0.5054  0.9417 -1.5927
 4529TIP3    H213594   0.943   3.186   1.145  0.4946 -0.3253  0.5763
 4530TIP3   OH213595   5.486   4.354   0.639  0.0136  0.3287  0.1819
 4530TIP3    H113596   5.511   4.446   0.625 -0.8548  1.0768  2.9670
 4530TIP3    H213597   5.549   4.321   0.703  1.2694 -1.5802 -1.9018
 4531TIP3   OH213598   3.674   3.924   1.663  0.9568  0.6997 -0.5826
 4531TIP3    H113599   3.597   3.893   1.710  0.8821 -2.8374 -2.6157
 4531TIP3    H213600   3.747   3.905   1.722  0.6316 -1.0149 -0.6572
 4532TIP3   OH213601   1.072   5.091   2.076 -0.2416  0.4740 -0.3121
 4532TIP3    H113602   1.035   5.024   2.133 -0.6997 -0.4055 -1.5849
 4532TIP3    H213603   1.133   5.140   2.132 -0.2096 -0.7315  0.7488
 4533TIP3   OH213604   4.234   5.417   3.560  0.5846 -0.8235 -0.0185
 4533TIP3    H113605   4.160   5.462   3.522  0.9839  0.5267  0.7410
 4533TIP3    H213606   4.302   5.420   3.493  1.1861  1.2817  0.6174
 4534TIP3   OH213607   5.756   4.381   1.805  0.0501  0.1693  0.7394
 4534TIP3    H113608   5.696   4.340   1.868 -0.3662 -0.0472  0.2125
 4534TIP3    H213609   5.806   4.308   1.769 -1.4428 -0.0737 -1.0004
 4535TIP3   OH213610   5.059   2.351   2.008  0.1208  0.1564  0.3613
 4535TIP3    H113611   4.997   2.331   1.938 -1.4378  2.2112  1.0292
 4535TIP3    H213612   5.034   2.439   2.036  2.8674  0.7401  1.2344
 4536TIP3   OH213613   5.648   2.934   3.496  0.4818  0.0151  0.1225
 4536TIP3    H113614   5.707   2.870   3.457  0.9230  0.1064  0.6349
 4536TIP3    H213615   5.677   2.942   3.586 -0.9267 -0.6901  0.6806
 4537TIP3   OH213616   2.945   5.319   0.239  0.1528  0.3895 -0.1255
 4537TIP3    H113617   3.028   5.293   0.279  0.8041  1.0973 -0.9922
 4537TIP3    H213618   2.911   5.238   0.202  0.2974  0.0334  0.4907
 4538TIP3   OH213619   2.290   5.187   1.618 -0.0306  0.0571  0.2022
 4538TIP3    H113620   2.259   5.235   1.541 -0.0651 -0.5084 -0.1421
 4538TIP3    H213621   2.266   5.243   1.692  0.8117  1.0512 -0.2348
 4539TIP3   OH213622   0.341   2.541   0.249 -0.1610 -0.6986 -0.1576
 4539TIP3    H113623   0.384   2.585   0.175 -0.9611 -0.0807 -0.2738
 4539TIP3    H213624   0.338   2.449   0.224 -0.6321 -0.4633 -1.0065
 4540TIP3   OH213625   1.832   3.534   4.866 -0.6812  0.4370 -0.5039
 4540TIP3    H113626   1.908   3.557   4.920 -0.9101 -1.5292  0.7437
 4540TIP3    H213627   1.847   3.579   4.783 -0.0652  3.1625  0.9747
 4541TIP3   OH213628   4.041   2.468   3.369  0.3484 -0.1531  0.1576
 4541TIP3    H113629   3.991   2.519   3.306 -0.7783  0.4768  1.5188
 4541TIP3    H213630   4.109   2.426   3.317 -0.1237  0.8884 -1.3561
 4542TIP3   OH213631   0.304   1.954   4.605 -0.4674 -0.4542 -0.3284
 4542TIP3    H113632   0.273   1.957   4.696 -2.6924 -0.4029 -1.0342
 4542TIP3    H213633   0.323   1.862   4.589  1.5435 -0.2787  0.6157
 4543TIP3   OH213634   5.393   4.992   0.201  0.1092 -0.6615  0.2052
 4543TIP3    H113635   5.300   4.993   0.224  0.2899 -2.4639  1.2354
 4543TIP3    H213636   5.402   4.921   0.138  0.8953 -1.0365  0.7176
 4544TIP3   OH213637   3.688   0.143   1.574  0.3344 -0.2035  0.3331
 4544TIP3    H113638   3.735   0.225   1.588  0.8898 -0.0616 -1.9938
 4544TIP3    H213639   3.631   0.160   1.499  0.6234 -1.9853 -0.3451
 4545TIP3   OH213640   0.912   0.975   5.152 -0.5378  0.2258  0.9585
 4545TIP3    H113641   0.900   1.048   5.212 -1.4617  1.3033 -0.4555
 4545TIP3    H213642   0.829   0.926   5.156 -0.7164  0.4729  0.3582
 4546TIP3   OH213643   1.178   2.732   0.173  0.7239  0.1755  0.0025
 4546TIP3    H113644   1.227   2.808   0.204  1.2861  0.0450 -0.5340
 4546TIP3    H213645   1.238   2.658   0.186  1.6201  0.3053 -2.7307
 4547TIP3   OH213646   4.466   3.505   2.369 -0.0883  0.1294  0.4405
 4547TIP3    H113647   4.402   3.564   2.408 -1.1479  0.4245 -1.6392
 4547TIP3    H213648   4.534   3.563   2.334  0.0260 -0.0396  0.3804
 4548TIP3   OH213649   5.624   4.766   2.867 -0.1685 -0.1670  0.4665
 4548TIP3    H113650   5.544   4.810   2.838  0.4613  1.8951  1.6583
 4548TIP3    H213651   5.690   4.793   2.804 -0.1588 -0.9889  0.1117
 4549TIP3   OH213652   4.167   0.074   3.592 -0.1905  0.8434 -0.2404
 4549TIP3    H113653   4.249   0.092   3.547 -0.4737  0.0832 -1.0849
 4549TIP3    H213654   4.167   0.133   3.667  1.1372  0.8313 -0.2160
 4550TIP3   OH213655   1.999   4.999   2.449  0.2641  0.4006  0.1112
 4550TIP3    H113656   1.925   4.974   2.504 -0.3544  1.1322 -0.3598
 4550TIP3    H213657   1.974   4.970   2.361  0.0793  1.5094 -0.2243
 4551TIP3   OH213658   3.328   4.572   2.570 -0.5958 -0.1733 -0.2952
 4551TIP3    H113659   3.401   4.523   2.608 -1.4907 -0.2960  1.3764
 4551TIP3    H213660   3.279   4.603   2.646 -2.2859 -0.1148 -1.3743
 4552TIP3   OH213661   5.801   0.966   2.023 -0.5507  0.6128  0.3173
 4552TIP3    H113662   5.837   0.918   1.949  0.7458  1.5598  0.3020
 4552TIP3    H213663   5.711   0.932   2.032 -0.8644  0.7077 -1.8726
 4553TIP3   OH213664   0.921   2.683   1.457 -0.3305  0.2627 -0.1649
 4553TIP3    H113665   1.007   2.689   1.499 -1.1544  1.1121  1.5040
 4553TIP3    H213666   0.915   2.593   1.427  0.4793 -0.2747  1.2009
 4554TIP3   OH213667   5.437   1.564   0.953  0.2195 -0.6479 -0.0057
 4554TIP3    H113668   5.438   1.470   0.975 -1.7280  0.0094  3.6364
 4554TIP3    H213669   5.519   1.597   0.987 -1.1651 -0.3216  3.3691
 4555TIP3   OH213670   2.543   4.871   3.311 -0.3881  0.2982  0.7686
 4555TIP3    H113671   2.533   4.792   3.257 -4.4808  0.7090  0.6465
 4555TIP3    H213672   2.504   4.847   3.395  2.5013  0.8671  2.3835
 4556TIP3   OH213673   0.040   2.379   3.780 -0.0332  0.2237  0.6057
 4556TIP3    H113674   0.075   2.451   3.831  0.4867  0.4118 -0.0040
 4556TIP3    H213675   0.009   2.316   3.845  0.7084  0.4090  1.1514
 4557TIP3   OH213676   0.824   5.935   0.242 -0.1176  0.2746  0.6254
 4557TIP3    H113677   0.858   5.856   0.199 -0.0759  0.8819 -0.4805
 4557TIP3    H213678   0.901   5.973   0.285  0.3286  0.8733 -0.6709
 4558TIP3   OH213679   6.130   4.476   2.460 -0.3004 -0.3375 -0.5163
 4558TIP3    H113680   6.047   4.462   2.505 -0.3135 -0.5035 -0.5929
 4558TIP3    H213681   6.191   4.502   2.530 -0.7365  1.1373 -0.6394
 4559TIP3   OH213682   3.257   5.601   3.375 -0.0536 -0.4049  0.1664
 4559TIP3    H113683   3.231   5.512   3.399 -0.3725 -0.3156  0.1592
 4559TIP3    H213684   3.327   5.623   3.437  1.4006 -1.3804 -1.0666
 4560TIP3   OH213685   6.080   1.066   2.274 -0.1993 -0.3064 -0.3281
 4560TIP3    H113686   5.987   1.051   2.290 -0.0270 -1.6881 -0.4968
 4560TIP3    H213687   6.112   1.108   2.355 -0.9129 -0.0058 -0.1954
 4561TIP3   OH213688   0.667   1.400   2.505  0.5193  0.0254 -0.2280
 4561TIP3    H113689   0.654   1.447   2.422  1.1059  0.4832 -0.0759
 4561TIP3    H213690   0.760   1.375   2.503  0.5923  0.2294  0.3795
 4562TIP3   OH213691   0.064   1.338   3.242 -0.4425  0.3706 -0.3856
 4562TIP3    H113692   0.112   1.402   3.189 -0.2284  0.4469 -0.1010
 4562TIP3    H213693   0.072   1.256   3.193 -0.8246  0.5871 -0.8130
 4563TIP3   OH213694   0.345   0.866   1.826  0.5529  0.0834 -0.5896
 4563TIP3    H113695   0.428   0.847   1.869  0.7390  0.3152 -0.8454
 4563TIP3    H213696   0.346   0.810   1.748 -0.4027 -1.4028  0.4227
 4564TIP3   OH213697   5.105   4.412   1.793  0.0999 -0.2374 -0.1513
 4564TIP3    H113698   5.064   4.364   1.864 -1.9201  1.2940 -0.2146
 4564TIP3    H213699   5.059   4.382   1.714 -0.5251  1.0564 -0.2966
 4565TIP3   OH213700   0.993   0.192   1.085  0.1745 -0.3849  0.5868
 4565TIP3    H113701   0.935   0.124   1.050  0.2523 -0.0795 -0.1498
 4565TIP3    H213702   1.029   0.154   1.165  0.5186 -1.3599 -0.0189
 4566TIP3   OH213703   4.229   0.273   0.178 -0.1130 -0.0507  0.3820
 4566TIP3    H113704   4.299   0.222   0.137  0.9043  0.0224  1.9398
 4566TIP3    H213705   4.212   0.344   0.117  1.6513  0.2993  0.2441
 4567TIP3   OH213706   3.145   0.652   0.192  0.1832 -0.1569 -0.1097
 4567TIP3    H113707   3.235   0.648   0.225  0.3609  0.1406 -0.5525
 4567TIP3    H213708   3.154   0.645   0.097 -0.3947 -2.1913 -0.0610
 4568TIP3   OH213709   0.545   3.680   0.238 -0.2175  0.3041  0.1236
 4568TIP3    H113710   0.487   3.673   0.314 -0.0814  0.6764  0.2662
 4568TIP3    H213711   0.543   3.594   0.198  0.5118 -0.2213  1.1519
 4569TIP3   OH213712   0.416   5.098   2.413 -0.0488 -0.4890  0.5529
 4569TIP3    H113713   0.400   5.192   2.404 -0.2184 -0.4622  1.1107
 4569TIP3    H213714   0.466   5.075   2.335  1.2162  0.3325  1.0763
 4570TIP3   OH213715   5.125   1.498   2.985  0.5059 -0.3165 -0.0071
 4570TIP3    H113716   5.035   1.524   2.965 -0.1702 -1.8704  0.8289
 4570TIP3    H213717   5.167   1.578   3.015 -0.8118  0.2939  0.2843
 4571TIP3   OH213718   1.631   0.848   3.283 -0.2798  0.1563 -0.0338
 4571TIP3    H113719   1.552   0.889   3.320  0.7921  1.2388  1.1821
 4571TIP3    H213720   1.703   0.902   3.316  1.0247 -1.1786 -0.5889
 4572TIP3   OH213721   4.492   5.883   1.798  0.2080  0.3517 -0.4361
 4572TIP3    H113722   4.566   5.937   1.771 -0.8574  1.6195 -0.9130
 4572TIP3    H213723   4.453   5.931   1.871  0.1990 -0.6249  0.2250
 4573TIP3   OH213724   0.494   0.250   2.180  0.1811  0.6661 -0.0712
 4573TIP3    H113725   0.480   0.160   2.209 -0.5558  0.0344 -2.1999
 4573TIP3    H213726   0.509   0.300   2.260 -0.8221 -1.0934  1.2584
 4574TIP3   OH213727   4.835   3.966   3.283  0.2331 -0.0230  0.6004
 4574TIP3    H113728   4.927   3.942   3.279  0.0174 -0.7168 -0.5830
 4574TIP3    H213729   4.788   3.887   3.255 -0.6878  0.5493  0.4756
 4575TIP3   OH213730   5.713   1.341   1.494  0.1855  0.4872 -0.3515
 4575TIP3    H113731   5.776   1.332   1.423  0.0320 -2.5624 -0.2346
 4575TIP3    H213732   5.636   1.382   1.453  0.4267 -0.3910 -1.7440
 4576TIP3   OH213733   1.277   3.339   1.129 -0.2111 -0.7403  0.0590
 4576TIP3    H113734   1.195   3.313   1.089 -1.3858  1.5694  0.7954
 4576TIP3    H213735   1.268   3.314   1.221  0.6936 -2.0988 -0.1923
 4577TIP3   OH213736   3.756   3.593   1.672 -0.2755  0.8690  0.3178
 4577TIP3    H113737   3.812   3.631   1.740  0.2487  0.9323 -0.1343
 4577TIP3    H213738   3.786   3.635   1.591 -0.3895  0.2590 -0.0480
 4578TIP3   OH213739   5.718   3.385   5.027  0.0995  0.4016  0.4628
 4578TIP3    H113740   5.669   3.304   5.014 -0.0759  0.4515  0.7907
 4578TIP3    H213741   5.803   3.368   4.986 -0.4162  0.5647 -0.7209
 4579TIP3   OH213742   5.937   1.170   0.626 -0.0767  0.4678 -0.1565
 4579TIP3    H113743   5.912   1.261   0.612  0.1330  0.5928  0.2796
 4579TIP3    H213744   5.853   1.123   0.633 -0.1873  0.5626 -0.7506
 4580TIP3   OH213745   3.899   5.859   1.176  0.3026 -0.2108  0.3442
 4580TIP3    H113746   3.852   5.922   1.231  0.0869 -0.0027 -0.0708
 4580TIP3    H213747   3.988   5.895   1.168 -0.0019  0.4148 -0.4507
 4581TIP3   OH213748   4.655   4.546   2.724 -0.2055 -0.4327  0.1669
 4581TIP3    H113749   4.605   4.466   2.743 -0.6740 -0.4079 -0.8756
 4581TIP3    H213750   4.608   4.586   2.651 -0.7140  1.4531  1.4547
 4582TIP3   OH213751   5.166   1.288   4.376  0.1432  0.2503 -0.0471
 4582TIP3    H113752   5.212   1.315   4.297  0.4763  1.9996  0.7060
 4582TIP3    H213753   5.223   1.314   4.448 -0.7790 -0.0424  0.8211
 4583TIP3   OH213754   5.731   3.081   2.028  0.1146 -0.2025 -0.3285
 4583TIP3    H113755   5.708   3.170   2.000 -0.7160 -0.0588  0.7232
 4583TIP3    H213756   5.725   3.084   2.123 -1.2298 -1.6964 -0.3139
 4584TIP3   OH213757   2.972   4.768   0.504  0.0126 -0.2788  0.0863
 4584TIP3    H113758   2.969   4.676   0.480 -0.5302 -0.5875  1.3169
 4584TIP3    H213759   2.922   4.775   0.585  0.7356  0.9559  0.4623
 4585TIP3   OH213760   2.696   3.216   2.500  0.6836 -0.0395 -0.3884
 4585TIP3    H113761   2.621   3.272   2.482 -1.0699 -2.2466 -0.2329
 4585TIP3    H213762   2.755   3.230   2.426  0.0521  1.5470 -0.6232
 4586TIP3   OH213763   2.938   1.217   1.519 -0.8485  0.4859 -0.2135
 4586TIP3    H113764   2.944   1.305   1.557 -0.5839  0.3647  0.0302
 4586TIP3    H213765   3.029   1.191   1.505 -0.8382 -0.3990  1.2291
 4587TIP3   OH213766   1.014   5.514   4.413  0.3173 -0.0702  0.1326
 4587TIP3    H113767   1.061   5.594   4.437  0.4452 -0.1306  0.0902
 4587TIP3    H213768   1.038   5.451   4.481  0.4081 -0.1418  0.0350
 4588TIP3   OH213769   0.899   0.438   4.795 -0.0726 -0.2143  0.0854
 4588TIP3    H113770   0.905   0.520   4.844  1.0809 -0.2089 -0.0304
 4588TIP3    H213771   0.988   0.403   4.797 -0.7788 -2.0456  1.0821
 4589TIP3   OH213772   4.524   4.876   0.505  0.1634  0.3879  0.5186
 4589TIP3    H113773   4.480   4.862   0.421  1.5978 -0.5571 -0.1058
 4589TIP3    H213774   4.485   4.811   0.563  0.7133 -0.4288 -0.0211
 4590TIP3   OH213775   1.174   0.692   0.443 -0.2017  0.1466 -0.0353
 4590TIP3    H113776   1.162   0.749   0.519  1.7808 -2.0524  2.1013
 4590TIP3    H213777   1.267   0.702   0.421 -0.7068  0.6129 -2.1527
 4591TIP3   OH213778   4.640   5.031   0.689  0.0552 -0.0232  0.1790
 4591TIP3    H113779   4.672   4.979   0.763 -3.0588 -1.2940  0.8040
 4591TIP3    H213780   4.617   4.966   0.623  1.2273  0.9929 -1.2868
 4592TIP3   OH213781   0.948   1.956   2.375 -0.6201  0.0767  0.6126
 4592TIP3    H113782   1.012   1.895   2.337 -0.6272  1.2786 -1.5356
 4592TIP3    H213783   0.966   2.039   2.330 -2.3557  0.9613  1.4759
 4593TIP3   OH213784   3.555   3.581   3.893  0.4408  0.2047 -0.2651
 4593TIP3    H113785   3.594   3.652   3.944  0.3445  1.5435 -2.0024
 4593TIP3    H213786   3.468   3.612   3.870  0.6103 -0.2111 -1.5435
 4594TIP3   OH213787   1.084   3.595   2.440 -0.4231 -0.1304  0.1852
 4594TIP3    H113788   1.058   3.665   2.500  0.5798  0.3376  0.0986
 4594TIP3    H213789   1.029   3.607   2.363 -1.1321 -0.2155  0.6694
 4595TIP3   OH213790   0.659   3.123   0.543  0.2312 -0.1740 -0.1727
 4595TIP3    H113791   0.680   3.108   0.451  0.0395 -0.8385 -0.1162
 4595TIP3    H213792   0.731   3.177   0.576 -0.2732  1.0331 -0.9883
 4596TIP3   OH213793   4.704   5.658   1.075  0.3530  0.6558  0.2853
 4596TIP3    H113794   4.643   5.594   1.040 -0.5975  0.5692  2.0032
 4596TIP3    H213795   4.735   5.620   1.158  1.4313  1.4649  0.2873
 4597TIP3   OH213796   3.161   4.256   1.273  0.3253  0.0559  0.5542
 4597TIP3    H113797   3.230   4.310   1.312  1.3043 -0.5920 -0.2186
 4597TIP3    H213798   3.206   4.205   1.206 -1.0801  0.3150 -0.6466
 4598TIP3   OH213799   4.112   3.472   0.247 -0.3164  0.1921 -0.0582
 4598TIP3    H113800   4.092   3.408   0.316  1.3555 -0.1617  0.1313
 4598TIP3    H213801   4.068   3.438   0.169  0.8419 -1.4248 -0.0516
 4599TIP3   OH213802   3.615   3.518   3.113 -0.4455 -0.0404 -0.2752
 4599TIP3    H113803   3.524   3.503   3.141 -0.2506  1.1127  1.0990
 4599TIP3    H213804   3.639   3.601   3.153  1.0649 -0.0702 -1.0478
 4600TIP3   OH213805   5.354   3.568   5.084 -0.0813  0.1365 -0.1414
 4600TIP3    H113806   5.260   3.575   5.070 -0.2279 -1.3457 -0.0760
 4600TIP3    H213807   5.391   3.562   4.996 -0.3072 -1.7122 -0.1549
 4601TIP3   OH213808   2.580   4.636  -0.001 -0.3173  0.0862 -0.1008
 4601TIP3    H113809   2.626   4.703   0.049 -0.7117  0.5703 -0.3820
 4601TIP3    H213810   2.618   4.554   0.029 -0.4788  0.3730  0.9342
 4602TIP3   OH213811   1.359   1.272   3.870 -0.2818 -0.3480  0.3532
 4602TIP3    H113812   1.422   1.245   3.936  0.7052  0.1772 -0.3505
 4602TIP3    H213813   1.285   1.306   3.920  0.5060  0.1748  1.1919
 4603TIP3   OH213814   0.906   3.043   2.797  0.1676  0.4962 -0.1332
 4603TIP3    H113815   0.989   3.089   2.812  0.6265 -0.5221  0.5604
 4603TIP3    H213816   0.853   3.066   2.873  0.2456  0.2214  0.0058
 4604TIP3   OH213817   5.596   3.344   2.262 -0.1659  0.2559 -0.0957
 4604TIP3    H113818   5.606   3.373   2.352 -1.5777  0.6066 -0.0228
 4604TIP3    H213819   5.659   3.396   2.213 -0.2010  0.9081  0.5346
 4605TIP3   OH213820   5.489   2.606   0.211 -0.3838  0.1959 -0.4138
 4605TIP3    H113821   5.430   2.642   0.277 -1.4595  1.9286 -2.2317
 4605TIP3    H213822   5.463   2.514   0.203 -0.7940  0.1690  0.8997
 4606TIP3   OH213823   6.293   2.289   2.311  0.3493  0.0388  0.1250
 4606TIP3    H113824   6.311   2.278   2.217  0.0499 -0.0573  0.0792
 4606TIP3    H213825   6.203   2.322   2.314  0.5449  0.5699  0.3525
 4607TIP3   OH213826   0.176   0.805   1.035  0.5159  0.1840 -0.4907
 4607TIP3    H113827   0.208   0.883   0.989  0.3540  0.3477 -0.3317
 4607TIP3    H213828   0.227   0.733   0.999 -0.2412  0.1698 -1.6145
 4608TIP3   OH213829   3.459   0.843   5.190 -0.1575 -0.8664  0.0939
 4608TIP3    H113830   3.536   0.900   5.199  0.4625 -1.7095  0.3020
 4608TIP3    H213831   3.410   0.880   5.116  0.0468  0.1291  0.4361
 4609TIP3   OH213832   2.362   1.899   1.700  0.7249  0.3105  0.1230
 4609TIP3    H113833   2.386   1.931   1.613  1.6705  0.4164  0.4121
 4609TIP3    H213834   2.346   1.806   1.688  0.3769  0.4107 -0.2478
 4610TIP3   OH213835   0.085   4.539   0.615 -0.4293 -0.2585 -0.0309
 4610TIP3    H113836   0.043   4.454   0.604 -0.0442 -0.7620  2.0215
 4610TIP3    H213837   0.091   4.551   0.710  3.5822 -0.0205 -0.1541
 4611TIP3   OH213838   5.430   2.238   3.082  0.2484  0.2156 -0.2537
 4611TIP3    H113839   5.455   2.324   3.049  1.6267 -0.6574 -1.6226
 4611TIP3    H213840   5.354   2.213   3.030  0.2606  0.3244 -0.3231
 4612TIP3   OH213841   2.347   4.359   4.117 -0.0831  0.0573  0.2955
 4612TIP3    H113842   2.339   4.270   4.084  2.9210 -0.5450  0.8785
 4612TIP3    H213843   2.359   4.413   4.038  0.1793 -0.3609  0.0466
 4613TIP3   OH213844   5.410   2.866   3.043  0.0919 -0.3095  0.0033
 4613TIP3    H113845   5.460   2.920   2.982  0.0807  0.8912  1.0029
 4613TIP3    H213846   5.327   2.913   3.054  0.3548 -0.1194  1.4295
 4614TIP3   OH213847   4.780   2.925   1.789  0.0532  0.3946  0.1969
 4614TIP3    H113848   4.768   2.865   1.862  0.6747  0.1816  0.1318
 4614TIP3    H213849   4.871   2.953   1.796 -0.7490  2.9874  1.4732
 4615TIP3   OH213850   4.087   5.546   3.940 -0.2576  0.7334  0.0862
 4615TIP3    H113851   4.045   5.560   4.025  1.3664  1.5670  0.7989
 4615TIP3    H213852   4.110   5.634   3.910 -2.6087  0.6593 -2.2515
 4616TIP3   OH213853   2.252   3.539   1.799 -0.4823 -0.3130  0.9646
 4616TIP3    H113854   2.347   3.533   1.805 -0.4511  0.4033  1.3690
 4616TIP3    H213855   2.220   3.454   1.828  0.0406 -0.6028  0.6990
 4617TIP3   OH213856   4.857   5.433   2.826  0.2031 -0.2914 -0.3264
 4617TIP3    H113857   4.814   5.512   2.860 -0.0628 -0.9668  0.9930
 4617TIP3    H213858   4.795   5.398   2.763 -1.0499 -0.9773  1.1953
 4618TIP3   OH213859   1.049   2.103   1.858  0.0190  0.0349  0.2966
 4618TIP3    H113860   1.085   2.190   1.844 -0.2844 -0.1123 -1.6820
 4618TIP3    H213861   0.954   2.116   1.857 -0.0268 -0.2963  0.0070
 4619TIP3   OH213862   2.702   0.618   2.264 -0.2112 -0.0870 -0.0746
 4619TIP3    H113863   2.646   0.667   2.204 -1.0387 -1.1973 -0.2356
 4619TIP3    H213864   2.645   0.552   2.303  0.9130 -1.1019 -0.0726
 4620TIP3   OH213865   2.607   5.127   4.926 -0.2466  0.1430  0.3667
 4620TIP3    H113866   2.522   5.165   4.909  0.9008  2.2572 -1.0776
 4620TIP3    H213867   2.648   5.186   4.990  0.9059  0.3819 -0.5548
 4621TIP3   OH213868   5.550   4.598   3.941 -0.0815 -0.7117  0.0407
 4621TIP3    H113869   5.624   4.617   3.999 -1.5387 -0.5307  1.9494
 4621TIP3    H213870   5.583   4.532   3.880  2.0983  0.5384 -0.2351
 4622TIP3   OH213871   1.335   3.370   0.346  0.1468 -0.3974  0.7988
 4622TIP3    H113872   1.384   3.445   0.379 -0.8464 -0.0859  1.6406
 4622TIP3    H213873   1.387   3.293   0.371 -0.5087 -0.1725  3.1002
 4623TIP3   OH213874   0.003   4.798   4.214  0.3911 -0.2659  0.0450
 4623TIP3    H113875  -0.030   4.887   4.205 -0.5454 -0.6022 -0.0315
 4623TIP3    H213876   0.091   4.808   4.250  0.3919  0.6946 -0.2005
 4624TIP3   OH213877   0.108   3.744   3.096  0.0760 -0.0938 -0.7535
 4624TIP3    H113878   0.045   3.813   3.115  1.2781  1.5308 -2.3422
 4624TIP3    H213879   0.075   3.704   3.015  1.2337  1.0726 -1.8569
 4625TIP3   OH213880   5.002   1.090   4.245 -0.4901  0.2647 -0.2510
 4625TIP3    H113881   5.010   1.039   4.164  0.5544  1.5973 -1.0261
 4625TIP3    H213882   5.092   1.101   4.276 -0.8462  0.1696  0.8510
 4626TIP3   OH213883   2.098   5.088   1.152 -0.6464  0.2302  0.1187
 4626TIP3    H113884   2.144   5.166   1.119  1.6370 -0.7029  0.9129
 4626TIP3    H213885   2.099   5.098   1.247 -0.4079 -0.7314  0.2221
 4627TIP3   OH213886   6.180   0.108   3.363  0.2063 -0.5689 -0.4392
 4627TIP3    H113887   6.201   0.145   3.277  1.9115  0.2048  0.2872
 4627TIP3    H213888   6.150   0.182   3.415  0.6446 -0.7587  0.0921
 4628TIP3   OH213889   3.257   1.315   4.895 -0.1911  0.6359  0.2326
 4628TIP3    H113890   3.274   1.358   4.812  0.4825  2.0206  1.0427
 4628TIP3    H213891   3.217   1.383   4.950  3.4475  1.2845  2.4790
 4629TIP3   OH213892   4.318   3.552   5.009  0.2993 -0.1443  0.1722
 4629TIP3    H113893   4.253   3.593   4.952 -0.1816  1.2129  1.6270
 4629TIP3    H213894   4.268   3.491   5.063  0.5751 -0.5809 -0.0536
 4630TIP3   OH213895   4.060   0.766   1.838  0.3123 -0.6900  0.0519
 4630TIP3    H113896   4.152   0.785   1.825 -0.3849  2.1477 -1.3438
 4630TIP3    H213897   4.038   0.808   1.922  0.7517 -3.6116  1.7887
 4631TIP3   OH213898   3.740   1.504   0.613  0.2600 -0.4175  0.0478
 4631TIP3    H113899   3.682   1.579   0.620 -0.8169 -0.9756 -2.0952
 4631TIP3    H213900   3.687   1.430   0.642  1.5405 -0.3712  2.8676
 4632TIP3   OH213901   5.461   5.791   2.914 -0.2155 -0.3232 -0.0253
 4632TIP3    H113902   5.547   5.803   2.874 -1.2154  0.2869 -2.1067
 4632TIP3    H213903   5.412   5.869   2.890 -1.0732 -0.1851  1.9975
 4633TIP3   OH213904   3.406   0.764   0.930  0.0679  0.2663 -0.2009
 4633TIP3    H113905   3.477   0.725   0.878 -1.7242 -2.7063 -0.6337
 4633TIP3    H213906   3.333   0.773   0.868 -1.8250 -2.4841  1.4106
 4634TIP3   OH213907   3.591   5.935   0.649 -0.0162 -0.4928  0.2491
 4634TIP3    H113908   3.672   5.885   0.658  0.3832  0.1485  0.2797
 4634TIP3    H213909   3.605   6.015   0.701 -1.3042 -1.1188  1.6447
 4635TIP3   OH213910   1.301   3.703   2.116 -0.2867 -0.5814  0.0400
 4635TIP3    H113911   1.246   3.631   2.146 -2.5231  1.9049  2.5922
 4635TIP3    H213912   1.243   3.754   2.058 -0.2167  1.1573  1.3915
 4636TIP3   OH213913   4.789   4.933   0.375 -0.2224  0.9847 -0.2383
 4636TIP3    H113914   4.768   4.999   0.441  0.9493  1.6347 -0.5025
 4636TIP3    H213915   4.704   4.892   0.356 -0.6627  1.0487  1.3535
 4637TIP3   OH213916   3.506   5.828   1.227  0.1165  0.0588 -0.5662
 4637TIP3    H113917   3.504   5.883   1.149 -0.9920  1.4312  0.3833
 4637TIP3    H213918   3.531   5.742   1.194 -1.1953  0.3603 -2.5846
 4638TIP3   OH213919   3.077   1.093   2.622  0.8916 -0.3587 -0.7197
 4638TIP3    H113920   3.124   1.176   2.613 -2.0984  1.4413 -0.9362
 4638TIP3    H213921   3.120   1.049   2.695  1.9443  1.8587  0.0894
 4639TIP3   OH213922   2.522   3.619   0.500  0.1624 -0.3130  0.1590
 4639TIP3    H113923   2.585   3.576   0.557  0.1183 -0.2583  0.2494
 4639TIP3    H213924   2.486   3.690   0.553  1.1300  0.6238 -0.4046
 4640TIP3   OH213925   1.534   0.456   3.025 -0.8640  0.5920  0.1005
 4640TIP3    H113926   1.440   0.439   3.025 -0.4694 -2.0493 -1.3530
 4640TIP3    H213927   1.562   0.435   3.114 -1.5485  0.9913  0.4241
 4641TIP3   OH213928   1.794   2.883   4.336  0.6321 -0.0055 -0.0120
 4641TIP3    H113929   1.855   2.825   4.290 -0.6246 -1.7608  0.4329
 4641TIP3    H213930   1.841   2.908   4.416  0.4603 -2.1284  0.8056
 4642TIP3   OH213931   4.701   2.180   1.979 -0.0432 -0.3515 -0.2715
 4642TIP3    H113932   4.624   2.206   1.929 -1.2093 -1.6764  0.7437
 4642TIP3    H213933   4.775   2.218   1.932 -1.0965 -1.1523 -2.7171
 4643TIP3   OH213934   3.633   5.047   4.122 -0.1632 -0.1622 -0.5647
 4643TIP3    H113935   3.614   4.954   4.131 -0.4533 -0.0881 -0.4071
 4643TIP3    H213936   3.727   5.051   4.104 -0.0565 -0.4550 -0.0800
 4644TIP3   OH213937   5.222   4.296   3.534 -0.0533  0.4457  0.0203
 4644TIP3    H113938   5.201   4.388   3.549  2.0475  1.1649 -1.0556
 4644TIP3    H213939   5.304   4.298   3.486  0.8661 -2.0444  1.3295
 4645TIP3   OH213940   1.191   0.517   2.147  0.3302 -0.7026  0.0223
 4645TIP3    H113941   1.275   0.511   2.193  0.8066 -0.0483 -0.7372
 4645TIP3    H213942   1.159   0.605   2.167 -0.5463 -1.2134  0.9188
 4646TIP3   OH213943   4.376   1.367   5.167  0.2522 -0.0397 -1.0267
 4646TIP3    H113944   4.374   1.416   5.085 -0.9078 -0.8006 -1.4842
 4646TIP3    H213945   4.419   1.284   5.146 -0.0997 -0.2611 -0.8853
 4647TIP3   OH213946   0.187   0.894   2.700 -0.1557  0.0534  0.0774
 4647TIP3    H113947   0.177   0.884   2.795 -0.8405 -0.5945 -0.0547
 4647TIP3    H213948   0.183   0.989   2.686  4.1772  0.6034  1.1120
 4648TIP3   OH213949   5.491   2.276   1.348  0.3442 -0.3427  0.1940
 4648TIP3    H113950   5.524   2.365   1.337  0.8217 -0.4731  0.5451
 4648TIP3    H213951   5.510   2.233   1.265  0.1525 -0.1311  0.0388
 4649TIP3   OH213952   1.727   4.104   2.328  0.2951 -0.3436  0.5548
 4649TIP3    H113953   1.748   4.173   2.390  0.4419  0.9878 -0.8996
 4649TIP3    H213954   1.727   4.024   2.380  1.3703  0.5828  2.0677
 4650TIP3   OH213955   4.032   3.184   2.255 -0.2556 -0.1404 -0.1775
 4650TIP3    H113956   3.990   3.230   2.327 -1.7982 -2.8016  0.7591
 4650TIP3    H213957   4.110   3.236   2.235 -0.2860  1.2023  2.7811
 4651TIP3   OH213958   5.768   1.245   0.339  0.1596  0.1263 -0.0944
 4651TIP3    H113959   5.711   1.170   0.322 -0.5422  0.6512 -0.1086
 4651TIP3    H213960   5.853   1.219   0.303  0.5405 -1.5181  1.7909
 4652TIP3   OH213961   3.809   5.318   2.036 -0.2705 -0.0326 -0.0541
 4652TIP3    H113962   3.768   5.397   2.070  1.9933  1.3359 -0.2589
 4652TIP3    H213963   3.878   5.349   1.978 -1.5775 -2.2531 -3.0614
 4653TIP3   OH213964   2.883   4.316   1.218 -0.0922  0.1582  0.4556
 4653TIP3    H113965   2.911   4.354   1.302 -0.8848 -0.7133  1.1387
 4653TIP3    H213966   2.955   4.336   1.158  1.5662 -1.1262  1.8917
 4654TIP3   OH213967   5.121   4.665   5.000  0.3493 -0.1650 -0.1928
 4654TIP3    H113968   5.210   4.697   4.988  0.0443  0.1433 -1.9061
 4654TIP3    H213969   5.097   4.691   5.089  0.2675  4.0817 -1.2344
 4655TIP3   OH213970   5.325   0.157   0.936  0.0491 -0.8669  0.6828
 4655TIP3    H113971   5.396   0.094   0.922  1.5801  0.9923 -0.5440
 4655TIP3    H213972   5.347   0.199   1.019  1.3176  0.7386 -0.3982
 4656TIP3   OH213973   5.963   1.926   4.792  0.7100  0.5279  0.3604
 4656TIP3    H113974   6.025   1.954   4.725  1.0134  0.5430  0.6505
 4656TIP3    H213975   5.947   2.004   4.844  1.1286  0.3004  0.8294
 4657TIP3   OH213976   3.387   5.585   5.029 -0.0241 -0.8123 -0.2798
 4657TIP3    H113977   3.364   5.573   5.121  0.4975  0.9578  0.1201
 4657TIP3    H213978   3.474   5.545   5.021  1.4017  1.7507  0.8615
 4658TIP3   OH213979   4.978   5.907   0.721 -0.3426  0.1860  1.0277
 4658TIP3    H113980   4.895   5.939   0.686  0.7703  2.0162 -0.0852
 4658TIP3    H213981   4.957   5.820   0.756 -2.3381 -0.1489 -0.7941
 4659TIP3   OH213982   3.997   5.545   3.484 -0.3476  0.1933  0.2041
 4659TIP3    H113983   3.958   5.565   3.399 -0.7521  0.3183  0.4149
 4659TIP3    H213984   4.004   5.629   3.528  1.1702  0.3236 -0.2394
 4660TIP3   OH213985   2.480   5.929   2.048 -0.3028 -0.1718  0.5825
 4660TIP3    H113986   2.565   5.963   2.076  1.5553 -1.8734 -2.3992
 4660TIP3    H213987   2.438   6.003   2.005  1.3199 -0.1097 -1.0465
 4661TIP3   OH213988   5.356   2.320   0.872  0.2043  0.2350  0.5025
 4661TIP3    H113989   5.363   2.256   0.802  0.1761  0.6026  0.1549
 4661TIP3    H213990   5.412   2.287   0.942 -1.6486 -1.4085  1.2984
 4662TIP3   OH213991   0.408   4.550   2.378  0.4853  0.9620  0.2426
 4662TIP3    H113992   0.424   4.456   2.388  2.3322  0.8181 -2.7354
 4662TIP3    H213993   0.460   4.591   2.447  2.5878 -0.1407 -0.5928
 4663TIP3   OH213994   5.281   4.069   4.284 -0.0860  0.1572 -0.5515
 4663TIP3    H113995   5.302   4.161   4.267  1.4165 -0.3296 -1.4597
 4663TIP3    H213996   5.273   4.030   4.197  0.1666 -0.7589 -0.1756
 4664TIP3   OH213997   0.068   5.412   3.470 -0.5610  0.5883  0.0515
 4664TIP3    H113998   0.159   5.387   3.485 -0.6719  0.1531  0.0051
 4664TIP3    H213999   0.033   5.428   3.557 -0.0508  2.1563 -0.0072
 4665TIP3   OH214000   4.444   2.545   4.846  0.0275  0.3242 -0.0329
 4665TIP3    H114001   4.457   2.511   4.757 -0.4463 -1.8090  0.6615
 4665TIP3    H214002   4.497   2.625   4.849  1.5538 -0.5647 -1.6295
 4666TIP3   OH214003   1.128   1.990   0.909 -0.1733  0.4215  0.2321
 4666TIP3    H114004   1.181   2.063   0.940  0.3885  0.4574 -0.7703
 4666TIP3    H214005   1.191   1.922   0.886 -0.5620  0.3207 -0.5992
 4667TIP3   OH214006   3.385   0.329   2.618  0.1412 -0.0096  0.1086
 4667TIP3    H114007   3.389   0.287   2.703 -3.2815 -0.3786  0.2436
 4667TIP3    H214008   3.475   0.327   2.585  0.8518 -3.9119  1.7625
 4668TIP3   OH214009   2.388   1.360   0.468 -0.5119 -0.1435 -0.1072
 4668TIP3    H114010   2.361   1.283   0.517 -0.7787  0.3948  0.6122
 4668TIP3    H214011   2.306   1.405   0.446 -0.3129  0.5572  0.5281
 4669TIP3   OH214012   5.318   3.752   1.369 -0.1528 -0.4528  0.0452
 4669TIP3    H114013   5.264   3.763   1.291 -0.0217 -0.4578 -0.0463
 4669TIP3    H214014   5.264   3.787   1.440  0.2242  0.7353 -0.2279
 4670TIP3   OH214015   1.162   5.150   2.938  0.0065  0.6881 -0.0017
 4670TIP3    H114016   1.072   5.142   2.905 -0.3746 -0.5992  1.2815
 4670TIP3    H214017   1.167   5.241   2.969 -0.6552  0.9414 -0.5896
 4671TIP3   OH214018   2.339   1.446   2.335 -0.2323 -0.3119 -0.6605
 4671TIP3    H114019   2.381   1.402   2.409  0.0903  0.4180 -0.3912
 4671TIP3    H214020   2.395   1.427   2.260 -1.2089 -2.0603 -0.9888
 4672TIP3   OH214021   4.394   4.014   5.017  0.4351 -0.2652  0.3904
 4672TIP3    H114022   4.422   4.019   5.108  0.2404  4.1150  0.4358
 4672TIP3    H214023   4.303   4.044   5.018  1.1083  2.1954 -1.3288
 4673TIP3   OH214024   2.752   2.456   0.579  0.2055  0.3740 -0.0207
 4673TIP3    H114025   2.684   2.481   0.517 -0.0366 -0.9302 -0.3223
 4673TIP3    H214026   2.831   2.447   0.526 -0.2176 -1.7320 -0.3770
 4674TIP3   OH214027   0.250   2.682   3.124  0.0059  0.7792 -0.3010
 4674TIP3    H114028   0.313   2.674   3.196 -1.7946  0.3416  1.2952
 4674TIP3    H214029   0.249   2.594   3.085  0.0940  0.6733 -0.0726
 4675TIP3   OH214030   4.613   4.722   3.770 -0.4525 -0.1357  0.5841
 4675TIP3    H114031   4.679   4.742   3.704  0.6181 -1.0695  1.3320
 4675TIP3    H214032   4.547   4.790   3.759  0.9317  1.2187  0.2090
 4676TIP3   OH214033   1.652   2.989   2.200 -0.3204 -0.2550  0.4276
 4676TIP3    H114034   1.733   3.039   2.198 -0.2929 -0.3247 -0.9695
 4676TIP3    H214035   1.667   2.921   2.266 -0.6316  1.9399  2.9137
 4677TIP3   OH214036   2.447   4.060   4.441  0.6597  0.2082  0.1519
 4677TIP3    H114037   2.382   4.042   4.372  1.1915 -3.3979  0.4447
 4677TIP3    H214038   2.518   4.104   4.395  0.6384 -1.3652 -1.4978
 4678TIP3   OH214039   1.650   2.722   1.421  0.0077 -0.2606  0.6571
 4678TIP3    H114040   1.632   2.668   1.497  0.7998  1.5531  2.2075
 4678TIP3    H214041   1.565   2.730   1.376 -0.2226 -2.2632  0.6836
 4679TIP3   OH214042   5.294   2.801   5.097  0.7044  0.0330  0.2172
 4679TIP3    H114043   5.334   2.720   5.066  0.9242  0.1400  0.2241
 4679TIP3    H214044   5.322   2.868   5.035  1.1590  0.2508  0.6501
 4680TIP3   OH214045   5.790   1.909   1.337 -0.0128 -0.3790  0.1768
 4680TIP3    H114046   5.741   1.871   1.410  0.4331 -1.4704 -0.0768
 4680TIP3    H214047   5.850   1.971   1.378 -1.0660  0.4150  0.5557
 4681TIP3   OH214048   5.161   2.456   1.663 -0.6528  0.5306  0.3742
 4681TIP3    H114049   5.180   2.409   1.582 -1.7500  0.7905 -0.0547
 4681TIP3    H214050   5.237   2.440   1.719 -0.4848 -0.7900 -0.1931
 4682TIP3   OH214051   0.597   1.413   1.617  0.2509  0.0972  0.1721
 4682TIP3    H114052   0.613   1.387   1.707  1.4112 -0.7211 -0.2487
 4682TIP3    H214053   0.583   1.507   1.621  1.7881  0.3117  1.0249
 4683TIP3   OH214054   5.349   3.288   2.157 -0.1893 -0.3442 -0.3054
 4683TIP3    H114055   5.355   3.336   2.075  0.5964 -0.2002 -0.1707
 4683TIP3    H214056   5.440   3.281   2.188 -0.5780  0.6489  1.1514
 4684TIP3   OH214057   3.657   0.728   2.947  0.4904 -0.3774 -0.6865
 4684TIP3    H114058   3.651   0.681   3.030 -0.8250  1.1488  0.1393
 4684TIP3    H214059   3.703   0.809   2.969 -1.8905  1.1201 -0.8754
 4685TIP3   OH214060   1.457   0.804   0.193  0.2833 -0.1777  0.1143
 4685TIP3    H114061   1.441   0.770   0.281 -1.9490 -1.1071 -0.5735
 4685TIP3    H214062   1.409   0.887   0.189  0.1924 -0.2438 -0.2854
 4686TIP3   OH214063   0.500   0.955   1.304  0.1885 -0.1430  0.9039
 4686TIP3    H114064   0.467   1.014   1.236  1.5144  0.5851  0.8636
 4686TIP3    H214065   0.526   1.013   1.375 -2.1466 -0.9369  2.5532
 4687TIP3   OH214066   4.241   5.741   2.594 -0.7882  0.3666  0.5938
 4687TIP3    H114067   4.272   5.815   2.541 -2.4390  0.2900 -0.5449
 4687TIP3    H214068   4.298   5.669   2.569 -0.7014  0.6629 -0.0795
 4688TIP3   OH214069   0.885   0.676   2.396  0.3654  0.2538  0.8117
 4688TIP3    H114070   0.864   0.593   2.353  0.2346  0.7891 -0.1828
 4688TIP3    H214071   0.828   0.740   2.355 -0.2576  0.6833  2.2799
 4689TIP3   OH214072   1.055   4.054   0.542  0.1142  0.1600  0.3254
 4689TIP3    H114073   1.010   3.984   0.496  0.3326  0.0948  0.2127
 4689TIP3    H214074   1.123   4.084   0.481 -0.1224  0.6204  0.2802
 4690TIP3   OH214075   2.639   4.333   3.556  0.2289 -0.2077  0.3480
 4690TIP3    H114076   2.661   4.270   3.487  1.4129  0.5206  0.0297
 4690TIP3    H214077   2.645   4.283   3.637 -2.5630 -1.4656 -0.0655
 4691TIP3   OH214078   3.063   3.315   2.403  0.0882 -0.0023 -0.4152
 4691TIP3    H114079   3.157   3.331   2.400  0.3045 -1.1596 -3.0050
 4691TIP3    H214080   3.025   3.392   2.360 -0.3255  1.0667  1.7425
 4692TIP3   OH214081   1.567   3.297   2.422 -0.5203  0.5006 -0.0906
 4692TIP3    H114082   1.642   3.248   2.387 -0.6318  1.4104 -1.7400
 4692TIP3    H214083   1.586   3.309   2.515  0.4034 -1.0005 -0.0569
 4693TIP3   OH214084   2.088   2.562   3.530  0.2325  0.4229  0.2381
 4693TIP3    H114085   2.100   2.652   3.503  2.4938  0.7465  2.0572
 4693TIP3    H214086   1.995   2.556   3.554 -0.4419  1.6194 -1.8944
 4694TIP3   OH214087   6.075   0.159   0.212  0.1534  0.1410 -0.2793
 4694TIP3    H114088   6.013   0.185   0.143 -2.6390 -1.8805  1.2569
 4694TIP3    H214089   6.054   0.217   0.285 -0.5919 -1.1081  0.5339
 4695TIP3   OH214090   2.487   2.244   3.528  0.1424  0.5348 -0.2864
 4695TIP3    H114091   2.538   2.178   3.576 -0.6805  0.5128  0.6026
 4695TIP3    H214092   2.396   2.227   3.554 -0.3663  0.4532 -1.9728
 4696TIP3   OH214093   5.328   1.340   2.430  0.3463 -0.3387 -0.7726
 4696TIP3    H114094   5.361   1.429   2.413  2.6877 -1.1373 -0.6999
 4696TIP3    H214095   5.372   1.313   2.510 -1.7261 -0.9400  0.2180
 4697TIP3   OH214096   3.187   3.985   4.007 -0.5568  0.1167  0.0468
 4697TIP3    H114097   3.245   4.058   4.030  0.4377 -0.8840  0.8719
 4697TIP3    H214098   3.170   3.996   3.914 -1.6230  2.2095  0.4329
 4698TIP3   OH214099   1.925   1.273   4.009 -0.3774  0.1592 -0.0682
 4698TIP3    H114100   1.944   1.181   3.993  0.6011  0.0876  1.3709
 4698TIP3    H214101   2.004   1.319   3.982 -0.1766  0.3949  0.8917
 4699TIP3   OH214102   0.808   3.598   3.537  0.3940 -0.6582  0.2439
 4699TIP3    H114103   0.739   3.661   3.517  0.5772 -0.7221 -0.6773
 4699TIP3    H214104   0.782   3.519   3.490  0.1598 -1.2844  1.4051
 4700TIP3   OH214105   1.093   2.741   1.710  0.0051 -0.3414 -0.1225
 4700TIP3    H114106   1.146   2.787   1.775 -0.5772  1.6229 -0.9668
 4700TIP3    H214107   1.028   2.806   1.682 -0.3518 -1.4296 -1.9652
 4701TIP3   OH214108   4.909   5.108   2.337  0.3786 -0.0345  0.2981
 4701TIP3    H114109   4.965   5.101   2.414 -0.4113 -1.9448  0.7535
 4701TIP3    H214110   4.829   5.150   2.369  0.0251 -0.8852  0.5748
 4702TIP3   OH214111   2.407   1.196   0.160  0.1917 -0.0021 -0.3512
 4702TIP3    H114112   2.476   1.186   0.094 -1.1379  0.0641 -1.7962
 4702TIP3    H214113   2.340   1.133   0.135 -0.3686  0.0541  0.9365
 4703TIP3   OH214114   1.037   5.893   1.284 -0.1580  0.4198 -0.2497
 4703TIP3    H114115   1.034   5.799   1.305  0.7258  0.4934  0.2479
 4703TIP3    H214116   1.003   5.898   1.195 -3.3588  0.0016  0.8017
 4704TIP3   OH214117   0.988   5.586   3.164  0.1413  0.3467 -0.3573
 4704TIP3    H114118   1.026   5.610   3.248  1.0169 -0.9563 -0.3496
 4704TIP3    H214119   0.964   5.670   3.124  0.7049  1.0524  0.7187
 4705TIP3   OH214120   5.061   3.008   0.950  0.3550  0.2133  0.4333
 4705TIP3    H114121   5.064   2.916   0.924  0.7092  0.9094 -2.3185
 4705TIP3    H214122   4.972   3.020   0.985  0.1130 -1.0398  0.3008
 4706TIP3   OH214123   1.332   4.780   0.550 -0.2329 -0.4655 -0.7102
 4706TIP3    H114124   1.411   4.752   0.595  0.3660 -0.2292 -1.6015
 4706TIP3    H214125   1.356   4.861   0.507 -0.9060 -0.4927 -1.1536
 4707TIP3   OH214126   3.863   4.512   1.824  0.1792 -0.1532  0.2402
 4707TIP3    H114127   3.823   4.505   1.737 -1.9362 -0.4972  1.1927
 4707TIP3    H214128   3.927   4.441   1.827 -0.2705 -0.6156 -0.7431
 4708TIP3   OH214129   4.963   3.112   2.970  0.3860  0.5471 -0.7900
 4708TIP3    H114130   4.894   3.056   2.934  0.7335 -0.1901 -0.3258
 4708TIP3    H214131   4.930   3.139   3.056  0.8309 -0.1184 -0.4040
 4709TIP3   OH214132   4.028   4.945   0.442  0.0523 -0.3251  0.1155
 4709TIP3    H114133   3.985   4.899   0.514  0.6450 -1.2936 -0.1174
 4709TIP3    H214134   3.981   4.915   0.364  0.7491 -0.9428 -0.0855
 4710TIP3   OH214135   2.012   0.124   4.437  0.1306 -0.5757  0.3119
 4710TIP3    H114136   1.984   0.169   4.517 -1.2728 -1.5023  0.3831
 4710TIP3    H214137   2.049   0.193   4.383  1.2650  0.0502  1.8082
 4711TIP3   OH214138   3.675   4.025   3.563  0.6923 -0.3766  0.4173
 4711TIP3    H114139   3.628   3.942   3.573  0.2009 -0.2597 -0.7094
 4711TIP3    H214140   3.610   4.084   3.524  0.8689  0.7160  1.7355
 4712TIP3   OH214141   0.891   2.386   0.863 -0.0968 -0.5781 -0.5440
 4712TIP3    H114142   0.798   2.366   0.869 -0.3302  0.6075  0.0146
 4712TIP3    H214143   0.895   2.481   0.857  1.1917 -0.2251  3.2927
 4713TIP3   OH214144   2.972   0.944   0.133  0.3641  0.0916  0.0622
 4713TIP3    H114145   2.877   0.936   0.130  0.4778 -1.6186  0.0352
 4713TIP3    H214146   2.997   0.958   0.041  0.1842 -0.1153 -0.0199
 4714TIP3   OH214147   3.927   4.823   4.373 -0.2317 -0.0152  0.1754
 4714TIP3    H114148   3.831   4.816   4.368 -0.2594  0.1573  0.4308
 4714TIP3    H214149   3.958   4.733   4.379 -0.4962 -0.0168  2.1118
 4715TIP3   OH214150   0.507   3.752   2.427  0.3457 -0.1253  0.7421
 4715TIP3    H114151   0.418   3.772   2.456  0.1760 -0.5884  0.5504
 4715TIP3    H214152   0.496   3.710   2.342  0.7792  0.2747  0.4794
 4716TIP3   OH214153   3.017   4.153   0.220  0.0137 -0.3468  0.2736
 4716TIP3    H114154   3.085   4.189   0.164 -0.3813 -0.9356 -0.6015
 4716TIP3    H214155   3.024   4.203   0.301 -0.3631  1.5355 -0.8035
 4717TIP3   OH214156   1.331   3.837   2.361  1.0234  0.4697 -0.0885
 4717TIP3    H114157   1.321   3.761   2.418 -0.3512  0.2696 -0.5512
 4717TIP3    H214158   1.325   3.802   2.273 -2.9231  1.3732 -0.3543
 4718TIP3   OH214159   1.583   2.795   1.139 -0.2500 -0.3284  0.0429
 4718TIP3    H114160   1.635   2.716   1.153 -1.4219 -1.1437 -0.1345
 4718TIP3    H214161   1.581   2.807   1.044  2.8638  1.9554  0.1158
 4719TIP3   OH214162   4.271   4.707   0.316 -0.2024 -0.1256  0.3666
 4719TIP3    H114163   4.237   4.796   0.302  1.6035  0.3636 -1.3002
 4719TIP3    H214164   4.228   4.655   0.249 -2.1360 -0.8286  2.0592
 4720TIP3   OH214165   2.355   5.730   3.425 -0.0745  0.4468 -0.3328
 4720TIP3    H114166   2.442   5.767   3.441  1.0440 -1.4694 -1.5112
 4720TIP3    H214167   2.325   5.774   3.345  0.6546 -0.1545 -0.9615
 4721TIP3   OH214168   3.327   1.492   2.291  0.3819  0.0794 -0.2049
 4721TIP3    H114169   3.337   1.457   2.202  0.7636  0.4359 -0.3046
 4721TIP3    H214170   3.259   1.558   2.284 -1.2694 -1.4917  0.2321
 4722TIP3   OH214171   5.748   2.291   1.580 -0.7131  0.3525  0.2535
 4722TIP3    H114172   5.821   2.231   1.564  0.8895  1.6379  2.1876
 4722TIP3    H214173   5.673   2.234   1.597  0.7512 -1.1759  2.0400
 4723TIP3   OH214174   5.413   5.275   2.194  0.0007 -0.0250  0.7854
 4723TIP3    H114175   5.382   5.185   2.185  2.1038 -0.7442  0.0490
 4723TIP3    H214176   5.374   5.306   2.276 -0.0881 -1.9175  1.5178
 4724TIP3   OH214177   0.285   2.377   1.449  0.2599 -0.0259 -0.1206
 4724TIP3    H114178   0.280   2.472   1.456 -1.4751 -0.1095  0.1789
 4724TIP3    H214179   0.233   2.344   1.523  0.9650 -1.2148 -0.1253
 4725TIP3   OH214180   3.228   5.917   4.611  0.3871  0.6820  0.5174
 4725TIP3    H114181   3.297   5.866   4.654 -1.0380 -1.2966  0.6153
 4725TIP3    H214182   3.150   5.899   4.664 -0.3514  2.3361  0.0281
 4726TIP3   OH214183   5.409   4.290   2.508  0.3154  0.1604 -0.2114
 4726TIP3    H114184   5.326   4.285   2.461  1.0252  1.6272 -1.7165
 4726TIP3    H214185   5.386   4.323   2.595 -1.1343 -3.4428  0.9987
 4727TIP3   OH214186   1.120   5.550   2.486 -0.2013 -0.2178 -0.0832
 4727TIP3    H114187   1.143   5.598   2.407 -2.0120  0.3683 -0.2892
 4727TIP3    H214188   1.130   5.614   2.557  1.8104 -0.8496  0.2700
 4728TIP3   OH214189   4.742   0.333   0.496  0.0901  0.2189  0.2716
 4728TIP3    H114190   4.681   0.272   0.454  0.6064  0.3149 -0.6526
 4728TIP3    H214191   4.828   0.291   0.485  0.4892  1.2532 -0.6580
 4729TIP3   OH214192   6.333   1.878   4.018 -0.3588 -0.8948  0.0396
 4729TIP3    H114193   6.287   1.825   3.953 -1.0904 -1.0106  0.6477
 4729TIP3    H214194   6.301   1.847   4.103  1.0772 -1.2073  0.4986
 4730TIP3   OH214195   3.122   5.528   2.530 -0.3704 -0.4616  0.4370
 4730TIP3    H114196   3.204   5.535   2.579  0.4652 -1.2414 -0.8038
 4730TIP3    H214197   3.138   5.458   2.467 -1.6594  0.0272 -0.4646
 4731TIP3   OH214198   0.014   3.914   1.295  0.0806 -0.4686 -0.0767
 4731TIP3    H114199   0.046   3.935   1.382  0.7760 -0.6781 -0.2776
 4731TIP3    H214200  -0.031   3.994   1.266 -0.6077 -0.5759  0.6685
 4732TIP3   OH214201   3.180   4.628   2.781  0.3160  0.3241 -0.1699
 4732TIP3    H114202   3.155   4.662   2.867  0.3237  1.2276 -0.5112
 4732TIP3    H214203   3.131   4.547   2.772 -1.3996  1.3194 -0.2124
 4733TIP3   OH214204   5.654   4.393   2.426 -0.1874  0.4876 -0.0365
 4733TIP3    H114205   5.564   4.366   2.441 -0.1547 -0.6449 -1.6678
 4733TIP3    H214206   5.663   4.475   2.476 -0.9431 -1.2542  3.2518
 4734TIP3   OH214207   3.331   4.374   4.721 -0.1379 -0.4728  0.0167
 4734TIP3    H114208   3.265   4.379   4.652 -0.1415 -0.1174  0.0453
 4734TIP3    H214209   3.295   4.311   4.783 -0.0070 -1.0031 -0.4399
 4735TIP3   OH214210   2.355   1.839   2.365 -0.5422 -0.1291  0.4628
 4735TIP3    H114211   2.308   1.904   2.417  0.3638  0.3620  0.6876
 4735TIP3    H214212   2.290   1.773   2.344 -1.6565  1.1656 -0.3286
 4736TIP3   OH214213   1.208   5.079   3.868 -0.2824  0.2784  0.2583
 4736TIP3    H114214   1.234   5.052   3.956 -0.9351 -0.4577  0.2391
 4736TIP3    H214215   1.229   5.004   3.813  0.6643  0.9577 -0.3201
 4737TIP3   OH214216   2.241   2.570   0.375  0.1330  0.5960 -1.0395
 4737TIP3    H114217   2.206   2.489   0.337 -0.6755  0.0571  0.7543
 4737TIP3    H214218   2.180   2.638   0.345 -0.9452  0.0607 -0.1376
 4738TIP3   OH214219   2.541   4.736   0.452 -0.3073  0.2423 -0.0872
 4738TIP3    H114220   2.448   4.754   0.465 -1.0972 -0.8441 -3.3253
 4738TIP3    H214221   2.553   4.646   0.483 -0.7415 -0.1943 -1.1623
 4739TIP3   OH214222   5.434   5.531   3.444  0.2772 -0.4721  0.2643
 4739TIP3    H114223   5.442   5.560   3.353  0.0640  0.1886  0.4519
 4739TIP3    H214224   5.360   5.470   3.444 -0.1359  0.0232  0.1076
 4740TIP3   OH214225   5.539   3.218   0.507 -0.4206 -0.1112 -0.2969
 4740TIP3    H114226   5.475   3.285   0.530  0.4189  0.6027  0.0220
 4740TIP3    H214227   5.622   3.253   0.538 -0.1211 -1.8766  1.1184
 4741TIP3   OH214228   2.120   3.464   4.315  0.1297  0.0708 -0.0330
 4741TIP3    H114229   2.110   3.480   4.409 -1.0090  0.3094 -0.1874
 4741TIP3    H214230   2.091   3.546   4.273  0.1463 -0.2132 -0.6090
 4742TIP3   OH214231   0.808   4.340   2.472 -0.3943 -0.1678 -0.6735
 4742TIP3    H114232   0.867   4.318   2.400 -0.4172  0.4096 -0.8726
 4742TIP3    H214233   0.721   4.341   2.432 -0.2745  1.4624 -0.9482
 4743TIP3   OH214234   0.650   2.536   0.846  0.5253  0.0466 -0.1944
 4743TIP3    H114235   0.590   2.548   0.772  2.1778 -0.0596 -1.6206
 4743TIP3    H214236   0.727   2.589   0.824  2.0422 -1.8392  0.2657
 4744TIP3   OH214237   5.154   1.821   2.407 -0.6110  0.3226  0.9126
 4744TIP3    H114238   5.154   1.732   2.443  0.3564 -0.1835 -0.2482
 4744TIP3    H214239   5.198   1.874   2.473  0.1623 -0.3752  0.9826
 4745TIP3   OH214240   0.760   4.023   4.946 -0.1127  0.1976 -0.0935
 4745TIP3    H114241   0.799   3.955   5.000  0.7057 -1.2349 -2.3680
 4745TIP3    H214242   0.665   4.007   4.952  0.0910 -1.5261 -1.0104
 4746TIP3   OH214243   2.282   3.427   0.608 -0.1576  0.1100  0.0646
 4746TIP3    H114244   2.230   3.505   0.629  0.6752  1.2055 -1.7102
 4746TIP3    H214245   2.365   3.440   0.653 -1.0212 -1.2795  2.2657
 4747TIP3   OH214246   5.057   3.258   0.525 -0.1372  0.3279  0.0295
 4747TIP3    H114247   5.081   3.339   0.570  0.7643 -0.4381  0.9800
 4747TIP3    H214248   4.984   3.223   0.576 -1.0017  0.8805 -0.7990
 4748TIP3   OH214249   4.864   1.522   1.946  0.1813 -0.1354 -0.4134
 4748TIP3    H114250   4.909   1.479   2.019  1.2769  0.8249 -0.4959
 4748TIP3    H214251   4.906   1.608   1.940 -0.3945  0.0661 -1.7160
 4749TIP3   OH214252   2.764   4.807   4.164 -0.9919  0.3951  0.5159
 4749TIP3    H114253   2.703   4.856   4.110 -1.5426 -0.9415 -0.1251
 4749TIP3    H214254   2.826   4.769   4.102 -0.6267  0.2139  0.9866
 4750TIP3   OH214255   5.133   5.697   3.406 -0.4648  0.2162  0.4673
 4750TIP3    H114256   5.140   5.675   3.313 -0.4271  2.4952 -0.1306
 4750TIP3    H214257   5.068   5.635   3.440 -0.7613 -0.4216 -1.1526
 4751TIP3   OH214258   0.405   2.771   0.097  0.3496  0.1919  0.0283
 4751TIP3    H114259   0.370   2.859   0.114  0.9730  0.7674 -1.5182
 4751TIP3    H214260   0.500   2.781   0.104  0.5034 -0.0310 -1.4394
 4752TIP3   OH214261   4.141   4.899   5.192  0.1453  0.4020  0.4841
 4752TIP3    H114262   4.228   4.866   5.213  0.0107 -1.6470 -1.7297
 4752TIP3    H214263   4.153   4.953   5.113 -0.6656 -0.8157 -0.5235
 4753TIP3   OH214264   2.294   2.590   4.688  0.1098  0.3004  0.5957
 4753TIP3    H114265   2.336   2.595   4.602 -0.3195 -1.3984  0.2615
 4753TIP3    H214266   2.208   2.629   4.675  0.3098  0.6985  0.4427
 4754TIP3   OH214267   5.833   5.469   0.735  0.0185 -0.0457  0.4336
 4754TIP3    H114268   5.744   5.440   0.714 -0.0197  0.6268 -0.4048
 4754TIP3    H214269   5.823   5.520   0.816 -0.2902 -0.3357  0.5779
 4755TIP3   OH214270   2.935   3.513   2.231 -0.4523  0.3413 -0.2251
 4755TIP3    H114271   2.860   3.454   2.238  0.1114 -0.1611  3.5879
 4755TIP3    H214272   2.897   3.600   2.225 -1.2983 -0.0858 -1.3742
 4756TIP3   OH214273   2.877   2.873   2.774 -0.0944 -0.5267  0.2341
 4756TIP3    H114274   2.892   2.968   2.766  1.4308 -0.7235  0.4105
 4756TIP3    H214275   2.813   2.854   2.706 -0.2025  0.5915 -0.0107
 4757TIP3   OH214276   3.696   3.598   0.051 -0.4224  0.7848 -0.3286
 4757TIP3    H114277   3.695   3.592  -0.045  0.7549  0.3780 -0.3375
 4757TIP3    H214278   3.707   3.692   0.069 -2.5201  1.1168 -0.5260
 4758TIP3   OH214279   4.923   2.153   1.305 -0.0580  0.8778 -0.2600
 4758TIP3    H114280   5.007   2.154   1.350 -0.4888 -2.0281  0.8087
 4758TIP3    H214281   4.944   2.177   1.214  2.2451 -1.3426 -0.4228
 4759TIP3   OH214282   4.907   1.900   2.667  0.2900 -0.2806 -0.4397
 4759TIP3    H114283   4.864   1.898   2.582  1.0764 -0.2762 -0.8488
 4759TIP3    H214284   4.997   1.874   2.649  0.0688 -1.9686  0.6390
 4760TIP3   OH214285   3.314   5.849   3.220  0.2427  0.0613 -0.7364
 4760TIP3    H114286   3.223   5.870   3.199  0.1863 -1.1703 -1.8109
 4760TIP3    H214287   3.310   5.758   3.252  1.2828 -0.5820 -2.3464
 4761TIP3   OH214288   0.950   1.042   3.727 -0.5917 -0.5039 -0.0463
 4761TIP3    H114289   0.927   1.037   3.634  1.3723  0.9425 -0.6758
 4761TIP3    H214290   0.894   1.111   3.762  0.0986  0.4194 -0.6949
 4762TIP3   OH214291   5.070   0.262   4.989  0.2922  0.5636  0.1678
 4762TIP3    H114292   5.050   0.348   4.952 -0.8210 -0.0202 -0.6538
 4762TIP3    H214293   5.018   0.201   4.937  1.8370 -0.7256  0.0498
 4763TIP3   OH214294   4.408   0.406   3.101  0.3434  0.4059  0.3136
 4763TIP3    H114295   4.461   0.338   3.142 -1.3498 -0.9294  0.4161
 4763TIP3    H214296   4.343   0.358   3.050  0.3671  1.9908 -1.3284
 4764TIP3   OH214297   1.772   0.070   2.932  0.0253  0.1972 -0.1511
 4764TIP3    H114298   1.683   0.105   2.936  0.0628  0.5413 -1.7756
 4764TIP3    H214299   1.764  -0.020   2.966 -0.3579  1.1634  2.5503
 4765TIP3   OH214300   0.291   5.149   0.618  0.2298 -0.4049  0.2953
 4765TIP3    H114301   0.369   5.102   0.647 -0.3504 -1.8705 -0.4014
 4765TIP3    H214302   0.287   5.131   0.524  0.5447  1.9363 -0.2341
 4766TIP3   OH214303   1.306   5.842   3.134 -0.1726 -0.6647 -0.1270
 4766TIP3    H114304   1.310   5.826   3.228  0.5800  0.5911  0.0723
 4766TIP3    H214305   1.371   5.910   3.118 -0.3980 -0.7482 -1.5373
 4767TIP3   OH214306   2.726   4.872   1.668  0.1272  0.3086  0.2193
 4767TIP3    H114307   2.714   4.875   1.763 -0.0363  0.2169  0.2014
 4767TIP3    H214308   2.760   4.959   1.645  1.3037 -0.0526  0.5159
 4768TIP3   OH214309   5.101   4.898   2.751 -0.0045  0.1485 -0.0897
 4768TIP3    H114310   5.196   4.897   2.760 -0.0666  0.5125  0.7038
 4768TIP3    H214311   5.071   4.954   2.822 -1.0219 -2.5031  1.7634
 4769TIP3   OH214312   4.973   1.262   3.701 -0.1916 -0.4175  0.2285
 4769TIP3    H114313   4.916   1.204   3.750  0.5326 -1.3125  0.0360
 4769TIP3    H214314   5.033   1.204   3.654  0.9339  0.4810  0.4870
 4770TIP3   OH214315   3.524   4.510   2.225  0.0973  0.2943 -0.4797
 4770TIP3    H114316   3.461   4.578   2.201 -0.3611 -0.4333 -1.3764
 4770TIP3    H214317   3.571   4.547   2.300 -1.2489  0.9366  0.0825
 4771TIP3   OH214318   3.720   0.670   4.510 -0.2249  0.4289 -0.3387
 4771TIP3    H114319   3.698   0.591   4.460  0.1601  0.7850 -1.0855
 4771TIP3    H214320   3.638   0.719   4.514 -0.2151  0.4922 -0.8105
 4772TIP3   OH214321   5.196   2.846   2.785  0.2949  0.3017 -0.4294
 4772TIP3    H114322   5.192   2.769   2.842  0.1779  1.3363  1.0255
 4772TIP3    H214323   5.111   2.846   2.740  0.0267 -0.0440  0.0598
 4773TIP3   OH214324   5.954   4.758   0.419  0.0080 -0.1094 -0.4741
 4773TIP3    H114325   5.938   4.707   0.339 -0.5816 -2.0425  0.8149
 4773TIP3    H214326   6.048   4.747   0.435  0.3191  1.0624 -1.3781
 4774TIP3   OH214327   3.587   0.130   0.817  0.1512  0.1021 -0.2658
 4774TIP3    H114328   3.554   0.117   0.906  1.2373  0.4185  0.2046
 4774TIP3    H214329   3.544   0.210   0.787  0.7125  0.6880  0.4528
 4775TIP3   OH214330   5.311   0.704   2.556 -0.2198 -0.0650  0.0085
 4775TIP3    H114331   5.327   0.743   2.470 -3.4336  0.6702 -0.3902
 4775TIP3    H214332   5.346   0.615   2.548  0.5242  0.3262 -1.6791
 4776TIP3   OH214333   2.993   4.067   5.087 -0.2802 -0.4434  0.5924
 4776TIP3    H114334   2.927   4.013   5.044 -0.1060  0.1189 -0.4258
 4776TIP3    H214335   2.942   4.133   5.136 -0.4947  0.1555 -0.4071
 4777TIP3   OH214336   5.613   1.010   0.240  0.3436 -0.8238  0.8413
 4777TIP3    H114337   5.645   0.928   0.202  1.5094  0.4285 -1.0353
 4777TIP3    H214338   5.591   1.065   0.165 -0.5125  0.5835  2.0480
 4778TIP3   OH214339   2.741   3.423   0.598 -0.5670 -0.3157 -0.7697
 4778TIP3    H114340   2.802   3.418   0.524  0.1601 -0.4986 -0.1779
 4778TIP3    H214341   2.779   3.364   0.664  1.1410  2.8696  1.4117
 4779TIP3   OH214342   0.544   2.874   5.110  0.3440  0.0460  0.3193
 4779TIP3    H114343   0.592   2.793   5.093 -1.9484 -2.0704  2.8411
 4779TIP3    H214344   0.580   2.906   5.192 -0.4115  0.1325  0.6305
 4780TIP3   OH214345   4.671   0.683   3.229  0.0080 -0.1399 -0.5796
 4780TIP3    H114346   4.627   0.624   3.168 -0.2452  1.2785 -1.8406
 4780TIP3    H214347   4.616   0.761   3.231 -0.3641 -0.3647  2.0481
 4781TIP3   OH214348   2.786   2.212   2.386 -0.4071  0.3596  0.6247
 4781TIP3    H114349   2.767   2.217   2.293 -1.8955  0.5706  0.9270
 4781TIP3    H214350   2.875   2.176   2.390 -0.5842 -0.3084 -0.8535
 4782TIP3   OH214351   1.208   3.940   3.634 -0.5922 -0.5999 -0.0425
 4782TIP3    H114352   1.167   4.004   3.576 -0.0648  0.0816  0.3195
 4782TIP3    H214353   1.139   3.875   3.650 -0.6022 -1.0846 -1.8187
 4783TIP3   OH214354   5.352   3.760   2.693 -0.6254  0.2182  0.0264
 4783TIP3    H114355   5.407   3.762   2.615  2.0263  0.0669  1.7733
 4783TIP3    H214356   5.336   3.852   2.714 -1.4807  0.2583 -0.7300
 4784TIP3   OH214357   4.039   3.943   4.203 -0.0668  0.0682 -0.0712
 4784TIP3    H114358   4.116   3.933   4.260 -0.4493  3.8475  1.4247
 4784TIP3    H214359   3.964   3.926   4.261 -0.4054  1.4069 -0.0814
 4785TIP3   OH214360   0.760   5.900   4.145  0.2206 -0.5228  0.3078
 4785TIP3    H114361   0.721   5.870   4.063  1.4993  0.4040 -0.6847
 4785TIP3    H214362   0.686   5.909   4.205 -0.7836 -0.9265 -0.8355
 4786TIP3   OH214363   5.519   0.819   1.243  0.1823 -0.2323 -0.3550
 4786TIP3    H114364   5.486   0.733   1.268  0.9397 -0.1167  1.2119
 4786TIP3    H214365   5.452   0.856   1.186 -0.7070 -1.3884 -0.0864
 4787TIP3   OH214366   2.795   2.321   4.379 -1.0453  0.6990  0.1743
 4787TIP3    H114367   2.814   2.332   4.286 -0.9008 -0.2103  0.0887
 4787TIP3    H214368   2.703   2.347   4.388 -0.6184  2.3888  0.0955
 4788TIP3   OH214369   6.239   5.942   0.860  0.0210  0.5313 -0.4869
 4788TIP3    H114370   6.148   5.962   0.879  0.0418  1.6257 -1.3976
 4788TIP3    H214371   6.237   5.853   0.824 -0.3658 -0.3704  1.6104
 4789TIP3   OH214372   0.909   5.506   2.694  0.1360  0.6584 -0.2080
 4789TIP3    H114373   0.867   5.555   2.624  1.9559  2.8963  0.1161
 4789TIP3    H214374   0.898   5.415   2.670 -2.9144  1.1729 -1.1856
 4790TIP3   OH214375   1.020   1.374   2.298  0.4585  0.1515 -0.4231
 4790TIP3    H114376   0.972   1.332   2.370  1.2487 -0.3463 -0.1706
 4790TIP3    H214377   0.997   1.466   2.305 -1.9937 -0.3027 -1.4997
 4791TIP3   OH214378   3.319   5.279   4.930 -0.1155  0.0253  0.0545
 4791TIP3    H114379   3.311   5.346   4.862 -0.5330  0.1907  0.2590
 4791TIP3    H214380   3.280   5.201   4.892 -1.1025  0.3371  0.3866
 4792TIP3   OH214381   1.230   4.680   3.597  0.1681 -0.1067  0.5205
 4792TIP3    H114382   1.264   4.592   3.615  1.1300  0.0430 -0.4558
 4792TIP3    H214383   1.135   4.668   3.593  0.1923 -0.8612  1.5908
 4793TIP3   OH214384   3.728   1.672   3.962 -0.5536 -0.7872  0.2372
 4793TIP3    H114385   3.753   1.654   3.871  0.1000  0.2205  0.1923
 4793TIP3    H214386   3.784   1.615   4.014  0.5184  0.0528  0.0579
 4794TIP3   OH214387   5.410   5.639   0.794  0.3482 -0.2853  0.5240
 4794TIP3    H114388   5.460   5.636   0.712 -0.1027  0.0155  0.2317
 4794TIP3    H214389   5.436   5.722   0.835  0.0087 -0.0733  0.3159
 4795TIP3   OH214390   5.467   1.488   4.199 -0.3926  0.3542  0.3891
 4795TIP3    H114391   5.551   1.481   4.154  0.1573  0.9448  1.3153
 4795TIP3    H214392   5.404   1.506   4.129  0.7751  3.6062  0.0413
 4796TIP3   OH214393   5.140   2.952   0.446 -0.1112 -0.0756  0.4848
 4796TIP3    H114394   5.181   3.012   0.383 -0.2434 -0.4978 -0.0184
 4796TIP3    H214395   5.201   2.948   0.519  1.0514 -1.1214 -0.4881
 4797TIP3   OH214396   0.930   0.682   2.722  0.0304  0.4084  0.5923
 4797TIP3    H114397   0.927   0.734   2.642 -0.8407 -0.0188  0.3371
 4797TIP3    H214398   0.839   0.659   2.739  0.2283  0.2999  1.5852
 4798TIP3   OH214399   1.394   3.282   2.814 -0.0208  0.7551  0.1356
 4798TIP3    H114400   1.345   3.317   2.740 -0.7903  2.0206  1.1979
 4798TIP3    H214401   1.410   3.358   2.870  1.3378 -0.0048  0.8435
 4799TIP3   OH214402   1.211   3.110   4.995  0.4608 -0.9023  0.3641
 4799TIP3    H114403   1.273   3.040   5.015 -0.1336 -1.4517  0.3269
 4799TIP3    H214404   1.137   3.095   5.055 -0.8893 -1.9613 -1.4497
 4800TIP3   OH214405   0.421   1.958   1.204  0.2577 -0.3700 -0.5117
 4800TIP3    H114406   0.415   1.914   1.119 -1.2754  0.1037 -0.6813
 4800TIP3    H214407   0.398   1.890   1.268 -1.8329  0.0398 -0.7522
 4801TIP3   OH214408   2.386   3.852   1.790  0.4859 -0.9171 -0.4402
 4801TIP3    H114409   2.467   3.835   1.742  0.2869 -0.5711 -0.9179
 4801TIP3    H214410   2.389   3.794   1.866  0.8203 -1.4689 -0.8698
 4802TIP3   OH214411   3.321   5.114   0.516  0.2306 -0.2864 -0.2706
 4802TIP3    H114412   3.231   5.084   0.505  0.4191 -1.1755  0.4475
 4802TIP3    H214413   3.316   5.209   0.510 -1.0063 -0.2048  1.3668
 4803TIP3   OH214414   4.744   1.121   4.280 -0.1923  0.2913  0.5871
 4803TIP3    H114415   4.735   1.216   4.280 -0.1424  0.3120 -0.2581
 4803TIP3    H214416   4.836   1.106   4.256 -0.9889  0.0443 -2.7992
 4804TIP3   OH214417   4.841   4.594   3.292  0.4639 -0.1485  0.5600
 4804TIP3    H114418   4.751   4.576   3.319  0.0033 -0.3976 -1.0524
 4804TIP3    H214419   4.891   4.594   3.374 -1.2857  1.8513  1.7227
 4805TIP3   OH214420   0.719   2.737   1.621  0.4122  0.1764  0.0065
 4805TIP3    H114421   0.779   2.719   1.548  0.8813  0.7472  0.2383
 4805TIP3    H214422   0.657   2.664   1.620  0.0898  0.4406 -1.2811
 4806TIP3   OH214423   5.845   4.982   1.620 -0.1299 -0.2520 -0.2151
 4806TIP3    H114424   5.874   4.926   1.691 -0.8141 -1.7466 -1.0524
 4806TIP3    H214425   5.869   5.070   1.647  2.0136 -1.0424  0.6517
 4807TIP3   OH214426   5.142   4.608   3.143 -0.1486 -0.2461  0.7880
 4807TIP3    H114427   5.062   4.597   3.195 -0.3236 -1.0765  0.3770
 4807TIP3    H214428   5.168   4.518   3.121  0.0838  0.0727 -0.2931
 4808TIP3   OH214429   3.980  -0.007   3.930  0.5834 -0.1714 -0.4715
 4808TIP3    H114430   3.933   0.068   3.893  0.0461 -0.7406 -0.9520
 4808TIP3    H214431   4.065  -0.007   3.886  0.7198  0.3534 -0.2179
 4809TIP3   OH214432   3.700   2.124   1.415  0.4897 -0.4217 -0.8246
 4809TIP3    H114433   3.706   2.135   1.510  2.0597  3.2377 -1.1906
 4809TIP3    H214434   3.787   2.094   1.389  0.1341 -1.1807 -1.1724
 4810TIP3   OH214435   6.120   1.249   1.498  0.6703 -0.2090  0.1925
 4810TIP3    H114436   6.077   1.197   1.430  1.3456  1.3052 -1.4611
 4810TIP3    H214437   6.069   1.231   1.577 -0.5646 -1.4959 -0.8370
 4811TIP3   OH214438   2.307   0.208   2.923 -0.1137 -0.2343 -0.4412
 4811TIP3    H114439   2.399   0.232   2.913 -0.5344  1.4743 -0.3814
 4811TIP3    H214440   2.295   0.199   3.018  0.0727 -0.8888 -0.4706
 4812TIP3   OH214441   4.306   1.701   3.981 -0.2689  0.7090 -0.0992
 4812TIP3    H114442   4.318   1.620   3.932  1.3190 -1.0492  2.8772
 4812TIP3    H214443   4.341   1.770   3.924 -0.2160 -0.8860 -2.0850
 4813TIP3   OH214444   3.036   2.172   3.075 -0.4996  0.4955  0.0568
 4813TIP3    H114445   3.060   2.253   3.029 -2.4247  0.2054 -1.5799
 4813TIP3    H214446   2.965   2.135   3.023 -0.5223 -1.6175  1.4818
 4814TIP3   OH214447   5.841   4.368   3.671  0.5323  0.0060  0.0788
 4814TIP3    H114448   5.756   4.387   3.710  0.6194  1.7677 -0.4899
 4814TIP3    H214449   5.857   4.276   3.691 -1.0396 -0.0867  1.0618
 4815TIP3   OH214450   1.227   3.825   2.901 -0.1472  0.3550 -0.0539
 4815TIP3    H114451   1.194   3.914   2.894 -0.0589  0.3579 -0.4558
 4815TIP3    H214452   1.152   3.769   2.880 -0.1621  0.3385  0.0430
 4816TIP3   OH214453   5.607   1.961   0.512  0.0797  0.3297  0.1357
 4816TIP3    H114454   5.515   1.939   0.524  0.1241 -0.1763 -0.4155
 4816TIP3    H214455   5.653   1.877   0.519  0.6443  0.7277  1.6967
 4817TIP3   OH214456   2.696   1.528   4.208 -0.0483 -0.4080 -0.5324
 4817TIP3    H114457   2.623   1.466   4.216 -0.3068 -0.1381 -0.7894
 4817TIP3    H214458   2.768   1.475   4.175 -0.3914 -0.4849 -1.1724
 4818TIP3   OH214459   1.554   0.632   1.921 -0.1205 -0.4096 -0.2134
 4818TIP3    H114460   1.554   0.710   1.975  1.8620 -0.6330  0.1857
 4818TIP3    H214461   1.536   0.664   1.832  1.2203  0.6032 -0.1491
 4819TIP3   OH214462   4.993   2.339   2.985  0.1202  0.1317 -0.7650
 4819TIP3    H114463   5.024   2.378   3.067  1.1325  0.3414 -1.2315
 4819TIP3    H214464   5.063   2.279   2.960 -0.6902 -0.7673 -0.9107
 4820TIP3   OH214465   1.893   1.485   4.547  0.1405  0.8387 -0.4669
 4820TIP3    H114466   1.911   1.517   4.459  1.1097 -0.8395 -0.9389
 4820TIP3    H214467   1.863   1.562   4.595  3.3309  2.7464 -1.1974
 4821TIP3   OH214468   1.744   1.780   0.911  0.5863  0.3984  0.4369
 4821TIP3    H114469   1.814   1.758   0.973  1.1883  0.3608 -0.2438
 4821TIP3    H214470   1.718   1.695   0.874  0.1394  0.4074  0.7266
 4822TIP3   OH214471   5.380   4.513   1.202 -0.2656 -0.0351 -0.0434
 4822TIP3    H114472   5.310   4.501   1.266 -0.2322 -2.8913 -0.4088
 4822TIP3    H214473   5.343   4.572   1.136 -2.1259 -1.0388  0.0590
 4823TIP3   OH214474   4.015   2.202   0.167 -0.5663  0.4884  0.0960
 4823TIP3    H114475   4.075   2.277   0.165 -1.2103  1.0415  0.6595
 4823TIP3    H214476   3.972   2.209   0.253 -2.0713  0.6285 -0.6401
 4824TIP3   OH214477   5.762   2.010   1.067 -0.0866  0.1288 -0.4003
 4824TIP3    H114478   5.779   1.952   1.141  1.9859  1.5685  0.3435
 4824TIP3    H214479   5.772   2.098   1.103 -1.6076  0.9336 -1.8444
 4825TIP3   OH214480   5.091   2.528   0.416 -0.5407  0.0678 -0.0167
 4825TIP3    H114481   5.171   2.561   0.458 -0.7348 -0.5977  0.9047
 4825TIP3    H214482   5.093   2.565   0.328  0.2985  0.8336  0.3134
 4826TIP3   OH214483   1.009   0.260   0.330 -0.1305 -0.2881  0.3215
 4826TIP3    H114484   1.004   0.164   0.330 -0.3647 -0.3549  2.9527
 4826TIP3    H214485   0.954   0.287   0.256 -0.6613 -2.1539 -0.0223
 4827TIP3   OH214486   5.441   3.639   4.314 -0.2845  0.3741 -0.1430
 4827TIP3    H114487   5.363   3.585   4.312 -0.2353  0.3062 -2.2221
 4827TIP3    H214488   5.513   3.577   4.322 -0.3222  0.2418 -0.7890
 4828TIP3   OH214489   5.695   1.557   3.012 -0.0404 -0.7209 -0.3854
 4828TIP3    H114490   5.745   1.489   3.057  2.0283  0.6666 -0.4913
 4828TIP3    H214491   5.668   1.617   3.080  0.8815  0.0173 -0.6558
 4829TIP3   OH214492   1.912   1.262   3.541 -0.3710  0.0994  0.5485
 4829TIP3    H114493   1.899   1.339   3.487 -2.7775  0.2038  1.1298
 4829TIP3    H214494   1.970   1.205   3.490 -2.7827  0.0163 -2.3717
 4830TIP3   OH214495   2.787   5.608   2.901  0.3740 -0.2940 -0.1515
 4830TIP3    H114496   2.780   5.519   2.866 -0.3315  0.2268 -1.4438
 4830TIP3    H214497   2.859   5.647   2.852  0.3310  0.0064  0.0238
 4831TIP3   OH214498   3.217   3.329   2.717  0.0517  0.0778  0.5318
 4831TIP3    H114499   3.211   3.350   2.810  0.1081 -2.8005  1.2745
 4831TIP3    H214500   3.164   3.250   2.707  1.0117 -0.3632 -1.6318
 4832TIP3   OH214501   0.388   3.685   0.455  0.0670 -0.3942 -0.4229
 4832TIP3    H114502   0.451   3.695   0.526  0.1520  0.1902 -0.5795
 4832TIP3    H214503   0.339   3.767   0.453 -0.9558 -0.9734 -0.0781
 4833TIP3   OH214504   1.880   5.070   4.238  0.4039  0.2160  0.2241
 4833TIP3    H114505   1.804   5.128   4.235  0.6302  0.4947 -0.1316
 4833TIP3    H214506   1.878   5.024   4.154 -0.1118 -0.7256  0.7385
 4834TIP3   OH214507   3.679   0.336   1.877  0.0493 -0.3356  0.0762
 4834TIP3    H114508   3.600   0.281   1.879 -0.0905 -0.1433 -0.2053
 4834TIP3    H214509   3.698   0.347   1.784  1.3570 -1.7462  0.1241
 4835TIP3   OH214510   5.397   0.845   3.604  1.3660  0.2664  0.0377
 4835TIP3    H114511   5.420   0.761   3.645  2.2233  0.2633 -0.4287
 4835TIP3    H214512   5.412   0.830   3.510 -2.3050 -0.3298 -0.5905
 4836TIP3   OH214513   3.234   3.541   0.897 -0.3667  0.6452  0.0263
 4836TIP3    H114514   3.221   3.499   0.982  1.0101  1.0734  0.4741
 4836TIP3    H214515   3.329   3.545   0.886 -0.4941  1.8812 -0.8844
 4837TIP3   OH214516   4.240   5.320   2.229  1.2583 -0.8268  0.0104
 4837TIP3    H114517   4.179   5.284   2.165  0.8374 -1.3331  0.6789
 4837TIP3    H214518   4.323   5.325   2.183  1.0941 -1.7353 -0.3997
 4838TIP3   OH214519   2.074   1.817   0.407 -0.1864 -0.4756 -0.1021
 4838TIP3    H114520   2.054   1.896   0.457  0.5027  0.9919 -2.0147
 4838TIP3    H214521   1.988   1.781   0.384 -0.5060 -0.5974  1.1876
 4839TIP3   OH214522   2.067   4.254   3.239 -0.2167 -0.1425 -0.0847
 4839TIP3    H114523   2.015   4.331   3.216 -1.0204 -0.2452  1.2604
 4839TIP3    H214524   2.036   4.186   3.179 -0.4006  0.2498 -0.4407
 4840TIP3   OH214525   0.571   0.349   2.423  0.2853 -0.2314  0.3912
 4840TIP3    H114526   0.492   0.333   2.474 -0.3851  0.3463 -0.4436
 4840TIP3    H214527   0.573   0.444   2.410 -0.1962 -0.4397 -1.6043
 4841TIP3   OH214528   2.134   5.346   3.847 -0.0462 -0.0272  0.1598
 4841TIP3    H114529   2.080   5.403   3.792  1.0047  0.5638 -0.3027
 4841TIP3    H214530   2.210   5.400   3.870 -0.5884 -0.1419  2.4774
 4842TIP3   OH214531   2.148   1.301   1.929 -0.3920  0.1790 -0.4416
 4842TIP3    H114532   2.109   1.216   1.952  1.0535 -0.2599  0.5267
 4842TIP3    H214533   2.082   1.365   1.957 -0.2171 -0.5146  1.7626
 4843TIP3   OH214534   4.121   5.527   2.763  0.6791  0.3552 -0.2566
 4843TIP3    H114535   4.144   5.592   2.696  0.0572  1.7809  0.8498
 4843TIP3    H214536   4.155   5.563   2.844 -1.7605  0.5491  0.7831
 4844TIP3   OH214537   0.618   2.172   2.356 -0.0573  0.0237 -0.3915
 4844TIP3    H114538   0.651   2.083   2.347 -1.2940 -0.5294  0.3452
 4844TIP3    H214539   0.547   2.178   2.292  0.8801  0.9295 -1.3787
 4845TIP3   OH214540   1.247   1.269   1.279  0.2834 -0.3189  0.5894
 4845TIP3    H114541   1.253   1.357   1.242  0.4986 -0.0754  1.1941
 4845TIP3    H214542   1.253   1.282   1.373  2.9772 -1.1709  0.6413
 4846TIP3   OH214543   1.494   5.647   0.558 -0.3209  0.3438  0.2525
 4846TIP3    H114544   1.544   5.721   0.592  0.8327 -1.0485  1.7088
 4846TIP3    H214545   1.488   5.586   0.631 -2.1637 -0.5750 -0.5880
 4847TIP3   OH214546   0.281   1.224   5.045 -0.2849 -0.3037 -0.3367
 4847TIP3    H114547   0.311   1.244   5.134 -2.5073  0.1729  0.3573
 4847TIP3    H214548   0.279   1.128   5.042 -1.5482 -0.3408  0.6644
 4848TIP3   OH214549   5.268   2.625   2.249 -0.4496 -0.7119  0.0944
 4848TIP3    H114550   5.280   2.532   2.229  1.9733 -0.3392 -0.4998
 4848TIP3    H214551   5.306   2.671   2.174  0.7771  0.7274  1.5192
 4849TIP3   OH214552   2.565   3.558   1.568  0.1292 -0.4903 -0.2276
 4849TIP3    H114553   2.590   3.623   1.633  0.3750 -1.5963  0.8230
 4849TIP3    H214554   2.617   3.579   1.490 -0.0645  0.7662 -0.0244
 4850TIP3   OH214555   4.360   4.076   4.461  0.1597  0.2687 -0.2930
 4850TIP3    H114556   4.322   4.024   4.391  0.0388  1.3973 -1.0853
 4850TIP3    H214557   4.453   4.083   4.439 -0.0055  1.2217 -0.7508
 4851TIP3   OH214558   1.856   4.189   4.636  0.3670 -0.1239 -0.2500
 4851TIP3    H114559   1.896   4.255   4.579 -2.6129  1.1391 -1.0899
 4851TIP3    H214560   1.919   4.179   4.708  1.9215  2.0711 -1.1701
 4852TIP3   OH214561   1.253   3.229   3.961 -0.1678 -0.2230 -0.2833
 4852TIP3    H114562   1.320   3.168   3.991 -0.9854 -1.0929 -0.1669
 4852TIP3    H214563   1.244   3.210   3.868 -1.1743 -1.0395 -0.0322
 4853TIP3   OH214564   0.329   4.034   2.522  0.0854  0.0003 -0.0048
 4853TIP3    H114565   0.244   4.069   2.496  0.0168  1.4697  2.0185
 4853TIP3    H214566   0.315   3.998   2.610  1.3314 -0.6039 -0.0252
 4854TIP3   OH214567   2.633   3.381   3.320 -0.0976 -0.3793  0.4263
 4854TIP3    H114568   2.548   3.392   3.277  0.5649  1.2305 -0.5533
 4854TIP3    H214569   2.681   3.320   3.263  0.1452  0.3799 -0.2064
 4855TIP3   OH214570   5.937   2.798   1.813  0.2343 -0.0945  1.3856
 4855TIP3    H114571   5.949   2.855   1.738 -1.7250  0.4596  1.4576
 4855TIP3    H214572   5.879   2.729   1.782  4.1080 -3.4046  0.6675
 4856TIP3   OH214573   4.765   3.586   0.587 -0.2532  0.1408  0.6336
 4856TIP3    H114574   4.687   3.567   0.638 -0.7603 -0.4104 -0.3309
 4856TIP3    H214575   4.748   3.671   0.547 -0.3775  0.0100  0.4046
 4857TIP3   OH214576   3.771   0.737   3.821  0.2414 -0.3975 -0.1353
 4857TIP3    H114577   3.846   0.703   3.871  0.2461 -0.6480 -0.3086
 4857TIP3    H214578   3.775   0.689   3.738 -1.3073 -1.9241  0.6109
 4858TIP3   OH214579   2.401   5.560   1.230  0.1868 -0.3165  0.3926
 4858TIP3    H114580   2.457   5.516   1.294 -0.2921  0.5391  1.4356
 4858TIP3    H214581   2.440   5.647   1.220  1.1049 -0.9209 -1.6210
 4859TIP3   OH214582   5.725   0.895   1.632 -0.2592  0.2908 -0.0916
 4859TIP3    H114583   5.759   0.898   1.542 -0.3987  0.5987 -0.1323
 4859TIP3    H214584   5.680   0.978   1.644 -1.0323 -0.1249 -0.0432
 4860TIP3   OH214585   2.269   0.155   3.803 -0.1613 -0.6076  0.3934
 4860TIP3    H114586   2.201   0.097   3.770  0.7805 -1.8431  0.5485
 4860TIP3    H214587   2.234   0.189   3.885 -1.1972 -0.0209 -0.2713
 4861TIP3   OH214588   4.950   4.579   0.208  0.2628  0.3651  0.0425
 4861TIP3    H114589   4.879   4.586   0.143 -0.0120 -0.2696  0.2688
 4861TIP3    H214590   5.025   4.547   0.158  0.3336  0.8320 -0.1557
 4862TIP3   OH214591   4.072   3.790   0.924 -0.6207  0.1747 -0.9224
 4862TIP3    H114592   3.979   3.795   0.946 -1.2290  0.2643 -3.2510
 4862TIP3    H214593   4.092   3.876   0.886  0.3572  0.0648 -0.6873
 4863TIP3   OH214594   5.107   5.795   4.339  0.1496 -0.1934 -0.1326
 4863TIP3    H114595   5.015   5.803   4.312  0.7111 -1.0441 -2.5675
 4863TIP3    H214596   5.124   5.874   4.389 -1.8502  0.1006  0.1822
 4864TIP3   OH214597   1.314   4.364   4.552 -0.3220 -0.0445  0.1366
 4864TIP3    H114598   1.288   4.456   4.561  0.5700  0.4693 -2.0084
 4864TIP3    H214599   1.297   4.326   4.638 -1.6875  1.8716  0.7770
 4865TIP3   OH214600   0.180   5.467   3.198 -0.0736 -0.3037  0.0019
 4865TIP3    H114601   0.147   5.451   3.286  0.6464  0.9029  0.5229
 4865TIP3    H214602   0.102   5.462   3.142 -0.8433  0.6241  0.9430
 4866TIP3   OH214603   3.433   2.855   1.737  0.3948 -0.1502 -0.0551
 4866TIP3    H114604   3.392   2.934   1.774  0.2325  0.2728 -1.1255
 4866TIP3    H214605   3.524   2.879   1.724  0.7911 -0.7671  1.3730
 4867TIP3   OH214606   0.738   0.310   4.602  0.2578  0.0303 -0.4010
 4867TIP3    H114607   0.785   0.384   4.639 -0.5054  0.5791 -0.5015
 4867TIP3    H214608   0.773   0.234   4.648  0.8022  0.4893 -0.0463
 4868TIP3   OH214609   4.578   1.011   3.677  0.2949  0.5327  0.2355
 4868TIP3    H114610   4.637   1.009   3.602 -1.6866 -0.7057 -1.3904
 4868TIP3    H214611   4.556   1.103   3.688 -1.0016  0.5812 -2.1252
 4869TIP3   OH214612   4.402   4.164   0.808 -0.5155 -0.4843  0.2240
 4869TIP3    H114613   4.418   4.254   0.838  0.5557 -0.6094  0.0590
 4869TIP3    H214614   4.489   4.129   0.790 -0.9942 -1.1109 -1.0034
 4870TIP3   OH214615   0.023   1.087   1.983  0.1803  0.2986 -0.5467
 4870TIP3    H114616   0.048   1.044   1.901  1.1235 -0.3220  0.0496
 4870TIP3    H214617  -0.047   1.032   2.018  0.8323 -0.3190 -0.1853
 4871TIP3   OH214618   0.902   4.204   1.974  0.4165 -0.1591 -0.1166
 4871TIP3    H114619   0.982   4.190   1.923  0.3783 -0.9382  0.0141
 4871TIP3    H214620   0.843   4.134   1.945 -0.3788  0.6451 -0.5039
 4872TIP3   OH214621   3.018   1.123   1.253 -0.4436  0.0732 -0.1794
 4872TIP3    H114622   2.965   1.197   1.284 -1.2926 -0.4585 -0.3115
 4872TIP3    H214623   2.954   1.062   1.215  0.3533 -0.2677 -1.0054
 4873TIP3   OH214624   0.427   3.766   1.801  0.4274  0.7395 -0.3149
 4873TIP3    H114625   0.364   3.828   1.764 -1.9285 -1.2620  0.0158
 4873TIP3    H214626   0.441   3.702   1.732 -0.7642 -0.7578  0.7350
 4874TIP3   OH214627   4.348   2.764   5.146 -0.1267  0.1543 -0.2440
 4874TIP3    H114628   4.361   2.821   5.070  1.1404 -1.8168 -1.5865
 4874TIP3    H214629   4.312   2.683   5.110  0.3073 -0.7525  1.2763
 4875TIP3   OH214630   5.145   0.286   3.825 -0.1395  0.1098  0.2097
 4875TIP3    H114631   5.099   0.322   3.750  0.3392  1.0900  0.3704
 4875TIP3    H214632   5.099   0.204   3.844 -1.4344  0.7600  0.0018
 4876TIP3   OH214633   3.214   3.099   4.796  0.1346  0.8872  0.2565
 4876TIP3    H114634   3.183   3.027   4.852  1.4789 -0.5412 -0.7467
 4876TIP3    H214635   3.151   3.103   4.725  0.5421  0.0637 -0.1615
 4877TIP3   OH214636   5.298   5.640   5.049  0.2053  0.2484  0.0924
 4877TIP3    H114637   5.385   5.627   5.086 -0.2340 -0.5992  0.8470
 4877TIP3    H214638   5.299   5.731   5.019  0.5830  0.9680  2.1604
 4878TIP3   OH214639   3.743   1.380   3.416  0.1737 -0.1292 -0.1459
 4878TIP3    H114640   3.810   1.316   3.440  0.4363 -0.3542 -1.4089
 4878TIP3    H214641   3.776   1.419   3.335 -1.2181 -0.2478 -0.7924
 4879TIP3   OH214642   0.040   1.587   0.812  0.4613  0.2544  0.9212
 4879TIP3    H114643  -0.043   1.590   0.859  0.5351  0.3581  1.0465
 4879TIP3    H214644   0.097   1.646   0.861  0.3050  0.9774  0.2482
 4880TIP3   OH214645   4.442   5.839   1.098  0.3463 -0.4109  0.7154
 4880TIP3    H114646   4.519   5.782   1.094 -0.0669 -0.9282 -0.6602
 4880TIP3    H214647   4.371   5.781   1.124  0.0464 -0.4028 -0.0511
 4881TIP3   OH214648   2.243   0.409   2.436  0.4723  0.3754 -0.1711
 4881TIP3    H114649   2.153   0.378   2.447  1.1199 -1.3345  0.5729
 4881TIP3    H214650   2.282   0.398   2.523  2.2650 -1.8322 -1.1672
 4882TIP3   OH214651   1.255   5.077   4.529 -0.2396  0.5465  0.2986
 4882TIP3    H114652   1.346   5.058   4.505 -0.1946  2.0607 -0.8587
 4882TIP3    H214653   1.203   5.030   4.464 -0.2460  1.0232 -0.0366
 4883TIP3   OH214654   1.125   4.464   2.053  0.1378 -0.4596  0.6111
 4883TIP3    H114655   1.081   4.380   2.062  0.8236 -0.8707  0.1853
 4883TIP3    H214656   1.197   4.461   2.116 -0.3605  0.1717  1.2326
 4884TIP3   OH214657   3.639   1.031   0.317 -0.0187 -0.0002  0.0750
 4884TIP3    H114658   3.587   0.950   0.314  0.8286 -0.6003  0.9105
 4884TIP3    H214659   3.715   1.008   0.370  0.1069  1.4298  0.5422
 4885TIP3   OH214660   4.627   3.371   2.567  0.1210  0.0301  0.4889
 4885TIP3    H114661   4.591   3.420   2.493 -2.7676 -1.3888  0.8112
 4885TIP3    H214662   4.672   3.296   2.527  1.1730  0.8331  0.1256
 4886TIP3   OH214663   6.027   5.301   0.889  0.0158  0.6202 -0.1706
 4886TIP3    H114664   6.101   5.335   0.838 -0.1718 -1.5984 -2.1171
 4886TIP3    H214665   5.950   5.336   0.846 -0.1155  1.1750  0.5029
 4887TIP3   OH214666   5.431   2.654   1.374 -0.1720 -0.2244 -0.0669
 4887TIP3    H114667   5.524   2.633   1.367 -0.0586  0.1373  0.3312
 4887TIP3    H214668   5.429   2.749   1.380 -0.5621 -0.2433  0.0696
 4888TIP3   OH214669   6.295   1.948   4.902  0.0572  0.2344  0.2518
 4888TIP3    H114670   6.247   2.030   4.905  0.0471  0.2254  0.3411
 4888TIP3    H214671   6.382   1.973   4.871  0.4207  0.4601  1.3989
 4889TIP3   OH214672   0.022   2.548   1.864  0.0747 -0.1864  0.8645
 4889TIP3    H114673  -0.040   2.613   1.898 -1.4983  0.2441 -2.3838
 4889TIP3    H214674   0.102   2.597   1.848 -0.8660  0.9168 -0.8698
 4890TIP3   OH214675   5.940   4.763   3.173  0.0839  0.3205  0.1980
 4890TIP3    H114676   5.961   4.801   3.259  0.5444  0.0138  0.2303
 4890TIP3    H214677   5.845   4.771   3.165 -0.1916 -1.1613  1.4836
 4891TIP3   OH214678   3.055   1.097   4.823  0.1391 -0.2453  0.1756
 4891TIP3    H114679   3.025   1.044   4.897 -2.6733  0.6989 -0.1936
 4891TIP3    H214680   3.137   1.136   4.854  1.3022 -3.1613  1.1500
 4892TIP3   OH214681   6.033   2.444   1.824  0.0467 -0.0230  0.4288
 4892TIP3    H114682   5.937   2.443   1.828  0.0246  0.3113  0.0746
 4892TIP3    H214683   6.055   2.536   1.809  0.4213 -0.1135  0.4156
 4893TIP3   OH214684   4.742   5.115   1.713 -0.0870 -0.2375 -0.2186
 4893TIP3    H114685   4.762   5.025   1.740  3.7541  0.7417  0.8293
 4893TIP3    H214686   4.785   5.125   1.628  0.7709  0.9447  0.3203
 4894TIP3   OH214687   1.560   1.911   3.118 -0.1792 -0.2767 -0.1785
 4894TIP3    H114688   1.609   1.991   3.135 -0.4736 -0.1329  0.0177
 4894TIP3    H214689   1.591   1.849   3.184 -1.6228  0.4117  1.2250
 4895TIP3   OH214690   6.340   4.804   0.844 -0.5975  0.1519  0.2555
 4895TIP3    H114691   6.375   4.893   0.843  1.4703 -0.5851  0.9664
 4895TIP3    H214692   6.276   4.804   0.915  1.8616  0.3014  2.6650
 4896TIP3   OH214693   1.799   0.511   2.007 -0.1062 -0.3790  0.0083
 4896TIP3    H114694   1.724   0.563   1.977 -0.3914 -0.4125  0.6480
 4896TIP3    H214695   1.844   0.486   1.926 -0.5280  0.0196 -0.3609
 4897TIP3   OH214696   2.275   4.671   2.529 -0.2006  0.1483  0.3854
 4897TIP3    H114697   2.346   4.618   2.491 -0.6966 -0.5890  0.4603
 4897TIP3    H214698   2.274   4.751   2.476 -0.5876 -0.6699 -0.9152
 4898TIP3   OH214699   1.433   1.096   2.904 -0.6055 -0.1818  0.1480
 4898TIP3    H114700   1.392   1.151   2.972 -2.4329 -1.1341 -0.1244
 4898TIP3    H214701   1.474   1.159   2.845  0.2133  0.7181  1.6034
 4899TIP3   OH214702   1.727   4.379   0.476 -0.3129  0.2606  0.1278
 4899TIP3    H114703   1.787   4.433   0.528 -0.3603  0.1425  0.3047
 4899TIP3    H214704   1.648   4.433   0.467 -0.0612  0.5530 -0.3870
 4900TIP3   OH214705   5.580   5.015   0.687  0.1291  0.0712 -0.1440
 4900TIP3    H114706   5.569   5.018   0.592 -0.1204 -1.1018 -0.1688
 4900TIP3    H214707   5.627   4.934   0.703  2.0125  1.2368  0.5904
 4901TIP3   OH214708   0.635   2.961   2.997  0.3261 -0.5817 -0.0717
 4901TIP3    H114709   0.600   2.873   3.014  2.3461 -1.4228  0.0246
 4901TIP3    H214710   0.725   2.957   3.029  0.7927  1.2153 -1.0543
 4902TIP3   OH214711   0.764   3.626   3.945  0.5477  0.4743 -0.2411
 4902TIP3    H114712   0.703   3.596   4.013 -0.1356  1.0082 -0.6097
 4902TIP3    H214713   0.841   3.569   3.955  0.3345  0.3426  0.7776
 4903TIP3   OH214714   1.927   4.849   4.615  0.5622 -0.0168 -0.4630
 4903TIP3    H114715   1.873   4.915   4.658  1.7999 -0.5201  2.0318
 4903TIP3    H214716   1.938   4.780   4.680 -0.3282 -2.5848 -2.8220
 4904TIP3   OH214717   6.359   4.124   2.597  0.1509  0.1930 -1.0019
 4904TIP3    H114718   6.286   4.170   2.638  0.6596  1.2632 -1.2474
 4904TIP3    H214719   6.329   4.106   2.508 -0.7317 -1.6083 -0.3771
 4905TIP3   OH214720   3.185   2.416   3.306 -0.2734 -0.3666 -0.3875
 4905TIP3    H114721   3.162   2.411   3.213 -2.5646  0.4996  0.0467
 4905TIP3    H214722   3.198   2.325   3.332 -1.3811 -0.7800 -1.1894
 4906TIP3   OH214723   0.541   1.237   1.433 -0.1145  0.3551  0.6548
 4906TIP3    H114724   0.577   1.310   1.482  0.1126  1.2045 -0.7306
 4906TIP3    H214725   0.579   1.245   1.346 -0.0388 -1.4499  0.4822
 4907TIP3   OH214726   1.258   5.762   0.169 -0.3859 -0.1459  0.0076
 4907TIP3    H114727   1.348   5.738   0.148 -0.5396 -1.2775  0.5786
 4907TIP3    H214728   1.204   5.695   0.126 -0.8458 -0.6127  1.2680
 4908TIP3   OH214729   5.111   4.821   2.483  0.4707 -0.3691  0.2280
 4908TIP3    H114730   5.060   4.823   2.565  1.1730  0.3045  0.6607
 4908TIP3    H214731   5.202   4.831   2.511  0.6061  1.3620 -0.7295
 4909TIP3   OH214732   4.944   3.603   4.287  0.2601 -0.4258  0.0415
 4909TIP3    H114733   4.863   3.627   4.241  0.2690  2.3520  1.3192
 4909TIP3    H214734   5.000   3.680   4.279  2.2021 -1.7317  0.5241
 4910TIP3   OH214735   1.668   3.969   0.647 -0.2181  0.3060 -0.4422
 4910TIP3    H114736   1.659   3.918   0.727 -0.4812  0.4593 -0.3723
 4910TIP3    H214737   1.579   3.996   0.625 -0.3237 -0.8300 -1.5122
 4911TIP3   OH214738   4.476   0.165   3.210  0.3345  0.0095 -0.3711
 4911TIP3    H114739   4.443   0.168   3.300  2.7458  2.2169  0.5770
 4911TIP3    H214740   4.524   0.083   3.204  0.2278 -0.1160  0.3946
 4912TIP3   OH214741   5.700   0.136   5.062  0.4946  0.3697 -0.1780
 4912TIP3    H114742   5.777   0.187   5.037  0.3330  0.1967 -1.0724
 4912TIP3    H214743   5.631   0.201   5.077  0.5681  0.4760 -0.3032
 4913TIP3   OH214744   5.991   3.420   2.691 -0.1950  0.2123  0.7919
 4913TIP3    H114745   6.002   3.327   2.673 -1.7243  0.1013  0.2963
 4913TIP3    H214746   5.949   3.423   2.777 -2.4583  0.2887 -0.2434
 4914TIP3   OH214747   0.505   1.693   4.214 -0.0126 -0.1935  0.1904
 4914TIP3    H114748   0.413   1.717   4.201 -0.3250 -1.2838  0.2947
 4914TIP3    H214749   0.508   1.598   4.199  0.5906 -0.6604  2.8544
 4915TIP3   OH214750   4.916   3.314   4.841 -0.1377 -0.7708  0.3629
 4915TIP3    H114751   4.985   3.259   4.878 -0.5999 -2.7318 -1.4388
 4915TIP3    H214752   4.852   3.251   4.807 -0.4663  0.8574 -2.3132
 4916TIP3   OH214753   3.189   4.974   3.810 -0.4136  0.1771 -0.5591
 4916TIP3    H114754   3.272   5.017   3.833 -1.8232  2.2272  1.2080
 4916TIP3    H214755   3.186   4.978   3.715  0.6766  1.8767 -0.5835
 4917TIP3   OH214756   0.247   1.477   2.883 -0.7141 -0.5670  0.1496
 4917TIP3    H114757   0.342   1.475   2.875 -0.5996 -0.5260  1.3056
 4917TIP3    H214758   0.231   1.498   2.975 -1.8476 -0.9905  0.0662
 4918TIP3   OH214759   0.891   5.538   0.975 -0.0025  0.2020 -0.6714
 4918TIP3    H114760   0.911   5.448   0.952  0.6123  0.4011 -0.9475
 4918TIP3    H214761   0.905   5.587   0.894 -0.4357  0.5331 -0.5531
 4919TIP3   OH214762   3.532   5.086   1.414 -0.3986 -0.5552  0.0430
 4919TIP3    H114763   3.500   5.117   1.499  1.4632 -0.3507  0.7194
 4919TIP3    H214764   3.543   4.992   1.426  0.2501 -0.4676  0.1821
 4920TIP3   OH214765   0.143   2.906   1.435 -0.4987  0.2345 -0.0033
 4920TIP3    H114766   0.061   2.881   1.391 -0.2883 -1.3149  0.4414
 4920TIP3    H214767   0.206   2.914   1.364 -0.5143 -0.8030 -0.1503
 4921TIP3   OH214768   4.057   5.130   4.729  0.2516  0.4814 -0.2664
 4921TIP3    H114769   4.097   5.216   4.717 -0.0521  0.5945 -0.4835
 4921TIP3    H214770   4.089   5.079   4.654  0.4941  0.3776 -0.0960
 4922TIP3   OH214771   5.984   1.600   1.435  0.4070 -0.0075 -0.0255
 4922TIP3    H114772   6.021   1.588   1.348 -3.8242 -3.1879 -1.7475
 4922TIP3    H214773   5.894   1.628   1.418 -1.0113 -2.0890  3.2005
 4923TIP3   OH214774   2.512   2.471   4.995  0.0648  0.0960 -0.0913
 4923TIP3    H114775   2.593   2.472   5.046  0.4150  0.3470 -0.6294
 4923TIP3    H214776   2.474   2.558   5.009  0.1507  0.1578 -0.2339
 4924TIP3   OH214777   2.971   1.323   3.394  0.1867  0.4786 -0.1500
 4924TIP3    H114778   3.047   1.279   3.433 -1.6190 -1.2424  1.6541
 4924TIP3    H214779   2.924   1.253   3.348 -1.2726  1.0988  0.3436
 4925TIP3   OH214780   0.759   0.412   4.006  0.2119 -0.3130 -0.1426
 4925TIP3    H114781   0.767   0.343   4.071 -1.0996  0.2765  0.6910
 4925TIP3    H214782   0.687   0.384   3.949 -0.5884  0.5036  0.4326
 4926TIP3   OH214783   1.202   3.971   0.089 -0.0281  0.2016 -0.3091
 4926TIP3    H114784   1.243   3.892   0.052  1.3343  0.2205  1.0650
 4926TIP3    H214785   1.227   4.041   0.028 -0.1922 -0.2056 -0.8594
 4927TIP3   OH214786   0.073   3.088   4.983  0.2972  0.3197 -0.2121
 4927TIP3    H114787   0.109   3.012   4.937  1.5656  1.0985 -0.5827
 4927TIP3    H214788  -0.015   3.061   5.009 -0.0016 -0.6078 -1.9901
 4928TIP3   OH214789   1.777   4.390   0.080 -0.1640  0.5630 -0.3069
 4928TIP3    H114790   1.820   4.445   0.145 -1.4609  1.1595  0.1002
 4928TIP3    H214791   1.803   4.427  -0.004  2.8349 -1.2046 -0.2798
 4929TIP3   OH214792   0.437   1.043   1.040  0.3222  0.7846 -0.1119
 4929TIP3    H114793   0.364   1.040   0.980 -0.3146  0.5136  0.6618
 4929TIP3    H214794   0.508   0.996   0.995  0.0264  1.0328 -0.8480
 4930TIP3   OH214795   3.414   3.423   3.452  0.2879 -0.1197 -0.3254
 4930TIP3    H114796   3.503   3.457   3.464  0.8427 -1.7152  0.2848
 4930TIP3    H214797   3.387   3.458   3.367  2.0044 -0.6478 -1.1414
 4931TIP3   OH214798   0.348   0.362   0.360 -0.6559  0.3389 -0.1378
 4931TIP3    H114799   0.346   0.443   0.410 -0.1068  0.0344  0.3947
 4931TIP3    H214800   0.257   0.346   0.336 -0.5812  1.9322 -1.6205
 4932TIP3   OH214801   1.728   5.043   0.987  0.3951  0.0104 -0.4828
 4932TIP3    H114802   1.791   5.062   0.917  1.0545 -2.2239 -0.5830
 4932TIP3    H214803   1.643   5.042   0.943  0.2360  2.6206 -0.4259
 4933TIP3   OH214804   3.366   3.476   2.118 -0.4925  0.5651  0.4171
 4933TIP3    H114805   3.359   3.554   2.174 -2.3124 -0.4552  1.6765
 4933TIP3    H214806   3.285   3.475   2.068 -0.9040 -0.9759  1.0624
 4934TIP3   OH214807   5.056   2.252   1.021 -0.0872  0.0252  0.4091
 4934TIP3    H114808   5.129   2.310   1.001 -0.0108  0.4864  1.8925
 4934TIP3    H214809   5.070   2.175   0.965 -0.6253  1.6949 -2.2053
 4935TIP3   OH214810   0.404   0.656   0.061 -0.1429  0.2496  0.2316
 4935TIP3    H114811   0.330   0.678   0.005 -0.6262  0.7180  1.0364
 4935TIP3    H214812   0.477   0.706   0.024 -0.7175  1.4721  0.6798
 4936TIP3   OH214813   2.436   4.032   1.158 -0.3207  0.1364 -0.4860
 4936TIP3    H114814   2.390   3.993   1.232  0.8998 -1.2710 -0.4318
 4936TIP3    H214815   2.373   4.093   1.120 -2.0971 -1.4897 -0.2485
 4937TIP3   OH214816   3.089   4.824   0.196  0.3756 -1.0071 -0.1583
 4937TIP3    H114817   3.156   4.853   0.134  0.6802 -1.7488 -0.1898
 4937TIP3    H214818   3.135   4.822   0.280 -0.2676  0.8733  0.2916
 4938TIP3   OH214819   1.356   1.158   2.066  0.1617  0.0520  0.0042
 4938TIP3    H114820   1.311   1.230   2.022  2.1029  0.7544 -0.9465
 4938TIP3    H214821   1.345   1.175   2.159  0.2476  1.3629 -0.2174
 4939TIP3   OH214822   1.367   5.965   1.947 -0.1827 -0.2714 -0.3464
 4939TIP3    H114823   1.459   5.945   1.963 -0.1927 -0.3803 -0.4195
 4939TIP3    H214824   1.333   5.996   2.031 -0.1337 -0.4379 -0.2649
 4940TIP3   OH214825   2.846   1.512   1.162 -0.4197  0.4714 -0.1565
 4940TIP3    H114826   2.831   1.436   1.107  1.3210  1.0082 -1.4359
 4940TIP3    H214827   2.890   1.576   1.105  0.7842  1.3368  1.6289
 4941TIP3   OH214828   0.260   0.142   3.237  0.0261 -0.2574 -0.0870
 4941TIP3    H114829   0.207   0.078   3.189 -0.5142  0.8940 -1.0816
 4941TIP3    H214830   0.348   0.131   3.202 -0.4272  0.8098 -1.6659
 4942TIP3   OH214831   1.763   1.912   0.111 -0.0671 -0.0549  0.1467
 4942TIP3    H114832   1.704   1.902   0.036 -0.1104 -0.1894  0.1975
 4942TIP3    H214833   1.850   1.902   0.073 -0.1407 -3.1040  0.5141
 4943TIP3   OH214834   3.429   5.274   5.169 -0.1046 -0.3053 -0.1977
 4943TIP3    H114835   3.383   5.275   5.085 -1.8951 -1.6139  0.6886
 4943TIP3    H214836   3.415   5.362   5.205 -0.9573 -0.3286 -0.4480
 4944TIP3   OH214837   2.950   5.080   1.367 -0.6391  0.2732 -0.0054
 4944TIP3    H114838   3.032   5.081   1.415 -0.4504 -2.7930 -0.0535
 4944TIP3    H214839   2.948   5.163   1.320  2.3534  0.5172  0.1143
 4945TIP3   OH214840   1.441   2.353   2.302 -0.0970 -0.2518 -0.5081
 4945TIP3    H114841   1.492   2.274   2.281  0.7858 -0.2913  1.5777
 4945TIP3    H214842   1.508   2.420   2.318 -0.5795 -0.4112  2.7167
 4946TIP3   OH214843   0.007   2.516   0.451 -0.1777 -0.0625  0.0127
 4946TIP3    H114844   0.079   2.570   0.419 -0.6001  0.8206  0.5033
 4946TIP3    H214845  -0.071   2.571   0.442 -0.7577 -0.9028 -0.2555
 4947TIP3   OH214846   2.503   5.294   2.501  0.1335  0.2559 -0.1046
 4947TIP3    H114847   2.436   5.363   2.500  0.0250  0.1598 -2.1115
 4947TIP3    H214848   2.482   5.242   2.578 -3.2417 -0.8513 -1.5993
 4948TIP3   OH214849   5.048   1.386   3.258  0.1569 -0.4784 -0.1896
 4948TIP3    H114850   5.068   1.400   3.166 -2.1697 -0.6929 -0.7822
 4948TIP3    H214851   5.041   1.475   3.294 -0.3836 -0.3663 -0.5651
 4949TIP3   OH214852   2.782   2.002   5.030 -0.1676 -0.1764 -0.5110
 4949TIP3    H114853   2.788   1.913   4.995  1.1951 -0.2223 -0.1809
 4949TIP3    H214854   2.872   2.030   5.042 -0.5777  1.2939 -0.6872
 4950TIP3   OH214855   3.631  -0.022   4.028  0.4719 -0.5778 -0.2171
 4950TIP3    H114856   3.607   0.061   3.990  2.0286 -0.7921 -1.7965
 4950TIP3    H214857   3.694   0.000   4.097  0.8733 -0.4257 -0.6265
 4951TIP3   OH214858   4.837   5.608   3.670 -0.6427 -0.1038 -0.2429
 4951TIP3    H114859   4.745   5.626   3.686 -0.4321  1.2110 -0.3191
 4951TIP3    H214860   4.880   5.622   3.755 -0.3810  0.3825 -0.4489
 4952TIP3   OH214861   1.279   1.627   3.891  0.0353 -0.0166 -0.3911
 4952TIP3    H114862   1.331   1.575   3.953  1.9779  1.6489 -0.5076
 4952TIP3    H214863   1.188   1.609   3.915  0.6907 -0.1977  2.3394
 4953TIP3   OH214864   0.384   2.591   4.236 -0.0747  0.3146  0.2858
 4953TIP3    H114865   0.463   2.598   4.183 -0.6792  0.2888 -0.6415
 4953TIP3    H214866   0.343   2.510   4.208  0.0975 -0.2227  1.5230
 4954TIP3   OH214867   5.871   5.507   4.288  0.4500 -0.4222  0.0770
 4954TIP3    H114868   5.789   5.494   4.239  0.3597 -0.3631  0.2131
 4954TIP3    H214869   5.859   5.457   4.369  0.1302  0.4388  0.5732
 4955TIP3   OH214870   2.629   1.122   3.559  0.8952  0.0984 -0.1015
 4955TIP3    H114871   2.721   1.125   3.585  0.5986  1.6922  0.9038
 4955TIP3    H214872   2.581   1.117   3.642 -0.0062  2.7038 -0.3827
 4956TIP3   OH214873   2.606   4.345   4.739  0.1560  0.5991 -0.0669
 4956TIP3    H114874   2.663   4.411   4.779  1.2213 -1.4987  2.1587
 4956TIP3    H214875   2.664   4.291   4.686  0.0004 -0.5516  0.8758
 4957TIP3   OH214876   1.410   3.012   4.035  0.2362 -0.0742 -0.2085
 4957TIP3    H114877   1.502   3.017   4.059  0.1217  1.8540  0.0326
 4957TIP3    H214878   1.364   2.996   4.117  0.2209  1.2548  0.0642
 4958TIP3   OH214879   3.353   4.697   1.023 -0.1999  0.0726 -0.2589
 4958TIP3    H114880   3.301   4.755   1.079 -0.3375 -0.9136  0.6642
 4958TIP3    H214881   3.317   4.610   1.039  1.3298 -0.5449 -0.0750
 4959TIP3   OH214882   0.952   5.515   3.801  0.6094  0.5171 -0.2405
 4959TIP3    H114883   0.925   5.603   3.828  0.0071  0.3189 -0.1613
 4959TIP3    H214884   0.930   5.510   3.708  1.0196  0.5874 -0.3419
 4960TIP3   OH214885   5.622   5.865   1.752  0.5196 -0.6934 -0.0603
 4960TIP3    H114886   5.661   5.798   1.808  0.4110 -1.4468 -0.8694
 4960TIP3    H214887   5.595   5.934   1.813  1.2750 -1.0597  0.7105
 4961TIP3   OH214888   1.213   0.295   2.416  0.0447  0.3839  0.2402
 4961TIP3    H114889   1.301   0.315   2.449  0.0417 -0.0437  0.5153
 4961TIP3    H214890   1.227   0.254   2.331  0.1780 -0.6968  0.7611
 4962TIP3   OH214891   1.416   3.725   0.066  0.4020 -0.1802 -0.2313
 4962TIP3    H114892   1.372   3.729  -0.019  1.8889 -0.9979 -1.0905
 4962TIP3    H214893   1.493   3.781   0.055  0.4492 -0.0602  0.6845
 4963TIP3   OH214894   2.981   3.769   1.627 -0.3147  0.2921 -0.1436
 4963TIP3    H114895   2.950   3.739   1.542 -2.5235  1.0163  0.3449
 4963TIP3    H214896   3.039   3.698   1.657 -1.4238 -1.1315 -1.1913
 4964TIP3   OH214897   2.381   4.768   1.962 -0.1651  0.0704  0.1777
 4964TIP3    H114898   2.333   4.685   1.961  1.9988 -1.2978  1.7583
 4964TIP3    H214899   2.355   4.810   2.044  0.8294 -0.3935  0.7431
 4965TIP3   OH214900   6.034   0.099   2.674  0.2872  0.1577  0.1060
 4965TIP3    H114901   6.020   0.131   2.585  0.6168 -1.8225 -0.7115
 4965TIP3    H214902   6.051   0.005   2.663  0.3949 -0.1155  2.2584
 4966TIP3   OH214903   1.348   0.474   3.681  0.2953 -0.2331 -0.0433
 4966TIP3    H114904   1.401   0.524   3.619 -0.4558 -0.1788 -0.6542
 4966TIP3    H214905   1.303   0.541   3.734  0.8446 -0.2784  0.4878
 4967TIP3   OH214906   3.963   5.597   5.001  0.3845 -0.2610  0.0475
 4967TIP3    H114907   4.001   5.646   5.075 -0.7254 -2.0504  1.9023
 4967TIP3    H214908   3.968   5.506   5.028 -1.3905 -0.8651 -1.4613
 4968TIP3   OH214909   4.080   5.709   4.673  0.2302  0.5762 -0.3903
 4968TIP3    H114910   4.111   5.632   4.720 -0.5324  0.7435  0.4013
 4968TIP3    H214911   4.157   5.766   4.667  0.4587  0.3430  0.2256
 4969TIP3   OH214912   1.710   3.245   5.160  0.3104  0.2030 -0.1728
 4969TIP3    H114913   1.655   3.294   5.099 -0.6113  2.2664  2.1718
 4969TIP3    H214914   1.671   3.158   5.163 -1.0538  0.7718 -0.7286
 4970TIP3   OH214915   1.245   5.153   1.413  0.5151 -0.0310  0.0313
 4970TIP3    H114916   1.253   5.239   1.372  2.2209 -0.2380 -0.1478
 4970TIP3    H214917   1.223   5.093   1.341 -2.1476  0.4333  0.3880
 4971TIP3   OH214918   2.942   3.976   3.287  0.4145  0.0086 -0.3337
 4971TIP3    H114919   2.964   4.068   3.275  1.6167  0.1972  2.4158
 4971TIP3    H214920   2.931   3.941   3.199  0.9827  2.5243 -1.4745
 4972TIP3   OH214921   4.007   0.087   0.491  0.1814  0.5457  0.3036
 4972TIP3    H114922   3.941   0.131   0.437  0.4730  1.1139  0.4041
 4972TIP3    H214923   4.008   0.137   0.572  1.0885  0.8452  0.1106
 4973TIP3   OH214924   3.378   3.753   1.163 -0.2381 -0.1956 -0.1255
 4973TIP3    H114925   3.319   3.734   1.236 -1.5466  1.7053 -0.6242
 4973TIP3    H214926   3.441   3.815   1.199 -1.2470  1.2119 -0.7324
 4974TIP3   OH214927   5.478   5.484   2.680  0.5033  0.0106  0.1877
 4974TIP3    H114928   5.452   5.534   2.603  0.4594 -0.3068 -0.0011
 4974TIP3    H214929   5.407   5.499   2.743 -1.0449 -2.2349 -0.9127
 4975TIP3   OH214930   4.419   1.280   1.338 -0.5065 -0.1138  0.2386
 4975TIP3    H114931   4.497   1.331   1.358  0.3672 -0.5204 -1.8612
 4975TIP3    H214932   4.383   1.255   1.423  0.5829  1.6661  1.2535
 4976TIP3   OH214933   5.522   5.124   3.825 -0.0917  0.3349  0.5038
 4976TIP3    H114934   5.455   5.184   3.859 -0.5766  0.8373 -1.2597
 4976TIP3    H214935   5.483   5.037   3.835 -1.0424  0.6181 -0.4929
 4977TIP3   OH214936   2.932   3.825   1.285 -0.0241 -0.1472  0.2806
 4977TIP3    H114937   2.866   3.785   1.228  1.0513  0.7437 -1.7025
 4977TIP3    H214938   2.882   3.878   1.347 -1.1950  0.2001 -0.9130
 4978TIP3   OH214939   4.714   4.728   1.126 -0.2574 -0.8088 -0.3698
 4978TIP3    H114940   4.800   4.764   1.147 -0.7092  0.1064 -0.0416
 4978TIP3    H214941   4.702   4.656   1.187  0.0164 -0.5475 -0.0087
 4979TIP3   OH214942   5.353   3.728   1.039 -0.2978  0.4004  0.2716
 4979TIP3    H114943   5.370   3.667   0.967 -0.8025  1.8281 -1.1439
 4979TIP3    H214944   5.434   3.730   1.090  0.2260 -0.3384 -0.5085
 4980TIP3   OH214945   4.338   2.270   2.707 -0.4219 -0.0472  0.3971
 4980TIP3    H114946   4.264   2.242   2.653  0.8841 -0.8763 -1.0135
 4980TIP3    H214947   4.377   2.343   2.659 -0.4705  0.6123  1.3047
 4981TIP3   OH214948   6.080   0.653   4.525  0.1237  0.2678 -0.5351
 4981TIP3    H114949   6.069   0.676   4.617  0.8574  0.3124 -0.4558
 4981TIP3    H214950   6.007   0.594   4.507 -1.6134  2.2948 -0.6460
 4982TIP3   OH214951   6.163   1.483   3.561  0.1545  0.0486 -1.0114
 4982TIP3    H114952   6.194   1.573   3.572  0.1588 -0.1567  1.0614
 4982TIP3    H214953   6.181   1.441   3.645  1.0382 -2.1821 -2.2053
 4983TIP3   OH214954   0.931   3.487   0.812 -0.6272  0.1309  0.3988
 4983TIP3    H114955   0.926   3.468   0.718  0.4419  0.3657  0.2837
 4983TIP3    H214956   0.965   3.576   0.817 -1.6524  0.5148  1.0100
 4984TIP3   OH214957   2.705   2.188   0.139  0.0270 -0.2558  0.5018
 4984TIP3    H114958   2.639   2.118   0.135  0.2357 -0.4841  0.9375
 4984TIP3    H214959   2.660   2.262   0.179 -0.3002 -0.0133 -0.2999
 4985TIP3   OH214960   4.127   2.697   3.960  0.1161 -0.0546 -0.0197
 4985TIP3    H114961   4.136   2.792   3.952  0.0875  0.0284  0.9088
 4985TIP3    H214962   4.036   2.680   3.939 -0.4084  0.3593  1.7577
 4986TIP3   OH214963   4.028   1.663   0.200 -0.5116 -0.3999  0.0447
 4986TIP3    H114964   3.940   1.655   0.239 -0.1433 -0.6051  0.8537
 4986TIP3    H214965   4.053   1.754   0.217 -0.6158 -0.3111 -0.2839
 4987TIP3   OH214966   6.099   4.322   3.426 -0.4398  0.4489  0.9385
 4987TIP3    H114967   6.161   4.340   3.498 -2.0605  0.5401  2.3779
 4987TIP3    H214968   6.066   4.408   3.401  0.1163  0.4164  0.0455
 4988TIP3   OH214969   2.932   5.682   2.679  0.2099  0.6547  0.1140
 4988TIP3    H114970   2.942   5.631   2.599 -1.3435 -3.0808  2.0387
 4988TIP3    H214971   3.014   5.731   2.686  1.6192 -1.1012 -2.2837
 4989TIP3   OH214972   1.919   4.034   0.861  0.1125  0.3580  0.0857
 4989TIP3    H114973   1.896   4.017   0.769 -0.7969 -0.1440  0.3970
 4989TIP3    H214974   1.842   4.077   0.898  0.5622  0.7746  0.5663
 4990TIP3   OH214975   3.030   0.573   3.863 -0.0184  0.3835 -0.3401
 4990TIP3    H114976   2.979   0.550   3.786 -0.6555  1.8167 -0.3700
 4990TIP3    H214977   3.062   0.661   3.846  0.3899  0.4637  0.7493
 4991TIP3   OH214978   0.753   2.376   1.704  0.5686 -0.0220 -0.6190
 4991TIP3    H114979   0.807   2.435   1.756  1.4615 -2.1612  1.0600
 4991TIP3    H214980   0.676   2.427   1.681  1.0289  1.6190  1.2031
 4992TIP3   OH214981   3.499   4.092   1.936  0.0218  0.3862  0.3659
 4992TIP3    H114982   3.513   4.166   1.996  2.1343  0.3026  0.0480
 4992TIP3    H214983   3.466   4.022   1.992  0.8273  0.6820  1.2453
 4993TIP3   OH214984   4.502   4.741   1.389  0.3802 -0.0145 -0.2655
 4993TIP3    H114985   4.503   4.652   1.354 -0.9928 -1.4093  2.9347
 4993TIP3    H214986   4.566   4.741   1.460 -2.0908  0.3763  2.1412
 4994TIP3   OH214987   0.219   0.647   2.403  0.2293  0.0073 -0.5512
 4994TIP3    H114988   0.145   0.654   2.343 -0.7264 -0.2051  0.5695
 4994TIP3    H214989   0.220   0.730   2.450  1.7364  0.6777 -1.6564
 4995TIP3   OH214990   2.259   0.577   4.819  0.3138  0.5353 -0.2755
 4995TIP3    H114991   2.201   0.571   4.895 -0.9096  2.7908 -0.9511
 4995TIP3    H214992   2.217   0.521   4.753 -0.2419  0.9059 -0.2410
 4996TIP3   OH214993   5.131   1.632   3.447 -0.2376 -0.0256 -0.6329
 4996TIP3    H114994   5.208   1.577   3.459  0.8578  1.5439 -0.1334
 4996TIP3    H214995   5.060   1.582   3.488  1.4352  0.5653  3.5209
 4997TIP3   OH214996   0.071   4.057   2.941 -0.1425  0.1393 -0.5322
 4997TIP3    H114997  -0.001   4.015   2.893 -1.6337  0.3560  1.4087
 4997TIP3    H214998   0.082   4.142   2.897 -2.5788  1.0207  0.3649
 4998TIP3   OH214999   1.917   0.182   1.060  0.2849 -0.5070 -0.1683
 4998TIP3    H115000   1.890   0.099   1.098  1.8466 -1.4883 -1.0814
 4998TIP3    H215001   1.944   0.235   1.135  1.1100 -1.5505  0.2934
 4999TIP3   OH215002   5.450   1.734   1.223  0.8022 -0.2589 -0.3280
 4999TIP3    H115003   5.365   1.764   1.254  0.1085 -1.1291 -1.3038
 4999TIP3    H215004   5.457   1.768   1.134  1.0524 -0.9655 -0.5912
 5000TIP3   OH215005   4.582   0.328   0.146  0.2439  0.3088 -0.1462
 5000TIP3    H115006   4.551   0.262   0.085  1.3587  1.7011 -2.3646
 5000TIP3    H215007   4.677   0.314   0.150  0.5811  2.0545 -1.1087
 5001TIP3   OH215008   3.085   5.862   4.844 -0.6861  0.0646  0.1363
 5001TIP3    H115009   3.155   5.913   4.885 -0.3270 -0.1494 -0.2012
 5001TIP3    H215010   3.096   5.773   4.879 -0.0399 -0.2496 -0.7997
 5002TIP3   OH215011   1.180   3.215   3.203  0.0555 -0.8073  0.2559
 5002TIP3    H115012   1.175   3.263   3.121  1.5718 -1.2725 -0.1315
 5002TIP3    H215013   1.122   3.139   3.190  0.6051 -1.1048 -0.5576
 5003TIP3   OH215014   1.965   1.463   2.723 -0.0591  0.6498  0.0911
 5003TIP3    H115015   1.960   1.385   2.778  0.2607  0.6475  0.1205
 5003TIP3    H215016   2.048   1.454   2.676  0.5872  1.5788  1.0153
 5004TIP3   OH215017   0.520   5.925   4.288 -0.6621  0.1431  0.2757
 5004TIP3    H115018   0.526   6.019   4.306 -2.1993  0.1654  0.7418
 5004TIP3    H215019   0.521   5.883   4.374  1.7930 -0.4512  0.0603
 5005TIP3   OH215020   3.056   3.448   4.217  0.2808 -0.5395  0.3043
 5005TIP3    H115021   3.142   3.478   4.188  0.3981 -1.0054  0.1624
 5005TIP3    H215022   2.995   3.480   4.150  0.0986  1.2812  1.2747
 5006TIP3   OH215023   3.633   2.925   4.540 -0.3888  0.3658 -0.1810
 5006TIP3    H115024   3.608   2.861   4.473 -1.9380  0.9848 -0.2412
 5006TIP3    H215025   3.649   3.006   4.491 -1.0650  0.7014  0.1426
 5007TIP3   OH215026   6.089   3.861   3.136 -0.4244 -0.1550  0.6150
 5007TIP3    H115027   6.095   3.880   3.230  0.6579 -2.3651  1.0447
 5007TIP3    H215028   6.098   3.766   3.130  0.5169  0.0299 -1.8169
 5008TIP3   OH215029   0.840   2.973   5.027  0.4033 -0.4132  0.1926
 5008TIP3    H115030   0.813   3.027   4.952  0.4229 -0.1390  0.3797
 5008TIP3    H215031   0.894   2.904   4.989  0.8671  0.0443  0.0146
 5009TIP3   OH215032   2.847   4.963   3.506  0.1926 -0.1903 -0.2219
 5009TIP3    H115033   2.934   5.001   3.521 -0.5916  2.3901 -1.6175
 5009TIP3    H215034   2.849   4.934   3.415 -1.1106  2.3150 -1.1630
 5010TIP3   OH215035   0.290   4.390   2.082  0.0859  0.1022  0.7796
 5010TIP3    H115036   0.310   4.483   2.089 -0.2917  0.3989 -1.4214
 5010TIP3    H215037   0.373   4.349   2.058 -0.5090  0.5299 -2.4739
 5011TIP3   OH215038   1.161   3.332   0.861 -0.9306 -0.2754  0.1474
 5011TIP3    H115039   1.097   3.403   0.859  0.7566  1.3069 -1.2750
 5011TIP3    H215040   1.242   3.372   0.828  0.9724 -2.0162  2.3496
 5012TIP3   OH215041   4.693   3.189   3.802  0.0766 -0.1595  0.0715
 5012TIP3    H115042   4.763   3.134   3.836 -0.6714 -1.2149 -0.0585
 5012TIP3    H215043   4.735   3.244   3.736  0.8102 -0.6528  0.1292
 5013TIP3   OH215044   5.353   3.410   4.043 -0.0039 -0.6896 -0.1337
 5013TIP3    H115045   5.381   3.319   4.033  0.4535 -0.4319 -1.3367
 5013TIP3    H215046   5.360   3.447   3.955  2.3166  1.2418  0.7705
 5014TIP3   OH215047   2.658   1.209   4.336  0.0090  0.4540 -0.5065
 5014TIP3    H115048   2.645   1.138   4.274 -0.9862 -1.6291  1.9053
 5014TIP3    H215049   2.752   1.209   4.353 -0.0751 -0.9354  0.1044
 5015TIP3   OH215050   2.004   5.684   3.702  0.1287  0.3600  0.0362
 5015TIP3    H115051   1.928   5.738   3.682 -1.1889 -1.2919  0.3374
 5015TIP3    H215052   2.057   5.739   3.760 -0.4929  1.7826 -0.6803
 5016TIP3   OH215053   1.568   1.066   1.911  0.3720  0.2129 -0.3188
 5016TIP3    H115054   1.546   1.080   1.819  0.3590 -0.0660 -0.3602
 5016TIP3    H215055   1.491   1.096   1.959  1.1988  2.4033 -0.2617
 5017TIP3   OH215056   2.578   1.053   1.026 -0.1902  0.3837 -0.0290
 5017TIP3    H115057   2.607   1.051   0.935  1.7911 -0.1732  0.5665
 5017TIP3    H215058   2.483   1.047   1.021 -0.0961 -0.0831 -2.0412
 5018TIP3   OH215059   2.487   2.719   3.027  0.3925  0.1330 -0.4556
 5018TIP3    H115060   2.437   2.638   3.034  1.1229 -0.3450 -0.6313
 5018TIP3    H215061   2.574   2.697   3.061  0.9516  0.5140 -1.5762
 5019TIP3   OH215062   5.462   4.353   4.095 -0.0971  0.2472 -0.0577
 5019TIP3    H115063   5.426   4.367   4.182  0.3968 -0.0727  0.2007
 5019TIP3    H215064   5.452   4.438   4.051 -0.9506  0.2332  0.0793
 5020TIP3   OH215065   3.670   2.998   0.714 -0.0315  0.1653  0.0623
 5020TIP3    H115066   3.664   3.047   0.632 -0.6402 -0.3520 -0.2094
 5020TIP3    H215067   3.608   2.926   0.704  2.3126 -1.9703 -0.4733
 5021TIP3   OH215068   1.646   5.786   1.744  0.0259  0.1273  0.4783
 5021TIP3    H115069   1.563   5.785   1.697  1.2740  0.2289 -1.8781
 5021TIP3    H215070   1.665   5.694   1.762 -0.2219  0.0437  0.3182
 5022TIP3   OH215071   1.645   5.284   1.116  0.2503 -0.0022 -0.1920
 5022TIP3    H115072   1.591   5.240   1.050  1.5378  0.5603 -1.6955
 5022TIP3    H215073   1.732   5.246   1.105  0.5582  0.2941  1.0395
 5023TIP3   OH215074   4.888   4.302   4.161 -0.5006  0.1053  0.3748
 5023TIP3    H115075   4.923   4.389   4.141  0.5372 -0.5695 -0.8352
 5023TIP3    H215076   4.804   4.299   4.116  0.4720 -0.3012 -1.4990
 5024TIP3   OH215077   5.142   3.496   3.613  0.1972  0.1309  0.1286
 5024TIP3    H115078   5.120   3.453   3.530 -0.4908  1.2429 -0.2888
 5024TIP3    H215079   5.092   3.578   3.611 -0.0138  0.0613  1.7573
 5025TIP3   OH215080   2.020   0.685   3.132  0.7301  0.1428 -0.5060
 5025TIP3    H115081   1.962   0.630   3.080 -0.2359  1.1246 -0.5021
 5025TIP3    H215082   2.073   0.623   3.182 -0.5027 -0.7904 -0.3040
 5026TIP3   OH215083   0.274   1.780   0.469  0.4828  0.4274 -0.4910
 5026TIP3    H115084   0.306   1.813   0.384  0.3229 -0.8230 -1.0638
 5026TIP3    H215085   0.317   1.695   0.479  0.2920  0.4447  0.5689
 5027TIP3   OH215086   3.851   1.261   1.831 -0.0543 -0.0704 -0.2206
 5027TIP3    H115087   3.823   1.199   1.899 -0.1509 -1.7996 -1.7454
 5027TIP3    H215088   3.947   1.260   1.837  0.0062 -1.3366 -0.9978
 5028TIP3   OH215089   4.920   4.099   0.670  0.6500 -0.1962 -0.2086
 5028TIP3    H115090   4.909   4.142   0.585 -0.6970  0.3032  0.1844
 5028TIP3    H215091   5.014   4.082   0.677  1.0057  1.2488 -1.0857
 5029TIP3   OH215092   3.943   2.898   2.730 -0.2349  0.2815  0.7413
 5029TIP3    H115093   3.942   2.822   2.789  1.9013 -0.6550 -0.3056
 5029TIP3    H215094   4.031   2.934   2.738 -1.4221  3.2647  1.8279
 5030TIP3   OH215095   2.019   5.530   4.934 -0.2264 -0.6155 -0.2547
 5030TIP3    H115096   2.055   5.600   4.988 -2.0560 -0.3274  0.6692
 5030TIP3    H215097   1.941   5.568   4.894  0.5431 -1.1427 -2.3877
 5031TIP3   OH215098   4.170   2.986   4.440  0.4945  0.0350 -0.1962
 5031TIP3    H115099   4.113   2.910   4.429 -0.6972  1.0358 -1.1973
 5031TIP3    H215100   4.115   3.052   4.483  1.8294  0.0061  1.7007
 5032TIP3   OH215101   5.377   3.608   4.618 -0.4143  0.0458  0.3216
 5032TIP3    H115102   5.323   3.538   4.583 -1.0323  0.1570  1.0359
 5032TIP3    H215103   5.453   3.611   4.560 -1.3175  0.0984 -0.8766
 5033TIP3   OH215104   0.619   3.767   4.464 -0.1316  0.1313  0.2118
 5033TIP3    H115105   0.632   3.813   4.381  0.2284 -1.9885 -0.9795
 5033TIP3    H215106   0.660   3.682   4.451  0.5862 -0.0320  2.8405
 5034TIP3   OH215107   6.302   5.722   3.308  0.2011  1.0219  0.1565
 5034TIP3    H115108   6.371   5.762   3.359  1.5147 -0.2471 -0.5537
 5034TIP3    H215109   6.308   5.763   3.222  2.2385 -1.2533 -0.9050
 5035TIP3   OH215110   2.379   3.054   5.107  0.0379  0.3086  0.0666
 5035TIP3    H115111   2.413   2.995   5.174 -2.1742  1.4999  2.4270
 5035TIP3    H215112   2.408   3.141   5.135  0.0520  0.7179 -1.1822
 5036TIP3   OH215113   3.942   5.091   2.515 -0.7063  0.6202 -0.0890
 5036TIP3    H115114   3.971   5.179   2.541 -1.4785  1.3317 -1.4804
 5036TIP3    H215115   3.950   5.091   2.419  1.2988 -1.5885 -0.0026
 5037TIP3   OH215116   5.328   3.317   0.099  0.5306  0.2181 -0.3246
 5037TIP3    H115117   5.247   3.336   0.053  1.3749  0.9675 -1.5454
 5037TIP3    H215118   5.300   3.295   0.188 -1.2271 -2.3393 -1.4054
 5038TIP3   OH215119   1.345   2.426   4.987 -0.1715  0.0355  0.3765
 5038TIP3    H115120   1.385   2.410   4.902  1.9490  1.1935  1.0823
 5038TIP3    H215121   1.306   2.513   4.979 -3.3930 -1.3222 -0.5140
 5039TIP3   OH215122   4.795   0.529   4.487  0.1577 -0.2463  0.2669
 5039TIP3    H115123   4.859   0.462   4.464 -0.0931 -0.6026  0.6071
 5039TIP3    H215124   4.794   0.587   4.411  1.4520  0.2081  0.5633
 5040TIP3   OH215125   1.913   1.570   1.353 -0.0484  0.6038 -0.4230
 5040TIP3    H115126   1.966   1.593   1.429  1.2992 -2.0298 -0.4268
 5040TIP3    H215127   1.923   1.475   1.346 -3.1710  0.2668 -1.6858
 5041TIP3   OH215128   2.523   0.097   5.011  0.1501  0.0928 -0.1424
 5041TIP3    H115129   2.543   0.172   5.067 -0.2574  0.1442 -0.0658
 5041TIP3    H215130   2.469   0.133   4.941  1.1927  0.1559 -0.9405
 5042TIP3   OH215131   3.233   4.885   2.689 -0.3824  0.5252  0.2201
 5042TIP3    H115132   3.148   4.929   2.695 -0.7827  0.0215 -1.2955
 5042TIP3    H215133   3.214   4.793   2.707 -0.1437  0.4261 -0.0327
 5043TIP3   OH215134   3.010   5.532   1.517  0.2038 -0.5318 -0.0280
 5043TIP3    H115135   2.988   5.440   1.532  0.2095 -0.7871 -1.4959
 5043TIP3    H215136   2.936   5.567   1.466  0.5279  0.1017 -0.0737
 5044TIP3   OH215137   3.164   0.721   2.719  0.1482 -0.0648  0.2529
 5044TIP3    H115138   3.078   0.681   2.714 -0.1956  0.8260 -1.7028
 5044TIP3    H215139   3.147   0.814   2.731  0.8899 -0.0688  1.5736
 5045TIP3   OH215140   1.480   3.198   2.152  0.0845 -0.4210  0.0843
 5045TIP3    H115141   1.457   3.270   2.212 -0.9116 -0.0020 -0.7602
 5045TIP3    H215142   1.569   3.174   2.177  0.7152  1.5489 -0.0300
 5046TIP3   OH215143   5.475   4.994   1.606 -0.3316  0.2257 -0.3477
 5046TIP3    H115144   5.527   5.073   1.593  0.9086 -0.5656 -0.3315
 5046TIP3    H215145   5.478   4.950   1.521 -0.8635  0.0945 -0.3023
 5047TIP3   OH215146   1.366   4.970   1.993 -0.1909 -0.5002  0.2730
 5047TIP3    H115147   1.395   4.951   1.904  0.4645 -1.8184  0.7429
 5047TIP3    H215148   1.411   5.052   2.016 -1.6186  0.7490 -1.1369
 5048TIP3   OH215149   3.272   2.427   0.945  0.0853  0.0557  0.0199
 5048TIP3    H115150   3.228   2.396   1.024 -0.1510 -1.2771 -0.5941
 5048TIP3    H215151   3.362   2.396   0.953 -0.4384 -1.9978 -1.1482
 5049TIP3   OH215152   2.549   0.178   3.129  0.0605 -0.2073 -0.2655
 5049TIP3    H115153   2.521   0.258   3.174  1.3295 -0.3891  0.9043
 5049TIP3    H215154   2.576   0.208   3.042  0.1359  0.5679  0.0158
 5050TIP3   OH215155   5.181   4.031   0.672 -0.5956  0.8203 -0.0942
 5050TIP3    H115156   5.159   3.971   0.743 -2.5448  1.0916 -0.4014
 5050TIP3    H215157   5.264   3.998   0.637 -0.6170 -0.4935  1.0167
 5051TIP3   OH215158   3.922   5.184   3.396 -0.7737 -0.0406 -0.9554
 5051TIP3    H115159   3.840   5.232   3.404 -0.2027  0.7075  1.1278
 5051TIP3    H215160   3.954   5.175   3.486  1.8606  0.4490 -1.7363
 5052TIP3   OH215161   3.634   1.646   5.035  0.0854  0.0504 -0.0410
 5052TIP3    H115162   3.671   1.690   4.958 -0.1144  1.0244  0.4067
 5052TIP3    H215163   3.623   1.715   5.100 -0.8247 -0.5489  0.4699
 5053TIP3   OH215164   4.858   0.877   2.506  0.0309  0.4213 -0.3558
 5053TIP3    H115165   4.932   0.824   2.476  1.4092  0.9892  1.7860
 5053TIP3    H215166   4.781   0.831   2.475  1.2355 -1.2282 -1.0547
 5054TIP3   OH215167   4.493   2.921   2.581 -0.3553 -0.1235 -0.4177
 5054TIP3    H115168   4.468   2.940   2.671  1.5313 -0.6458  0.2734
 5054TIP3    H215169   4.427   2.965   2.528 -2.2868 -0.9313  1.2059
 5055TIP3   OH215170   6.165   0.587   2.077  0.5309 -0.3146  0.2634
 5055TIP3    H115171   6.222   0.511   2.064  2.0310  1.0405 -1.8257
 5055TIP3    H215172   6.210   0.640   2.143 -0.4092 -1.0960  1.5675
 5056TIP3   OH215173   5.721   3.162   0.319 -0.4519 -0.7909 -0.0832
 5056TIP3    H115174   5.629   3.148   0.343 -0.0603  0.6377  2.6454
 5056TIP3    H215175   5.771   3.129   0.394  1.2527 -1.0161 -1.2672
 5057TIP3   OH215176   1.677   1.821   1.794 -0.4327 -0.2692 -0.3124
 5057TIP3    H115177   1.754   1.769   1.772 -0.5664  0.2627 -2.1927
 5057TIP3    H215178   1.711   1.910   1.808 -0.5275 -0.3311  0.3263
 5058TIP3   OH215179   5.207   5.476   4.069 -0.1727 -0.0470  0.3787
 5058TIP3    H115180   5.112   5.469   4.073 -0.5259  2.9205 -0.4232
 5058TIP3    H215181   5.233   5.503   4.157 -0.2313  0.3798  0.2669
 5059TIP3   OH215182   5.089   4.530   4.167 -0.2433  0.3392 -0.2930
 5059TIP3    H115183   5.030   4.590   4.212 -1.1609  0.1726 -1.2431
 5059TIP3    H215184   5.064   4.536   4.075  1.2632  0.3098 -0.7408
 5060TIP3   OH215185   4.189   2.995   2.757  0.2315 -0.0699  0.0054
 5060TIP3    H115186   4.225   3.029   2.675  1.6416 -0.8708  0.2516
 5060TIP3    H215187   4.196   3.068   2.818 -1.6064  0.8124 -0.7400
 5061TIP3   OH215188   6.219   3.016   1.872  0.0575  0.5433 -0.0042
 5061TIP3    H115189   6.131   3.024   1.836 -0.5267 -0.5342  1.1208
 5061TIP3    H215190   6.266   2.963   1.808  0.4672  2.5950 -1.5144
 5062TIP3   OH215191   0.350   4.798   5.065 -0.4787 -0.2502  0.3311
 5062TIP3    H115192   0.255   4.805   5.064 -0.4559  0.0656 -0.4118
 5062TIP3    H215193   0.368   4.713   5.104 -1.0847 -0.5468 -0.0226
 5063TIP3   OH215194   3.245   2.616   2.268 -0.0419  0.1589  0.9274
 5063TIP3    H115195   3.187   2.540   2.273  2.3118 -1.6886  2.2111
 5063TIP3    H215196   3.334   2.579   2.265  1.2372  2.8673  1.8497
 5064TIP3   OH215197   5.856   1.441   3.839 -0.7208 -0.2855 -0.1756
 5064TIP3    H115198   5.948   1.422   3.821 -0.9354 -1.1200 -0.4390
 5064TIP3    H215199   5.855   1.533   3.865  0.1320 -0.1527 -0.5845
 5065TIP3   OH215200   5.879   3.832   3.543 -0.9871 -0.8784 -0.5040
 5065TIP3    H115201   5.899   3.749   3.587  1.6305 -0.1280 -0.1142
 5065TIP3    H215202   5.853   3.807   3.454  0.1997 -2.1083 -0.5306
 5066TIP3   OH215203   4.125   1.699   4.213  0.3814  0.0680  0.3573
 5066TIP3    H115204   4.062   1.770   4.202 -1.9054 -2.0500 -1.5063
 5066TIP3    H215205   4.172   1.695   4.130  0.7580 -0.3656  0.5827
 5067TIP3   OH215206   0.061   2.337   4.205  0.3389  0.0768 -0.6189
 5067TIP3    H115207  -0.034   2.346   4.205  0.0420 -2.3639  0.0946
 5067TIP3    H215208   0.082   2.300   4.120  0.3118 -1.7744  0.1383
 5068TIP3   OH215209   0.503   2.622   3.295 -0.2486  0.1919  0.6074
 5068TIP3    H115210   0.514   2.672   3.214  3.3767  0.7250  1.2432
 5068TIP3    H215211   0.501   2.689   3.364  0.3613 -0.3409  1.1621
 5069TIP3   OH215212   5.984   4.050   5.029  0.1850 -0.0733  0.1724
 5069TIP3    H115213   5.920   4.000   4.978  0.6910 -0.9705  0.3984
 5069TIP3    H215214   5.933   4.089   5.100 -0.3932  0.5826 -0.5809
 5070TIP3   OH215215   1.391   5.254   3.424  0.0705  0.4561  0.5376
 5070TIP3    H115216   1.375   5.347   3.409  0.9799  0.6573  0.7148
 5070TIP3    H215217   1.385   5.214   3.338 -2.6712  0.2609  0.7473
 5071TIP3   OH215218   2.166   1.385   3.938  0.0195 -0.1366  0.0743
 5071TIP3    H115219   2.159   1.460   3.879  1.0197  0.1750  0.3394
 5071TIP3    H215220   2.210   1.419   4.015 -1.9584 -0.3415  1.3722
 5072TIP3   OH215221   5.557   1.888   4.680  0.4077 -0.3093 -0.1102
 5072TIP3    H115222   5.466   1.872   4.655  0.3976  0.2098 -0.4292
 5072TIP3    H215223   5.590   1.803   4.708  0.6608 -1.1389 -2.6521
 5073TIP3   OH215224   4.753   0.227   1.516 -0.1668 -0.1251  0.0540
 5073TIP3    H115225   4.670   0.231   1.565  0.5884 -1.0452  1.4968
 5073TIP3    H215226   4.777   0.135   1.518  0.7233  0.0789 -0.6545
 5074TIP3   OH215227   5.311   2.688   0.418 -0.4066  0.4289 -0.5303
 5074TIP3    H115228   5.261   2.766   0.393  0.8321  1.1644 -0.8106
 5074TIP3    H215229   5.346   2.710   0.504 -2.3883 -0.9958  0.7311
 5075TIP3   OH215230   3.209   1.653   0.391  0.0374 -0.1899  0.0604
 5075TIP3    H115231   3.234   1.698   0.311  0.5277 -0.4278  0.0713
 5075TIP3    H215232   3.293   1.629   0.432 -0.1526  1.2361  1.3940
 5076TIP3   OH215233   6.153   1.269   4.970 -0.2686 -0.3394 -0.0578
 5076TIP3    H115234   6.128   1.347   4.922  2.3630  0.2123 -0.6988
 5076TIP3    H215235   6.229   1.296   5.022  0.1743 -2.2419  0.3592
 5077TIP3   OH215236   3.479   0.177   1.736  0.7328  0.4682 -0.2470
 5077TIP3    H115237   3.552   0.147   1.681  0.0670 -0.1355 -0.8234
 5077TIP3    H215238   3.464   0.104   1.796 -0.4797 -0.1345 -1.2366
 5078TIP3   OH215239   1.787   0.024   4.309  0.1452 -0.0938 -0.6499
 5078TIP3    H115240   1.865   0.074   4.335  0.0982 -0.1931 -0.3168
 5078TIP3    H215241   1.739   0.084   4.252 -0.1055  0.3953  0.0639
 5079TIP3   OH215242   2.842   1.951   2.652  0.2489  0.1651 -0.3708
 5079TIP3    H115243   2.757   1.908   2.641  0.1348 -0.0599  1.1301
 5079TIP3    H215244   2.900   1.881   2.683  0.6176  0.6142 -0.0385
 5080TIP3   OH215245   0.097   0.382   3.294 -0.5021  0.5675  0.0512
 5080TIP3    H115246   0.053   0.347   3.372 -1.1783  0.8129 -0.2157
 5080TIP3    H215247   0.169   0.321   3.278 -1.6668 -0.7219 -0.4114
 5081TIP3   OH215248   4.101   4.970   3.358 -0.3491 -0.7021  0.3237
 5081TIP3    H115249   4.060   5.056   3.355  0.4498 -0.3309 -0.3194
 5081TIP3    H215250   4.107   4.949   3.451 -0.7447 -0.1580  0.4754
 5082TIP3   OH215251   0.271   2.527   2.144  0.2692  0.0625  0.0918
 5082TIP3    H115252   0.289   2.453   2.201 -0.0726 -0.1122 -0.0263
 5082TIP3    H215253   0.176   2.541   2.150  0.3864  0.7658  0.4492
 5083TIP3   OH215254   1.541   5.172   4.166 -0.0978  0.4190 -0.5899
 5083TIP3    H115255   1.564   5.190   4.257 -0.9541  1.8515 -0.6291
 5083TIP3    H215256   1.447   5.153   4.169  0.3474 -2.1619 -0.8555
 5084TIP3   OH215257   4.860   5.595   4.455  0.3146  0.2972  0.4653
 5084TIP3    H115258   4.908   5.593   4.538  1.4140  2.1142 -0.0721
 5084TIP3    H215259   4.876   5.683   4.420 -1.1656  0.0068 -1.0770
 5085TIP3   OH215260   6.062   5.419   3.082 -0.2343  0.0888 -0.0024
 5085TIP3    H115261   6.111   5.377   3.152 -1.5534 -0.2660  0.7354
 5085TIP3    H215262   6.072   5.513   3.098  0.0873  0.0176  0.2168
 5086TIP3   OH215263   0.623   3.206   3.932 -0.1286 -0.3632 -0.8186
 5086TIP3    H115264   0.679   3.224   3.856  1.2923 -0.7412  0.0940
 5086TIP3    H215265   0.685   3.191   4.004 -1.4307  1.1619  0.7049
 5087TIP3   OH215266   0.944   5.237   0.605 -0.0484 -0.3585  0.1680
 5087TIP3    H115267   0.917   5.312   0.551 -0.9305 -1.1219 -0.4959
 5087TIP3    H215268   0.995   5.183   0.545  0.2580 -0.4785  0.5395
 5088TIP3   OH215269   0.805   0.576   0.144  0.1698 -0.2184  0.0332
 5088TIP3    H115270   0.806   0.610   0.234  0.4885  0.4930 -0.2327
 5088TIP3    H215271   0.897   0.559   0.124  0.2628  0.9940 -0.6578
 5089TIP3   OH215272   1.085   4.812   3.869 -0.6018 -0.5725 -0.2222
 5089TIP3    H115273   1.042   4.744   3.816  0.2330 -2.3155  1.2348
 5089TIP3    H215274   1.013   4.854   3.917 -0.9698 -1.8377  0.3932
 5090TIP3   OH215275   6.253   2.861   1.292  0.0908 -0.1694 -0.0871
 5090TIP3    H115276   6.233   2.898   1.205 -1.3288 -0.0261  0.2674
 5090TIP3    H215277   6.278   2.770   1.274  1.4065  0.2993 -0.7703
 5091TIP3   OH215278   0.623   3.373   1.723  0.3197  0.0581 -0.6333
 5091TIP3    H115279   0.718   3.385   1.733  0.0244  1.0757  1.5447
 5091TIP3    H215280   0.605   3.290   1.768 -0.3388  2.1758  3.5218
 5092TIP3   OH215281   6.151   1.512   2.318 -0.1290  0.0399  0.2040
 5092TIP3    H115282   6.202   1.589   2.289 -1.5823  0.6620 -0.8318
 5092TIP3    H215283   6.196   1.438   2.279  1.0838  0.3747  0.9038
 5093TIP3   OH215284   3.635   0.666   4.173 -0.4795 -0.0046 -0.0038
 5093TIP3    H115285   3.556   0.699   4.131  0.1192  0.7101 -0.5968
 5093TIP3    H215286   3.685   0.744   4.196  0.2534 -0.4525 -0.0296
 5094TIP3   OH215287   0.507   4.133   0.352 -0.6477  0.0298 -0.2008
 5094TIP3    H115288   0.541   4.044   0.357 -1.0123 -0.0573  1.3261
 5094TIP3    H215289   0.576   4.184   0.309  0.2896 -0.6507  0.4642
 5095TIP3   OH215290   3.573   1.088   3.483  0.2288  0.3273 -0.6981
 5095TIP3    H115291   3.614   1.170   3.455 -1.4874  0.8413 -1.8291
 5095TIP3    H215292   3.571   1.094   3.579 -0.6397  2.0169 -0.7842
 5096TIP3   OH215293   4.040   3.413   3.856  0.2570 -0.3968  0.0221
 5096TIP3    H115294   4.000   3.465   3.926  1.1589 -1.1768  1.1577
 5096TIP3    H215295   4.123   3.383   3.893  0.3531 -1.5620 -1.0694
 5097TIP3   OH215296   2.324   1.696   3.996  0.2393  0.2900  0.1353
 5097TIP3    H115297   2.339   1.745   3.916  1.4951  1.1947  0.8758
 5097TIP3    H215298   2.405   1.707   4.046 -0.4211 -0.4349  1.4262
 5098TIP3   OH215299   2.963   3.601   0.800 -0.0186  0.1178 -0.0476
 5098TIP3    H115300   3.053   3.590   0.830 -0.6439  2.2574  3.1616
 5098TIP3    H215301   2.971   3.651   0.719  1.7170  1.2278  0.7480
 5099TIP3   OH215302   2.092   0.450   3.333  0.5501 -1.1050  0.6177
 5099TIP3    H115303   2.027   0.458   3.403 -0.8656  2.2005 -0.8642
 5099TIP3    H215304   2.176   0.466   3.376 -0.3289  1.2294  1.6084
 5100TIP3   OH215305   1.526   2.843   4.416 -0.1229  0.4357  0.4058
 5100TIP3    H115306   1.616   2.856   4.388 -0.1084 -0.4474  0.0069
 5100TIP3    H215307   1.520   2.750   4.437 -1.1197  0.3284 -0.2722
 5101TIP3   OH215308   5.507   4.158   5.041 -0.6663  0.1499 -0.7839
 5101TIP3    H115309   5.548   4.221   5.100 -0.0657 -1.0817  0.1717
 5101TIP3    H215310   5.490   4.081   5.096 -0.1570 -1.0156 -2.1732
 5102TIP3   OH215311   4.657   5.883   0.095  0.4068  0.1892 -0.0687
 5102TIP3    H115312   4.746   5.917   0.107  0.9031 -0.6308 -1.1986
 5102TIP3    H215313   4.609   5.912   0.172  1.8028  0.1810  0.8296
 5103TIP3   OH215314   0.752   3.134   0.266  0.2360  0.1220 -0.1245
 5103TIP3    H115315   0.687   3.106   0.201  0.9845 -0.2220 -0.7457
 5103TIP3    H215316   0.819   3.065   0.263 -0.3247 -0.5824  1.9454
 5104TIP3   OH215317   4.482   5.892   3.990  0.1506  0.4018 -0.4854
 5104TIP3    H115318   4.562   5.880   3.939 -0.3264 -0.8174 -0.9911
 5104TIP3    H215319   4.437   5.807   3.984 -2.4056  1.7591 -2.3363
 5105TIP3   OH215320   1.823   3.511   2.970  0.2690 -0.2168  0.7760
 5105TIP3    H115321   1.753   3.555   3.017  0.9666  1.0234  0.6941
 5105TIP3    H215322   1.885   3.483   3.038  0.5479  0.2567  0.7227
 5106TIP3   OH215323   0.595   2.585   4.057  0.0636  0.5009 -0.0700
 5106TIP3    H115324   0.652   2.549   4.124  1.1050  0.7650 -0.7785
 5106TIP3    H215325   0.634   2.555   3.974 -1.7638 -0.6838 -0.5569
 5107TIP3   OH215326   0.825   1.548   2.763  0.4128 -0.5788 -0.3121
 5107TIP3    H115327   0.802   1.475   2.820  0.7190 -1.3732 -1.1836
 5107TIP3    H215328   0.791   1.523   2.677  0.5099  0.3085 -0.6190
 5108TIP3   OH215329   0.074   0.355   0.298 -0.0527  0.0915 -0.1495
 5108TIP3    H115330   0.044   0.310   0.220 -3.6770  0.6075  0.7435
 5108TIP3    H215331   0.063   0.448   0.278  0.5086  0.2914  0.4344
 5109TIP3   OH215332   3.126   4.535   1.647 -0.4025  0.0582  0.3844
 5109TIP3    H115333   3.214   4.506   1.622 -1.1876 -0.6208 -1.8517
 5109TIP3    H215334   3.093   4.465   1.703  0.3279  0.1402  0.9370
 5110TIP3   OH215335   0.111   3.045   0.589 -0.2443 -0.0460 -0.0062
 5110TIP3    H115336   0.077   3.127   0.625  0.8241  0.9592 -1.1928
 5110TIP3    H215337   0.202   3.065   0.565 -0.2723 -1.2724 -1.2545
 5111TIP3   OH215338   1.490   3.875   2.933 -0.0411  0.6152 -0.2128
 5111TIP3    H115339   1.399   3.860   2.907 -0.6741  0.5119  1.8398
 5111TIP3    H215340   1.490   3.861   3.028  1.8312  1.9700  0.0481
 5112TIP3   OH215341   2.812   5.320   2.104 -0.4581 -0.0829  0.0979
 5112TIP3    H115342   2.868   5.390   2.138 -0.6826  0.7113 -1.1072
 5112TIP3    H215343   2.724   5.343   2.134 -1.2537  2.4804 -3.5534
 5113TIP3   OH215344   4.894   2.569   0.103 -0.0238  0.5116 -0.2770
 5113TIP3    H115345   4.970   2.628   0.104  2.1543 -2.0796  0.9984
 5113TIP3    H215346   4.888   2.540   0.012 -0.6171  2.0071 -0.7461
 5114TIP3   OH215347   3.811   5.029   1.651 -0.7617  0.0184 -0.1520
 5114TIP3    H115348   3.894   4.983   1.641  0.4130  0.8969  3.7248
 5114TIP3    H215349   3.744   4.961   1.639  0.6849 -1.5162  0.1556
 5115TIP3   OH215350   4.611   5.511   0.199 -0.1864 -0.4780  0.1165
 5115TIP3    H115351   4.616   5.584   0.138 -2.2944  2.0426  2.7129
 5115TIP3    H215352   4.519   5.484   0.198  0.2941 -2.3123  0.1933
 5116TIP3   OH215353   5.068   2.765   2.022 -0.1962 -0.5523  0.1101
 5116TIP3    H115354   5.156   2.743   1.993  0.1331  0.8814 -0.0341
 5116TIP3    H215355   5.031   2.817   1.951  0.4395  2.5957  1.8599
 5117TIP3   OH215356   2.875   5.670   0.093 -0.5562 -0.1212  0.4155
 5117TIP3    H115357   2.951   5.692   0.038  0.0751 -0.1017  1.2851
 5117TIP3    H215358   2.827   5.606   0.041 -1.0332  1.3362 -1.0213
 5118TIP3   OH215359   4.114   1.916   0.262 -0.3595  0.1364  0.5611
 5118TIP3    H115360   4.110   1.986   0.327 -1.3213  0.9131 -0.2996
 5118TIP3    H215361   4.176   1.948   0.196 -0.5892  0.0495  0.3013
 5119TIP3   OH215362   5.732   3.505   4.251 -0.2968 -0.0094 -0.0599
 5119TIP3    H115363   5.784   3.578   4.219  0.8226 -1.3067 -1.3033
 5119TIP3    H215364   5.723   3.447   4.176 -0.2344 -1.6673  1.1677
 5120TIP3   OH215365   3.736   1.693   4.744 -0.4461 -0.1844 -0.3514
 5120TIP3    H115366   3.811   1.713   4.800 -0.1761  0.6721 -1.0101
 5120TIP3    H215367   3.743   1.754   4.671 -1.6215 -0.2972 -0.5733
 5121TIP3   OH215368   1.703   0.332   4.984 -0.2034 -0.2099  0.1493
 5121TIP3    H115369   1.704   0.237   4.993 -0.0447 -0.2227 -0.0123
 5121TIP3    H215370   1.617   0.358   5.019 -0.2219 -0.4047  0.2517
 5122TIP3   OH215371   4.634   1.875   0.773 -0.4596  0.6066 -0.6324
 5122TIP3    H115372   4.602   1.826   0.849 -2.3171  3.0296  0.2829
 5122TIP3    H215373   4.560   1.877   0.713  1.0202 -1.3860 -2.7054
 5123TIP3   OH215374   1.450   5.322   4.402 -0.0748  0.1936  0.0840
 5123TIP3    H115375   1.450   5.417   4.396 -0.3989  0.1109 -1.7684
 5123TIP3    H215376   1.535   5.301   4.441 -0.5597  1.2586  1.8434
 5124TIP3   OH215377   0.798   2.220   4.366  0.0099 -0.1888 -0.4578
 5124TIP3    H115378   0.766   2.135   4.335 -0.8746 -0.1028  0.2060
 5124TIP3    H215379   0.824   2.205   4.456 -0.2533  0.2728 -0.3032
 5125TIP3   OH215380   1.515   4.947   4.477 -0.3772  0.2223  0.1046
 5125TIP3    H115381   1.579   4.884   4.443 -0.1654  0.1777  0.5703
 5125TIP3    H215382   1.493   4.914   4.564 -0.7038  0.4791  0.1212
 5126TIP3   OH215383   0.446   0.529   3.713  0.2339 -0.5090 -0.0576
 5126TIP3    H115384   0.482   0.559   3.630 -0.3403 -1.3547 -0.6348
 5126TIP3    H215385   0.514   0.471   3.749 -0.2893 -1.6907 -0.8956
 5127TIP3   OH215386   1.641   1.198   0.148  0.1931  0.5918 -0.5313
 5127TIP3    H115387   1.644   1.272   0.088 -0.0068  1.6667  0.7484
 5127TIP3    H215388   1.722   1.205   0.198  1.1533 -1.2355 -1.6955
 5128TIP3   OH215389   2.223   1.012   4.451  0.1734 -0.6280 -0.7342
 5128TIP3    H115390   2.301   1.042   4.497 -1.2862  0.4997  1.1456
 5128TIP3    H215391   2.187   0.943   4.507 -0.7365 -0.4202 -1.0461
 5129TIP3   OH215392   3.050   3.118   0.150 -0.0677 -0.3887  0.4244
 5129TIP3    H115393   3.092   3.084   0.230 -0.1486  0.7505  0.9721
 5129TIP3    H215394   2.965   3.149   0.180 -0.7621 -1.3832 -0.4206
 5130TIP3   OH215395   0.329   0.293   0.069  0.1381 -0.1309  0.1303
 5130TIP3    H115396   0.334   0.299   0.165 -0.2321  0.8545  0.0977
 5130TIP3    H215397   0.414   0.323   0.038 -0.5497  1.8694  0.0852
 5131TIP3   OH215398   3.255   3.796   1.937  0.1995  0.3317 -0.1825
 5131TIP3    H115399   3.195   3.871   1.944 -0.3195 -0.1478  0.6677
 5131TIP3    H215400   3.311   3.803   2.015 -0.2197 -0.4755  0.1952
 5132TIP3   OH215401   6.334   2.532   5.100 -0.1467  0.3456 -0.3268
 5132TIP3    H115402   6.271   2.506   5.168  0.2123  0.6196  0.1162
 5132TIP3    H215403   6.282   2.584   5.038 -0.8459 -1.2443 -1.1531
 5133TIP3   OH215404   1.701   0.718   3.736  0.4452  0.1910  0.4120
 5133TIP3    H115405   1.787   0.758   3.740  0.7485 -0.4418  0.3267
 5133TIP3    H215406   1.679   0.717   3.643  0.8864 -0.7625  0.3078
 5134TIP3   OH215407   4.913   2.599   1.675 -0.0591 -0.4135  0.0283
 5134TIP3    H115408   4.926   2.623   1.584 -1.6354 -1.7032 -0.5885
 5134TIP3    H215409   4.983   2.537   1.694  1.7219  1.6036  0.4900
 5135TIP3   OH215410   1.008   1.660   3.978  0.2916  0.2862  0.1816
 5135TIP3    H115411   0.995   1.633   4.069  1.7699 -1.3822 -0.0310
 5135TIP3    H215412   1.011   1.755   3.980 -2.3604  0.4203  1.4482
 5136TIP3   OH215413   1.661   2.842   0.863 -0.0557  0.1603  0.1575
 5136TIP3    H115414   1.735   2.786   0.840 -0.1445 -1.1817  2.8051
 5136TIP3    H215415   1.700   2.928   0.877  0.5215  0.1426 -1.1992
 5137TIP3   OH215416   2.671   0.963   0.357  0.7558  0.2127 -1.0414
 5137TIP3    H115417   2.677   0.990   0.266  2.0908 -0.6008 -1.2187
 5137TIP3    H215418   2.762   0.964   0.388  0.2500  1.3181  0.5379
 5138TIP3   OH215419   4.806   5.177   4.290  0.2100  0.3192  0.0567
 5138TIP3    H115420   4.893   5.174   4.249  0.2747 -0.2996  0.2267
 5138TIP3    H215421   4.783   5.085   4.304  0.2244  0.5026  1.4662
 5139TIP3   OH215422   3.567   1.156   1.754  0.0419  0.5281  0.0700
 5139TIP3    H115423   3.536   1.149   1.664 -1.4253  3.1278  0.2456
 5139TIP3    H215424   3.646   1.210   1.748 -0.7663  1.8035  0.3773
 5140TIP3   OH215425   2.901   3.595   0.058  0.2145 -1.0218  0.2513
 5140TIP3    H115426   2.835   3.545   0.106  1.7300 -1.9300  1.4762
 5140TIP3    H215427   2.984   3.561   0.090  1.3168  1.4728  0.2644
 5141TIP3   OH215428   5.870   1.437   0.813 -0.4243  0.4835 -0.3785
 5141TIP3    H115429   5.935   1.494   0.772 -0.5531  0.1210 -1.0995
 5141TIP3    H215430   5.815   1.407   0.740 -1.2982  0.6451  0.1904
 5142TIP3   OH215431   3.166   2.817   1.340 -0.6385  0.1984 -0.5732
 5142TIP3    H115432   3.109   2.758   1.292  0.6537  1.0541 -3.3548
 5142TIP3    H215433   3.242   2.829   1.284  0.6662  1.8952  1.3877
 5143TIP3   OH215434   4.313   0.465   2.074 -0.0363 -0.2192 -0.0241
 5143TIP3    H115435   4.366   0.449   1.996  0.5789 -0.5748  0.4543
 5143TIP3    H215436   4.329   0.389   2.130 -2.6304 -1.3747 -0.6929
 5144TIP3   OH215437   3.554   3.719   0.946  0.2332  0.0760 -0.1153
 5144TIP3    H115438   3.488   3.748   1.009  0.9630  1.9332 -0.1582
 5144TIP3    H215439   3.552   3.623   0.952 -0.0983  0.1868  2.3167
 5145TIP3   OH215440   3.494   3.036   3.746 -0.2923 -0.6141 -0.1058
 5145TIP3    H115441   3.438   3.062   3.672 -1.1205 -0.1838  0.6512
 5145TIP3    H215442   3.583   3.055   3.717 -0.5222 -1.2682 -1.3252
 5146TIP3   OH215443   2.530   3.078   4.272 -0.2259  0.8443 -0.0372
 5146TIP3    H115444   2.490   2.991   4.264 -2.8438  1.8494  0.8908
 5146TIP3    H215445   2.619   3.061   4.304 -0.6798 -1.4755  0.1647
 5147TIP3   OH215446   0.832   2.238   4.033 -0.2245  0.4772 -0.4252
 5147TIP3    H115447   0.789   2.163   4.074  1.0691  0.9410  1.9981
 5147TIP3    H215448   0.875   2.203   3.956 -0.7288 -1.0076 -0.0527
 5148TIP3   OH215449   2.191   2.339   3.157 -0.2473 -0.0297 -0.3851
 5148TIP3    H115450   2.230   2.264   3.112  0.9052  0.0993  0.3447
 5148TIP3    H215451   2.102   2.312   3.177 -0.2335 -0.7307 -1.2228
 5149TIP3   OH215452   6.310   2.251   0.398  0.5346 -0.1935 -0.3301
 5149TIP3    H115453   6.284   2.202   0.476  0.0869 -1.8069 -1.4614
 5149TIP3    H215454   6.314   2.342   0.428  0.1067 -0.7315  1.5001
 5150TIP3   OH215455   5.745   2.168   0.422  0.0593  0.2055 -0.5626
 5150TIP3    H115456   5.688   2.109   0.472  0.6808  0.5203  0.5717
 5150TIP3    H215457   5.723   2.152   0.331  1.9656 -3.6844 -0.5353
 5151TIP3   OH215458   3.760   5.688   4.459 -0.2254  0.5208 -0.3904
 5151TIP3    H115459   3.761   5.690   4.555 -0.5289  2.4672 -0.4037
 5151TIP3    H215460   3.748   5.779   4.433  1.2877  0.2411 -2.3037
 5152TIP3   OH215461   2.283   4.426   2.689 -0.2834  0.2018  0.2313
 5152TIP3    H115462   2.235   4.380   2.758 -0.8317  1.1674  0.5015
 5152TIP3    H215463   2.220   4.432   2.617 -1.2780  3.1198  1.2371
 5153TIP3   OH215464   1.390   4.809   0.214  0.9102 -0.5012 -0.0193
 5153TIP3    H115465   1.338   4.888   0.229  0.5022 -1.1422  2.4890
 5153TIP3    H215466   1.469   4.822   0.266  1.6650 -1.0103 -1.0128
 5154TIP3   OH215467   6.235   3.351   4.608 -0.1828 -0.5889  0.1838
 5154TIP3    H115468   6.149   3.346   4.567  0.5203  0.5540 -1.5259
 5154TIP3    H215469   6.297   3.344   4.536  1.1508 -0.2005  1.2472
 5155TIP3   OH215470   1.778   2.102   0.338 -0.5839  0.1995  0.2295
 5155TIP3    H115471   1.683   2.095   0.347 -0.4880 -1.3115  0.3963
 5155TIP3    H215472   1.797   2.053   0.258  0.2701 -1.7577  1.5627
 5156TIP3   OH215473   2.877   0.130   2.670  0.5434  0.6864 -0.5084
 5156TIP3    H115474   2.798   0.174   2.640  1.3406  2.3721 -0.2271
 5156TIP3    H215475   2.907   0.080   2.594 -1.0141 -0.3557 -0.4763
 5157TIP3   OH215476   0.474   1.855   0.965 -0.5572  0.2078 -0.4719
 5157TIP3    H115477   0.487   1.944   0.931  0.3393  0.6294  0.8892
 5157TIP3    H215478   0.533   1.801   0.913  0.0248  0.6628 -0.2915
 5158TIP3   OH215479   1.063   4.115   3.466  0.2363  0.2392  0.3729
 5158TIP3    H115480   0.967   4.112   3.467  0.2340  0.0168 -0.2198
 5158TIP3    H215481   1.085   4.138   3.376  0.7577 -0.2752  0.3650
 5159TIP3   OH215482   5.989   5.265   1.146 -0.2812 -0.0203 -0.4131
 5159TIP3    H115483   6.007   5.272   1.053 -0.7936 -1.0924 -0.6116
 5159TIP3    H215484   5.894   5.280   1.154 -0.7282 -2.4840 -0.4192
 5160TIP3   OH215485   0.904   5.651   0.738  0.3727 -0.6105 -0.1933
 5160TIP3    H115486   0.967   5.668   0.668 -0.6686  3.8843 -0.3436
 5160TIP3    H215487   0.823   5.627   0.693  0.5097 -0.8189 -0.3293
 5161TIP3   OH215488   3.853   4.577   3.825 -0.2332 -0.4983 -0.1563
 5161TIP3    H115489   3.863   4.485   3.801  0.1469 -1.1551  2.2142
 5161TIP3    H215490   3.880   4.581   3.917  0.6273  2.1616 -0.4254
 5162TIP3   OH215491   4.093   5.393   5.133  0.0394 -0.2575  0.2843
 5162TIP3    H115492   4.038   5.323   5.097 -0.7853  0.3668  0.3047
 5162TIP3    H215493   4.182   5.369   5.107 -0.0129 -2.1510  1.6075
 5163TIP3   OH215494   4.400   3.194   2.663 -0.6169  0.7775  0.0283
 5163TIP3    H115495   4.337   3.240   2.607  0.3486 -0.2399 -2.0123
 5163TIP3    H215496   4.481   3.245   2.655 -0.5362  0.7734  0.7508
 5164TIP3   OH215497   1.194   5.273   4.302 -0.6455 -0.1260 -0.0268
 5164TIP3    H115498   1.143   5.225   4.367 -0.6257 -0.9299 -0.5886
 5164TIP3    H215499   1.282   5.278   4.340 -0.8383  0.1681  0.3881
 5165TIP3   OH215500   4.353   4.188   3.782 -0.0313  0.1497  0.1408
 5165TIP3    H115501   4.340   4.131   3.707 -1.6570 -0.7163  1.0364
 5165TIP3    H215502   4.270   4.233   3.794 -0.1518 -0.4680  1.9947
 5166TIP3   OH215503   0.234   1.788   3.855  0.1958  0.9414  0.3653
 5166TIP3    H115504   0.203   1.713   3.804  0.5153 -0.7044  2.4668
 5166TIP3    H215505   0.158   1.814   3.907  0.2391  1.7342  0.0338
 5167TIP3   OH215506   3.949   3.195   2.640  0.1731  0.1739 -0.2801
 5167TIP3    H115507   3.882   3.245   2.687  0.5002 -0.5547  1.0200
 5167TIP3    H215508   3.936   3.105   2.670  1.1770 -0.1097 -0.6794
 5168TIP3   OH215509   1.518   4.639   4.500 -0.4319  0.1826 -0.4035
 5168TIP3    H115510   1.530   4.642   4.595 -0.3818  0.9357 -0.4280
 5168TIP3    H215511   1.605   4.658   4.464 -0.3548 -0.5132 -0.6105
 5169TIP3   OH215512   3.365   0.259   1.519 -0.3497 -0.4209  0.2254
 5169TIP3    H115513   3.301   0.319   1.557  0.9344  1.6976 -0.7289
 5169TIP3    H215514   3.423   0.236   1.592 -1.3141 -1.1725  0.7692
 5170TIP3   OH215515   3.429   2.027   1.857  0.7567 -0.0905  0.1006
 5170TIP3    H115516   3.428   1.934   1.836  2.8885 -0.4411  1.2658
 5170TIP3    H215517   3.521   2.052   1.851  0.6413  1.2482  2.5413
 5171TIP3   OH215518   4.830   4.298   3.093  0.1274 -0.1695  0.0369
 5171TIP3    H115519   4.832   4.387   3.128  0.2880  0.1193 -0.6878
 5171TIP3    H215520   4.755   4.297   3.034 -0.6891 -0.9177  1.0455
 5172TIP3   OH215521   0.231   2.593   1.170 -0.1143 -0.1278  0.6307
 5172TIP3    H115522   0.283   2.533   1.117 -1.5348 -1.1678  0.3334
 5172TIP3    H215523   0.207   2.663   1.110 -0.9442 -0.8288  0.1078
 5173TIP3   OH215524   3.042   0.163   0.437  0.4828 -0.1710  0.2319
 5173TIP3    H115525   3.131   0.198   0.440 -0.5000  2.6124  1.2854
 5173TIP3    H215526   3.000   0.210   0.365 -0.1280 -1.5613 -0.3575
 5174TIP3   OH215527   0.125   2.718   3.760  0.5296  0.0284  0.4227
 5174TIP3    H115528   0.139   2.737   3.853  0.1149  0.3418  0.4271
 5174TIP3    H215529   0.032   2.698   3.753  0.2731  1.2795 -0.1224
 5175TIP3   OH215530   2.821   3.285   4.300  0.6123  0.3952  0.3258
 5175TIP3    H115531   2.855   3.292   4.211 -0.9725  1.1085 -0.2410
 5175TIP3    H215532   2.835   3.372   4.338  0.9479  0.1988  0.6641
 5176TIP3   OH215533   3.735   0.458   0.897 -0.2039  0.0728 -0.2600
 5176TIP3    H115534   3.764   0.535   0.848 -0.4597 -0.7040 -1.6805
 5176TIP3    H215535   3.659   0.426   0.849  0.2733 -1.4344 -0.0571
 5177TIP3   OH215536   0.321   4.588   2.839  0.1223  0.1223 -0.3937
 5177TIP3    H115537   0.320   4.597   2.934  2.8747 -0.5370 -0.2094
 5177TIP3    H215538   0.328   4.677   2.806 -0.8936  0.3580 -0.0133
 5178TIP3   OH215539   0.621   5.842   2.738 -0.1709 -0.5218 -0.4266
 5178TIP3    H115540   0.570   5.909   2.693  1.2561  1.5370  0.8802
 5178TIP3    H215541   0.647   5.782   2.668 -0.4870  0.9252 -1.8521
 5179TIP3   OH215542   4.833   2.581   1.021  0.7228 -0.1973 -0.0224
 5179TIP3    H115543   4.860   2.549   1.107 -0.4546  0.2427  0.5281
 5179TIP3    H215544   4.887   2.658   1.006  1.1844 -0.4798  0.1513
 5180TIP3   OH215545   2.223   2.158   4.689 -0.5209 -0.0286  0.6191
 5180TIP3    H115546   2.299   2.212   4.713  0.3111 -0.6567 -0.4915
 5180TIP3    H215547   2.214   2.096   4.762  1.0977 -1.0199  0.0426
 5181TIP3   OH215548   2.432   2.310   4.762 -0.0309 -0.0158  0.1715
 5181TIP3    H115549   2.493   2.238   4.780  0.6493  0.6829  0.7451
 5181TIP3    H215550   2.454   2.376   4.828  0.7857  1.5969 -1.6068
 5182TIP3   OH215551   2.423   4.912   1.134 -0.5815  0.7216  0.4356
 5182TIP3    H115552   2.436   4.827   1.176  0.5193  0.4296 -0.4556
 5182TIP3    H215553   2.392   4.892   1.046 -1.1766  1.2783  0.5092
 5183TIP3   OH215554   1.199   2.174   3.403 -0.0094 -0.5571  0.0394
 5183TIP3    H115555   1.279   2.124   3.420 -0.6766 -2.8811 -2.8858
 5183TIP3    H215556   1.205   2.198   3.310 -2.9970 -1.4579 -0.4843
 5184TIP3   OH215557   4.294   1.220   3.686  0.1514  0.5435  0.0979
 5184TIP3    H115558   4.264   1.130   3.681 -0.0710  0.5945  0.4763
 5184TIP3    H215559   4.249   1.265   3.614 -2.1740  1.0383  1.7552
 5185TIP3   OH215560   5.272   0.773   0.089 -0.3196 -0.4158  0.2893
 5185TIP3    H115561   5.192   0.818   0.063  0.8235  1.9889  0.7126
 5185TIP3    H215562   5.250   0.726   0.169 -1.4414 -0.3028  0.0528
 5186TIP3   OH215563   2.238   0.825   4.685 -0.1188 -0.5543  0.2589
 5186TIP3    H115564   2.204   0.876   4.759 -1.8120 -2.7406  1.0858
 5186TIP3    H215565   2.269   0.743   4.724  1.2990 -0.7616 -1.1891
 5187TIP3   OH215566   3.755   3.998   4.995 -0.4559 -0.0814  0.0578
 5187TIP3    H115567   3.782   3.967   4.909 -1.2323 -0.0890 -0.1941
 5187TIP3    H215568   3.776   4.091   4.995  0.0760 -0.1988  0.0808
 5188TIP3   OH215569   2.941   0.375   2.369  0.1062  0.1370  0.9037
 5188TIP3    H115570   2.915   0.456   2.413  0.7747  1.7616 -1.5084
 5188TIP3    H215571   2.888   0.372   2.290 -1.2126 -2.8142  1.7521
 5189TIP3   OH215572   5.762   2.498   3.440 -0.0460 -0.4942  0.5245
 5189TIP3    H115573   5.792   2.549   3.515 -0.4299  1.1372 -0.3695
 5189TIP3    H215574   5.764   2.560   3.367 -0.2762 -1.8591 -0.6860
 5190TIP3   OH215575   5.156   4.800   3.326  0.1305 -0.7878  0.1454
 5190TIP3    H115576   5.183   4.754   3.405 -0.3272  0.0215  0.7846
 5190TIP3    H215577   5.167   4.735   3.256 -0.5991 -1.9204  1.0348
 5191TIP3   OH215578   5.126   2.316   4.333  0.3206  0.4685 -0.8250
 5191TIP3    H115579   5.143   2.364   4.252  1.8155  1.6967  0.1707
 5191TIP3    H215580   5.153   2.226   4.313 -0.5197  0.4685 -2.0600
 5192TIP3   OH215581   2.130   3.591   2.887  0.0688 -0.3803  0.1730
 5192TIP3    H115582   2.111   3.604   2.980  0.8869  0.9636  0.1616
 5192TIP3    H215583   2.196   3.521   2.885  0.7540  0.2461  0.6656
 5193TIP3   OH215584   3.725   0.766   2.163 -0.0017 -0.4302 -0.1257
 5193TIP3    H115585   3.704   0.701   2.096  3.2464 -2.3245  0.5004
 5193TIP3    H215586   3.762   0.840   2.114  1.0138 -1.2024 -0.5513
 5194TIP3   OH215587   1.488   1.361   0.343  0.7463 -0.1073  0.1708
 5194TIP3    H115588   1.538   1.349   0.262  0.0458  0.4836 -0.3686
 5194TIP3    H215589   1.473   1.272   0.375  1.2075 -0.3389 -0.2393
 5195TIP3   OH215590   4.129   4.534   2.299  0.1992  0.4734 -0.1460
 5195TIP3    H115591   4.166   4.618   2.327 -0.1023  0.1293  1.3641
 5195TIP3    H215592   4.038   4.538   2.328  0.3743 -0.6503  0.6033
 5196TIP3   OH215593   3.733   4.979   0.867  0.0805  0.0238  0.1562
 5196TIP3    H115594   3.680   5.053   0.896 -0.4001 -0.8645  1.6327
 5196TIP3    H215595   3.817   4.991   0.910 -0.8791 -1.7042  2.6925
 5197TIP3   OH215596   4.176   4.580   3.398 -0.1843  0.3646 -0.3283
 5197TIP3    H115597   4.083   4.583   3.376 -0.7030  0.8666  1.7071
 5197TIP3    H215598   4.216   4.530   3.327 -1.9839  0.2229 -1.2993
 5198TIP3   OH215599   5.695   5.490   1.514 -0.4648  0.5482  0.3393
 5198TIP3    H115600   5.620   5.546   1.491 -0.5455  0.4201  0.2886
 5198TIP3    H215601   5.751   5.547   1.567  0.4458  1.3083 -1.3702
 5199TIP3   OH215602   3.948   1.168   3.471 -0.6600  0.2321 -0.9976
 5199TIP3    H115603   4.007   1.112   3.420 -0.7049 -0.3800 -0.4013
 5199TIP3    H215604   3.941   1.124   3.555 -0.9550  0.9850 -0.6212
 5200TIP3   OH215605   0.424   0.679   0.969  0.4848 -0.2933  1.1516
 5200TIP3    H115606   0.469   0.595   0.965  0.5101 -0.3693  2.4412
 5200TIP3    H215607   0.444   0.722   0.886 -3.9521 -3.6687 -2.1556
 5201TIP3   OH215608   1.027   4.124   3.830  0.2231  0.3047  0.0028
 5201TIP3    H115609   1.016   4.068   3.753  1.2520  0.9333 -0.6167
 5201TIP3    H215610   1.008   4.213   3.798 -1.4561  0.3436  0.9842
 5202TIP3   OH215611   1.157   4.164   1.894  0.2398  0.8085  0.3769
 5202TIP3    H115612   1.114   4.088   1.856 -0.4607  1.3903 -0.0157
 5202TIP3    H215613   1.247   4.135   1.911 -0.0355 -0.1137  0.2763
 5203TIP3   OH215614   1.889   4.902   4.958  0.3727 -0.1761 -1.0339
 5203TIP3    H115615   1.905   4.933   5.048  1.2202 -1.3755 -0.7476
 5203TIP3    H215616   1.794   4.894   4.951  0.2227  1.0501 -0.6414
 5204TIP3   OH215617   3.798   4.081   1.874 -0.2332  0.8632  0.5715
 5204TIP3    H115618   3.843   4.097   1.957  1.0118 -0.0414  0.1163
 5204TIP3    H215619   3.714   4.043   1.898 -0.2984  1.5379  1.4367
 5205TIP3   OH215620   4.672   1.387   1.344 -0.6205  0.4656 -0.3919
 5205TIP3    H115621   4.754   1.339   1.329 -1.9417 -1.9775 -0.2676
 5205TIP3    H215622   4.671   1.455   1.277  1.9695  1.2467  0.2617
 5206TIP3   OH215623   4.919   1.262   1.309  0.7002 -0.0082  0.0141
 5206TIP3    H115624   4.978   1.325   1.351 -0.5339  0.6932  0.7452
 5206TIP3    H215625   4.915   1.189   1.371  1.2955 -0.3560 -0.3435
 5207TIP3   OH215626   5.117   3.745   4.598 -0.4451  0.3738 -0.1391
 5207TIP3    H115627   5.122   3.773   4.506  1.1180  0.0194 -0.1871
 5207TIP3    H215628   5.198   3.696   4.612 -0.0262  1.5340  1.7882
 5208TIP3   OH215629   3.114   4.003   2.245  0.2443 -0.2917 -1.3427
 5208TIP3    H115630   3.089   3.946   2.317 -2.3837  0.8019 -1.2876
 5208TIP3    H215631   3.160   4.076   2.287 -1.3175  0.3683 -0.6707
 5209TIP3   OH215632   4.635   0.077   2.713 -0.0293 -0.4087 -0.9200
 5209TIP3    H115633   4.555   0.099   2.761  0.9132 -0.9333  0.9399
 5209TIP3    H215634   4.606   0.071   2.622 -1.6870  1.5763 -0.6064
 5210TIP3   OH215635   5.394   4.913   2.774  0.4760  0.1926 -0.0562
 5210TIP3    H115636   5.441   4.996   2.777  0.5259  0.1608  0.0490
 5210TIP3    H215637   5.358   4.903   2.862  1.6098 -0.5550  0.3478
 5211TIP3   OH215638   2.130   5.299   2.933 -0.0377 -0.4533  0.2666
 5211TIP3    H115639   2.225   5.302   2.948  0.6182  1.0634 -3.3023
 5211TIP3    H215640   2.113   5.370   2.872 -3.3115 -1.5064 -0.2349
 5212TIP3   OH215641   1.529   2.434   0.489 -0.5643 -0.8172  0.1903
 5212TIP3    H115642   1.590   2.369   0.524  0.9512 -0.3993 -1.5019
 5212TIP3    H215643   1.524   2.414   0.395 -2.6872 -0.5195  0.1870
 5213TIP3   OH215644   5.064   2.993   1.831 -0.1592  0.0161  0.1041
 5213TIP3    H115645   5.094   3.062   1.890  0.3128 -1.1099  1.2419
 5213TIP3    H215646   5.141   2.974   1.777 -0.5618  0.9785 -0.8418
 5214TIP3   OH215647   2.994   1.051   0.780 -0.8677 -0.4038 -0.1527
 5214TIP3    H115648   3.074   1.029   0.827 -1.0279 -0.7556 -0.0419
 5214TIP3    H215649   2.996   1.146   0.772 -0.1939 -0.4535 -0.5984
 5215TIP3   OH215650   5.047   2.733   0.898 -0.7468 -0.2921 -0.2063
 5215TIP3    H115651   5.072   2.643   0.876 -0.9857 -0.4828  0.2865
 5215TIP3    H215652   4.990   2.760   0.826 -0.4880 -0.4508 -0.4764
 5216TIP3   OH215653   0.216   5.663   3.676  0.3610 -0.0574 -0.0707
 5216TIP3    H115654   0.270   5.718   3.620 -1.2527 -2.1389 -4.0821
 5216TIP3    H215655   0.278   5.599   3.714  1.6006  1.8750  1.3496
 5217TIP3   OH215656   5.611   5.647   4.849 -0.3054 -0.3734  0.0994
 5217TIP3    H115657   5.626   5.734   4.812 -0.4405 -0.4979 -0.2542
 5217TIP3    H215658   5.590   5.663   4.941 -2.3415  0.1396 -0.4016
 5218TIP3   OH215659   4.520   4.395   3.774 -0.5416 -0.1224 -0.2253
 5218TIP3    H115660   4.554   4.428   3.691  0.8344 -3.3397 -1.0712
 5218TIP3    H215661   4.451   4.334   3.751  0.2888 -1.5662  0.8754
 5219TIP3   OH215662   0.241   0.663   2.055  0.4813  0.6435 -0.0069
 5219TIP3    H115663   0.148   0.653   2.077 -0.0681 -1.7655 -2.7750
 5219TIP3    H215664   0.263   0.752   2.082 -2.7666  1.4679  0.3138
 5220TIP3   OH215665   2.241   2.373   3.792  0.4702  0.0952 -0.2835
 5220TIP3    H115666   2.269   2.282   3.794  0.0983 -0.0104  1.8037
 5220TIP3    H215667   2.147   2.369   3.812  0.2500  0.8909 -1.0883
 5221TIP3   OH215668   3.596   1.746   0.706  0.3751  0.5353 -0.5677
 5221TIP3    H115669   3.618   1.793   0.787 -0.6050  1.7063 -0.9531
 5221TIP3    H215670   3.611   1.811   0.636 -0.6268  0.1582 -1.1465
 5222TIP3   OH215671   1.907   3.716   4.642  0.0974  0.2993 -0.2976
 5222TIP3    H115672   2.003   3.713   4.648  0.1368 -0.6114 -1.1052
 5222TIP3    H215673   1.887   3.809   4.630  0.6119  1.0018  3.2947
 5223TIP3   OH215674   3.470   3.498   1.175  0.1573 -0.7375 -0.0600
 5223TIP3    H115675   3.500   3.482   1.086 -1.0455 -1.4124 -0.3746
 5223TIP3    H215676   3.423   3.582   1.170 -1.3770 -1.5730 -0.4856
 5224TIP3   OH215677   2.783   2.356   4.096  0.0386  0.6110  0.1037
 5224TIP3    H115678   2.707   2.407   4.069 -1.0732  0.1902  2.2279
 5224TIP3    H215679   2.775   2.274   4.049 -1.4832  0.1350  1.1461
 5225TIP3   OH215680   3.015   4.433   4.143  0.2630 -0.3651 -0.3652
 5225TIP3    H115681   3.100   4.470   4.122 -1.0223  1.8572 -2.1562
 5225TIP3    H215682   3.003   4.451   4.236  1.7606 -0.7788 -0.0802
 5226TIP3   OH215683   0.850   0.697   1.050 -0.1545  0.0238  0.1656
 5226TIP3    H115684   0.809   0.783   1.054  2.2472  1.3226 -0.9615
 5226TIP3    H215685   0.934   0.708   1.096  0.1555 -1.7395  0.0983
 5227TIP3   OH215686   5.838   3.475   2.473 -0.2480  0.0974  0.1693
 5227TIP3    H115687   5.888   3.460   2.553 -0.5042 -0.6898  0.1811
 5227TIP3    H215688   5.876   3.415   2.409 -0.2215  0.5349 -0.2332
 5228TIP3   OH215689   3.368   0.359   3.421 -0.1726  0.5781  0.0681
 5228TIP3    H115690   3.334   0.410   3.494  0.3063  1.9244 -0.6120
 5228TIP3    H215691   3.430   0.418   3.377 -0.3178 -0.2526 -1.3167
 5229TIP3   OH215692   4.959   1.217   4.552 -0.0070  0.2460  0.7657
 5229TIP3    H115693   5.000   1.157   4.613  0.7784  0.6920  0.6913
 5229TIP3    H215694   5.019   1.221   4.478  0.4414  1.8315  1.1702
 5230TIP3   OH215695   1.366   4.269   0.014  0.2138  0.1249  0.4159
 5230TIP3    H115696   1.390   4.352   0.054  1.0162 -0.3822  1.0354
 5230TIP3    H215697   1.415   4.203   0.065  1.4472 -0.5464 -1.5328
 5231TIP3   OH215698   2.111   4.689   4.395 -0.1896  0.1686  0.4941
 5231TIP3    H115699   2.098   4.781   4.416  0.6776  0.4100  0.0370
 5231TIP3    H215700   2.108   4.644   4.480  0.0928  0.7087  0.7928
 5232TIP3   OH215701   2.704   0.493   0.166 -0.4882  0.0062  0.0027
 5232TIP3    H115702   2.672   0.532   0.084 -0.3410 -0.5401 -0.3219
 5232TIP3    H215703   2.761   0.422   0.137  1.9064  1.6198  0.5426
 5233TIP3   OH215704   5.749   0.542   3.365 -0.2578  0.1379  0.0098
 5233TIP3    H115705   5.756   0.515   3.274 -0.1701 -0.1584  0.1010
 5233TIP3    H215706   5.737   0.637   3.362  1.3574  0.3522 -0.2558
 5234TIP3   OH215707   0.716   1.437   1.882 -0.4386 -0.2040  0.3874
 5234TIP3    H115708   0.785   1.394   1.932 -0.8036  0.0695  1.1422
 5234TIP3    H215709   0.698   1.517   1.930 -0.5150  0.2710 -0.4140
 5235TIP3   OH215710   4.432   5.188   1.974 -0.1784 -0.5754 -0.5930
 5235TIP3    H115711   4.350   5.192   1.924 -0.3986 -0.0173 -0.1869
 5235TIP3    H215712   4.497   5.227   1.915 -0.5563  0.6542 -0.2178
 5236TIP3   OH215713   1.835   4.186   3.015  0.2331 -0.3654 -0.3943
 5236TIP3    H115714   1.890   4.141   2.950  0.7640  1.9863 -1.7169
 5236TIP3    H215715   1.796   4.259   2.966  0.6018  1.4858  1.8956
 5237TIP3   OH215716   3.958   3.078   3.537 -0.3591  0.0751 -0.4212
 5237TIP3    H115717   3.890   3.112   3.595  0.3702 -1.7926  1.6502
 5237TIP3    H215718   4.040   3.093   3.583  0.3423 -0.6217 -1.3851
 5238TIP3   OH215719   6.256   5.555   4.294 -0.1088  0.4865 -0.3218
 5238TIP3    H115720   6.335   5.503   4.287 -0.4672 -0.1703  0.3398
 5238TIP3    H215721   6.279   5.627   4.353 -0.0270  0.2409 -0.0524
 5239TIP3   OH215722   1.865   2.824   2.275 -0.4762  0.3252 -0.2182
 5239TIP3    H115723   1.800   2.762   2.307  2.0305 -2.5027 -0.1072
 5239TIP3    H215724   1.906   2.860   2.354  0.6288 -0.8787 -0.2104
 5240TIP3   OH215725   5.080   3.638   5.144  0.6621 -0.3203 -0.4009
 5240TIP3    H115726   4.997   3.619   5.100  1.0224 -0.4954 -1.0142
 5240TIP3    H215727   5.060   3.632   5.237 -0.5300  1.7604 -0.4726
 5241TIP3   OH215728   4.167   4.808   2.344  0.4515  0.1558 -0.0729
 5241TIP3    H115729   4.201   4.845   2.425  0.5345 -0.2179  0.0664
 5241TIP3    H215730   4.243   4.802   2.286  0.7565 -1.1666  0.4190
 5242TIP3   OH215731   4.576   2.623   1.728  0.0236 -0.4070 -0.0213
 5242TIP3    H115732   4.656   2.629   1.676 -0.4041 -1.2658 -0.7999
 5242TIP3    H215733   4.543   2.534   1.712 -0.9581 -0.1479  0.4837
 5243TIP3   OH215734   1.217   5.592   0.958  0.3144  0.6007  0.8881
 5243TIP3    H115735   1.128   5.555   0.963  0.9291 -1.0510  0.2618
 5243TIP3    H215736   1.244   5.602   1.049 -0.8376  2.0560  1.1260
 5244TIP3   OH215737   4.545   0.860   2.630  0.0928  0.3280  0.1993
 5244TIP3    H115738   4.456   0.893   2.620  0.8881  2.3712 -0.7691
 5244TIP3    H215739   4.574   0.895   2.715 -0.3142 -1.1986  1.0152
 5245TIP3   OH215740   3.791   4.875   3.163 -0.3003 -0.1311  0.0687
 5245TIP3    H115741   3.730   4.810   3.199 -0.8273  0.9649  1.2290
 5245TIP3    H215742   3.868   4.868   3.219  0.0756 -0.5124 -0.4938
 5246TIP3   OH215743   4.829   3.575   3.424 -0.4397  0.1276 -0.1348
 5246TIP3    H115744   4.759   3.517   3.393  0.7792 -1.2985 -0.3367
 5246TIP3    H215745   4.859   3.620   3.345 -0.8520  0.4425 -0.1149
 5247TIP3   OH215746   2.271   5.553   0.962 -0.3602  0.3523  0.2006
 5247TIP3    H115747   2.217   5.623   0.926 -0.4147  0.8486  1.2105
 5247TIP3    H215748   2.294   5.583   1.050  3.5023  1.2129 -0.9165
 5248TIP3   OH215749   3.946   1.464   4.555  0.3678 -0.1805  0.2634
 5248TIP3    H115750   4.040   1.481   4.558  0.2194  0.6715  3.6566
 5248TIP3    H215751   3.905   1.548   4.574 -1.0646 -0.7341 -0.2493
 5249TIP3   OH215752   2.490   1.208   2.906  0.1610 -0.4129 -0.7689
 5249TIP3    H115753   2.426   1.153   2.861 -1.7051 -0.2694  1.5134
 5249TIP3    H215754   2.569   1.154   2.910 -0.9552 -2.1074 -0.4635
 5250TIP3   OH215755   4.699   0.419   0.844 -0.5355  0.3141 -0.4223
 5250TIP3    H115756   4.789   0.389   0.829 -0.5761 -0.8248  1.3652
 5250TIP3    H215757   4.657   0.412   0.758  0.4621 -1.3045 -0.8113
 5251TIP3   OH215758   0.885   4.443   1.556 -0.6166  0.0472 -0.1047
 5251TIP3    H115759   0.872   4.427   1.650 -2.2060 -0.5835 -0.3861
 5251TIP3    H215760   0.870   4.537   1.546  1.5743  0.5206  0.5279
 5252TIP3   OH215761   3.131   4.247   3.887 -0.2543 -0.3689 -0.0737
 5252TIP3    H115762   3.219   4.239   3.851 -0.5405  0.4009 -1.0126
 5252TIP3    H215763   3.144   4.257   3.981  0.5844 -1.3883 -0.0649
 5253TIP3   OH215764   5.157   4.222   2.392  0.9182 -0.1409 -0.4021
 5253TIP3    H115765   5.089   4.261   2.446  1.9481 -0.9599  1.5788
 5253TIP3    H215766   5.166   4.282   2.318 -0.4952  1.0654  0.3576
 5254TIP3   OH215767   6.115   3.787   1.881  0.0574  0.6497 -0.4470
 5254TIP3    H115768   6.057   3.715   1.857  0.1681 -0.3264  1.8843
 5254TIP3    H215769   6.081   3.863   1.833 -2.2409 -0.2008 -0.2939
 5255TIP3   OH215770   5.221   0.138   4.373 -0.2506  0.3883 -0.0020
 5255TIP3    H115771   5.186   0.090   4.447 -1.2588  0.5985 -0.3216
 5255TIP3    H215772   5.250   0.221   4.410 -0.9566  0.5839  0.1383
 5256TIP3   OH215773   5.091   4.633   2.776  0.0447 -0.1558 -0.3858
 5256TIP3    H115774   5.039   4.712   2.793  0.4423 -0.0389  0.3446
 5256TIP3    H215775   5.100   4.592   2.862  3.0930  1.0416 -0.0275
 5257TIP3   OH215776  -0.022   1.550   0.541 -0.5070 -0.3435  0.0534
 5257TIP3    H115777  -0.036   1.584   0.630 -0.8289  2.2683 -0.9152
 5257TIP3    H215778   0.072   1.533   0.536 -0.6130 -1.4593  1.1484
 5258TIP3   OH215779   0.318   5.285   2.752  0.2882 -0.5904 -0.0890
 5258TIP3    H115780   0.328   5.379   2.738  0.2480 -0.6891 -0.8149
 5258TIP3    H215781   0.321   5.274   2.848 -1.3572  0.3368  0.0987
 5259TIP3   OH215782   3.696   5.190   3.805  0.4488  0.2345 -0.3763
 5259TIP3    H115783   3.713   5.265   3.862  0.2469  0.3646 -0.4885
 5259TIP3    H215784   3.639   5.224   3.737  0.8668  0.1333 -0.7851
 5260TIP3   OH215785   0.375   4.265   3.525 -0.1610 -0.1093  0.4855
 5260TIP3    H115786   0.298   4.238   3.575  0.2132  0.7254  1.5549
 5260TIP3    H215787   0.415   4.334   3.579  1.4670 -0.6975  0.0735
 5261TIP3   OH215788   4.077   1.264   3.109 -0.7430  0.2874 -0.2712
 5261TIP3    H115789   4.060   1.169   3.106  0.7688  0.0091 -1.6735
 5261TIP3    H215790   4.173   1.270   3.113 -0.8668  1.7616  1.0870
 5262TIP3   OH215791   0.105   3.631   4.113  0.7261  0.3041 -0.6040
 5262TIP3    H115792   0.127   3.707   4.059  1.0368 -0.1929 -1.1990
 5262TIP3    H215793   0.190   3.591   4.132  0.6846  0.9155  0.9310
 5263TIP3   OH215794   1.554   2.034   3.718 -0.2939  0.1761 -0.5193
 5263TIP3    H115795   1.506   2.070   3.643 -2.0582 -0.7101  0.1437
 5263TIP3    H215796   1.573   1.944   3.693  0.8881  0.4506 -0.6797
 5264TIP3   OH215797   4.898   0.727   0.758 -0.1620 -0.1321  0.1009
 5264TIP3    H115798   4.875   0.680   0.838  1.3440 -1.4955 -0.2161
 5264TIP3    H215799   4.858   0.675   0.688 -0.2152  0.2113 -0.1250
 5265TIP3   OH215800   4.491   0.902   2.358 -0.0086  0.0968  0.3201
 5265TIP3    H115801   4.537   0.986   2.358  1.7767 -0.7811 -1.5863
 5265TIP3    H215802   4.507   0.866   2.445 -1.2892  1.9224  1.3728
 5266TIP3   OH215803   5.420   1.894   5.022 -0.3210  0.2728  0.5178
 5266TIP3    H115804   5.407   1.936   4.937  2.1927  1.8810  0.8030
 5266TIP3    H215805   5.504   1.848   5.013 -0.2237  0.1040  1.9689
 5267TIP3   OH215806   1.808   1.969   0.702 -0.7362 -0.1901  0.6019
 5267TIP3    H115807   1.730   1.921   0.674 -0.9776  0.8420 -0.5869
 5267TIP3    H215808   1.829   1.933   0.789 -0.7802 -2.5565 -0.2890
 5268TIP3   OH215809   1.202   1.129   0.578  0.1021 -0.1650  0.1230
 5268TIP3    H115810   1.247   1.205   0.543 -1.6690  0.3610 -1.1534
 5268TIP3    H215811   1.149   1.164   0.650 -0.6037 -0.1823 -0.3729
 5269TIP3   OH215812   6.086   4.503   4.013 -0.0818  0.4209 -0.1636
 5269TIP3    H115813   6.058   4.414   4.032 -1.5888  0.8842 -0.0771
 5269TIP3    H215814   6.123   4.535   4.095  1.4749 -0.4601 -0.4889
 5270TIP3   OH215815   3.594   2.072   3.195  0.0071  0.2304 -0.2202
 5270TIP3    H115816   3.583   2.161   3.162  2.2199  0.3561 -0.8159
 5270TIP3    H215817   3.567   2.015   3.123 -0.5583  0.4250 -0.1633
 5271TIP3   OH215818   6.238   3.318   3.021 -0.0059 -0.5838  0.0814
 5271TIP3    H115819   6.283   3.255   2.965 -1.8279 -0.5693 -1.4802
 5271TIP3    H215820   6.304   3.386   3.038  1.0199 -1.3246 -0.8355
 5272TIP3   OH215821   0.218   2.584   3.541  0.0055  0.4801 -0.2611
 5272TIP3    H115822   0.160   2.614   3.611  2.3090 -0.0287  2.0351
 5272TIP3    H215823   0.166   2.592   3.461 -3.2169 -0.0803  1.6174
 5273TIP3   OH215824   1.664   5.938   1.980 -0.8167 -0.6506  0.3932
 5273TIP3    H115825   1.752   5.948   2.017 -0.5308 -0.3418 -0.3511
 5273TIP3    H215826   1.678   5.889   1.899 -1.4232 -1.2370  0.6395
 5274TIP3   OH215827   4.877   1.219   3.033 -0.0821  0.2455 -0.1521
 5274TIP3    H115828   4.971   1.211   3.017  0.0095 -2.5511  1.0913
 5274TIP3    H215829   4.836   1.185   2.954  0.0059  0.0101 -0.0983
 5275TIP3   OH215830   4.688   5.719   0.484 -0.0111 -0.0912 -0.0102
 5275TIP3    H115831   4.781   5.701   0.503  0.3770 -0.6774 -2.1649
 5275TIP3    H215832   4.648   5.633   0.477 -0.7472  0.1615  0.9326
 5276TIP3   OH215833   0.992   0.808   3.857  0.9455  0.0823  0.5375
 5276TIP3    H115834   0.972   0.899   3.835  3.4063  0.2146 -1.7151
 5276TIP3    H215835   0.912   0.759   3.837  0.0082  1.5618  0.5577
 5277TIP3   OH215836   5.622   3.828   3.067 -0.3737  0.1812 -0.3087
 5277TIP3    H115837   5.555   3.867   3.123  0.2174 -0.5920  0.9892
 5277TIP3    H215838   5.589   3.741   3.047  0.9749 -0.9036  1.8273
 5278TIP3   OH215839   1.179   4.853   1.466 -0.4424  0.3530 -0.0438
 5278TIP3    H115840   1.269   4.823   1.457 -0.9765 -1.1725 -0.7623
 5278TIP3    H215841   1.130   4.799   1.404 -1.7163  1.8181 -0.3706
 5279TIP3   OH215842   3.821   4.892   2.672  0.0745  0.5254  0.3858
 5279TIP3    H115843   3.732   4.864   2.651 -0.2073  0.8790  1.0711
 5279TIP3    H215844   3.837   4.966   2.614  0.5649 -0.5836 -0.9438
 5280TIP3   OH215845   2.673   5.794   0.450 -0.7097  0.3612  0.4511
 5280TIP3    H115846   2.595   5.847   0.464 -1.1685 -0.6153  1.8056
 5280TIP3    H215847   2.713   5.787   0.536 -0.5237 -1.2416  0.2666
 5281TIP3   OH215848   4.435   3.244   0.221 -0.6519 -0.1542  0.1339
 5281TIP3    H115849   4.419   3.155   0.252 -0.9005  0.0041  0.4710
 5281TIP3    H215850   4.475   3.289   0.296  0.0819 -0.1607 -0.2495
 5282TIP3   OH215851   2.989   1.854   0.398  0.0360  0.3051 -0.3818
 5282TIP3    H115852   2.958   1.895   0.478  2.0486 -1.1589  1.2440
 5282TIP3    H215853   3.069   1.809   0.423  0.7758 -0.1963 -3.2447
 5283TIP3   OH215854   5.842   2.615   5.001 -0.3126  0.8497 -0.1917
 5283TIP3    H115855   5.798   2.543   5.047  0.6244 -0.1205 -0.7691
 5283TIP3    H215856   5.864   2.677   5.071 -0.5147  0.2575  0.4177
 5284TIP3   OH215857   5.717   3.981   4.952  0.4984  0.2044  0.1085
 5284TIP3    H115858   5.641   4.029   4.985  1.0375  0.5281  0.9285
 5284TIP3    H215859   5.701   3.890   4.979  0.5988  0.3478  0.6831
 5285TIP3   OH215860   4.878   2.913   0.312 -0.2126 -0.0722  0.3235
 5285TIP3    H115861   4.821   2.838   0.331 -0.0782 -0.0214  0.9576
 5285TIP3    H215862   4.922   2.931   0.395  0.9369 -0.2823 -0.2142
 5286TIP3   OH215863   3.544   1.630   3.268  0.0930 -0.5135  0.2390
 5286TIP3    H115864   3.570   1.703   3.324  0.4565 -0.5986  0.1904
 5286TIP3    H215865   3.452   1.644   3.250  0.4593  0.6724 -0.8514
 5287TIP3   OH215866   4.096   4.382   0.831  0.1700  0.0378  0.0774
 5287TIP3    H115867   4.101   4.457   0.772  0.4427  1.0067  1.3035
 5287TIP3    H215868   4.154   4.404   0.904 -0.9036 -0.6956  1.1958
 5288TIP3   OH215869   5.336   1.892   0.566 -0.2073  0.0245  0.6159
 5288TIP3    H115870   5.285   1.868   0.489 -1.0237  1.1849  0.7725
 5288TIP3    H215871   5.296   1.843   0.638 -0.8747  0.6252  0.6680
 5289TIP3   OH215872   2.815   4.097   2.962 -0.0095 -0.2478 -0.0058
 5289TIP3    H115873   2.761   4.159   3.011 -2.3348 -1.2925 -1.0771
 5289TIP3    H215874   2.770   4.013   2.973  1.9216 -1.3696 -0.2710
 5290TIP3   OH215875   4.892   0.469   1.558  0.1779  0.2344  0.1430
 5290TIP3    H115876   4.822   0.404   1.565 -0.3226  0.5698 -1.3425
 5290TIP3    H215877   4.954   0.431   1.495 -0.2722  1.3015 -0.9770
 5291TIP3   OH215878   0.948   0.158   1.531 -0.3441  0.3438 -0.1547
 5291TIP3    H115879   0.916   0.160   1.621 -1.1221  0.6012 -0.4251
 5291TIP3    H215880   0.890   0.217   1.483 -0.2667 -0.1821 -0.9291
 5292TIP3   OH215881   3.574   3.153   4.354 -0.1352 -0.6538  0.3324
 5292TIP3    H115882   3.658   3.148   4.399 -0.4473 -2.5247  0.7942
 5292TIP3    H215883   3.519   3.206   4.412  0.0974 -1.2521  1.1135
 5293TIP3   OH215884   0.426   4.394   1.445 -0.3373  0.2700  0.2366
 5293TIP3    H115885   0.483   4.342   1.502 -0.4779  0.5322  0.6217
 5293TIP3    H215886   0.376   4.329   1.397 -1.9321 -0.0063  2.1333
 5294TIP3   OH215887   3.629   4.625   2.445 -0.1988  0.3515  0.0166
 5294TIP3    H115888   3.622   4.717   2.472  1.0105  0.4535  0.0381
 5294TIP3    H215889   3.602   4.575   2.523  0.7233  0.6830  0.5682
 5295TIP3   OH215890   2.201   3.020   2.776 -0.1720  0.1353 -0.2993
 5295TIP3    H115891   2.118   3.067   2.788  0.7316  1.7658 -0.1506
 5295TIP3    H215892   2.232   3.004   2.865  0.5861  1.2703 -0.3383
 5296TIP3   OH215893   6.026   1.782   3.637  0.4943 -0.0537 -0.3401
 5296TIP3    H115894   5.991   1.857   3.685 -1.1216 -0.2123 -1.2153
 5296TIP3    H215895   5.963   1.766   3.567  2.3865 -0.2910 -2.1038
 5297TIP3   OH215896   4.860   3.280   1.794 -0.2660 -0.5045 -0.1817
 5297TIP3    H115897   4.842   3.373   1.808  3.0080  0.2617 -0.3344
 5297TIP3    H215898   4.806   3.257   1.718 -1.4457  1.1344  0.1020
 5298TIP3   OH215899   4.173   4.947   2.595  0.4231  0.0707  0.2836
 5298TIP3    H115900   4.107   5.013   2.574  2.3861  1.7684 -0.9188
 5298TIP3    H215901   4.196   4.965   2.686  1.0286  1.1957 -0.0672
 5299TIP3   OH215902   4.714   2.730   1.961 -0.1224  0.4471  0.1942
 5299TIP3    H115903   4.748   2.657   2.013 -2.8296 -0.8288  0.3358
 5299TIP3    H215904   4.655   2.689   1.897  0.0207  2.3405 -1.2197
 5300TIP3   OH215905   3.211   5.925   4.199 -0.4284 -0.0259  0.2258
 5300TIP3    H115906   3.217   5.990   4.130 -0.0810 -1.0714 -0.7474
 5300TIP3    H215907   3.165   5.970   4.270 -0.2031  1.2666 -0.4235
 5301TIP3   OH215908   0.173   1.318   1.070  0.0993  0.9303  0.3501
 5301TIP3    H115909   0.095   1.264   1.054 -0.4068  1.5953  0.5155
 5301TIP3    H215910   0.210   1.333   0.983 -0.0269  0.7180  0.2581
 5302TIP3   OH215911   5.221   4.841   4.113 -0.5067  0.6514 -0.5719
 5302TIP3    H115912   5.153   4.851   4.180 -0.9183 -0.8556 -0.7363
 5302TIP3    H215913   5.294   4.893   4.146 -0.7324  0.0310  0.9941
 5303TIP3   OH215914   1.522   1.112   1.284  0.3102  0.3800 -0.0720
 5303TIP3    H115915   1.541   1.197   1.325 -0.2567 -0.2965  1.6781
 5303TIP3    H215916   1.428   1.115   1.266  0.3543  0.2477 -0.3296
 5304TIP3   OH215917   4.133   4.090   2.373  0.3485  0.0916 -0.3300
 5304TIP3    H115918   4.148   4.085   2.278  0.6145 -0.9497 -0.2487
 5304TIP3    H215919   4.144   4.183   2.394  0.9687  0.2354 -1.2175
 5305TIP3   OH215920   6.053   4.426   0.513 -0.5281  0.0419 -0.6636
 5305TIP3    H115921   6.070   4.332   0.514 -0.9291 -0.1424 -3.5278
 5305TIP3    H215922   6.139   4.466   0.509 -0.3781 -0.4103 -3.2345
 5306TIP3   OH215923   0.950   2.239   3.162 -0.4566 -0.5591  0.3868
 5306TIP3    H115924   0.964   2.307   3.228  0.3941 -0.9550  0.6307
 5306TIP3    H215925   1.023   2.250   3.101 -1.5490  0.1646 -0.8177
 5307TIP3   OH215926   1.252   2.778   3.247  0.1643 -0.6100  0.2450
 5307TIP3    H115927   1.168   2.789   3.291 -0.8983 -3.5705 -0.8163
 5307TIP3    H215928   1.315   2.821   3.306 -1.8377  0.1457  1.9644
 5308TIP3   OH215929   0.747   2.696   0.252 -0.7215  0.2168 -0.6623
 5308TIP3    H115930   0.806   2.623   0.268  0.5043  1.1775 -0.6545
 5308TIP3    H215931   0.803   2.765   0.214 -1.5661  1.6217  0.5253
 5309TIP3   OH215932   4.212   0.599   3.200  0.5525 -0.2973 -0.5629
 5309TIP3    H115933   4.282   0.536   3.179  0.9233 -0.0857  0.0363
 5309TIP3    H215934   4.162   0.606   3.118  0.3716 -1.5389 -0.5818
 5310TIP3   OH215935   4.041   3.133   4.181 -0.0757  0.1325  0.3652
 5310TIP3    H115936   3.985   3.056   4.191 -0.7371  0.7562  1.7014
 5310TIP3    H215937   4.128   3.097   4.160 -0.8645 -0.8572 -1.3827
 5311TIP3   OH215938   5.459   1.117   2.294  0.1842  0.0654 -0.0115
 5311TIP3    H115939   5.429   1.204   2.319 -0.3406  0.3184 -1.4017
 5311TIP3    H215940   5.461   1.119   2.198  1.1095 -1.1444 -0.0428
 5312TIP3   OH215941   1.342   4.776   2.188 -0.0736 -0.2119  0.3427
 5312TIP3    H115942   1.412   4.716   2.161  0.6313 -0.3754  2.3764
 5312TIP3    H215943   1.347   4.848   2.126 -0.6619 -2.0080 -1.9169
 5313TIP3   OH215944   5.424   0.106   3.356 -0.0135  0.4309 -0.5378
 5313TIP3    H115945   5.465   0.179   3.310  1.1570 -0.0564 -0.3072
 5313TIP3    H215946   5.452   0.028   3.308  1.1531 -0.0813  0.8882
 5314TIP3   OH215947   2.747   2.762   1.391 -0.1933  0.0774  0.8341
 5314TIP3    H115948   2.744   2.857   1.381  0.0586  0.0852  0.8273
 5314TIP3    H215949   2.665   2.731   1.353  1.4092 -0.0581 -2.9773
 5315TIP3   OH215950   2.481   4.446   2.022  0.1430  0.5589  0.0129
 5315TIP3    H115951   2.493   4.433   2.116  0.2257  0.8320  0.0409
 5315TIP3    H215952   2.396   4.406   2.003  0.3426  0.0881  0.1160
 5316TIP3   OH215953   2.020   4.691   2.633 -0.1719  0.1128  0.0080
 5316TIP3    H115954   2.001   4.785   2.639  0.9165  0.3303  0.2577
 5316TIP3    H215955   2.113   4.686   2.614 -0.1762 -0.9257  0.1715
 5317TIP3   OH215956   2.613   5.211   2.854 -0.3243  0.2055  0.4582
 5317TIP3    H115957   2.531   5.257   2.868 -0.0585  1.1921 -1.0124
 5317TIP3    H215958   2.589   5.119   2.846 -1.5454  0.6309 -1.5444
 5318TIP3   OH215959   1.439   2.416   1.309  0.4477  0.4549  0.2706
 5318TIP3    H115960   1.374   2.356   1.345  0.5372 -0.5681 -1.2008
 5318TIP3    H215961   1.493   2.362   1.252  0.7266  1.8656 -0.8523
 5319TIP3   OH215962   2.074   1.037   0.788 -0.2778  0.6340 -0.2276
 5319TIP3    H115963   2.001   1.084   0.747  1.0677  0.3135 -3.2116
 5319TIP3    H215964   2.060   0.946   0.766  1.0665  0.5808 -0.9747
 5320TIP3   OH215965   1.673   4.106   1.803 -0.0524 -0.5862 -0.2879
 5320TIP3    H115966   1.698   4.172   1.868 -0.1209 -0.8701  0.0294
 5320TIP3    H215967   1.732   4.033   1.818  1.6908  0.3194 -2.2589
 5321TIP3   OH215968   3.271   4.339   2.029 -0.0303  0.2093 -0.0547
 5321TIP3    H115969   3.214   4.408   2.064  0.8737  0.7680  0.3353
 5321TIP3    H215970   3.265   4.268   2.094  1.0928  0.9681  0.9067
 5322TIP3   OH215971   4.831   1.428   4.673  0.1831  0.2224  0.3966
 5322TIP3    H115972   4.867   1.353   4.625 -0.5759  0.0773  0.0515
 5322TIP3    H215973   4.737   1.414   4.671  0.0644  1.0053  0.6404
 5323TIP3   OH215974   0.190   3.874   2.187 -0.1472 -0.0460 -0.3380
 5323TIP3    H115975   0.239   3.795   2.211 -0.4958  0.1328  1.0692
 5323TIP3    H215976   0.219   3.940   2.250 -0.3686  0.7681 -1.0714
 5324TIP3   OH215977   2.595   0.055   2.615  0.4914 -0.1376  0.4809
 5324TIP3    H115978   2.607   0.145   2.583  0.7095 -0.6795 -1.0638
 5324TIP3    H215979   2.504   0.034   2.592  0.4195 -0.2797  0.8998
 5325TIP3   OH215980   0.533   0.991   4.491  0.4276 -0.4475  0.8138
 5325TIP3    H115981   0.498   1.079   4.479 -0.3146 -0.6883  1.1488
 5325TIP3    H215982   0.621   0.995   4.454 -0.3612 -0.1439 -1.1712
 5326TIP3   OH215983   1.743   2.743   5.169 -0.0008 -0.2586  0.0495
 5326TIP3    H115984   1.781   2.664   5.209 -0.0871 -0.7572 -0.8297
 5326TIP3    H215985   1.808   2.773   5.107 -0.0968  0.2014  0.1679
 5327TIP3   OH215986   2.546   4.559   1.411  0.2640 -0.1203  0.1411
 5327TIP3    H115987   2.609   4.531   1.478  0.1665  0.3241  0.4280
 5327TIP3    H215988   2.477   4.492   1.414  0.7961 -0.6912 -0.2846
 5328TIP3   OH215989   2.915   2.937   1.732  0.2943  0.1396 -0.1056
 5328TIP3    H115990   2.841   2.876   1.725 -0.9515  1.4784  0.6760
 5328TIP3    H215991   2.950   2.922   1.820  0.3928  0.1219 -0.1474
 5329TIP3   OH215992   1.201   0.237  -0.004  0.0437  0.1469  0.8770
 5329TIP3    H115993   1.282   0.289  -0.006  1.6002 -2.0866 -1.5811
 5329TIP3    H215994   1.231   0.147   0.010 -1.8698 -0.8434 -0.8299
 5330TIP3   OH215995   3.911   2.015   5.030  0.3446  0.6127 -0.0688
 5330TIP3    H115996   3.884   1.982   4.945 -0.2663  1.5072 -0.2427
 5330TIP3    H215997   3.975   1.952   5.062  1.2046  0.6779 -1.5591
 5331TIP3   OH215998   0.201   0.434   4.631 -0.0318  0.1528  1.1568
 5331TIP3    H115999   0.166   0.379   4.561  0.4182  0.3724  0.7550
 5331TIP3    H216000   0.287   0.396   4.651  0.7465  1.3385  0.1360
 5332TIP3   OH216001   5.058   5.356   2.995 -0.1056  0.6734 -0.0120
 5332TIP3    H116002   5.010   5.322   3.071  0.5795 -1.5150 -0.5024
 5332TIP3    H216003   4.993   5.360   2.925  0.2927 -2.2145 -0.6535
 5333TIP3   OH216004   1.924   0.487   2.951  0.0042  0.1752 -0.0140
 5333TIP3    H116005   1.897   0.471   2.861 -0.0064 -1.9123  0.3088
 5333TIP3    H216006   1.843   0.505   2.998 -0.1671 -0.2825 -0.1322
 5334TIP3   OH216007   4.104   1.007   3.197 -0.7250 -0.0075  0.3248
 5334TIP3    H116008   4.161   0.951   3.143 -0.6325  0.1762  0.2284
 5334TIP3    H216009   4.131   0.989   3.287 -1.2176 -0.6826  0.3432
 5335TIP3   OH216010   1.702   2.344   4.385  0.3143  0.3991 -0.2029
 5335TIP3    H116011   1.660   2.361   4.301  0.2158 -0.4409 -0.3278
 5335TIP3    H216012   1.795   2.362   4.369 -0.0406  2.9352  0.2601
 5336TIP3   OH216013   0.849   5.447   4.768  0.2032  0.2603 -0.3442
 5336TIP3    H116014   0.836   5.540   4.748 -0.7190  0.1466 -0.3422
 5336TIP3    H216015   0.770   5.405   4.735 -0.6887 -0.1529  2.1261
 5337TIP3   OH216016   4.866   2.609   3.526 -0.0440  0.2336 -0.1546
 5337TIP3    H116017   4.958   2.605   3.553 -0.2508 -0.5226  0.4858
 5337TIP3    H216018   4.827   2.675   3.583 -0.2999 -0.7894  0.9029
 5338TIP3   OH216019   0.778   4.563   2.729 -0.1478  0.4933 -0.2961
 5338TIP3    H116020   0.777   4.566   2.633 -0.4282  1.4205 -0.2748
 5338TIP3    H216021   0.824   4.482   2.750  0.1274  0.3991 -1.2161
 5339TIP3   OH216022   4.687   5.301   2.665  0.0906  0.5957 -0.5331
 5339TIP3    H116023   4.600   5.338   2.682 -0.0835 -0.3533  0.7846
 5339TIP3    H216024   4.677   5.254   2.582 -0.9894 -0.4737  0.1751
 5340TIP3   OH216025   4.081   3.017   0.928 -0.3096 -0.3472 -0.0395
 5340TIP3    H116026   4.094   3.104   0.966  0.5601  0.6197 -2.3741
 5340TIP3    H216027   3.988   3.014   0.906  0.0265  0.8128 -1.7451
 5341TIP3   OH216028   1.981   5.402   1.737 -0.1730 -0.5275  0.2623
 5341TIP3    H116029   1.913   5.469   1.737  0.1344 -0.2102  0.4235
 5341TIP3    H216030   1.935   5.321   1.718 -0.6307 -0.3502  0.5869
 5342TIP3   OH216031   6.038   1.521   4.971 -0.0124  0.2658 -0.0725
 5342TIP3    H116032   5.990   1.568   4.903  1.2085  1.0761 -0.4153
 5342TIP3    H216033   6.110   1.580   4.994  0.5708 -0.7255  0.7186
 5343TIP3   OH216034   4.032   1.611   3.916  0.0536  0.4148  0.0618
 5343TIP3    H116035   3.959   1.598   3.975  0.4921  1.4691  0.8725
 5343TIP3    H216036   4.074   1.525   3.909 -0.4671  0.1091  0.6535
 5344TIP3   OH216037   4.643   3.325   2.168 -0.5043  0.2278  0.2305
 5344TIP3    H116038   4.716   3.372   2.208  1.3975 -1.2463 -1.3173
 5344TIP3    H216039   4.596   3.392   2.119  0.5794  0.9813  0.1786
 5345TIP3   OH216040   0.355   2.915   2.619 -0.1541 -0.4208  0.0817
 5345TIP3    H116041   0.334   2.919   2.526  0.6459  0.7620 -0.0741
 5345TIP3    H216042   0.330   3.001   2.653  2.4962  0.3858  0.2490
 5346TIP3   OH216043   3.335   4.656   3.169 -0.1665 -0.0552  0.3149
 5346TIP3    H116044   3.305   4.681   3.256 -0.2716  2.9413 -0.4693
 5346TIP3    H216045   3.263   4.680   3.110  0.4155 -0.8031 -0.7515
 5347TIP3   OH216046   2.568   0.488   3.543  0.2428 -0.1737  0.6092
 5347TIP3    H116047   2.548   0.399   3.570  1.6498 -0.5026  0.6500
 5347TIP3    H216048   2.598   0.531   3.624  0.5253  0.0423  0.3892
 5348TIP3   OH216049   3.418   1.956   0.266 -0.1733  0.1787 -0.1939
 5348TIP3    H116050   3.380   2.004   0.340  0.4991  0.1335  0.1889
 5348TIP3    H216051   3.481   1.896   0.306  2.7051  2.4510 -0.9826
 5349TIP3   OH216052   3.688   1.247   2.408 -0.1437 -0.0556 -0.0651
 5349TIP3    H116053   3.715   1.295   2.486 -1.8196 -0.8144  1.0313
 5349TIP3    H216054   3.690   1.312   2.338 -0.3440  1.0915  0.9644
 5350TIP3   OH216055   5.356   4.672   1.681  0.5882 -0.5044 -0.5104
 5350TIP3    H116056   5.302   4.747   1.708 -2.1668 -2.0965 -1.2165
 5350TIP3    H216057   5.408   4.706   1.608  0.1477  0.9933 -0.1728
 5351TIP3   OH216058   2.691   2.984   2.067  0.0670 -0.0228 -0.2606
 5351TIP3    H116059   2.678   3.027   1.983  1.4152  0.5810 -0.1795
 5351TIP3    H216060   2.651   2.898   2.056 -0.6371  0.4135 -1.1869
 5352TIP3   OH216061   0.088   5.055   2.000 -0.2369 -0.0134 -0.2819
 5352TIP3    H116062   0.102   5.056   1.905  1.4123  1.8231 -0.0857
 5352TIP3    H216063  -0.007   5.052   2.010 -0.4792  0.7490 -2.0039
 5353TIP3   OH216064   3.099   0.635   3.412  0.5328 -0.0090  0.3710
 5353TIP3    H116065   3.043   0.689   3.356  0.0323 -0.2068  0.6767
 5353TIP3    H216066   3.170   0.693   3.439  0.9359  0.0157 -0.6897
 5354TIP3   OH216067   5.397   5.931   0.834 -0.5540  0.0440 -0.0681
 5354TIP3    H116068   5.395   5.945   0.740 -0.6879  1.1796  0.0965
 5354TIP3    H216069   5.305   5.920   0.859 -0.5492  0.1202 -0.0162
 5355TIP3   OH216070   3.614   4.820   4.489  0.1746  0.0757 -0.4156
 5355TIP3    H116071   3.681   4.885   4.509 -0.1764 -0.8249  5.2486
 5355TIP3    H216072   3.642   4.741   4.535 -3.0169 -1.4474 -0.7984
 5356TIP3   OH216073   4.058   2.872   4.841 -0.0884  0.4392  0.1478
 5356TIP3    H116074   4.114   2.900   4.914 -0.3833  0.9148  0.1948
 5356TIP3    H216075   4.117   2.824   4.783 -0.0748 -0.8611  1.2080
 5357TIP3   OH216076   6.171   5.209   2.154  0.4022 -0.2286 -0.0309
 5357TIP3    H116077   6.192   5.263   2.078  0.4712 -2.2705 -1.5277
 5357TIP3    H216078   6.100   5.152   2.124 -1.7266  0.9478  2.3999
 5358TIP3   OH216079   6.175   0.188   1.265 -0.1382 -0.6408 -0.0817
 5358TIP3    H116080   6.110   0.154   1.327 -1.5887 -1.6300 -2.0298
 5358TIP3    H216081   6.161   0.283   1.266  0.0478 -0.6199  1.2884
 5359TIP3   OH216082   2.980   2.165   0.185 -0.0496 -0.0047 -0.0900
 5359TIP3    H116083   2.973   2.193   0.276 -2.1287 -0.9017  0.0726
 5359TIP3    H216084   2.890   2.155   0.155  0.4980 -2.9820 -1.1929
 5360TIP3   OH216085   1.909   4.947   2.716  0.2451 -0.5306 -0.1491
 5360TIP3    H116086   1.836   4.940   2.778 -1.1216  1.4712 -1.4429
 5360TIP3    H216087   1.972   5.005   2.759 -0.4641  0.4423 -0.4170
 5361TIP3   OH216088   4.045   0.862   4.416  0.5017  0.5504  0.1957
 5361TIP3    H116089   4.099   0.912   4.356  0.7715  1.2173  0.9819
 5361TIP3    H216090   4.014   0.788   4.364  0.1090  1.5139 -0.9837
 5362TIP3   OH216091   4.216   0.999   4.609 -0.2292 -0.2294 -0.0574
 5362TIP3    H116092   4.194   1.019   4.518 -0.0834  1.7421  0.3148
 5362TIP3    H216093   4.151   0.934   4.635 -2.5887  1.8008 -0.4930
 5363TIP3   OH216094   1.810   0.957   3.461 -0.4059 -0.3681 -0.7178
 5363TIP3    H116095   1.738   0.986   3.518 -0.5005 -0.9205 -0.5404
 5363TIP3    H216096   1.887   1.000   3.497 -0.3852 -1.0894  0.1549
 5364TIP3   OH216097   0.078   0.686   1.276 -0.0385  0.0088 -0.0901
 5364TIP3    H116098   0.109   0.739   1.202 -1.3091 -0.4771 -1.0087
 5364TIP3    H216099   0.080   0.746   1.350 -1.3279  1.3695 -1.0725
 5365TIP3   OH216100   1.384   0.515   2.604 -0.1147  0.4030 -0.1778
 5365TIP3    H116101   1.361   0.605   2.581 -1.2455  0.0932 -0.3376
 5365TIP3    H216102   1.304   0.480   2.644  0.8547 -0.0112  1.4787
 5366TIP3   OH216103   3.944   0.986   4.087  0.1920  0.8570  0.5027
 5366TIP3    H116104   4.015   1.025   4.036 -0.2372  0.8901 -0.0820
 5366TIP3    H216105   3.866   1.000   4.033 -0.1762  0.3779  0.9077
 5367TIP3   OH216106   5.014   1.476   3.856  0.3112 -0.2145  0.3183
 5367TIP3    H116107   5.104   1.470   3.888 -0.4752 -0.9263  2.5903
 5367TIP3    H216108   5.000   1.395   3.807  1.0333  0.1276 -0.4811
 5368TIP3   OH216109   5.510   2.628   0.939  0.0880  0.2261  0.3923
 5368TIP3    H116110   5.536   2.577   1.016 -1.7488 -0.0177  0.9090
 5368TIP3    H216111   5.548   2.581   0.865  3.3061  1.3725  1.1691
 5369TIP3   OH216112   4.379   1.856   3.322  0.4678  0.0393 -0.1949
 5369TIP3    H116113   4.434   1.927   3.356 -0.7607  0.3753  1.2030
 5369TIP3    H216114   4.414   1.839   3.234  1.0874  2.0819 -0.4088
 5370TIP3   OH216115   3.580   1.240   2.076  0.3284  0.2578  0.1481
 5370TIP3    H116116   3.514   1.180   2.039  0.0660  0.8773 -0.3952
 5370TIP3    H216117   3.652   1.182   2.101 -0.3551 -0.4224  0.6316
 5371TIP3   OH216118   1.120   5.263   2.435  0.1776 -0.4752  0.0847
 5371TIP3    H116119   1.140   5.354   2.457  0.2279 -0.6010  0.5707
 5371TIP3    H216120   1.177   5.243   2.360 -1.5054  0.6066 -1.5801
 5372TIP3   OH216121   5.480   2.274   4.679  0.2975  0.1087  0.2367
 5372TIP3    H116122   5.558   2.226   4.707  0.1999  0.2949  0.8423
 5372TIP3    H216123   5.407   2.230   4.724  0.0380 -0.1595 -0.4415
 5373TIP3   OH216124   5.310   2.347   2.194 -0.7594 -0.0050  0.4428
 5373TIP3    H116125   5.296   2.312   2.282 -1.2225  0.0003  0.3703
 5373TIP3    H216126   5.232   2.321   2.145 -1.5628  1.9160  0.6289
 5374TIP3   OH216127   1.279   5.579   4.183  0.0856  0.3045  0.2358
 5374TIP3    H116128   1.306   5.582   4.091 -2.3158  0.0963 -0.5321
 5374TIP3    H216129   1.278   5.670   4.212  2.7105  0.2541  0.7033
 5375TIP3   OH216130   3.229   0.724   2.290 -0.1090 -0.2883  0.2336
 5375TIP3    H116131   3.220   0.681   2.375 -1.8192 -0.2494  0.1173
 5375TIP3    H216132   3.142   0.717   2.250  0.1957  1.2030 -0.7891
 5376TIP3   OH216133   0.218   0.207   1.679 -0.6618  0.0460  0.4571
 5376TIP3    H116134   0.239   0.261   1.602 -0.7543  0.6998  0.8798
 5376TIP3    H216135   0.188   0.124   1.642  1.7486 -0.6261 -0.2037
 5377TIP3   OH216136   0.863   4.477   0.807  0.1657  0.0368  0.2333
 5377TIP3    H116137   0.866   4.572   0.817 -0.2676  0.1451 -0.6315
 5377TIP3    H216138   0.903   4.460   0.722 -1.5788 -0.3816 -0.5479
 5378TIP3   OH216139   0.734   4.084   0.061  0.0772 -0.0160  0.1073
 5378TIP3    H116140   0.656   4.033   0.038  0.9696 -1.6455  0.5799
 5378TIP3    H216141   0.705   4.175   0.057 -1.4607 -0.5203 -1.1763
 5379TIP3   OH216142   3.510   2.914   0.382 -0.2811  0.1491  0.2753
 5379TIP3    H116143   3.499   2.995   0.332  1.2510 -1.4280 -2.9646
 5379TIP3    H216144   3.601   2.915   0.409  0.5729 -1.5376 -2.1593
 5380TIP3   OH216145   2.517   3.928   0.924  0.5734  0.5756 -0.3221
 5380TIP3    H116146   2.486   3.970   1.004  0.5708 -0.3419  0.1660
 5380TIP3    H216147   2.443   3.935   0.863  0.2806  0.5515  0.0262
 5381TIP3   OH216148   1.744   4.876   2.951 -0.3058  0.3565  0.2557
 5381TIP3    H116149   1.654   4.866   2.919 -0.6011 -0.4526  1.2820
 5381TIP3    H216150   1.752   4.969   2.971 -0.2287  0.8277 -1.7592
 5382TIP3   OH216151   0.619   5.476   5.017 -0.1148 -0.1921  0.4827
 5382TIP3    H116152   0.568   5.551   4.988  1.0756  0.7329  0.7223
 5382TIP3    H216153   0.676   5.455   4.943 -1.6597 -2.0343 -0.2793
 5383TIP3   OH216154   3.658   5.475   5.062  0.0578 -0.1901 -0.0324
 5383TIP3    H116155   3.713   5.550   5.084 -0.0240 -0.4682  1.1849
 5383TIP3    H216156   3.683   5.407   5.125 -1.0242 -0.6260 -0.0440
 5384TIP3   OH216157   2.679   3.859   3.008 -0.3965  0.5029  0.0361
 5384TIP3    H116158   2.696   3.766   3.022  2.7282  0.8894 -0.5693
 5384TIP3    H216159   2.615   3.882   3.076 -1.6546 -2.1349 -0.1167
 5385TIP3   OH216160   0.037   4.833   0.286 -0.6527 -0.2157  0.3347
 5385TIP3    H116161   0.004   4.782   0.360 -0.6042  0.8337  1.1121
 5385TIP3    H216162   0.004   4.922   0.302  0.9383  0.4455  0.1230
 5386TIP3   OH216163   0.759   2.939   2.583  0.2562  0.1520 -0.2345
 5386TIP3    H116164   0.834   2.900   2.539  1.0674  2.3130 -0.9041
 5386TIP3    H216165   0.794   2.972   2.666 -0.4675 -0.6938  0.4350
 5387TIP3   OH216166   2.484   5.471   5.077  0.4553  0.0606  0.2073
 5387TIP3    H116167   2.525   5.385   5.086 -0.6604 -0.3654  1.4666
 5387TIP3    H216168   2.554   5.533   5.097  1.3464 -0.5015 -0.9656
 5388TIP3   OH216169   1.942   5.897   1.314  0.0659 -0.4388  0.0584
 5388TIP3    H116170   1.893   5.886   1.232  1.0385 -2.4078 -0.3255
 5388TIP3    H216171   1.878   5.879   1.383 -0.5446  0.3460 -0.2950
 5389TIP3   OH216172   1.719   5.810   0.029 -0.0193  0.0989  0.1017
 5389TIP3    H116173   1.791   5.870   0.011  0.2574 -0.9298 -2.5922
 5389TIP3    H216174   1.723   5.797   0.124  2.9899  0.4885  0.1384
 5390TIP3   OH216175   2.793   5.311   3.557  0.1821  0.2908 -0.5825
 5390TIP3    H116176   2.845   5.385   3.588  0.6283 -0.2656  0.0268
 5390TIP3    H216177   2.707   5.324   3.595  0.7283 -0.3951  0.9827
 5391TIP3   OH216178   3.168   1.478   4.457  0.1863  0.1485 -0.1493
 5391TIP3    H116179   3.160   1.565   4.497 -1.8184  0.6608 -1.5020
 5391TIP3    H216180   3.150   1.492   4.364 -0.3475 -1.7196 -0.3794
 5392TIP3   OH216181   4.469   1.799   4.226  0.3266  0.5717  0.3637
 5392TIP3    H116182   4.413   1.827   4.299 -1.6802  1.1561 -1.2990
 5392TIP3    H216183   4.413   1.742   4.173  0.8843  1.9662 -1.9013
 5393TIP3   OH216184   0.095   1.213   4.778  0.1797  0.1208 -0.1072
 5393TIP3    H116185   0.155   1.238   4.848  1.5750 -0.2036 -1.1576
 5393TIP3    H216186   0.028   1.282   4.778  0.5416  0.4982  1.0590
 5394TIP3   OH216187   5.926   2.903   2.070  0.6807  0.1614 -0.2608
 5394TIP3    H116188   5.942   2.871   1.981 -0.2792  1.3328 -0.8924
 5394TIP3    H216189   5.847   2.957   2.062  0.5623  0.2687  1.3184
 5395TIP3   OH216190   0.004   0.281   4.061 -0.1154 -0.3455  0.1406
 5395TIP3    H116191   0.081   0.249   4.108 -0.2797  0.6198  1.1026
 5395TIP3    H216192  -0.029   0.204   4.014  1.7467 -0.6411 -0.7538
 5396TIP3   OH216193   4.541   0.236   0.963 -0.3606  0.0089 -0.0292
 5396TIP3    H116194   4.594   0.158   0.980 -1.9183 -1.3931 -1.2418
 5396TIP3    H216195   4.603   0.298   0.925  0.6693 -1.1178 -0.2700
 5397TIP3   OH216196   4.808   1.561   3.262  0.1602  0.3335 -0.1524
 5397TIP3    H116197   4.721   1.528   3.243 -1.0475  3.7252 -1.3644
 5397TIP3    H216198   4.851   1.568   3.176  1.5034 -0.8747  0.3812
 5398TIP3   OH216199   0.336   0.150   2.743 -0.1768 -0.5696  0.3992
 5398TIP3    H116200   0.293   0.186   2.665  1.5485 -2.6811 -1.6701
 5398TIP3    H216201   0.372   0.227   2.787 -1.5332  0.7389 -0.6416
 5399TIP3   OH216202   2.146   1.948   2.645 -0.3100 -0.9464  0.2844
 5399TIP3    H116203   2.118   1.918   2.558 -1.6603  0.4584  0.1901
 5399TIP3    H216204   2.222   1.894   2.666  0.2336 -1.1098 -1.9027
 5400TIP3   OH216205   3.129   4.395   2.450 -0.1577 -0.0775  0.0877
 5400TIP3    H116206   3.185   4.464   2.486 -0.8969  0.5006  0.1427
 5400TIP3    H216207   3.106   4.341   2.526 -0.8327  0.5159  0.3198
 5401TIP3   OH216208   5.299   5.389   0.922  0.5499  0.7895 -0.1741
 5401TIP3    H116209   5.351   5.447   0.867 -0.8595  1.6495 -0.6453
 5401TIP3    H216210   5.323   5.300   0.893  0.0042  1.2056 -2.0439
 5402TIP3   OH216211   0.824   4.286   0.514  0.5806 -0.0099  0.0122
 5402TIP3    H116212   0.773   4.275   0.594  0.2233 -1.0233 -0.3467
 5402TIP3    H216213   0.914   4.296   0.544  0.4105 -0.0880  0.5536
 5403TIP3   OH216214   3.266   0.060   2.446  0.6687  0.4679 -0.6692
 5403TIP3    H116215   3.200   0.023   2.504  0.2187  0.3139 -1.2698
 5403TIP3    H216216   3.236   0.149   2.429  1.4635  0.9431  0.3380
 5404TIP3   OH216217   6.313   3.448   5.146  0.2731 -0.1098 -0.1652
 5404TIP3    H116218   6.290   3.412   5.061  1.5886 -0.5539 -0.3465
 5404TIP3    H216219   6.387   3.506   5.129 -0.8974  1.6065  0.3401
 5405TIP3   OH216220   4.059   1.868   2.058  0.2710 -0.0299 -0.4075
 5405TIP3    H116221   3.992   1.803   2.039  0.4651 -0.1929 -0.5341
 5405TIP3    H216222   4.085   1.850   2.149  1.8521 -1.5169 -1.1107
 5406TIP3   OH216223   4.498   0.730   1.207  0.0238 -0.5033 -0.4365
 5406TIP3    H116224   4.442   0.677   1.149 -1.2394 -0.4211  0.6732
 5406TIP3    H216225   4.571   0.756   1.151 -0.4052 -1.6512 -1.5949
 5407TIP3   OH216226   1.571   4.581   4.794  0.1281  0.2326 -0.2791
 5407TIP3    H116227   1.517   4.543   4.864  0.7555  0.5603  0.3943
 5407TIP3    H216228   1.643   4.519   4.783  0.4252  0.5472 -0.1208
 5408TIP3   OH216229   4.371   0.234   2.210 -0.4698  0.2838  0.5399
 5408TIP3    H116230   4.417   0.177   2.271  0.9607 -0.2840 -0.9960
 5408TIP3    H216231   4.389   0.197   2.124 -0.4296  2.4244 -0.4417
 5409TIP3   OH216232   5.360   3.189   1.070  0.3139  0.4518 -0.1553
 5409TIP3    H116233   5.433   3.144   1.027 -1.5667 -1.3019 -1.7203
 5409TIP3    H216234   5.361   3.156   1.159  0.6835 -0.5483 -0.5156
 5410TIP3   OH216235   5.089   5.664   2.750 -0.6684  0.3210 -0.2526
 5410TIP3    H116236   5.164   5.616   2.786  0.0777  2.1261  0.6951
 5410TIP3    H216237   5.118   5.693   2.664 -1.4186 -1.5158 -1.1976
 5411TIP3   OH216238   0.621   5.630   4.212  0.0227  0.5159  0.3501
 5411TIP3    H116239   0.561   5.561   4.239  1.3768 -0.3620  1.2340
 5411TIP3    H216240   0.630   5.686   4.289 -0.0119  0.9173  0.0696
 5412TIP3   OH216241   5.823   3.954   0.133  0.9199 -0.3956 -0.3332
 5412TIP3    H116242   5.869   4.029   0.096  1.0852 -1.2149 -1.8551
 5412TIP3    H216243   5.869   3.877   0.098 -0.1736 -1.2105 -0.0382
 5413TIP3   OH216244   5.735   0.043   2.709 -0.3903  0.2547  0.1477
 5413TIP3    H116245   5.819   0.082   2.734  0.2085  0.0481 -1.4147
 5413TIP3    H216246   5.750   0.009   2.621 -1.8849 -0.5278  0.1621
 5414TIP3   OH216247   1.684   5.423   5.056 -0.0089  0.6699  0.7870
 5414TIP3    H116248   1.721   5.510   5.041 -0.6404  0.8780  0.4430
 5414TIP3    H216249   1.741   5.385   5.124  0.0668  1.4703  1.1836
 5415TIP3   OH216250   4.944   1.606   4.218  0.5504 -0.1327  0.2670
 5415TIP3    H116251   4.937   1.511   4.223  1.4468 -0.2082  0.1225
 5415TIP3    H216252   4.857   1.635   4.190  0.4436 -0.9447 -0.2580
 5416TIP3   OH216253   0.432   0.703   5.132  0.3206 -0.4867 -0.1552
 5416TIP3    H116254   0.370   0.663   5.193 -1.6768  2.6193  0.0680
 5416TIP3    H216255   0.458   0.631   5.073 -2.8211 -2.1475  0.2759
 5417TIP3   OH216256   5.908   4.864   1.860 -0.2755  0.1615 -0.0908
 5417TIP3    H116257   5.924   4.771   1.875  1.3352  0.2223 -1.1118
 5417TIP3    H216258   5.819   4.879   1.892  0.3051 -1.1649  2.4065
 5418TIP3   OH216259   0.417   3.512   3.273  0.1146  0.4335 -0.3191
 5418TIP3    H116260   0.445   3.461   3.349 -1.8585  0.7638  0.6972
 5418TIP3    H216261   0.428   3.603   3.301  0.6973  0.5668 -0.9682
 5419TIP3   OH216262   2.713   4.673   4.384  0.0296  0.5496  0.1588
 5419TIP3    H116263   2.736   4.716   4.302  0.8808 -1.1359 -0.5241
 5419TIP3    H216264   2.620   4.652   4.375 -0.1025  1.1733  0.0232
 5420TIP3   OH216265   1.651   1.894   3.951  0.4065  0.4749 -0.1660
 5420TIP3    H116266   1.563   1.863   3.970  0.7428  0.0282  0.7546
 5420TIP3    H216267   1.643   1.942   3.869 -0.0885 -2.3661 -1.8937
 5421TIP3   OH216268   3.149   5.390   3.781  0.2166  0.3602  0.1292
 5421TIP3    H116269   3.117   5.345   3.859 -0.6549 -0.5626 -0.7234
 5421TIP3    H216270   3.071   5.435   3.746  0.2807 -0.2911 -0.8949
 5422TIP3   OH216271   1.648   2.875   3.183  0.1501 -0.1251 -0.2874
 5422TIP3    H116272   1.636   2.782   3.162  0.1248 -0.0765 -0.4874
 5422TIP3    H216273   1.637   2.920   3.099 -0.7214  0.1408 -0.0345
 5423TIP3   OH216274   3.160   1.198   4.091 -0.4226  0.0003 -0.1781
 5423TIP3    H116275   3.237   1.143   4.104 -0.6016 -0.3501 -0.5413
 5423TIP3    H216276   3.086   1.139   4.106 -0.6428 -0.4264 -2.5623
 5424TIP3   OH216277   1.298   0.914   3.701 -1.3175  0.2670 -0.1390
 5424TIP3    H116278   1.272   0.890   3.612 -2.3604  0.2179  0.1656
 5424TIP3    H216279   1.217   0.944   3.742 -0.9015  0.0398  0.8772
 5425TIP3   OH216280   6.095   1.991   0.050  0.1451  0.2948  0.4160
 5425TIP3    H116281   6.025   1.970   0.112 -0.0018 -1.4056 -0.2406
 5425TIP3    H216282   6.176   1.970   0.096  0.0625 -0.4271  0.2488
 5426TIP3   OH216283   0.204   0.743   4.135  0.5010  0.0188 -0.0045
 5426TIP3    H116284   0.287   0.776   4.168  0.6972 -0.0368 -0.4393
 5426TIP3    H216285   0.228   0.668   4.079  0.4462  1.8903 -2.7114
 5427TIP3   OH216286   2.173   5.004   4.133  0.5824 -0.4008  0.0201
 5427TIP3    H116287   2.268   5.007   4.122  0.4999  1.4233 -0.6126
 5427TIP3    H216288   2.139   5.020   4.044 -0.2470  1.7336  0.6479
 5428TIP3   OH216289   2.953   3.595   1.427 -0.3489  0.2964 -0.4239
 5428TIP3    H116290   2.976   3.518   1.375  0.7653  0.0843  0.3525
 5428TIP3    H216291   2.878   3.634   1.381 -0.9538 -1.2599 -0.8090
 5429TIP3   OH216292   4.735   1.519   2.763 -0.4650 -0.3045 -0.2677
 5429TIP3    H116293   4.817   1.495   2.720 -0.1568 -0.6597  0.4951
 5429TIP3    H216294   4.681   1.440   2.757 -0.3355 -0.4306  0.1844
 5430TIP3   OH216295   5.693   0.693   2.760 -0.1137  0.9115 -0.2438
 5430TIP3    H116296   5.629   0.637   2.716 -0.8984  0.6525  1.1485
 5430TIP3    H216297   5.653   0.780   2.761 -0.0505  0.9398 -0.1382
 5431TIP3   OH216298   6.114   0.529   3.294 -0.8404 -0.4321 -0.3503
 5431TIP3    H116299   6.146   0.439   3.305 -1.1299 -0.8029 -2.1351
 5431TIP3    H216300   6.065   0.527   3.212  0.4186  1.7020 -1.2449
 5432TIP3   OH216301   1.415   0.377   4.976  0.6388 -0.4920  0.1827
 5432TIP3    H116302   1.351   0.332   4.920  0.6284 -0.3480  0.0787
 5432TIP3    H216303   1.446   0.450   4.922 -0.5062  0.5858  0.9216
 5433TIP3   OH216304   5.618   4.261   0.865 -0.0848 -0.5521  0.0692
 5433TIP3    H116305   5.705   4.292   0.840 -1.1541 -0.1042 -3.7338
 5433TIP3    H216306   5.593   4.317   0.937  1.5938  1.4225 -0.7694
 5434TIP3   OH216307   4.611   2.773   4.865  0.6031  0.1972 -0.1788
 5434TIP3    H116308   4.698   2.749   4.832  0.9361 -1.4854  1.7366
 5434TIP3    H216309   4.628   2.838   4.934  0.6541 -1.9482  1.9494
 5435TIP3   OH216310   0.989   1.959   2.957 -0.4353 -0.0584  0.0012
 5435TIP3    H116311   1.032   1.954   3.042  0.7139  2.5784 -0.3153
 5435TIP3    H216312   1.039   1.899   2.901 -0.8606 -1.3930  1.0033
 5436TIP3   OH216313   2.482   5.457   3.518  0.4685  0.7973 -0.1144
 5436TIP3    H116314   2.392   5.428   3.535  0.4777 -0.7553 -2.2529
 5436TIP3    H216315   2.473   5.548   3.489 -0.2549  1.0576  0.8835
 5437TIP3   OH216316   5.065   2.604   2.911 -0.2144 -0.3032 -0.1102
 5437TIP3    H116317   4.987   2.651   2.942 -0.2848 -0.2006 -0.4446
 5437TIP3    H216318   5.047   2.512   2.934 -0.5776 -0.3255 -0.4709
 5438TIP3   OH216319   4.773   4.172   1.576 -0.1458  0.3912 -0.2691
 5438TIP3    H116320   4.797   4.080   1.590  0.8484  0.4615 -1.3310
 5438TIP3    H216321   4.763   4.180   1.481  1.6205  1.7807 -0.3950
 5439TIP3   OH216322   2.659   1.008   2.552 -0.0063  0.3127 -0.1108
 5439TIP3    H116323   2.679   1.097   2.580  1.2284  0.0211 -0.0306
 5439TIP3    H216324   2.744   0.969   2.532 -0.4842 -1.0236  0.3665
 5440TIP3   OH216325   3.200   1.695   3.621 -0.8379 -0.4534  0.2409
 5440TIP3    H116326   3.158   1.777   3.647 -0.2157  0.4347 -1.4700
 5440TIP3    H216327   3.165   1.630   3.683 -1.7893  0.9667  1.2508
 5441TIP3   OH216328   4.052   4.641   4.214 -0.2060  0.2629  0.0604
 5441TIP3    H116329   3.974   4.647   4.160  1.8508  0.1929 -3.1467
 5441TIP3    H216330   4.122   4.675   4.160  2.3316 -1.2600  2.1304
 5442TIP3   OH216331   3.385   3.967   2.164  0.1896  0.5645 -0.1831
 5442TIP3    H116332   3.435   4.007   2.236 -0.0168 -1.5516  1.2533
 5442TIP3    H216333   3.296   3.959   2.198  0.2528 -1.1590 -0.3352
 5443TIP3   OH216334   0.634   4.675   0.581 -0.3373 -0.3374  0.2244
 5443TIP3    H116335   0.584   4.599   0.611  1.6765 -1.2768  1.3818
 5443TIP3    H216336   0.702   4.638   0.525 -0.0725  0.7512 -0.1882
 5444TIP3   OH216337   2.573   1.315   4.763  0.0929  0.2985  0.5874
 5444TIP3    H116338   2.664   1.286   4.773 -0.1303 -0.3964  0.6456
 5444TIP3    H216339   2.544   1.336   4.851 -0.0352 -0.1805  0.6566
 5445TIP3   OH216340   5.858   3.540   0.126 -0.3772  0.1108  0.1540
 5445TIP3    H116341   5.922   3.479   0.162 -1.6729 -1.2087  0.2963
 5445TIP3    H216342   5.799   3.485   0.075 -0.9904  1.3974 -0.5643
 5446TIP3   OH216343   2.834   2.253   2.102 -0.4452 -0.0260 -0.5488
 5446TIP3    H116344   2.741   2.240   2.084 -0.7153  1.9145 -0.7661
 5446TIP3    H216345   2.878   2.187   2.047 -1.6726 -1.8195  0.4963
 5447TIP3   OH216346   1.979   3.446   2.704  0.0759  0.0186 -0.9305
 5447TIP3    H116347   1.912   3.478   2.765  1.3622  1.0303  0.0269
 5447TIP3    H216348   2.062   3.461   2.750  0.9107 -2.6559 -1.3965
 5448TIP3   OH216349   1.733   4.155   2.058  0.0166 -0.5346  0.1975
 5448TIP3    H116350   1.804   4.098   2.031  1.5695  1.7602 -0.9289
 5448TIP3    H216351   1.728   4.145   2.153  0.1319 -2.5763  0.0152
 5449TIP3   OH216352   2.154   3.968   5.057  0.1324 -0.4452 -0.4283
 5449TIP3    H116353   2.214   3.900   5.087 -0.0031 -0.4146 -0.0846
 5449TIP3    H216354   2.116   4.004   5.137  1.2693  1.0167 -0.5169
 5450TIP3   OH216355   2.199   2.098   0.760  0.1948  0.2390 -0.0334
 5450TIP3    H116356   2.251   2.018   0.756 -0.6841 -0.3250 -0.6842
 5450TIP3    H216357   2.212   2.140   0.675  2.7367  2.2010  1.2021
 5451TIP3   OH216358   0.451   4.384   1.122 -0.0500 -0.0134  0.3182
 5451TIP3    H116359   0.512   4.322   1.161  0.5504  0.2368 -0.2128
 5451TIP3    H216360   0.489   4.470   1.143 -0.4364  0.1527  0.3384
 5452TIP3   OH216361   2.333   5.667   2.911  0.1431  0.1135 -0.6398
 5452TIP3    H116362   2.385   5.747   2.914  0.0287  0.1659  0.1660
 5452TIP3    H216363   2.242   5.697   2.903 -0.1108  0.1578  1.8793
 5453TIP3   OH216364   3.461   3.967   2.975  0.2244 -0.0040  0.1643
 5453TIP3    H116365   3.407   4.036   3.016 -0.0799 -0.7597  1.0763
 5453TIP3    H216366   3.537   4.014   2.940  0.0480  0.7948  0.8053
 5454TIP3   OH216367   0.073   2.778   0.640  0.2031  0.1071  0.5101
 5454TIP3    H116368   0.107   2.868   0.640 -0.6798  0.5824 -3.1377
 5454TIP3    H216369   0.113   2.737   0.563 -1.5944 -1.7167  0.4633
 5455TIP3   OH216370   4.232   3.895   2.172  0.4397  0.1973 -0.3176
 5455TIP3    H116371   4.266   3.931   2.090 -1.6351  0.8412 -0.9494
 5455TIP3    H216372   4.239   3.800   2.161  2.5372  0.2763 -0.1419
 5456TIP3   OH216373   3.767   1.539   3.705 -0.0847 -0.0769  0.3731
 5456TIP3    H116374   3.680   1.561   3.673 -0.3893 -1.3741  0.2472
 5456TIP3    H216375   3.826   1.563   3.634 -0.4908 -0.4750 -0.1057
 5457TIP3   OH216376   3.607   0.489   1.661  0.1878  0.5675  0.3445
 5457TIP3    H116377   3.624   0.484   1.567 -1.9289 -4.9711 -0.1248
 5457TIP3    H216378   3.522   0.534   1.668 -0.3960 -0.3478 -0.6169
 5458TIP3   OH216379   3.285   0.352   3.073  0.3802 -0.1038  0.4084
 5458TIP3    H116380   3.265   0.437   3.036  0.5524  0.1941  0.9926
 5458TIP3    H216381   3.217   0.338   3.139  1.3701  0.3825  1.5667
 5459TIP3   OH216382   4.168   1.312   4.170 -0.6188  0.0537  0.2158
 5459TIP3    H116383   4.135   1.334   4.083 -1.1079  0.9408  0.6046
 5459TIP3    H216384   4.090   1.316   4.226 -0.7241 -2.5733  0.3885
 5460TIP3   OH216385   1.007   4.445   4.328  0.3579  0.2821  0.2241
 5460TIP3    H116386   1.031   4.357   4.355  0.1143  0.6752  1.8172
 5460TIP3    H216387   1.026   4.448   4.234  0.2743 -1.4825  0.1283
 5461TIP3   OH216388   3.638   0.505   1.388 -0.5312  0.5270  0.1145
 5461TIP3    H116389   3.690   0.580   1.356  0.8895 -1.1024 -1.6401
 5461TIP3    H216390   3.615   0.457   1.308 -1.0781 -1.1000  1.2150
 5462TIP3   OH216391   4.413   3.963   2.635 -0.1028  0.4224 -0.2943
 5462TIP3    H116392   4.396   3.938   2.726 -1.1844 -1.8498 -1.0605
 5462TIP3    H216393   4.507   3.980   2.632  0.2573 -1.1788  0.9067
 5463TIP3   OH216394   1.078   1.835   3.365  0.0163  0.0639  0.6444
 5463TIP3    H116395   1.119   1.884   3.294  0.9473 -0.4840  0.7952
 5463TIP3    H216396   1.025   1.901   3.411  0.0060  0.5864 -0.0812
 5464TIP3   OH216397   0.619   2.514   0.094 -0.0994  0.3325  0.1657
 5464TIP3    H116398   0.675   2.590   0.111 -1.3054  0.9712  1.5062
 5464TIP3    H216399   0.632   2.457   0.169  0.5030 -0.6265 -0.6496
 5465TIP3   OH216400   6.247   5.550   3.986 -0.5757  0.1715  0.2881
 5465TIP3    H116401   6.268   5.495   3.910  0.1764 -1.7201  1.7842
 5465TIP3    H216402   6.328   5.596   4.006 -1.0881  1.5663 -0.7015
 5466TIP3   OH216403   0.449   0.808   4.702  0.3217 -0.1334  0.1417
 5466TIP3    H116404   0.354   0.817   4.707  0.3300 -0.0775  0.1974
 5466TIP3    H216405   0.478   0.889   4.660  0.2271 -0.7207 -1.0962
 5467TIP3   OH216406   2.124   5.604   3.245 -0.0639  0.1801  0.2165
 5467TIP3    H116407   2.157   5.681   3.291 -1.6488  0.7574  0.4565
 5467TIP3    H216408   2.101   5.542   3.314  1.5658 -0.6982  0.0116
 5468TIP3   OH216409   1.115   0.683   0.164  0.3661 -0.1121 -0.5874
 5468TIP3    H116410   1.069   0.764   0.139  1.0823 -0.0922 -1.9431
 5468TIP3    H216411   1.099   0.675   0.258  0.1663  1.5335 -0.4435
 5469TIP3   OH216412   1.946   1.557   0.034  0.3051  0.1591  0.0047
 5469TIP3    H116413   1.952   1.649   0.008  0.8413 -0.2160 -1.2652
 5469TIP3    H216414   2.033   1.521   0.018 -0.4368 -1.0626 -1.5541
 5470TIP3   OH216415   4.670   4.886   4.292  0.0110 -0.2270 -0.3345
 5470TIP3    H116416   4.581   4.890   4.327 -0.5177 -0.1611 -1.6352
 5470TIP3    H216417   4.658   4.881   4.197  1.3888 -0.7211 -0.4968
 5471TIP3   OH216418   2.470   4.219   0.141  0.3362 -0.2445 -0.0443
 5471TIP3    H116419   2.466   4.207   0.236  0.0624 -0.4801 -0.0838
 5471TIP3    H216420   2.547   4.275   0.127  0.9297 -0.9693  0.2404
 5472TIP3   OH216421   3.606   3.712   2.008  0.1195  0.0112 -0.0077
 5472TIP3    H116422   3.575   3.633   2.054  0.5673 -0.3885 -0.3948
 5472TIP3    H216423   3.571   3.704   1.920 -0.3520  0.5578  0.1196
 5473TIP3   OH216424   2.148   0.899   1.967 -0.3219 -0.1814  0.6747
 5473TIP3    H116425   2.172   0.807   1.955 -2.2057 -0.4731 -1.2245
 5473TIP3    H216426   2.226   0.947   1.938  0.9359 -1.0939  2.2859
 5474TIP3   OH216427   5.213   5.963   0.237  0.1086 -0.2057  0.2989
 5474TIP3    H116428   5.127   5.937   0.268 -0.0336 -0.6159 -0.4165
 5474TIP3    H216429   5.274   5.916   0.294 -0.0706  1.8094  2.2959
 5475TIP3   OH216430   4.649   1.571  -0.004 -0.5347 -0.1243 -0.1101
 5475TIP3    H116431   4.670   1.535   0.082 -0.8189  1.8587  0.8375
 5475TIP3    H216432   4.718   1.537  -0.062  0.4787 -0.3412  1.1939
 5476TIP3   OH216433   3.667   2.420   5.203 -0.4532  0.1569  0.5759
 5476TIP3    H116434   3.611   2.369   5.145  0.3193 -1.2685  1.0319
 5476TIP3    H216435   3.756   2.397   5.176 -0.0728  1.4825  0.6368
 5477TIP3   OH216436   5.610   5.873   4.465 -0.7890 -0.3935  0.0037
 5477TIP3    H116437   5.585   5.797   4.413  0.4960 -1.8003  1.3648
 5477TIP3    H216438   5.572   5.857   4.551 -0.2178  0.3454  0.4060
 5478TIP3   OH216439   6.088   2.119   1.110  0.0218 -0.3345  0.1885
 5478TIP3    H116440   6.142   2.119   1.031  0.6156  1.1651  0.5503
 5478TIP3    H216441   6.137   2.175   1.172 -2.2179  1.6528  0.3231
 5479TIP3   OH216442   5.893   2.359   4.815  0.4827  0.0670 -0.4297
 5479TIP3    H116443   5.844   2.279   4.796 -2.4864  2.0347 -1.7587
 5479TIP3    H216444   5.886   2.371   4.909  0.8207 -1.1121 -0.2397
 5480TIP3   OH216445   3.202   3.678   2.231  0.2860 -0.4183  0.2005
 5480TIP3    H116446   3.196   3.720   2.317 -2.1182  1.2831 -0.7070
 5480TIP3    H216447   3.111   3.657   2.209  0.5268  1.2697 -2.8765
 5481TIP3   OH216448   4.716   5.604   1.355  0.2777 -0.1821  0.1433
 5481TIP3    H116449   4.748   5.518   1.382 -0.5218 -0.9302 -1.2154
 5481TIP3    H216450   4.648   5.625   1.419  1.2713  0.0093  1.1856
 5482TIP3   OH216451   3.502   1.985   0.005 -0.0304  0.1999 -0.0161
 5482TIP3    H116452   3.428   2.012  -0.049 -0.0305  0.7261  0.2433
 5482TIP3    H216453   3.467   1.986   0.095  0.3697  0.7246  0.1341
 5483TIP3   OH216454   2.784   1.648   1.393 -0.1104  0.4238  0.4281
 5483TIP3    H116455   2.734   1.710   1.340  2.2089  1.3939 -0.7611
 5483TIP3    H216456   2.799   1.573   1.335 -0.5199 -0.0366  0.9095
 5484TIP3   OH216457   0.102   3.739   3.417 -0.3051  0.3554 -0.0109
 5484TIP3    H116458   0.137   3.816   3.372 -0.3163 -0.0275 -0.6999
 5484TIP3    H216459   0.129   3.749   3.508  1.9653 -0.1332 -0.5771
 5485TIP3   OH216460   2.079   2.493   0.727  0.0715 -0.2257 -0.0392
 5485TIP3    H116461   2.016   2.545   0.777  0.5736 -1.1807  1.6869
 5485TIP3    H216462   2.164   2.534   0.743  0.4201 -1.3070  1.0364
 5486TIP3   OH216463   3.549   2.522   2.040 -0.4177  0.1399  0.3140
 5486TIP3    H116464   3.604   2.599   2.055 -0.6276  0.1255  1.2312
 5486TIP3    H216465   3.460   2.555   2.041 -0.4463  0.1696 -1.2357
 5487TIP3   OH216466   4.018   0.949   2.635  0.1961  0.1895 -0.4566
 5487TIP3    H116467   3.978   0.955   2.548 -1.3550  0.0033  0.2109
 5487TIP3    H216468   4.034   0.855   2.647 -0.7117  0.0721 -0.0789
 5488TIP3   OH216469   1.603   2.968   2.595 -0.0554 -0.0993  0.0528
 5488TIP3    H116470   1.638   2.879   2.591  0.4860  0.1120 -0.0500
 5488TIP3    H216471   1.533   2.970   2.530  0.4597 -0.2305 -0.5183
 5489TIP3   OH216472   1.012   2.357   0.546  0.5246 -0.1738  0.3997
 5489TIP3    H116473   0.961   2.344   0.626  0.8018 -0.5553  0.5208
 5489TIP3    H216474   1.103   2.359   0.576  0.5173  3.0435  0.5131
 5490TIP3   OH216475   3.877   4.462   2.346  0.4752  0.5717 -0.3350
 5490TIP3    H116476   3.846   4.540   2.392  1.3034 -0.0161  1.2619
 5490TIP3    H216477   3.863   4.483   2.253  0.8105  2.6704  0.0387
 5491TIP3   OH216478   1.734   0.318   0.676  0.3163  0.4769 -0.0404
 5491TIP3    H116479   1.810   0.370   0.704  0.8724  0.0908 -0.7797
 5491TIP3    H216480   1.729   0.247   0.740  0.5135  0.5650  0.0734
 5492TIP3   OH216481   1.847   1.482   3.792 -0.1878  0.4116  0.3887
 5492TIP3    H116482   1.832   1.404   3.737  1.1529 -0.2676  0.9367
 5492TIP3    H216483   1.935   1.511   3.769 -0.2233  1.0666  1.0429
 5493TIP3   OH216484   3.635   5.996   4.707  0.5993 -0.5668 -0.8975
 5493TIP3    H116485   3.640   5.902   4.726  0.1167 -0.4732 -0.2701
 5493TIP3    H216486   3.719   6.031   4.736  0.2250 -0.5778  0.2477
 5494TIP3   OH216487   2.096   2.865   1.423 -0.5126 -0.9567 -0.0032
 5494TIP3    H116488   2.062   2.776   1.425  2.2619 -2.1159 -0.1463
 5494TIP3    H216489   2.191   2.855   1.431 -0.2389  2.1423  3.3702
 5495TIP3   OH216490   6.206   3.706   1.397 -0.0645  0.1871  0.5105
 5495TIP3    H116491   6.197   3.759   1.476  2.2353  0.1673  0.8634
 5495TIP3    H216492   6.274   3.750   1.346  0.7707 -1.5294  0.0638
 5496TIP3   OH216493   0.163   4.818   2.278  0.1410 -0.3451 -0.1358
 5496TIP3    H116494   0.194   4.728   2.290  1.6530  0.2543  0.7092
 5496TIP3    H216495   0.170   4.858   2.364 -0.5338  0.6029 -0.4983
 5497TIP3   OH216496   1.622   3.666   5.051 -0.3322  0.4171 -0.3367
 5497TIP3    H116497   1.690   3.628   5.107 -0.2469  1.6412  0.4279
 5497TIP3    H216498   1.670   3.713   4.983 -0.4336 -1.2254 -1.6105
 5498TIP3   OH216499   3.902   3.692   0.320 -0.1024  0.0187 -0.0837
 5498TIP3    H116500   3.840   3.621   0.336  0.7750 -0.7037  0.1812
 5498TIP3    H216501   3.988   3.649   0.316  0.2736  0.8167 -1.7076
 5499TIP3   OH216502   5.485   5.502   1.827 -0.2690  0.0719  0.2321
 5499TIP3    H116503   5.454   5.471   1.912 -0.6812 -2.3454 -0.7225
 5499TIP3    H216504   5.580   5.509   1.836 -0.2132 -1.0973  0.6278
 5500TIP3   OH216505   0.537   0.163   5.014 -0.2154  0.3267  0.1563
 5500TIP3    H116506   0.614   0.218   5.000 -1.1572  1.3617 -1.1640
 5500TIP3    H216507   0.481   0.213   5.073 -0.7114  0.4252 -0.3919
 5501TIP3   OH216508   1.943   5.960   4.493 -0.2357  0.1332 -0.2343
 5501TIP3    H116509   2.016   5.946   4.433  0.5856 -0.8393  0.9334
 5501TIP3    H216510   1.968   5.912   4.572 -0.7327  2.2672  1.3224
 5502TIP3   OH216511   0.750   5.294   2.338  0.3433  0.2284  0.2271
 5502TIP3    H116512   0.757   5.286   2.433  1.3940 -1.0022  0.0768
 5502TIP3    H216513   0.688   5.225   2.312 -0.0766  0.6718  0.0171
 5503TIP3   OH216514   3.472   5.582   2.018  0.4638 -0.4513  1.0255
 5503TIP3    H116515   3.383   5.577   1.984  1.1458  0.6780 -1.0726
 5503TIP3    H216516   3.482   5.501   2.069 -0.6111 -2.3940 -1.6341
 5504TIP3   OH216517   2.156   5.009   2.897  0.1170 -0.4371 -0.4130
 5504TIP3    H116518   2.222   5.009   2.967 -0.0943 -0.7907 -0.2126
 5504TIP3    H216519   2.144   5.102   2.876 -1.2669 -0.1545  1.3978
 5505TIP3   OH216520   4.522   0.901   5.033  0.2763  0.0978 -0.0871
 5505TIP3    H116521   4.502   0.826   5.089  1.8977  0.1299  0.6016
 5505TIP3    H216522   4.554   0.863   4.952 -1.5609  0.0560 -0.8306
 5506TIP3   OH216523   5.061   0.968   3.380 -0.3415  0.0617 -0.0429
 5506TIP3    H116524   5.119   1.042   3.359 -2.0471  1.2959 -0.6869
 5506TIP3    H216525   4.995   0.970   3.311 -1.9294 -0.4222  1.4037
 5507TIP3   OH216526   1.464   4.479   3.876 -0.0049  0.8470  0.4254
 5507TIP3    H116527   1.413   4.558   3.891  0.3749  0.7517  2.3956
 5507TIP3    H216528   1.537   4.485   3.938 -0.7440 -1.7214  1.6938
 5508TIP3   OH216529   5.515   4.619   0.916 -0.0289 -0.9675 -0.1171
 5508TIP3    H116530   5.597   4.571   0.925  0.6709 -0.1923 -2.0974
 5508TIP3    H216531   5.531   4.703   0.958 -0.4032 -1.4386  1.0145
 5509TIP3   OH216532   4.655   1.787   1.892  0.0876  0.2233 -0.4574
 5509TIP3    H116533   4.644   1.845   1.817  1.3920 -1.3091 -1.9200
 5509TIP3    H216534   4.749   1.766   1.892 -0.2630 -1.5296  0.2527
 5510TIP3   OH216535   3.501   4.281   2.842  0.1152  0.4980  0.5442
 5510TIP3    H116536   3.557   4.205   2.860  0.4328  0.8564  1.1231
 5510TIP3    H216537   3.416   4.258   2.879 -0.8772 -1.0065 -2.3335
 5511TIP3   OH216538   4.265   2.972   4.148 -0.8242  0.1443  0.1274
 5511TIP3    H116539   4.251   2.917   4.225 -0.8472  0.7569  0.5678
 5511TIP3    H216540   4.360   2.977   4.139 -0.8286 -0.9727 -0.6510
 5512TIP3   OH216541   5.347   3.252   2.912 -0.1356 -0.2396  0.3678
 5512TIP3    H116542   5.402   3.305   2.854 -2.2712  0.8563 -0.7565
 5512TIP3    H216543   5.356   3.163   2.877 -1.0394  0.3329 -1.4781
 5513TIP3   OH216544   6.169   2.779   0.750 -0.5115 -0.4371 -0.5167
 5513TIP3    H116545   6.160   2.712   0.818 -0.7634 -1.9953 -2.0094
 5513TIP3    H216546   6.261   2.778   0.727 -0.2006  0.8874  0.5118
 5514TIP3   OH216547   0.279   4.448   3.334  0.4653  0.3014 -0.0470
 5514TIP3    H116548   0.332   4.430   3.255 -1.6807 -0.6097 -1.3749
 5514TIP3    H216549   0.321   4.396   3.402  1.5673 -0.0195 -0.9254
 5515TIP3   OH216550   5.072   0.348   3.235  0.5393 -0.1224  0.1591
 5515TIP3    H116551   5.057   0.438   3.207  2.1726  0.4632  0.9894
 5515TIP3    H216552   4.985   0.315   3.257 -0.0024  1.6188  0.8622
 5516TIP3   OH216553   0.308   1.311   4.076 -0.2758  0.5316 -0.0348
 5516TIP3    H116554   0.262   1.280   3.998  2.5575  1.1338 -2.1229
 5516TIP3    H216555   0.305   1.406   4.069  1.4975  0.5903 -0.4492
 5517TIP3   OH216556   0.650   0.965   0.096  0.1891  0.2230 -0.2609
 5517TIP3    H116557   0.645   0.875   0.063 -0.0485  0.5428 -1.1403
 5517TIP3    H216558   0.655   0.956   0.191 -0.4503 -0.6997 -0.3013
 5518TIP3   OH216559   2.862   2.509   2.514  0.5225 -0.2197 -0.5359
 5518TIP3    H116560   2.805   2.433   2.510 -0.8116  0.6912  0.4620
 5518TIP3    H216561   2.942   2.477   2.557 -0.0967 -1.0082  0.0444
 5519TIP3   OH216562   5.745   5.477   1.922 -0.3930  0.4073 -0.0055
 5519TIP3    H116563   5.806   5.405   1.939 -0.8782 -0.7814 -2.7307
 5519TIP3    H216564   5.773   5.547   1.981  0.1099 -1.9517  2.7592
 5520TIP3   OH216565   5.517   2.169   1.597 -0.4264  0.5824 -0.2479
 5520TIP3    H116566   5.511   2.211   1.511 -1.0246  0.1243 -0.4380
 5520TIP3    H216567   5.474   2.085   1.585 -0.0052  0.2758  0.3575
 5521TIP3   OH216568   5.254   3.692   3.317  0.0514  0.0491 -0.1138
 5521TIP3    H116569   5.341   3.713   3.282  0.6725  2.5048  2.5250
 5521TIP3    H216570   5.268   3.613   3.369  0.3764 -0.3339 -0.7626
 5522TIP3   OH216571   2.791   0.406   1.485  0.0104 -0.0056  0.3379
 5522TIP3    H116572   2.785   0.429   1.578 -0.6569  0.3550  0.2160
 5522TIP3    H216573   2.832   0.319   1.484  1.0350  0.4581  0.9013
 5523TIP3   OH216574   4.985   3.746   2.353  0.0672 -0.6181  0.1995
 5523TIP3    H116575   5.029   3.692   2.418  1.1137  1.5410  1.3998
 5523TIP3    H216576   5.056   3.778   2.297 -0.5654 -0.6845 -0.6641
 5524TIP3   OH216577   1.536   4.134   4.235 -0.0662 -0.2020  0.0286
 5524TIP3    H116578   1.621   4.090   4.242 -0.2210 -0.6553 -0.8316
 5524TIP3    H216579   1.558   4.226   4.221  0.2762 -0.2646  0.1474
 5525TIP3   OH216580   0.754   0.042   4.414  0.1817 -0.5203  0.8310
 5525TIP3    H116581   0.674   0.081   4.380  0.2166 -0.5344  0.7333
 5525TIP3    H216582   0.754   0.066   4.507  0.0107 -0.6102  0.8552
 5526TIP3   OH216583   5.872   1.680   0.061  0.2250  0.4002 -0.2262
 5526TIP3    H116584   5.913   1.647  -0.019  1.5562  0.8055  0.2641
 5526TIP3    H216585   5.899   1.618   0.129 -0.9203  0.0411 -0.0829
 5527TIP3   OH216586   1.823   3.774   2.199  0.3438 -0.3506  0.1298
 5527TIP3    H116587   1.917   3.776   2.184  0.0532 -1.1605 -2.3209
 5527TIP3    H216588   1.812   3.726   2.281  2.0699  0.9440  1.1906
 5528TIP3   OH216589   0.135   2.423   0.034 -0.1574  0.1604  0.1334
 5528TIP3    H116590   0.225   2.415   0.002  0.6783  2.2672  1.6815
 5528TIP3    H216591   0.124   2.517   0.051 -2.4369 -0.1381  0.6383
 5529TIP3   OH216592   1.679   3.377   0.786  0.1692 -0.1002  0.1354
 5529TIP3    H116593   1.691   3.457   0.735  1.4360  0.8994  1.8811
 5529TIP3    H216594   1.642   3.407   0.869  0.4895 -1.3329  0.7479
 5530TIP3   OH216595   0.138   5.072   1.748  0.2895  0.2959 -0.3641
 5530TIP3    H116596   0.065   5.048   1.691 -0.3324  2.8415 -0.7857
 5530TIP3    H216597   0.215   5.068   1.691  0.6855 -3.0278  0.2436
 5531TIP3   OH216598   1.088   0.032   3.693 -0.1089  0.2531  0.0834
 5531TIP3    H116599   1.113   0.026   3.601  0.5134 -1.7559  0.3444
 5531TIP3    H216600   1.031  -0.043   3.708  0.4179  0.0978  1.5079
 5532TIP3   OH216601   0.678   2.725   0.524 -0.3095  0.3494 -0.5205
 5532TIP3    H116602   0.706   2.718   0.433 -0.0185  1.2104 -0.5082
 5532TIP3    H216603   0.735   2.792   0.562  0.9111 -1.3544  0.8285
 5533TIP3   OH216604   3.250   1.301   1.150  0.3864 -0.7261  0.3646
 5533TIP3    H116605   3.172   1.252   1.173  0.3716 -0.6472  0.4844
 5533TIP3    H216606   3.300   1.307   1.231 -0.1156  0.3798  0.6137
 5534TIP3   OH216607   0.582   1.584   3.111  0.3464 -0.0917 -0.3364
 5534TIP3    H116608   0.671   1.568   3.144  0.1006  0.5143  0.6786
 5534TIP3    H216609   0.549   1.498   3.088  0.1728 -0.7187  2.0178
 5535TIP3   OH216610   5.950   1.160   5.099 -0.1651  0.5516  1.0535
 5535TIP3    H116611   5.921   1.234   5.152 -1.0580  1.4760 -0.6297
 5535TIP3    H216612   6.031   1.190   5.058 -0.0391  0.2507  1.0813
 5536TIP3   OH216613   4.175   5.938   1.633  0.2696  0.3526  0.1194
 5536TIP3    H116614   4.153   5.850   1.662 -0.4141 -0.5002 -2.6983
 5536TIP3    H216615   4.253   5.928   1.579  0.3975  1.5376  0.0476
 5537TIP3   OH216616   4.609   0.265   4.100  0.0544 -0.1359  0.0426
 5537TIP3    H116617   4.589   0.322   4.174 -2.2453 -2.4425  1.3449
 5537TIP3    H216618   4.679   0.208   4.133  1.0775  0.6753 -0.6396
 5538TIP3   OH216619   2.346   5.291   2.007 -0.1129 -0.3890  0.1244
 5538TIP3    H116620   2.293   5.220   2.044 -0.4056 -0.6567 -0.7805
 5538TIP3    H216621   2.282   5.349   1.965  0.3416 -1.2243 -1.8450
 5539TIP3   OH216622   4.561   2.527   1.024 -0.2761 -0.3181 -0.4118
 5539TIP3    H116623   4.543   2.479   0.944  0.8597 -0.0215 -0.8622
 5539TIP3    H216624   4.656   2.528   1.031 -0.3038  0.9642  0.1349
 5540TIP3   OH216625   2.350   4.893   4.916 -0.3233  0.3013 -0.4352
 5540TIP3    H116626   2.268   4.941   4.908 -1.5581 -1.7410 -0.6615
 5540TIP3    H216627   2.393   4.904   4.831 -1.6599 -0.7712 -1.3023
 5541TIP3   OH216628   2.584   5.471   1.948  0.3569 -0.8228  0.3616
 5541TIP3    H116629   2.517   5.537   1.966  1.4193  0.2942  0.3544
 5541TIP3    H216630   2.539   5.387   1.958 -0.9485 -0.1045  0.6780
 5542TIP3   OH216631   3.899   0.787   1.094  0.3892 -0.1563  0.2699
 5542TIP3    H116632   3.903   0.721   1.162  2.4770 -1.1210 -0.6857
 5542TIP3    H216633   3.944   0.747   1.019  0.5407  1.8411 -0.7770
 5543TIP3   OH216634   4.690   0.222   1.900  0.1698 -0.4478 -0.2288
 5543TIP3    H116635   4.624   0.256   1.839 -0.4685  0.2065  0.7955
 5543TIP3    H216636   4.720   0.140   1.860  0.7264  0.6032 -2.0648
 5544TIP3   OH216637   1.409   5.048   0.497 -0.4799 -0.5811 -0.2382
 5544TIP3    H116638   1.492   5.013   0.466 -0.8111 -1.6198  0.0095
 5544TIP3    H216639   1.426   5.141   0.512  0.4489 -0.6455 -0.8149
 5545TIP3   OH216640   4.673   1.881   1.621  0.4427  0.2113 -0.3599
 5545TIP3    H116641   4.614   1.908   1.550  2.2548  1.2717 -1.5321
 5545TIP3    H216642   4.664   1.786   1.625  0.0697  0.1557 -1.8277
 5546TIP3   OH216643   5.037   4.605   1.161 -0.3003  0.7049  0.5023
 5546TIP3    H116644   4.960   4.597   1.218  0.1208  1.6076  1.2216
 5546TIP3    H216645   5.039   4.523   1.112 -0.9129  0.0677  1.5046
 5547TIP3   OH216646   4.396   2.772   3.177  0.0466 -0.1648 -0.4218
 5547TIP3    H116647   4.378   2.864   3.159  1.8521  0.3610  0.2496
 5547TIP3    H216648   4.344   2.752   3.255 -0.4107  0.2528 -0.6195
 5548TIP3   OH216649   6.034   0.832   1.486 -0.1318 -0.1235  0.5164
 5548TIP3    H116650   5.960   0.874   1.443 -0.7563  0.0506  1.7143
 5548TIP3    H216651   6.000   0.746   1.513  0.1110 -0.0481  1.0677
 5549TIP3   OH216652   4.890   3.057   0.074  0.8427  0.2857  0.1010
 5549TIP3    H116653   4.906   3.005   0.153 -0.9769 -0.1441  0.2404
 5549TIP3    H216654   4.877   3.146   0.106 -2.2282 -0.2374  0.6868
 5550TIP3   OH216655   6.206   0.305   2.304  0.1667 -0.0606  0.6005
 5550TIP3    H116656   6.268   0.341   2.240 -0.0576 -0.3980  0.1839
 5550TIP3    H216657   6.144   0.255   2.251 -1.2533  1.3539  0.8668
 5551TIP3   OH216658   5.137   2.581   4.732  0.2437  0.0013  0.1722
 5551TIP3    H116659   5.109   2.549   4.646  1.0598 -1.3711  0.3851
 5551TIP3    H216660   5.202   2.648   4.712  1.9581 -1.7134 -0.3388
 5552TIP3   OH216661   3.257   0.446   1.007 -0.0118  0.1279  0.6447
 5552TIP3    H116662   3.238   0.352   1.010  0.2666  0.0337 -0.3452
 5552TIP3    H216663   3.211   0.478   0.930  1.3694  0.4544 -0.0725
 5553TIP3   OH216664   1.165   0.144   1.336  0.3603  0.6078  0.6389
 5553TIP3    H116665   1.226   0.205   1.377  0.5350 -0.0048  1.3144
 5553TIP3    H216666   1.090   0.140   1.395  0.0051  0.7512  0.2085
 5554TIP3   OH216667   3.842   4.096   1.229 -0.2075  0.2385  0.0046
 5554TIP3    H116668   3.888   4.012   1.235 -0.4900  0.1737  1.8116
 5554TIP3    H216669   3.898   4.149   1.172  0.8345 -0.6218  0.1750
 5555TIP3   OH216670   0.324   2.913   1.199  0.0221  0.2751  1.2312
 5555TIP3    H116671   0.283   2.868   1.125  0.4715 -2.4384  2.4954
 5555TIP3    H216672   0.395   2.964   1.160  1.0551 -2.0834 -0.1771
 5556TIP3   OH216673   5.593   1.615   4.697  0.3819  0.2976  0.3132
 5556TIP3    H116674   5.665   1.578   4.749 -0.8665  0.2990  2.1607
 5556TIP3    H216675   5.601   1.573   4.612 -0.1372 -3.3607  1.8494
 5557TIP3   OH216676   4.691   1.611   4.097  0.0817  0.3294  0.0920
 5557TIP3    H116677   4.669   1.626   4.005 -1.6343 -0.0318  0.3985
 5557TIP3    H216678   4.606   1.597   4.139  0.8324  0.6153  1.7606
 5558TIP3   OH216679   2.735   4.566   4.944  0.5515  0.2101  0.2420
 5558TIP3    H116680   2.736   4.655   4.909  1.3664  0.8055  1.6935
 5558TIP3    H216681   2.668   4.569   5.012  0.9043 -0.1511  0.6076
 5559TIP3   OH216682   1.149   4.918   4.320  0.2815  0.1679  0.0036
 5559TIP3    H116683   1.161   4.832   4.362  0.5747  0.0613 -0.2918
 5559TIP3    H216684   1.055   4.934   4.324  0.2163 -0.2024 -0.0004
 5560TIP3   OH216685   0.719   1.157   2.228  0.1691  0.0476 -0.8518
 5560TIP3    H116686   0.664   1.106   2.169 -0.4356  0.7869 -0.9401
 5560TIP3    H216687   0.663   1.229   2.258  0.5703 -0.1079  0.3474
 5561TIP3   OH216688   0.008   5.326   1.573  0.0050 -0.0562 -0.4078
 5561TIP3    H116689   0.009   5.231   1.564  2.7905 -0.2649  1.0274
 5561TIP3    H216690   0.050   5.357   1.492  0.4747 -0.1686 -0.2121
 5562TIP3   OH216691   5.162   3.792   4.321 -0.4276  0.4250  0.3786
 5562TIP3    H116692   5.200   3.757   4.240 -0.8367 -0.3261  0.4982
 5562TIP3    H216693   5.205   3.877   4.333  1.9924 -0.7765  1.0340
 5563TIP3   OH216694   2.314   5.615   0.120 -0.0156  0.3667  0.9796
 5563TIP3    H116695   2.246   5.573   0.069 -0.5790 -0.4806  2.3649
 5563TIP3    H216696   2.341   5.691   0.068 -0.4257 -0.5539 -0.6123
 5564TIP3   OH216697   2.667   0.034   1.939 -0.2911 -0.1559  0.3338
 5564TIP3    H116698   2.641   0.029   1.847  1.2380 -2.0744 -0.0559
 5564TIP3    H216699   2.677  -0.057   1.967  0.3053  0.4014  2.0973
 5565TIP3   OH216700   1.467   4.112   2.411 -0.0294  0.3432 -0.0473
 5565TIP3    H116701   1.413   4.044   2.370 -0.4225 -0.2005  1.3007
 5565TIP3    H216702   1.543   4.121   2.353 -0.8546  0.0721 -1.2082
 5566TIP3   OH216703   2.773   2.990   3.568 -0.4603  0.2079 -0.1554
 5566TIP3    H116704   2.707   3.036   3.620 -0.6154 -0.3556  0.1457
 5566TIP3    H216705   2.724   2.923   3.521  0.0349 -0.8853  0.8481
 5567TIP3   OH216706   1.624   0.826   4.744  0.2997 -0.0310  0.0173
 5567TIP3    H116707   1.688   0.886   4.706  0.2212  0.6457  0.9389
 5567TIP3    H216708   1.548   0.881   4.764  0.0368 -0.5345  0.4083
 5568TIP3   OH216709   3.233   0.945   0.210  0.2784 -0.1385  0.1193
 5568TIP3    H116710   3.233   0.972   0.302 -0.4048 -2.8132  0.9968
 5568TIP3    H216711   3.142   0.924   0.191  0.9409 -4.0491  0.3955
 5569TIP3   OH216712   6.225   4.581   5.135  0.4953 -0.2500  0.1869
 5569TIP3    H116713   6.209   4.487   5.123 -0.3428 -0.2924  1.4344
 5569TIP3    H216714   6.193   4.599   5.224  2.7188  0.7608  0.8438
 5570TIP3   OH216715   1.070   0.527   1.671 -0.2213 -0.4041  0.0573
 5570TIP3    H116716   1.127   0.587   1.719 -0.1406  0.7412 -1.3964
 5570TIP3    H216717   0.985   0.570   1.670 -0.6905 -1.2788  0.7048
 5571TIP3   OH216718   4.631   5.385   4.401  0.0352  0.2614 -0.1172
 5571TIP3    H116719   4.696   5.324   4.367 -0.5021 -0.0313 -0.6428
 5571TIP3    H216720   4.681   5.462   4.428  0.5704  0.1181 -0.6939
 5572TIP3   OH216721   2.320   0.055   1.982 -0.7361 -0.4341 -0.4687
 5572TIP3    H116722   2.285   0.035   2.069 -0.0958 -2.1589 -0.5588
 5572TIP3    H216723   2.374   0.133   1.995  1.1727 -1.9147  1.2087
 5573TIP3   OH216724   3.845   1.179   1.267  0.0781 -0.3319  0.3649
 5573TIP3    H116725   3.813   1.089   1.274  0.0743 -0.5662 -1.9157
 5573TIP3    H216726   3.939   1.172   1.283 -0.2422 -0.3570  2.4442
 5574TIP3   OH216727   4.524   3.898   1.501 -0.1844  0.1272  0.0327
 5574TIP3    H116728   4.545   3.850   1.420 -2.3266 -1.1006  0.1235
 5574TIP3    H216729   4.440   3.939   1.483  0.1533  1.3235  1.0750
 5575TIP3   OH216730   2.973   5.693   0.449 -0.0378 -0.3100  0.3258
 5575TIP3    H116731   2.902   5.749   0.419  0.5510  0.0534 -0.4343
 5575TIP3    H216732   3.046   5.714   0.391  0.3146 -1.5786  0.2607
 5576TIP3   OH216733   3.436   5.844   2.859 -0.5074  0.7987  0.1560
 5576TIP3    H116734   3.516   5.896   2.859 -0.0762  0.1667 -0.6690
 5576TIP3    H216735   3.465   5.756   2.882 -1.1434  0.7896  0.9807
 5577TIP3   OH216736   5.119   1.346   0.973  0.8913  0.1393 -0.1602
 5577TIP3    H116737   5.160   1.423   1.014 -1.1360  1.1959  0.0041
 5577TIP3    H216738   5.096   1.376   0.885  4.6319 -1.9168 -2.0966
 5578TIP3   OH216739   0.566   0.387   3.193  0.5223 -0.0335  0.4624
 5578TIP3    H116740   0.574   0.344   3.278  2.2934  0.9965  0.8388
 5578TIP3    H216741   0.643   0.359   3.144  0.2601  0.5305 -0.2990
 5579TIP3   OH216742   1.234   5.739   0.711 -0.3013 -0.1537  0.4514
 5579TIP3    H116743   1.224   5.693   0.795  0.0014  0.2145  0.6910
 5579TIP3    H216744   1.188   5.683   0.648  0.6901 -1.1638  0.6057
 5580TIP3   OH216745   1.231   5.208   1.149  0.5434  0.2971 -0.1109
 5580TIP3    H116746   1.266   5.296   1.164  1.2978  0.7704 -3.7096
 5580TIP3    H216747   1.137   5.217   1.164  0.8565  1.1904  1.4720
 5581TIP3   OH216748   5.926   0.204   1.890 -0.3776 -0.2059  0.7356
 5581TIP3    H116749   5.885   0.169   1.811  1.5991  0.9980 -0.9168
 5581TIP3    H216750   5.875   0.283   1.911 -0.1098  0.2026 -0.1338
 5582TIP3   OH216751   5.927   0.852   0.466 -0.3762  0.3331 -0.2773
 5582TIP3    H116752   5.856   0.916   0.473 -0.7380 -0.0505 -0.3874
 5582TIP3    H216753   5.974   0.877   0.386 -1.6032 -0.5861 -1.3467
 5583TIP3   OH216754   5.286   2.542   4.478  0.4912 -0.0799 -0.4747
 5583TIP3    H116755   5.344   2.492   4.421  0.7711 -0.7134  0.3352
 5583TIP3    H216756   5.340   2.562   4.555 -0.0283  0.3116 -0.2067
 5584TIP3   OH216757   3.207   1.686   4.682 -0.0206  0.2388  0.2858
 5584TIP3    H116758   3.148   1.677   4.757 -1.4947  0.3381 -0.7999
 5584TIP3    H216759   3.202   1.779   4.658  0.9478  0.3430  0.4524
 5585TIP3   OH216760   5.686   0.146   3.864 -0.3486  0.0160 -0.4457
 5585TIP3    H116761   5.621   0.202   3.821  2.5493  0.9731 -4.1023
 5585TIP3    H216762   5.674   0.060   3.823 -0.2265 -0.1763 -0.0802
 5586TIP3   OH216763   0.693   2.287   2.590  0.5786  0.4502 -0.3823
 5586TIP3    H116764   0.669   2.209   2.641  1.4272  0.3607 -0.1067
 5586TIP3    H216765   0.642   2.278   2.509  0.3548 -0.1798 -0.1836
 5587TIP3   OH216766   2.688   3.140   1.823  0.1251  0.1316  0.3103
 5587TIP3    H116767   2.638   3.210   1.781  0.7327  0.7835  0.6550
 5587TIP3    H216768   2.730   3.093   1.751 -2.0962 -1.3458 -0.1187
 5588TIP3   OH216769   4.956   5.655   3.897  0.3033  0.2184 -1.2815
 5588TIP3    H116770   5.001   5.734   3.926  0.1054 -0.9198  2.6976
 5588TIP3    H216771   4.869   5.661   3.936  0.8776 -2.6905  0.7984
 5589TIP3   OH216772   2.044   3.162   2.569 -0.1783  0.5913  0.0035
 5589TIP3    H116773   2.001   3.239   2.607  1.4297  0.7037  1.7373
 5589TIP3    H216774   2.135   3.169   2.598  0.2657 -1.3775 -0.7673
 5590TIP3   OH216775   6.188   4.774   0.066  0.1110 -0.2842 -0.2021
 5590TIP3    H116776   6.226   4.806   0.148  0.0775  0.5683 -0.5055
 5590TIP3    H216777   6.232   4.691   0.050  0.6306 -0.1198  0.3221
 5591TIP3   OH216778   4.131   4.386   1.901 -0.1197  0.2808 -0.1495
 5591TIP3    H116779   4.099   4.315   1.844 -0.8412  0.8880 -0.5239
 5591TIP3    H216780   4.133   4.347   1.988  1.2621 -0.7483 -0.6060
 5592TIP3   OH216781   0.240   4.283   2.745  0.3081 -0.1725  0.0205
 5592TIP3    H116782   0.174   4.241   2.690  0.4743  0.8722 -1.0363
 5592TIP3    H216783   0.222   4.376   2.737  0.0236  0.0092  2.2036
 5593TIP3   OH216784   4.847   3.872   4.646 -0.4987  0.3890 -0.1622
 5593TIP3    H116785   4.922   3.815   4.629 -0.6094 -0.6206  2.2585
 5593TIP3    H216786   4.882   3.943   4.699 -1.1059  0.3353  0.3221
 5594TIP3   OH216787   5.348   2.853   0.097  0.0113 -0.0278 -0.0661
 5594TIP3    H116788   5.405   2.788   0.137 -1.3598 -1.0104  0.3668
 5594TIP3    H216789   5.402   2.894   0.030  0.8947 -1.6623 -0.4128
 5595TIP3   OH216790   0.303   2.378   4.552  0.0832 -0.6032  0.0271
 5595TIP3    H116791   0.388   2.343   4.526  0.5684 -0.0709  0.8294
 5595TIP3    H216792   0.239   2.318   4.514  0.8180 -1.0848 -0.4787
 5596TIP3   OH216793   1.985   1.736   4.268  0.6639  0.5136  0.4555
 5596TIP3    H116794   1.948   1.743   4.180  0.2397 -2.1612  0.3388
 5596TIP3    H216795   1.910   1.747   4.327  0.9254  2.1631  0.5264
 5597TIP3   OH216796   2.957   4.410   4.896 -0.4005  0.2840 -0.3632
 5597TIP3    H116797   2.880   4.466   4.908  0.4127  1.2885  0.3918
 5597TIP3    H216798   2.921   4.323   4.880 -1.7134  0.5403  0.9434
 5598TIP3   OH216799   0.211   1.135   3.056  0.5106 -1.0361 -0.2890
 5598TIP3    H116800   0.284   1.123   2.995  0.6427 -1.4182 -0.0628
 5598TIP3    H216801   0.247   1.108   3.141  0.0037 -1.5700 -0.2342
 5599TIP3   OH216802   0.188   5.150   0.325 -0.1819 -0.0122  0.3470
 5599TIP3    H116803   0.227   5.063   0.317  1.5149  0.3845  3.0126
 5599TIP3    H216804   0.262   5.208   0.347 -1.4810  1.8311  0.1523
 5600TIP3   OH216805   3.758   1.890   1.912  0.1812 -0.1492  0.3974
 5600TIP3    H116806   3.778   1.950   1.984  0.8691  0.4476 -0.2819
 5600TIP3    H216807   3.778   1.803   1.947  0.3588  0.1187  0.9745
 5601TIP3   OH216808   3.651   5.387   0.639  0.1517  0.7225 -0.3087
 5601TIP3    H116809   3.630   5.297   0.665  1.1094  0.0143 -1.8557
 5601TIP3    H216810   3.655   5.384   0.544  0.8475  2.2683 -0.3559
 5602TIP3   OH216811   3.432   5.180   3.610  0.8296 -0.3666 -0.1679
 5602TIP3    H116812   3.383   5.262   3.603  0.5319 -0.5401 -0.1378
 5602TIP3    H216813   3.370   5.112   3.583  1.5927 -0.4319 -1.8367
 5603TIP3   OH216814   5.816   4.931   3.384  0.3713  0.0529  0.6190
 5603TIP3    H116815   5.739   4.933   3.441 -0.0219  0.7372  0.0866
 5603TIP3    H216816   5.836   5.023   3.368  0.1025 -0.1001 -0.8198
 5604TIP3   OH216817   2.516   2.575   0.427 -0.1221  0.5247 -0.2077
 5604TIP3    H116818   2.421   2.569   0.435 -0.1539  0.1366 -0.8105
 5604TIP3    H216819   2.530   2.626   0.348  0.1496 -1.6627 -1.6522
 5605TIP3   OH216820   4.007   5.333   0.382 -0.4182  0.5720  0.2201
 5605TIP3    H116821   3.931   5.308   0.328 -0.4490 -0.3361  0.6670
 5605TIP3    H216822   3.997   5.427   0.394  1.0912  1.4473 -3.7339
 5606TIP3   OH216823   3.227   3.245   0.385 -0.0493  0.1349  0.4090
 5606TIP3    H116824   3.161   3.315   0.382 -0.2841 -0.0467  1.0909
 5606TIP3    H216825   3.196   3.186   0.454  0.8213  0.0408  0.7304
 5607TIP3   OH216826   2.993   1.277   4.547 -0.6442 -0.2116 -0.2300
 5607TIP3    H116827   2.945   1.313   4.622  0.6099 -1.5636  1.3015
 5607TIP3    H216828   3.056   1.345   4.524 -2.1338  0.8846 -1.1612
 5608TIP3   OH216829   2.776   3.746   2.200 -0.1832  0.1080  0.3589
 5608TIP3    H116830   2.739   3.831   2.224  0.3277  0.2772  0.5658
 5608TIP3    H216831   2.759   3.737   2.107  1.6607  1.4242 -0.1505
 5609TIP3   OH216832   3.583   2.175   4.338 -0.0805 -0.5465  0.4121
 5609TIP3    H116833   3.598   2.151   4.247  0.3761  0.3173  0.2428
 5609TIP3    H216834   3.612   2.099   4.389  0.0741 -0.8577 -0.1387
 5610TIP3   OH216835   3.358   0.695   3.524 -0.5148  0.1696 -0.7307
 5610TIP3    H116836   3.449   0.716   3.543  0.1105 -1.2436 -1.9342
 5610TIP3    H216837   3.356   0.685   3.429 -1.5232 -1.4882 -0.5686
 5611TIP3   OH216838   0.502   2.526   1.660 -0.3846  0.2706 -0.1262
 5611TIP3    H116839   0.440   2.512   1.731  0.3485 -1.7971  0.1642
 5611TIP3    H216840   0.452   2.508   1.580 -0.6298  0.4275 -0.0091
 5612TIP3   OH216841   4.689   5.286   0.333 -0.1449  0.2967 -0.1269
 5612TIP3    H116842   4.601   5.250   0.345 -0.3033  0.1738 -1.5514
 5612TIP3    H216843   4.679   5.356   0.269  0.5096  1.5705  1.1018
 5613TIP3   OH216844   5.438   3.119   4.014  0.2731 -0.5590 -0.0773
 5613TIP3    H116845   5.495   3.057   4.060 -0.3335 -0.6101  0.6343
 5613TIP3    H216846   5.443   3.092   3.922 -0.6999 -2.2998  0.3203
 5614TIP3   OH216847   6.019   0.773   2.293 -0.4117 -0.1277 -0.2504
 5614TIP3    H116848   5.951   0.837   2.270 -0.4750 -0.5312 -1.2623
 5614TIP3    H216849   5.987   0.691   2.257  0.9322 -0.1860 -1.3930
 5615TIP3   OH216850   3.716   1.059   2.716 -0.2291  0.1714 -0.2866
 5615TIP3    H116851   3.647   1.125   2.716  0.0497  0.4665 -0.6838
 5615TIP3    H216852   3.777   1.087   2.784  0.3081  0.7741 -1.0026
 5616TIP3   OH216853   4.222   3.727   0.226 -0.1453 -0.3058  0.1253
 5616TIP3    H116854   4.307   3.721   0.268  0.5616 -0.9861 -1.3189
 5616TIP3    H216855   4.199   3.637   0.204 -1.3089 -0.1462  0.5981
 5617TIP3   OH216856   0.803   0.662   4.543  0.4404 -0.4122 -0.4477
 5617TIP3    H116857   0.813   0.674   4.638 -0.7788 -0.1462 -0.3365
 5617TIP3    H216858   0.890   0.633   4.514  2.0271  3.1075  0.1514
 5618TIP3   OH216859   6.319   0.718   2.632 -0.3860 -0.3977  0.4019
 5618TIP3    H116860   6.307   0.704   2.726  0.3997  1.3294  0.7959
 5618TIP3    H216861   6.372   0.797   2.626 -0.2359 -0.5971 -1.5080
 5619TIP3   OH216862   5.701   1.650   0.944  0.2036 -0.4334 -0.1215
 5619TIP3    H116863   5.719   1.724   0.886  1.4845  1.0569  2.0238
 5619TIP3    H216864   5.744   1.576   0.902  1.8418  0.7765 -0.7062
 5620TIP3   OH216865   6.134   2.737   2.986 -0.2772  0.0113  0.5717
 5620TIP3    H116866   6.121   2.700   3.074  2.1329 -0.8157  0.6576
 5620TIP3    H216867   6.183   2.669   2.939  1.1266  1.6443 -0.4344
 5621TIP3   OH216868   2.799   3.900   3.618  0.2362  0.6052 -0.5925
 5621TIP3    H116869   2.881   3.851   3.624 -1.1448 -1.7508  0.5077
 5621TIP3    H216870   2.731   3.832   3.615 -1.7601  2.4704  0.1435
 5622TIP3   OH216871   0.589   4.354   2.304 -0.4320  0.1716 -0.3587
 5622TIP3    H116872   0.574   4.262   2.282  1.8312  0.0492 -1.6802
 5622TIP3    H216873   0.604   4.396   2.219 -2.7158  2.0748  0.0953
 5623TIP3   OH216874   5.347   4.015   2.299  0.1308  0.1562 -0.2082
 5623TIP3    H116875   5.288   3.961   2.246  0.6191 -0.5576 -0.0444
 5623TIP3    H216876   5.289   4.065   2.356 -0.3162 -0.7277  0.1350
 5624TIP3   OH216877   1.238   3.512   2.748 -0.4862 -0.6080 -0.0524
 5624TIP3    H116878   1.269   3.571   2.678  0.3866 -0.1574  0.6990
 5624TIP3    H216879   1.149   3.488   2.720 -1.1621  1.6152 -0.0680
 5625TIP3   OH216880   4.175   5.822   1.978 -0.2323  0.1132  0.0486
 5625TIP3    H116881   4.086   5.858   1.978 -0.1538  0.3411  1.2209
 5625TIP3    H216882   4.229   5.893   2.013  0.1308 -0.6525  1.0921
 5626TIP3   OH216883   1.111   2.427   4.092 -0.3432 -0.4934  0.3655
 5626TIP3    H116884   1.195   2.415   4.049 -0.8702  1.1950 -1.2294
 5626TIP3    H216885   1.110   2.518   4.120 -1.1570 -0.8187  1.5004
 5627TIP3   OH216886   6.162   3.060   1.459 -0.1458  0.6009  0.8581
 5627TIP3    H116887   6.176   2.983   1.403 -2.3039  0.5346  0.2959
 5627TIP3    H216888   6.244   3.071   1.506  1.1099 -0.4920 -0.9356
 5628TIP3   OH216889   5.042   5.960   2.566  0.7956  0.3529 -0.3606
 5628TIP3    H116890   5.023   6.001   2.482 -1.4115 -0.4105 -0.3014
 5628TIP3    H216891   5.115   5.900   2.548 -0.0765 -0.2984 -1.9083
 5629TIP3   OH216892   1.290   3.424   4.917 -0.2549  0.5721 -0.2976
 5629TIP3    H116893   1.285   3.515   4.889 -0.7811  0.5792 -0.1806
 5629TIP3    H216894   1.375   3.417   4.960  0.6184  0.5503 -1.9482
 5630TIP3   OH216895   1.506   1.425   1.148 -0.2879  0.5659 -0.2802
 5630TIP3    H116896   1.414   1.450   1.144 -0.2131  0.8992  0.0245
 5630TIP3    H216897   1.552   1.504   1.178  0.0138  0.2163  0.1970
 5631TIP3   OH216898   5.876   3.260   4.331 -0.6915  0.4565  0.4105
 5631TIP3    H116899   5.788   3.225   4.316  0.5019 -1.8649 -2.1433
 5631TIP3    H216900   5.922   3.191   4.378  0.3871  0.6132 -0.3648
 5632TIP3   OH216901   1.306   2.588   4.731 -0.4653 -0.6468 -0.2460
 5632TIP3    H116902   1.376   2.637   4.774 -0.3290  1.0734 -2.2635
 5632TIP3    H216903   1.351   2.534   4.665 -0.9461 -0.2469 -0.9133
 5633TIP3   OH216904   5.175   5.774   0.048 -0.0746 -0.0841 -0.3364
 5633TIP3    H116905   5.106   5.733   0.100  0.3009  0.6471  0.7801
 5633TIP3    H216906   5.215   5.838   0.107  1.5896 -0.5110 -0.9392
 5634TIP3   OH216907   5.881   5.178   3.311 -0.3544  0.1971 -0.4327
 5634TIP3    H116908   5.920   5.204   3.394  1.3917 -0.9244 -0.8314
 5634TIP3    H216909   5.816   5.246   3.292  0.4891  1.4483  0.9513
 5635TIP3   OH216910   1.371   1.895   3.954 -0.1226 -0.2679  0.0510
 5635TIP3    H116911   1.303   1.959   3.934 -0.6850 -0.7882  0.2720
 5635TIP3    H216912   1.349   1.819   3.900 -1.3343 -1.4768  2.1249
 5636TIP3   OH216913   0.211   4.126   0.369  0.0946  0.1871  0.0053
 5636TIP3    H116914   0.214   4.118   0.464 -0.2129 -0.6830 -0.0560
 5636TIP3    H216915   0.283   4.185   0.348  0.6749 -0.2672  0.7019
 5637TIP3   OH216916   4.380   0.731   1.435 -0.3917  0.0159 -0.0652
 5637TIP3    H116917   4.449   0.726   1.502  0.4710 -0.6810 -0.9860
 5637TIP3    H216918   4.425   0.712   1.353 -1.7187 -0.6385 -0.6642
 5638TIP3   OH216919   1.228   3.649   3.761  0.6505 -0.5839  0.4673
 5638TIP3    H116920   1.177   3.729   3.752  5.7814  3.1141  0.2437
 5638TIP3    H216921   1.229   3.611   3.673  0.9792  1.1249 -0.3005
 5639TIP3   OH216922   2.229   5.175   4.654 -0.5044 -0.5608  0.1268
 5639TIP3    H116923   2.324   5.165   4.655 -0.4964 -1.2382 -2.2510
 5639TIP3    H216924   2.197   5.106   4.714  0.4775 -0.0225  1.3138
 5640TIP3   OH216925   1.169   2.287   4.682 -0.2935  0.0336 -0.4337
 5640TIP3    H116926   1.251   2.323   4.649 -0.1906  0.8278  0.6434
 5640TIP3    H216927   1.181   2.192   4.675  0.0919  0.1649 -1.7398
 5641TIP3   OH216928   1.860   3.753   2.849  0.1663  0.4066  0.1024
 5641TIP3    H116929   1.838   3.662   2.871  1.4213 -0.0488 -0.4416
 5641TIP3    H216930   1.791   3.805   2.890 -1.1649 -0.8547 -0.4482
 5642TIP3   OH216931   0.089   5.151   1.033  0.2875  0.0609  0.3336
 5642TIP3    H116932   0.069   5.167   0.940 -1.0350 -1.2198  0.3579
 5642TIP3    H216933   0.011   5.180   1.080  0.4834 -0.3648  0.9329
 5643TIP3   OH216934   6.285   4.462   4.494  0.5913 -0.1752  0.6265
 5643TIP3    H116935   6.300   4.427   4.407  0.7274 -0.0082  0.5810
 5643TIP3    H216936   6.372   4.489   4.524  0.4240  0.5804  0.4619
 5644TIP3   OH216937   2.875   0.844   3.549 -0.3133 -0.2799  0.3262
 5644TIP3    H116938   2.862   0.939   3.554  0.1282 -0.0878 -1.5184
 5644TIP3    H216939   2.804   0.813   3.494 -0.3985 -1.0266  0.8437
 5645TIP3   OH216940   0.402   3.374   4.011 -0.0874  0.1054  0.0548
 5645TIP3    H116941   0.471   3.323   3.970 -0.7995 -0.5302 -0.3976
 5645TIP3    H216942   0.343   3.397   3.939 -0.5896  0.2331  0.4957
 5646TIP3   OH216943   3.683   4.079   2.914  0.1773  0.1429 -0.0626
 5646TIP3    H116944   3.711   4.133   2.988 -0.5789 -1.6931  1.6798
 5646TIP3    H216945   3.764   4.052   2.871  0.8532 -0.9518  1.7892
 5647TIP3   OH216946   4.185   3.363   3.263 -0.4404  0.1925 -0.0758
 5647TIP3    H116947   4.221   3.361   3.352  1.6696 -1.6224 -0.8884
 5647TIP3    H216948   4.101   3.317   3.271 -0.5346  0.5329  1.0717
 5648TIP3   OH216949   3.857   1.680   0.415  0.3165 -0.6718 -0.0714
 5648TIP3    H116950   3.873   1.760   0.465  1.0487 -0.5157 -0.5361
 5648TIP3    H216951   3.839   1.614   0.481 -0.0579 -0.1738  0.3307
 5649TIP3   OH216952   4.345   0.883   0.835  0.4637  0.0164 -0.1166
 5649TIP3    H116953   4.371   0.921   0.919  1.0320  1.8470 -1.0789
 5649TIP3    H216954   4.294   0.952   0.793  0.1789 -0.8856 -1.2858
 5650TIP3   OH216955   1.882   4.423   2.111  0.0266 -0.2326  0.2843
 5650TIP3    H116956   1.822   4.350   2.096  1.1527 -1.4521  1.5022
 5650TIP3    H216957   1.967   4.382   2.129  1.4680  1.4271 -2.0647
 5651TIP3   OH216958   2.477   5.056   0.329 -0.2367 -0.0154 -0.0540
 5651TIP3    H116959   2.482   5.129   0.267  0.4787  0.1284  0.1680
 5651TIP3    H216960   2.555   5.066   0.384 -1.5505  0.7015  1.7937
 5652TIP3   OH216961   3.199   1.797   1.286 -0.0653 -0.3846  0.0687
 5652TIP3    H116962   3.192   1.890   1.308 -0.3434 -0.5317  0.6130
 5652TIP3    H216963   3.288   1.787   1.252 -0.0872  0.1069 -0.1431
 5653TIP3   OH216964   5.971   5.336   4.865  0.0075  0.0015 -0.0176
 5653TIP3    H116965   5.932   5.282   4.934  1.3636 -0.1933  0.6318
 5653TIP3    H216966   5.917   5.414   4.862  0.7706  0.7206  2.3789
 5654TIP3   OH216967   0.715   2.364   4.966 -0.2516  0.0575  0.3726
 5654TIP3    H116968   0.809   2.352   4.952  0.0547  0.8754  1.5501
 5654TIP3    H216969   0.687   2.285   5.013  0.5180  1.1113  2.7641
 5655TIP3   OH216970   1.877   0.271   4.640 -0.5111  0.3697  0.4667
 5655TIP3    H116971   1.833   0.346   4.681 -0.3164  0.3568  0.7037
 5655TIP3    H216972   1.938   0.239   4.707 -0.4689  0.1047  0.3064
 5656TIP3   OH216973   3.588   4.685   3.281  0.4419  0.3116 -0.5572
 5656TIP3    H116974   3.570   4.735   3.361 -0.1713  0.3432 -0.7043
 5656TIP3    H216975   3.507   4.693   3.230  0.4028 -0.6897 -0.6660
 5657TIP3   OH216976   0.101   5.814   1.077 -0.1166 -0.3945  0.0655
 5657TIP3    H116977   0.138   5.793   0.991 -0.7819  0.8338 -0.5480
 5657TIP3    H216978   0.168   5.785   1.140  0.1178 -1.8630 -0.8221
 5658TIP3   OH216979   2.161   3.101   1.292 -0.1028 -0.2636 -0.3603
 5658TIP3    H116980   2.133   3.022   1.337  1.5454 -0.7954 -0.1998
 5658TIP3    H216981   2.178   3.073   1.202 -0.3833  0.1109 -0.5345
 5659TIP3   OH216982   2.419   0.838   3.736  0.3329 -0.3525  0.2037
 5659TIP3    H116983   2.454   0.893   3.666  1.5064  0.6918  1.5299
 5659TIP3    H216984   2.333   0.876   3.755 -0.0332 -0.6970 -0.6981
 5660TIP3   OH216985   4.344   1.499   3.798 -0.4418 -0.1514 -0.6011
 5660TIP3    H116986   4.376   1.568   3.740  0.8925 -1.8023 -1.9244
 5660TIP3    H216987   4.358   1.418   3.750 -1.0642 -1.4502  1.2771
 5661TIP3   OH216988   5.355   3.389   1.896  0.0639  0.2182  0.1385
 5661TIP3    H116989   5.364   3.441   1.816 -1.7788  2.6985  1.3927
 5661TIP3    H216990   5.262   3.366   1.899  0.2031 -0.2576  1.2925
 5662TIP3   OH216991   6.214   3.833   4.813  0.3286 -0.1136 -0.1001
 5662TIP3    H116992   6.265   3.759   4.780  0.1355  0.1869 -1.1090
 5662TIP3    H216993   6.278   3.905   4.819  0.1423  0.1323 -0.9058
 5663TIP3   OH216994   6.048   0.060   1.474 -0.1790  0.2633 -0.7978
 5663TIP3    H116995   5.980  -0.006   1.482  0.4872 -0.4878 -1.2397
 5663TIP3    H216996   6.121   0.027   1.527  1.1226 -0.6409 -3.0313
 5664TIP3   OH216997   0.906   1.305   0.467 -0.0924 -0.1133  0.5598
 5664TIP3    H116998   0.890   1.227   0.413 -1.1585  0.1466  0.4939
 5664TIP3    H216999   0.838   1.367   0.441 -0.2384  0.2543  1.7657
 5665TIP3   OH217000   6.169   4.949   1.914 -0.7227 -0.2018  0.3487
 5665TIP3    H117001   6.190   5.037   1.882  0.9666 -0.8965 -0.5941
 5665TIP3    H217002   6.086   4.927   1.871 -0.5117  0.4354 -0.4027
 5666TIP3   OH217003   2.943   4.121   4.428  0.2688  0.1343  0.2442
 5666TIP3    H117004   3.013   4.078   4.477  0.0524  1.6085  1.9978
 5666TIP3    H217005   2.970   4.116   4.337  1.2493 -1.7854  0.5862
 5667TIP3   OH217006   0.171   2.898   3.560 -0.0413  0.1923 -0.1966
 5667TIP3    H117007   0.093   2.876   3.508  0.7433  0.9995 -1.7855
 5667TIP3    H217008   0.171   2.834   3.631 -2.1229  0.1455 -0.1719
 5668TIP3   OH217009   5.757   5.522   0.990 -0.2123 -0.3933  0.2477
 5668TIP3    H117010   5.669   5.515   1.028  0.4147  0.0300  1.8604
 5668TIP3    H217011   5.802   5.584   1.047  0.6348  0.6961 -1.5376
 5669TIP3   OH217012   6.079   3.110   2.670  0.6569 -0.5429  0.2402
 5669TIP3    H117013   6.081   3.049   2.596 -0.3015 -1.0291  0.6049
 5669TIP3    H217014   6.078   3.054   2.747 -0.4602 -0.0824  0.5788
 5670TIP3   OH217015   4.375   4.745   3.519 -0.2135 -0.1382 -0.1646
 5670TIP3    H117016   4.443   4.682   3.543 -0.2248 -0.5146 -1.0635
 5670TIP3    H217017   4.323   4.700   3.452 -2.0833 -0.3007  1.3159
 5671TIP3   OH217018   3.133   3.447   2.967 -0.2491  0.1433 -0.1045
 5671TIP3    H117019   3.039   3.430   2.962  0.0861 -1.5977 -1.3770
 5671TIP3    H217020   3.145   3.531   2.923 -1.1960  0.3875  0.0780
 5672TIP3   OH217021   1.356   2.909   1.544 -0.8277  0.3536  0.2494
 5672TIP3    H117022   1.408   2.988   1.530 -0.9746  0.5693  0.8998
 5672TIP3    H217023   1.364   2.860   1.462 -0.1131  0.6789  0.1211
 5673TIP3   OH217024   5.277   0.746   2.063  0.1883  0.2339  0.5647
 5673TIP3    H117025   5.230   0.666   2.088  1.1044 -0.2755  0.6961
 5673TIP3    H217026   5.211   0.800   2.020 -0.4748 -0.5459  0.5805
 5674TIP3   OH217027   0.585   5.455   3.376  0.4636 -0.0489 -0.3107
 5674TIP3    H117028   0.669   5.492   3.350  0.8210 -1.1160 -0.7595
 5674TIP3    H217029   0.536   5.528   3.413  1.2644  0.7685 -0.8342
 5675TIP3   OH217030   5.547   1.898   2.072  0.0746 -0.1568  0.6878
 5675TIP3    H117031   5.501   1.957   2.012 -1.7087  0.1715  2.2797
 5675TIP3    H217032   5.552   1.815   2.024 -0.3717  0.3861 -0.3237
 5676TIP3   OH217033   0.325   3.601   1.367  0.6472  0.0565 -0.2126
 5676TIP3    H117034   0.341   3.552   1.447  2.7126 -0.5837 -0.9441
 5676TIP3    H217035   0.230   3.598   1.355  0.5542 -2.3968  0.6089
 5677TIP3   OH217036   4.741   0.570   4.222  0.3151  0.0026 -0.1758
 5677TIP3    H117037   4.680   0.497   4.228  0.0594  0.2256 -0.0451
 5677TIP3    H217038   4.776   0.565   4.133 -0.7019  0.5132 -0.6202
 5678TIP3   OH217039   1.949   5.277   0.343  0.0621 -0.1423 -0.4855
 5678TIP3    H117040   1.927   5.346   0.281 -0.8002  0.9653  0.9774
 5678TIP3    H217041   2.024   5.312   0.392  0.4865 -0.8281 -0.6271
 5679TIP3   OH217042   2.159   1.692   2.888  0.0809  0.2321  0.2122
 5679TIP3    H117043   2.161   1.597   2.884 -0.0847  0.2829 -2.0699
 5679TIP3    H217044   2.207   1.721   2.810 -3.0377  1.9550 -1.2375
 5680TIP3   OH217045   3.397   4.208   3.680  0.4458 -0.4183  0.0657
 5680TIP3    H117046   3.427   4.199   3.589 -2.3133 -0.6922 -0.9120
 5680TIP3    H217047   3.395   4.302   3.695 -1.7463 -0.1715 -1.2414
 5681TIP3   OH217048   1.721   5.538   1.888  0.0715  0.3793 -0.5813
 5681TIP3    H117049   1.671   5.521   1.968  4.3414 -2.5021  1.8491
 5681TIP3    H217050   1.723   5.454   1.843  2.1733  0.5327 -0.8474
 5682TIP3   OH217051   4.440   1.604   0.462  0.3579 -0.0594  0.5081
 5682TIP3    H117052   4.450   1.688   0.419 -1.2630 -0.4097 -0.6386
 5682TIP3    H217053   4.452   1.540   0.392  1.6243 -0.8183  1.3705
 5683TIP3   OH217054   5.055   3.394   3.351 -0.4802 -0.3349  0.2948
 5683TIP3    H117055   5.042   3.476   3.304  1.7330 -0.1797 -0.1587
 5683TIP3    H217056   5.011   3.328   3.298 -0.0802  0.2046 -0.7418
 5684TIP3   OH217057   2.000   5.359   4.700  0.5564 -0.0074  0.3123
 5684TIP3    H117058   1.990   5.415   4.777 -0.3618 -2.3189  2.0014
 5684TIP3    H217059   2.066   5.295   4.726  0.4155 -0.6816 -0.9177
 5685TIP3   OH217060   3.863   2.895   3.787  0.4924 -0.1934 -0.1312
 5685TIP3    H117061   3.953   2.914   3.813  0.0853  2.1716 -0.2007
 5685TIP3    H217062   3.812   2.968   3.822 -1.1776 -0.7045 -1.3539
 5686TIP3   OH217063   3.947   4.018   3.581  0.2255  0.0125  0.1221
 5686TIP3    H117064   3.853   3.999   3.588  0.3459 -0.5437  0.2470
 5686TIP3    H217065   3.985   3.979   3.659  0.6463 -0.3230 -0.2476
 5687TIP3   OH217066   0.181   2.696   2.453  0.2586 -0.2604 -0.4267
 5687TIP3    H117067   0.187   2.768   2.391 -0.4347 -0.1451 -0.3714
 5687TIP3    H217068   0.264   2.649   2.445  0.4303  0.1369 -0.9650
 5688TIP3   OH217069   0.290   5.758   4.508  0.0179  0.0546  0.0109
 5688TIP3    H117070   0.281   5.697   4.434  1.1945 -0.5250  0.3187
 5688TIP3    H217071   0.250   5.839   4.477 -1.2477 -0.7505 -0.5521
 5689TIP3   OH217072   0.865   4.301   4.644  0.0097  0.3670  0.2064
 5689TIP3    H117073   0.811   4.251   4.583  0.0187  1.3600 -0.6461
 5689TIP3    H217074   0.943   4.248   4.657  0.2914  0.4073 -1.1516
 5690TIP3   OH217075   1.590   0.187   4.611 -0.0050  0.0215  0.2684
 5690TIP3    H117076   1.527   0.231   4.553 -2.0002 -1.6352  1.0587
 5690TIP3    H217077   1.675   0.204   4.571 -0.9477  2.1313 -1.0107
 5691TIP3   OH217078   3.461   4.480   3.698 -0.1741  0.6107 -0.6940
 5691TIP3    H117079   3.509   4.450   3.621  2.1416  0.0854  0.8654
 5691TIP3    H217080   3.436   4.570   3.678  1.6144  0.9533 -1.5305
 5692TIP3   OH217081   5.988   3.755   0.005 -0.2020 -0.5952  0.0972
 5692TIP3    H117082   5.926   3.690   0.039  1.3520 -2.5809 -0.6565
 5692TIP3    H217083   6.070   3.707  -0.005  0.9005  1.3796 -1.0204
 5693TIP3   OH217084   0.608   5.087   0.187  0.2299  0.1496 -0.3078
 5693TIP3    H117085   0.612   5.124   0.098  0.7180 -0.5990 -0.6084
 5693TIP3    H217086   0.514   5.073   0.202  0.0292  1.4926 -0.1801
 5694TIP3   OH217087   2.604   0.607   0.922  0.1573 -0.1068 -0.2272
 5694TIP3    H117088   2.520   0.641   0.952 -0.1362 -1.0123  0.0386
 5694TIP3    H217089   2.645   0.572   1.002  1.1274  1.0071 -0.2207
 5695TIP3   OH217090   4.692   4.507   0.043 -0.7125 -0.0398 -0.3290
 5695TIP3    H117091   4.717   4.418   0.018 -0.2173  0.0524 -0.1731
 5695TIP3    H217092   4.707   4.559  -0.036  0.4055  0.1675  0.0109
 5696TIP3   OH217093   4.219   3.113   3.594  0.3957 -0.3642  0.7689
 5696TIP3    H117094   4.256   3.200   3.585  0.8543 -0.6039  0.2649
 5696TIP3    H217095   4.291   3.059   3.627  0.5094 -0.8229 -0.1800
 5697TIP3   OH217096   2.874   2.626   2.100 -0.1066  0.6052  0.4463
 5697TIP3    H117097   2.864   2.667   2.187  0.0558  2.6142 -0.4182
 5697TIP3    H217098   2.818   2.679   2.043  0.1456 -0.4088 -0.7610
 5698TIP3   OH217099   1.391   1.055   3.284 -0.3146  0.0972 -0.1977
 5698TIP3    H117100   1.343   1.100   3.214  0.7503 -1.7043 -2.2186
 5698TIP3    H217101   1.443   1.124   3.325  0.2251  0.9867 -2.2433
 5699TIP3   OH217102   2.072   0.277   4.832 -0.5423  0.2804 -0.6557
 5699TIP3    H117103   2.132   0.203   4.836  1.4738  1.8030 -1.4544
 5699TIP3    H217104   2.027   0.276   4.917 -0.5854 -1.8265 -0.6607
 5700TIP3   OH217105   4.870   0.953   3.175  0.1015  0.6507 -0.6837
 5700TIP3    H117106   4.787   0.912   3.152 -0.5624  0.6192  1.5177
 5700TIP3    H217107   4.849   1.046   3.185  0.4526  0.7299 -0.6401
 5701TIP3   OH217108   6.178   0.600   5.129 -0.1597 -0.0673 -0.0349
 5701TIP3    H117109   6.231   0.678   5.111  2.0358 -1.4315  0.1993
 5701TIP3    H217110   6.155   0.566   5.043  0.7597 -0.3596 -0.1757
 5702TIP3   OH217111   3.217   1.806   2.010 -0.0728  0.4108 -0.2177
 5702TIP3    H117112   3.133   1.842   1.982 -0.5876 -0.2800  0.4144
 5702TIP3    H217113   3.255   1.767   1.931 -0.3573  0.6877 -0.4926
 5703TIP3   OH217114   2.918   2.702   4.117  0.3011  0.2835 -0.0418
 5703TIP3    H117115   2.928   2.635   4.185  0.2577  0.3169 -0.0032
 5703TIP3    H217116   2.828   2.695   4.088  0.6188 -0.4676 -0.8660
 5704TIP3   OH217117   3.898   1.839   4.174 -0.2823  0.0510  0.1179
 5704TIP3    H117118   3.862   1.857   4.087  1.6051  0.4203 -0.6359
 5704TIP3    H217119   3.826   1.797   4.221 -1.0088 -1.2319 -1.9747
 5705TIP3   OH217120   3.301   5.957   1.893 -0.4156 -0.1379  0.1288
 5705TIP3    H117121   3.310   6.021   1.963  1.1430  0.7037 -0.7788
 5705TIP3    H217122   3.376   5.899   1.904 -1.8209 -1.9181  0.9643
 5706TIP3   OH217123   1.126   3.861   1.215  0.2544 -0.1106  0.0142
 5706TIP3    H117124   1.064   3.826   1.151  2.0242 -0.3072 -1.6974
 5706TIP3    H217125   1.115   3.956   1.210 -0.6316 -0.1725  0.5369
 5707TIP3   OH217126   0.668   4.282   0.738 -0.1913 -0.2423  0.5052
 5707TIP3    H117127   0.590   4.325   0.703  0.3078 -0.3781 -0.8479
 5707TIP3    H217128   0.710   4.350   0.791  0.3073  0.8394 -1.1765
 5708TIP3   OH217129   0.724   5.883   3.184  0.5523  0.0155 -0.1230
 5708TIP3    H117130   0.712   5.925   3.098 -1.8940 -0.9001 -0.3297
 5708TIP3    H217131   0.694   5.793   3.171  0.0330 -0.1190  1.7102
 5709TIP3   OH217132   1.586   5.623   3.530  0.3462 -0.3111 -0.0853
 5709TIP3    H117133   1.599   5.662   3.616  0.3527 -0.3755 -0.0572
 5709TIP3    H217134   1.586   5.529   3.546 -0.5324 -0.3137 -0.0288
 5710TIP3   OH217135   4.695   5.326   3.174 -0.4550  0.0993  0.3791
 5710TIP3    H117136   4.757   5.395   3.196  0.6900 -0.6851 -0.2683
 5710TIP3    H217137   4.680   5.335   3.080 -0.9348 -0.0455  0.4343
 5711TIP3   OH217138   1.650   1.224   2.592  0.2121  0.1645  0.4138
 5711TIP3    H117139   1.601   1.281   2.652  2.9098  3.2408  0.0221
 5711TIP3    H217140   1.697   1.164   2.650  0.2413  0.8898  1.1683
 5712TIP3   OH217141   2.979   4.443   0.941  0.0477  0.1196  0.1789
 5712TIP3    H117142   2.934   4.526   0.956 -1.1181 -0.3402 -0.6144
 5712TIP3    H217143   2.929   4.401   0.871  0.5825 -1.2758  0.6021
 5713TIP3   OH217144   0.253   4.368   4.770  0.2822  0.0445  0.4289
 5713TIP3    H117145   0.191   4.361   4.843  0.9667 -0.4443  0.9795
 5713TIP3    H217146   0.337   4.343   4.808  0.7926  0.5524 -0.3469
 5714TIP3   OH217147   6.062   4.442   2.049  0.1715  0.0739 -0.0717
 5714TIP3    H117148   6.146   4.476   2.082 -0.2018 -0.8136  1.9604
 5714TIP3    H217149   6.086   4.383   1.978  1.3515 -0.7381  0.9593
 5715TIP3   OH217150   5.147   4.152   1.021  0.2042 -0.1046  0.9959
 5715TIP3    H117151   5.130   4.061   0.997  0.3317  0.1514 -0.1052
 5715TIP3    H217152   5.218   4.180   0.964 -1.3370  1.3556 -0.3373
 5716TIP3   OH217153   3.785   4.882   0.282 -0.0742  0.2819 -0.2109
 5716TIP3    H117154   3.814   4.907   0.194  0.6983  0.9088  0.2016
 5716TIP3    H217155   3.696   4.916   0.289 -0.1451  0.2111 -0.7566
 5717TIP3   OH217156   3.229   1.012   0.941 -0.3895  0.1474  0.3076
 5717TIP3    H117157   3.175   1.082   0.976 -1.9049 -0.8735  0.1183
 5717TIP3    H217158   3.220   0.941   1.004  0.5421 -0.1407  0.1373
 5718TIP3   OH217159  -0.008   4.529   2.670  0.2878 -0.3965 -0.3605
 5718TIP3    H117160   0.004   4.624   2.668 -2.7161  0.0741 -1.3773
 5718TIP3    H217161   0.043   4.497   2.596  0.4049  0.5743 -0.7233
 5719TIP3   OH217162   0.612   4.727   3.136  0.1900 -0.2416 -0.0159
 5719TIP3    H117163   0.615   4.820   3.161  0.5817  0.0038 -0.9250
 5719TIP3    H217164   0.520   4.704   3.141 -0.3034  0.9581 -2.4031
 5720TIP3   OH217165   2.477   4.946   4.098 -0.6878 -0.1050  0.2709
 5720TIP3    H117166   2.474   4.866   4.046 -1.0163  1.3772 -2.1332
 5720TIP3    H217167   2.544   5.000   4.055  0.7735  0.3118  2.8442
 5721TIP3   OH217168   4.169   5.105   0.237  0.4344  0.1497  0.4262
 5721TIP3    H117169   4.089   5.121   0.287 -1.1175  0.0187 -1.8645
 5721TIP3    H217170   4.202   5.022   0.270 -0.6725 -0.0510  1.0789
 5722TIP3   OH217171   5.468   3.977   3.242 -0.1699  0.2728 -0.0926
 5722TIP3    H117172   5.453   4.063   3.202 -0.4297 -0.3857 -1.4786
 5722TIP3    H217173   5.421   3.980   3.325  1.2260  2.0477  0.6790
 5723TIP3   OH217174   5.782   0.219   0.386 -0.1261 -0.0972 -0.1760
 5723TIP3    H117175   5.844   0.159   0.427 -0.2725  1.1417  2.0394
 5723TIP3    H217176   5.829   0.303   0.384 -1.0875  0.4553 -0.1016
 5724TIP3   OH217177   3.823   3.398   1.324 -0.5095 -0.5199  0.4843
 5724TIP3    H117178   3.820   3.307   1.353 -2.0227 -0.7702 -0.3581
 5724TIP3    H217179   3.892   3.438   1.377  0.5724 -2.2739  0.5078
 5725TIP3   OH217180   0.141   5.697   0.539  0.8367  0.6040 -0.2408
 5725TIP3    H117181   0.188   5.623   0.578  0.9816  0.5963 -0.4277
 5725TIP3    H217182   0.072   5.657   0.486  1.8170  0.5322 -1.5327
 5726TIP3   OH217183   1.963   0.711   0.049  0.0796  0.6544  0.2405
 5726TIP3    H117184   1.959   0.664  -0.033  0.8427 -0.5312  0.8620
 5726TIP3    H217185   1.887   0.770   0.047  1.2930  2.3170 -2.2621
 5727TIP3   OH217186   0.765   5.422   1.201 -0.4052  0.3940  0.0407
 5727TIP3    H117187   0.717   5.357   1.149 -0.8977  0.1687  0.7675
 5727TIP3    H217188   0.794   5.487   1.136  1.6296 -1.3963 -0.9766
 5728TIP3   OH217189   0.489   4.648   4.869  0.1909  0.5826  0.3300
 5728TIP3    H117190   0.479   4.724   4.812  3.4783  0.4847 -0.5833
 5728TIP3    H217191   0.457   4.677   4.954 -2.2725  1.6439 -0.8711
 5729TIP3   OH217192   2.396   1.403   2.034  0.6519 -0.2658 -0.0191
 5729TIP3    H117193   2.309   1.369   2.057  0.0231 -0.1714 -2.1221
 5729TIP3    H217194   2.385   1.443   1.948  1.9716  2.9223  1.1164
 5730TIP3   OH217195   0.883   0.105   4.741 -0.3246  0.3296  0.1610
 5730TIP3    H117196   0.962   0.053   4.734 -0.4473  0.1346  0.2028
 5730TIP3    H217197   0.827   0.055   4.801 -0.9699 -0.1534 -0.8229
 5731TIP3   OH217198   4.027   0.236   2.790  0.0215  0.2660  0.3966
 5731TIP3    H117199   3.934   0.256   2.801 -0.0202 -0.5767  1.8409
 5731TIP3    H217200   4.034   0.208   2.698 -1.0347  0.8971  0.1055
 5732TIP3   OH217201   5.791   1.858   4.170 -0.6391  0.4841 -0.0964
 5732TIP3    H117202   5.841   1.921   4.223 -0.0134  0.1087 -0.2210
 5732TIP3    H217203   5.703   1.894   4.167 -0.5979  0.6985  0.8968
 5733TIP3   OH217204   3.216   0.208   1.993 -0.0092 -0.3286  0.0639
 5733TIP3    H117205   3.259   0.281   2.039 -0.5168 -0.6828  1.1320
 5733TIP3    H217206   3.241   0.131   2.043 -1.1104 -0.6518  0.1300
 5734TIP3   OH217207   1.474   1.890   2.858  0.1491 -0.0001 -0.2863
 5734TIP3    H117208   1.387   1.927   2.842  0.0844 -0.2651 -0.5449
 5734TIP3    H217209   1.497   1.922   2.946  0.0237  0.5185 -0.4371
 5735TIP3   OH217210   0.515   1.897   0.102  0.1551 -0.3800 -0.9333
 5735TIP3    H117211   0.576   1.964   0.071  1.1825 -1.1731 -0.6744
 5735TIP3    H217212   0.428   1.933   0.084  0.6834  1.0561 -0.7182
 5736TIP3   OH217213   3.611   4.280   2.132 -0.8329 -0.5081  0.1086
 5736TIP3    H117214   3.567   4.238   2.206  0.5826 -1.2594  0.5597
 5736TIP3    H217215   3.578   4.369   2.133 -1.8324 -0.8592  0.8348
 5737TIP3   OH217216   2.299   5.502   2.536 -0.0965 -0.4855  0.1733
 5737TIP3    H117217   2.293   5.498   2.441  1.8261 -1.3657  0.0391
 5737TIP3    H217218   2.311   5.595   2.556 -0.2506 -0.3279 -0.4656
 5738TIP3   OH217219   2.124   3.426   4.039  0.6523 -0.0565  0.0797
 5738TIP3    H117220   2.212   3.456   4.016  0.2057  1.9529  0.7284
 5738TIP3    H217221   2.126   3.414   4.134  1.0672 -3.2375 -0.2325
 5739TIP3   OH217222   0.425   0.216   4.771 -0.2065  0.0353 -0.4628
 5739TIP3    H117223   0.468   0.149   4.719 -1.4140 -0.9459 -0.2435
 5739TIP3    H217224   0.474   0.218   4.853  0.4203  0.1053 -0.8354
 5740TIP3   OH217225   4.272   1.446   0.799  0.4926 -0.2560  0.3800
 5740TIP3    H117226   4.265   1.539   0.821 -1.0306 -0.4993  1.1278
 5740TIP3    H217227   4.295   1.404   0.882 -1.7294 -0.8072  0.7927
 5741TIP3   OH217228   1.428   3.885   3.479 -0.3826 -0.4616  0.0270
 5741TIP3    H117229   1.508   3.928   3.509 -0.3285  0.4020 -1.2523
 5741TIP3    H217230   1.363   3.905   3.546  0.5862 -1.6637  1.3799
 5742TIP3   OH217231   0.002   5.385   3.750  0.6715 -0.0814 -0.1249
 5742TIP3    H117232  -0.039   5.300   3.738  1.1179 -0.0167 -2.7687
 5742TIP3    H217233   0.089   5.365   3.786  1.0681 -0.8745 -1.4253
 5743TIP3   OH217234   0.848   5.060   4.743  0.1969 -0.0553 -0.1594
 5743TIP3    H117235   0.794   5.028   4.670 -1.5074  0.1884  0.9391
 5743TIP3    H217236   0.860   4.984   4.799 -0.0366  0.1731  0.2027
 5744TIP3   OH217237   2.073   2.927   4.476  0.1377  0.4433  0.1723
 5744TIP3    H117238   2.061   3.014   4.515  2.0209  1.1370 -0.6419
 5744TIP3    H217239   2.060   2.941   4.383 -0.6244 -0.3994  0.1471
 5745TIP3   OH217240   0.781   1.936   5.043 -0.4715 -0.3520 -0.0267
 5745TIP3    H117241   0.762   1.845   5.025 -0.3100 -0.3349 -0.2786
 5745TIP3    H217242   0.864   1.934   5.091 -0.5576 -0.3501  0.1225
 5746TIP3   OH217243   2.524   3.439   1.863 -0.4896 -0.0073 -0.5720
 5746TIP3    H117244   2.598   3.495   1.886 -0.8365  0.6890 -1.0926
 5746TIP3    H217245   2.547   3.402   1.778 -0.1064 -0.9493 -0.0700
 5747TIP3   OH217246   1.211   0.642   3.874 -0.0935  0.2913  0.0511
 5747TIP3    H117247   1.140   0.704   3.856  0.0138  0.5227  0.4051
 5747TIP3    H217248   1.275   0.693   3.924  0.7020  0.3139 -0.9618
 5748TIP3   OH217249   5.114   1.623   2.586 -0.4374  0.9887  0.2901
 5748TIP3    H117250   5.056   1.550   2.606 -0.3414  0.5633 -0.9223
 5748TIP3    H217251   5.173   1.628   2.661  0.7015 -1.3339 -0.3796
 5749TIP3   OH217252   2.517   2.696   1.228 -0.5379 -0.0636 -0.0570
 5749TIP3    H117253   2.478   2.615   1.259 -0.1602 -0.0180  0.5577
 5749TIP3    H217254   2.464   2.721   1.152 -1.5290 -0.1551  0.5819
 5750TIP3   OH217255   1.217   2.236   3.715 -0.0901 -0.3770 -0.0298
 5750TIP3    H117256   1.196   2.194   3.632 -2.5674  1.7905 -0.6139
 5750TIP3    H217257   1.165   2.187   3.780 -2.7074  1.3614 -0.6611
 5751TIP3   OH217258   3.187   4.348   0.736 -0.0583 -0.1836 -0.0072
 5751TIP3    H117259   3.104   4.341   0.784 -0.0558 -1.1606 -0.1339
 5751TIP3    H217260   3.166   4.318   0.648  0.4783 -0.6316  0.0160
 5752TIP3   OH217261   1.261   4.673   4.389  0.7563  0.2448 -0.0242
 5752TIP3    H117262   1.317   4.649   4.463  0.9251  1.0557  0.1316
 5752TIP3    H217263   1.310   4.646   4.312  1.1750  0.5663  0.1265
 5753TIP3   OH217264   0.443   5.870   2.241  0.2510  0.4920  0.1388
 5753TIP3    H117265   0.461   5.961   2.263  1.6511  0.4248 -0.6490
 5753TIP3    H217266   0.488   5.820   2.309  0.3934  0.3636 -0.0519
 5754TIP3   OH217267   4.567   0.584   3.001  0.5423 -0.8809 -0.2186
 5754TIP3    H117268   4.507   0.524   3.047  0.1507 -0.4855 -0.2072
 5754TIP3    H217269   4.645   0.531   2.985  1.0695 -0.7696  1.7139
 5755TIP3   OH217270   2.848   1.605   2.187 -0.6982 -0.6835 -0.2092
 5755TIP3    H117271   2.939   1.628   2.207 -0.9331  0.2284 -0.1100
 5755TIP3    H217272   2.797   1.657   2.249 -1.3800  0.7957 -1.9314
 5756TIP3   OH217273   6.325   0.073   2.860  0.4260  0.0214 -0.8919
 5756TIP3    H117274   6.379  -0.006   2.857 -0.3179 -0.4688 -1.7230
 5756TIP3    H217275   6.304   0.092   2.769 -2.0270 -0.6602 -0.5411
 5757TIP3   OH217276   0.075   1.566   5.166 -0.3363 -0.2777  0.2755
 5757TIP3    H117277   0.016   1.604   5.101  0.7157  1.3098  0.1997
 5757TIP3    H217278   0.077   1.472   5.145  0.2405  0.2142 -2.2323
 5758TIP3   OH217279   0.372   3.058   3.686  0.0485  0.7941 -0.0878
 5758TIP3    H117280   0.345   3.150   3.684 -1.3115  0.4602  1.3786
 5758TIP3    H217281   0.310   3.013   3.629  0.3913  0.6933 -0.3890
 5759TIP3   OH217282   2.047   5.739   0.268 -0.2292 -0.1105 -0.7279
 5759TIP3    H117283   2.138   5.719   0.290  0.3757  2.5570 -0.4837
 5759TIP3    H217284   2.050   5.826   0.228 -2.7259  0.3022 -0.2202
 5760TIP3   OH217285   4.702   0.671   0.033  0.0324  0.1752 -0.0494
 5760TIP3    H117286   4.614   0.694   0.064 -0.0295 -0.2675  0.1115
 5760TIP3    H217287   4.687   0.611  -0.040  0.1905  0.8084 -0.6100
 5761TIP3   OH217288   3.549   1.286   0.615  0.2003 -0.2642  0.4764
 5761TIP3    H117289   3.454   1.289   0.623  0.2796  1.3812  1.3026
 5761TIP3    H217290   3.576   1.215   0.673 -0.4020  0.8665  2.2394
 5762TIP3   OH217291   5.795   0.029   2.183 -0.1067 -0.1997 -0.5715
 5762TIP3    H117292   5.890   0.038   2.173 -0.1165  0.8472  0.1447
 5762TIP3    H217293   5.771  -0.043   2.125  1.0238  0.0316 -1.3465
 5763TIP3   OH217294   0.609   5.688   3.610 -0.1305  0.4100  0.6190
 5763TIP3    H117295   0.660   5.642   3.543 -1.4592 -1.1008  0.6061
 5763TIP3    H217296   0.644   5.778   3.608  1.7868 -0.2887 -0.1120
 5764TIP3   OH217297   3.422   3.346   4.509  0.3088  0.4571 -0.1568
 5764TIP3    H117298   3.356   3.413   4.491 -2.6620 -1.8514  1.3278
 5764TIP3    H217299   3.419   3.334   4.604  2.0161 -0.6110 -0.1984
 5765TIP3   OH217300   4.858   0.049   1.203 -0.3200 -0.4915  0.0860
 5765TIP3    H117301   4.851   0.021   1.111  0.0563  1.5957 -0.6395
 5765TIP3    H217302   4.803   0.127   1.208  2.2398  1.3879  0.7387
 5766TIP3   OH217303   2.605   1.792   1.225 -0.2574 -0.1223  0.1064
 5766TIP3    H117304   2.574   1.701   1.225  0.6788 -0.5572  3.0067
 5766TIP3    H217305   2.533   1.841   1.264  0.0779 -0.0282  0.6222
 5767TIP3   OH217306   3.672   3.844   2.504 -0.4926 -0.1167  0.1348
 5767TIP3    H117307   3.617   3.853   2.581 -1.6169  0.1860 -0.6807
 5767TIP3    H217308   3.724   3.765   2.521 -1.6492 -0.7955  0.6466
 5768TIP3   OH217309   4.089   5.556   0.901  0.0854  0.2513  0.1133
 5768TIP3    H117310   4.087   5.646   0.868  0.7820  0.3654  0.3645
 5768TIP3    H217311   4.172   5.550   0.949  2.0155 -1.6516 -3.0991
 5769TIP3   OH217312   5.766   4.850   4.554 -0.3100 -0.2344 -0.7345
 5769TIP3    H117313   5.844   4.901   4.573 -0.0841 -0.2240 -1.6361
 5769TIP3    H217314   5.738   4.816   4.639  1.5779 -1.5443 -0.5834
 5770TIP3   OH217315   5.895   0.327   1.467  0.0574 -0.2465 -0.5844
 5770TIP3    H117316   5.830   0.295   1.529  0.5254  2.7538  1.6730
 5770TIP3    H217317   5.978   0.292   1.500  0.2602  1.0322  0.3207
 5771TIP3   OH217318   0.556   5.246   1.904  0.7421 -0.0126  0.3073
 5771TIP3    H117319   0.484   5.204   1.951  1.5326 -1.0309  0.6367
 5771TIP3    H217320   0.597   5.175   1.854  0.7059  0.8079 -0.9350
 5772TIP3   OH217321   1.506   3.802   1.126 -0.0127 -0.1442  0.3429
 5772TIP3    H117322   1.433   3.864   1.122  0.6114  0.6001  0.2029
 5772TIP3    H217323   1.472   3.722   1.086  0.0032  0.9765 -2.1015
 5773TIP3   OH217324   3.438   5.644   2.351 -0.8379  0.0384 -0.4157
 5773TIP3    H117325   3.502   5.633   2.421 -3.1834  0.1070  1.9276
 5773TIP3    H217326   3.454   5.570   2.292  1.3106  0.0524  0.0749
 5774TIP3   OH217327   1.346   3.768   0.820  0.2042  1.1347  0.4936
 5774TIP3    H117328   1.335   3.855   0.782  2.2652  1.1704 -0.1258
 5774TIP3    H217329   1.439   3.749   0.812 -0.3393 -1.6069 -0.4193
 5775TIP3   OH217330   6.011   2.095   2.498 -0.0141  0.0375  0.2760
 5775TIP3    H117331   5.951   2.094   2.573  2.0563 -1.6013  2.0500
 5775TIP3    H217332   5.986   2.019   2.446 -0.3743  0.2023  0.2010
 5776TIP3   OH217333   0.079   5.350  -0.003  0.5173 -0.1919 -0.4392
 5776TIP3    H117334   0.002   5.370   0.050 -0.1151 -0.4716 -1.2238
 5776TIP3    H217335   0.109   5.265   0.030  1.5072  0.6728  0.9838
 5777TIP3   OH217336   0.711   5.880   1.532 -0.6124  0.1244 -0.3578
 5777TIP3    H117337   0.712   5.834   1.448 -1.7025 -0.7256  0.0796
 5777TIP3    H217338   0.731   5.813   1.597 -0.5832  0.6120  0.1472
 5778TIP3   OH217339   5.779   3.356   1.672  0.2004 -0.1796 -0.1637
 5778TIP3    H117340   5.728   3.312   1.740 -0.0695  0.1878 -0.1251
 5778TIP3    H217341   5.869   3.354   1.705  0.2143 -0.8137 -0.2244
 5779TIP3   OH217342   0.987   0.993   1.038  0.3169  1.1467  0.3458
 5779TIP3    H117343   0.905   1.008   1.086  0.4251 -0.6019  1.1299
 5779TIP3    H217344   1.056   1.006   1.103  0.4782 -0.9408  0.6629
 5780TIP3   OH217345   4.601   4.959   4.019  0.3749  0.6821  0.6530
 5780TIP3    H117346   4.692   4.956   3.991  0.2642  1.7137  0.1284
 5780TIP3    H217347   4.557   4.895   3.964  0.7881  0.1264  0.9582
 5781TIP3   OH217348   6.190   1.154   2.513 -0.5024  0.3255  0.3305
 5781TIP3    H117349   6.151   1.097   2.579  0.4252  1.0987  1.6031
 5781TIP3    H217350   6.191   1.241   2.554 -0.7933  1.0324 -1.0911
 5782TIP3   OH217351   3.044   0.825   3.769  0.7155  0.3023  0.4364
 5782TIP3    H117352   2.992   0.837   3.689  1.5244  1.5440  0.0556
 5782TIP3    H217353   3.102   0.901   3.771  0.9007  0.1610  2.0766
 5783TIP3   OH217354   4.396   3.432   1.053 -0.5367  0.0875  0.4403
 5783TIP3    H117355   4.390   3.522   1.020 -0.8751  0.3041  1.0734
 5783TIP3    H217356   4.317   3.420   1.105 -1.5693 -1.3189 -1.3525
 5784TIP3   OH217357   1.195   0.130   3.933  0.0237 -0.4421  0.7290
 5784TIP3    H117358   1.139   0.091   3.865  0.4434 -0.3037  0.2949
 5784TIP3    H217359   1.166   0.221   3.938  1.5965  0.2259 -1.0349
 5785TIP3   OH217360   4.339   1.280   0.568  0.1234  0.0433 -0.1894
 5785TIP3    H117361   4.368   1.336   0.641 -0.9920 -1.2880  1.3484
 5785TIP3    H217362   4.306   1.341   0.503 -0.4922  1.2385  1.1805
 5786TIP3   OH217363   5.229   4.651   2.011 -0.7773 -0.2881  0.2093
 5786TIP3    H117364   5.237   4.666   2.105 -1.0542  1.2000  0.0236
 5786TIP3    H217365   5.144   4.689   1.988 -0.8500 -0.9052 -0.5938
 5787TIP3   OH217366   5.896   5.233   1.810 -0.0526 -0.9263  0.6288
 5787TIP3    H117367   5.945   5.298   1.760 -0.1546 -1.4719 -0.2042
 5787TIP3    H217368   5.804   5.255   1.794 -0.1113  0.3478  2.5214
 5788TIP3   OH217369   0.924   2.912   0.164 -0.5804  0.2306  0.0957
 5788TIP3    H117370   0.966   2.970   0.100 -1.5271  0.4984 -0.3099
 5788TIP3    H217371   0.991   2.897   0.231 -0.5283  2.4234  0.6116
 5789TIP3   OH217372   3.765   0.181   3.794 -0.1856  0.2046 -0.3440
 5789TIP3    H117373   3.688   0.211   3.843  0.5777  2.3323 -0.3574
 5789TIP3    H217374   3.728   0.136   3.718 -1.4350  1.1223 -0.3192
 5790TIP3   OH217375   1.146   4.831   4.726 -0.0349  0.0490  0.2390
 5790TIP3    H117376   1.195   4.852   4.806  0.4721 -0.4780  0.0749
 5790TIP3    H217377   1.115   4.915   4.694  5.4328  1.4501 -2.7355
 5791TIP3   OH217378   3.977   3.663   2.767 -0.4287 -0.6814 -0.5197
 5791TIP3    H117379   3.945   3.603   2.836 -0.7974  0.7181  0.5783
 5791TIP3    H217380   4.072   3.653   2.770 -0.4516 -0.8140  0.0413
 5792TIP3   OH217381   0.656   2.889   0.049  0.8301 -0.0157  0.5226
 5792TIP3    H117382   0.748   2.875   0.071  0.5757  0.0648  1.7492
 5792TIP3    H217383   0.650   2.873  -0.045  1.4547 -3.5037  0.9287
 5793TIP3   OH217384   4.360   2.429   1.466  0.6343  0.1545  0.6744
 5793TIP3    H117385   4.270   2.453   1.442  0.2883 -2.0852 -0.5720
 5793TIP3    H217386   4.353   2.398   1.557 -0.2393 -1.6061  0.0492
 5794TIP3   OH217387   3.768   4.024   3.284 -0.3291 -0.3039 -0.0223
 5794TIP3    H117388   3.733   4.010   3.372  0.9918 -0.3065  0.5259
 5794TIP3    H217389   3.746   4.115   3.264 -1.1913 -0.4914  0.0393
 5795TIP3   OH217390   0.504   5.546   0.206 -0.1052 -0.4553 -0.3510
 5795TIP3    H117391   0.419   5.553   0.163 -0.4373 -0.8999  0.2173
 5795TIP3    H217392   0.556   5.492   0.147 -0.2851 -0.3667 -0.5937
 5796TIP3   OH217393   0.691   1.228   0.049  0.3252 -0.4073 -0.3257
 5796TIP3    H117394   0.680   1.134   0.063  1.1326 -0.3803  0.5784
 5796TIP3    H217395   0.603   1.264   0.059  0.0594 -1.0276 -0.3898
 5797TIP3   OH217396   5.163   4.654   2.284 -0.5459  0.2222 -0.4661
 5797TIP3    H117397   5.150   4.718   2.354 -0.9857 -1.6610  1.2677
 5797TIP3    H217398   5.253   4.623   2.296 -0.8836 -0.6844 -0.2082
 5798TIP3   OH217399   5.490   0.401   1.460  0.2318 -0.1040  0.1707
 5798TIP3    H117400   5.522   0.330   1.404 -0.5460 -0.4528  0.1609
 5798TIP3    H217401   5.570   0.445   1.490  0.6769 -0.2655 -0.7464
 5799TIP3   OH217402   4.532   3.473   2.826 -0.1168  0.3262  0.2661
 5799TIP3    H117403   4.452   3.525   2.828  0.1842  0.7807  0.7859
 5799TIP3    H217404   4.543   3.450   2.734 -1.7395 -1.1586  0.3879
 5800TIP3   OH217405   3.682   3.425   4.127  0.2984 -0.4539  0.4950
 5800TIP3    H117406   3.634   3.347   4.099 -1.7036  0.0493  2.2916
 5800TIP3    H217407   3.669   3.487   4.056  1.5636 -1.5613 -0.7691
 5801TIP3   OH217408   1.916   5.740   4.071 -0.5115  0.1289 -0.0548
 5801TIP3    H117409   1.882   5.661   4.029 -0.7030  1.0366 -1.7233
 5801TIP3    H217410   1.887   5.811   4.013  0.4426  1.3313  0.8992
 5802TIP3   OH217411   5.598   0.703   0.589 -0.4123 -0.1792 -0.4010
 5802TIP3    H117412   5.595   0.659   0.503 -1.0797 -0.4851 -0.2284
 5802TIP3    H217413   5.661   0.652   0.639  1.3719  1.0826 -1.2850
 5803TIP3   OH217414   3.257   1.301   2.493  0.2027  0.2002  0.5693
 5803TIP3    H117415   3.289   1.361   2.425  0.2329  0.3330  0.7015
 5803TIP3    H217416   3.252   1.354   2.572  0.0244  0.0823  0.6380
 5804TIP3   OH217417   0.283   3.223   4.827  0.0005  0.5947  0.4832
 5804TIP3    H117418   0.344   3.153   4.847 -0.4207 -0.3873 -1.3966
 5804TIP3    H217419   0.197   3.188   4.852 -0.2733  0.1800 -0.9278
 5805TIP3   OH217420   3.552   4.441   2.631  0.3868 -0.3182  0.5902
 5805TIP3    H117421   3.605   4.384   2.576  2.0344 -1.2100  2.9249
 5805TIP3    H217422   3.523   4.384   2.703 -1.4757  0.8371  0.8372
 5806TIP3   OH217423   2.344   1.053   1.864 -0.2582  0.0542 -0.0737
 5806TIP3    H117424   2.409   1.105   1.913  0.1647 -0.1341 -0.4274
 5806TIP3    H217425   2.366   1.068   1.772  1.2171 -2.4033 -0.1963
 5807TIP3   OH217426   1.602   0.172   3.893 -0.6948  0.3764 -0.0288
 5807TIP3    H117427   1.642   0.137   3.813 -1.1876 -0.8479  0.2443
 5807TIP3    H217428   1.537   0.107   3.918 -0.0673  0.3802  1.7727
 5808TIP3   OH217429   4.452   3.149   2.293 -0.1636  0.4202 -0.4223
 5808TIP3    H117430   4.511   3.147   2.369 -0.6691  0.0256 -0.0327
 5808TIP3    H217431   4.508   3.178   2.220  0.1553  1.6300  0.2619
 5809TIP3   OH217432   3.123   3.795   0.610  0.1045 -0.0748  0.1890
 5809TIP3    H117433   3.175   3.715   0.603  0.0547 -0.2787  1.7115
 5809TIP3    H217434   3.126   3.834   0.523 -0.3243 -1.9984 -0.7246
 5810TIP3   OH217435   1.202   2.475   2.047 -0.0484 -0.8276 -0.1971
 5810TIP3    H117436   1.230   2.508   2.133 -1.2493 -1.1697  0.3468
 5810TIP3    H217437   1.138   2.539   2.016  0.9919 -0.2554 -1.2490
 5811TIP3   OH217438   2.512   1.701   2.053 -0.0356 -0.1703  0.2752
 5811TIP3    H117439   2.511   1.667   2.143  1.3264  1.1771  0.8334
 5811TIP3    H217440   2.594   1.670   2.016  0.4879  1.1574  0.2768
 5812TIP3   OH217441   4.341   2.971   0.588 -0.0597  0.1252 -0.1433
 5812TIP3    H117442   4.430   2.950   0.616  0.1654  2.3915  1.0964
 5812TIP3    H217443   4.316   2.898   0.531  2.4322 -0.7644 -0.2404
 5813TIP3   OH217444   0.397   1.685   0.230  0.2135  0.1406  0.3127
 5813TIP3    H117445   0.386   1.626   0.155  0.2845 -0.5501  0.8254
 5813TIP3    H217446   0.442   1.761   0.195  0.8350 -0.4585 -0.2198
 5814TIP3   OH217447   1.339   1.821   0.816 -0.1404 -0.5002 -0.8911
 5814TIP3    H117448   1.347   1.728   0.837 -0.7627 -0.7287 -1.6239
 5814TIP3    H217449   1.380   1.830   0.730  0.2211 -0.0320 -0.6699
 5815TIP3   OH217450   3.885   1.015   5.080  0.0710 -0.1176 -0.1104
 5815TIP3    H117451   3.886   0.929   5.120  1.3229  0.5517  1.4098
 5815TIP3    H217452   3.970   1.053   5.103 -0.2894  1.3722 -1.0837
 5816TIP3   OH217453   3.339   4.010   3.328 -0.1367  0.1345 -0.5348
 5816TIP3    H117454   3.318   4.083   3.271  0.4233  1.3267  0.7447
 5816TIP3    H217455   3.257   3.993   3.376 -0.1723  0.1128 -0.6024
 5817TIP3   OH217456   5.945   0.790   0.845  0.6321  0.7532 -0.4484
 5817TIP3    H117457   5.887   0.865   0.847  1.1414  1.1690 -0.8741
 5817TIP3    H217458   5.963   0.770   0.937 -1.0854 -0.1068 -0.2583
 5818TIP3   OH217459   0.425   5.507   3.058 -0.9364  0.2253  0.1096
 5818TIP3    H117460   0.486   5.433   3.064 -1.3322 -0.5843 -3.4583
 5818TIP3    H217461   0.357   5.487   3.121  0.8316 -0.5108  1.8885
 5819TIP3   OH217462   4.946   5.003   0.623  0.4053 -0.0517 -0.1261
 5819TIP3    H117463   4.935   5.009   0.718 -1.3356  1.4524 -0.3781
 5819TIP3    H217464   4.913   4.915   0.601 -0.8083  0.2364  0.4759
 5820TIP3   OH217465   4.126   4.263   0.012 -0.0126 -0.6183  0.1889
 5820TIP3    H117466   4.152   4.237  -0.076 -0.6399 -1.8913  0.3536
 5820TIP3    H217467   4.151   4.189   0.067 -1.1481 -0.5614  0.8149
 5821TIP3   OH217468   3.856   4.196   4.425  0.0195  0.9294  0.8051
 5821TIP3    H117469   3.950   4.202   4.445  0.4937 -1.5750 -0.3657
 5821TIP3    H217470   3.849   4.233   4.336 -0.0314  0.7197  0.7226
 5822TIP3   OH217471   1.531   4.352   2.064 -0.1068 -0.0996  0.0582
 5822TIP3    H117472   1.479   4.362   1.984  0.6295 -1.0675 -0.5676
 5822TIP3    H217473   1.594   4.283   2.043 -0.2308 -0.7353  1.6444
 5823TIP3   OH217474   1.194   5.995   2.174  0.4313  0.1266 -0.1086
 5823TIP3    H117475   1.167   6.035   2.256 -0.7217 -1.1652  0.1740
 5823TIP3    H217476   1.180   5.902   2.186 -1.2920  0.0156 -2.3037
 5824TIP3   OH217477   2.592   2.455   4.562  0.5800  0.5995 -0.5952
 5824TIP3    H117478   2.543   2.417   4.635  1.5966 -0.5526 -0.4894
 5824TIP3    H217479   2.576   2.549   4.570 -0.8311  0.3444 -0.0103
 5825TIP3   OH217480   0.346   4.674   2.145  0.0873 -0.0746 -0.7741
 5825TIP3    H117481   0.297   4.755   2.164 -1.6724 -1.3461  0.4076
 5825TIP3    H217482   0.397   4.658   2.224 -0.6384 -0.8196 -0.4380
 5826TIP3   OH217483   1.497   1.204   1.005  0.0880  0.1730 -0.0175
 5826TIP3    H117484   1.493   1.282   1.059 -0.8913  0.8778 -1.0672
 5826TIP3    H217485   1.531   1.235   0.920 -0.4313 -0.4996 -0.4830
 5827TIP3   OH217486   4.474   3.863   2.880 -0.0197  0.0894 -0.5260
 5827TIP3    H117487   4.562   3.834   2.854  0.2615 -1.4500  1.8419
 5827TIP3    H217488   4.488   3.909   2.963 -1.6095 -2.4315  1.2873
 5828TIP3   OH217489   4.047   1.055   0.087 -0.6219 -0.7675 -0.1748
 5828TIP3    H117490   4.113   1.077   0.021  0.9971 -2.8903  0.6215
 5828TIP3    H217491   3.967   1.039   0.036  0.1667 -0.7685 -1.4707
 5829TIP3   OH217492   5.264   4.916   3.005 -0.1408  0.4324  0.1859
 5829TIP3    H117493   5.186   4.971   2.999  0.5108  1.2654 -1.1470
 5829TIP3    H217494   5.244   4.854   3.075 -2.2716  0.1885 -0.5563
 5830TIP3   OH217495   0.839   2.687   4.592  0.3450  0.7692  0.2862
 5830TIP3    H117496   0.862   2.728   4.509  1.4707 -1.6084 -0.6376
 5830TIP3    H217497   0.909   2.714   4.652  0.1071  1.6180  0.1934
 5831TIP3   OH217498   2.587   4.174   4.183  0.1607 -0.3452  0.1356
 5831TIP3    H117499   2.539   4.152   4.103  0.9387 -1.1570 -0.1247
 5831TIP3    H217500   2.645   4.245   4.157  0.2635 -0.4687  0.0197
 5832TIP3   OH217501   2.554   2.907   0.518  0.2288  0.1018  0.6606
 5832TIP3    H117502   2.619   2.953   0.465  0.3590 -1.8993 -1.0483
 5832TIP3    H217503   2.606   2.847   0.572 -0.1191 -0.5069  0.3223
 5833TIP3   OH217504   5.794   3.510   2.876  0.1037  0.2658 -0.1611
 5833TIP3    H117505   5.786   3.594   2.830  3.0895  0.1180 -1.1319
 5833TIP3    H217506   5.703   3.482   2.890 -0.9686  2.3003 -2.3375
 5834TIP3   OH217507   0.286   1.218   0.313  0.1926  0.3957 -0.1750
 5834TIP3    H117508   0.242   1.294   0.276 -0.1359  0.0763 -0.4392
 5834TIP3    H217509   0.367   1.210   0.262  0.6821  1.1157  0.4564
 5835TIP3   OH217510   2.055   5.328   4.144 -0.0513  0.3864  0.2813
 5835TIP3    H117511   2.076   5.339   4.052 -0.8275  0.0991  0.0619
 5835TIP3    H217512   1.967   5.289   4.145  0.1561 -0.1103  1.1243
 5836TIP3   OH217513   3.641   3.762   0.620 -0.1745 -0.0677  0.3968
 5836TIP3    H117514   3.611   3.770   0.711  0.0787  0.9544  0.4049
 5836TIP3    H217515   3.730   3.796   0.622  0.5253 -1.7736  0.1079
 5837TIP3   OH217516   5.262   0.088   0.034 -0.2811 -0.0159 -0.6690
 5837TIP3    H117517   5.184   0.068  -0.018  0.0194 -0.6621 -0.8917
 5837TIP3    H217518   5.314   0.008   0.030 -1.4012 -1.1063  2.7925
 5838TIP3   OH217519   0.595   4.654   4.202 -0.6544 -0.3117 -0.1152
 5838TIP3    H117520   0.566   4.593   4.135  0.0518 -0.8343  0.0444
 5838TIP3    H217521   0.684   4.626   4.224 -0.7112  0.1223  0.7211
 5839TIP3   OH217522   4.429   5.164   4.032  0.2233  0.0659  0.0298
 5839TIP3    H117523   4.441   5.216   3.952 -2.2610 -0.3363 -0.6934
 5839TIP3    H217524   4.503   5.105   4.033  0.9598  0.8895 -1.3358
 5840TIP3   OH217525   1.770   3.702   3.164 -0.4769  0.2810  0.0982
 5840TIP3    H117526   1.753   3.620   3.212  1.4914 -0.2549 -0.0635
 5840TIP3    H217527   1.693   3.756   3.183 -2.0005 -1.6962 -0.0426
 5841TIP3   OH217528   3.330   4.878   0.103 -0.2204 -0.0828  0.2966
 5841TIP3    H117529   3.370   4.858   0.188 -3.2968 -0.0176  1.8755
 5841TIP3    H217530   3.311   4.971   0.106  0.0139  0.0052 -0.6547
 5842TIP3   OH217531   3.802   1.970   3.379 -0.4638 -0.1403  0.3061
 5842TIP3    H117532   3.804   1.874   3.376 -0.9789 -0.1263 -1.0395
 5842TIP3    H217533   3.743   1.995   3.308  1.8578  1.2348 -1.2745
 5843TIP3   OH217534   4.332   0.094   4.826  0.1054  0.2490  0.1436
 5843TIP3    H117535   4.349   0.146   4.905 -0.2954  0.7205 -0.0765
 5843TIP3    H217536   4.267   0.144   4.778 -0.1951 -0.4035 -0.1364
 5844TIP3   OH217537   2.771   2.695   4.504  0.4297  0.4085  0.6829
 5844TIP3    H117538   2.753   2.736   4.588 -0.6364  0.4035  0.4719
 5844TIP3    H217539   2.856   2.651   4.516  0.7144  1.1453  1.4644
 5845TIP3   OH217540   4.201   4.364   1.611  0.3525 -0.0723  0.2175
 5845TIP3    H117541   4.220   4.427   1.681  1.3032  1.3382 -1.2301
 5845TIP3    H217542   4.149   4.296   1.653  0.1550  1.1653  2.0903
 5846TIP3   OH217543   0.848   1.033   0.348 -0.5076 -0.0263  0.5448
 5846TIP3    H117544   0.896   1.000   0.424  0.9749 -1.3290 -0.8816
 5846TIP3    H217545   0.761   0.992   0.354  0.4916 -2.3808  0.1368
 5847TIP3   OH217546   1.105   0.707   1.175  0.2467  0.1072 -0.3645
 5847TIP3    H117547   1.104   0.649   1.251 -0.8195  0.0289 -0.4214
 5847TIP3    H217548   1.122   0.794   1.212 -0.5537  0.1140  0.0119
 5848TIP3   OH217549   1.530   4.875   3.432  0.0096 -0.4280 -0.4369
 5848TIP3    H117550   1.507   4.792   3.473 -1.7060  0.2181  0.0273
 5848TIP3    H217551   1.446   4.913   3.406  0.6640  1.5589  0.1547
 5849TIP3   OH217552   6.270   0.996   3.029  0.2163  0.5761  0.2012
 5849TIP3    H117553   6.298   0.991   3.120 -0.8917  0.4528  0.5472
 5849TIP3    H217554   6.207   1.068   3.027 -0.7654 -0.2557 -0.1757
 5850TIP3   OH217555   5.087   3.703   2.773 -0.1314  0.1987 -0.2552
 5850TIP3    H117556   5.103   3.609   2.763 -1.4384  0.0069 -0.7004
 5850TIP3    H217557   5.151   3.744   2.715 -0.1206 -0.4516 -0.7162
 5851TIP3   OH217558   2.276   4.231   1.025  0.8162  0.4027 -0.4528
 5851TIP3    H117559   2.263   4.317   0.987  1.5685 -0.1028 -1.9113
 5851TIP3    H217560   2.241   4.170   0.960 -0.7166 -0.3706  1.0251
 5852TIP3   OH217561   2.571   2.730   2.047  0.2745 -0.1979 -0.2558
 5852TIP3    H117562   2.484   2.751   2.083  0.4986 -0.3166  0.3652
 5852TIP3    H217563   2.557   2.648   1.999 -0.3535  0.7208 -1.7382
 5853TIP3   OH217564   2.799   5.665   3.157 -0.3646 -0.1048  0.2236
 5853TIP3    H117565   2.731   5.604   3.183 -0.6564 -1.0150 -2.4184
 5853TIP3    H217566   2.799   5.663   3.062  3.1089  0.1402  0.0762
 5854TIP3   OH217567   3.720   4.264   3.118  0.4046  0.1971  0.2571
 5854TIP3    H117568   3.634   4.303   3.101  0.2991 -0.1053  0.0875
 5854TIP3    H217569   3.744   4.298   3.205 -0.9335 -1.5299  1.3750
 5855TIP3   OH217570   5.585   3.265   1.856 -1.0222 -0.4904  0.0661
 5855TIP3    H117571   5.507   3.306   1.892 -1.7762 -1.5701 -0.2864
 5855TIP3    H217572   5.553   3.209   1.785  0.3133  0.7886 -1.6561
 5856TIP3   OH217573   2.116   3.286   0.422 -0.1513  0.3127 -0.0206
 5856TIP3    H117574   2.099   3.204   0.469 -2.7938  1.5287  1.3401
 5856TIP3    H217575   2.188   3.326   0.471  1.3256 -1.2121 -0.8276
 5857TIP3   OH217576   6.095   1.496   4.083 -0.6855  0.0439 -0.1662
 5857TIP3    H117577   6.076   1.403   4.066  0.5714 -0.3236  0.3671
 5857TIP3    H217578   6.163   1.495   4.150 -1.6606  1.3903  0.8855
 5858TIP3   OH217579   5.505   2.163   1.955  0.4203 -0.2305 -0.0300
 5858TIP3    H117580   5.532   2.124   1.871  0.3161 -0.2017 -0.0772
 5858TIP3    H217581   5.587   2.179   2.001  0.4788 -0.2436 -0.1283
 5859TIP3   OH217582   6.190   1.033   3.918 -0.2557 -0.3444  0.5814
 5859TIP3    H117583   6.165   0.997   3.832  0.4072  1.8681 -0.6065
 5859TIP3    H217584   6.231   0.959   3.963 -0.3529 -1.5009 -1.1065
 5860TIP3   OH217585   0.291   3.185   0.937  0.1420 -0.3902  0.3052
 5860TIP3    H117586   0.265   3.231   0.857  0.7694  0.5793  0.6440
 5860TIP3    H217587   0.248   3.099   0.930  0.1946 -0.3315 -1.0757
 5861TIP3   OH217588   1.671   4.021   1.536 -0.0568  0.3807  0.2248
 5861TIP3    H117589   1.746   3.960   1.530 -0.5255 -0.0983 -1.1836
 5861TIP3    H217590   1.659   4.035   1.630  1.7542  0.4090  0.4888
 5862TIP3   OH217591   0.516   0.548   4.704  0.0870 -0.1381  0.2982
 5862TIP3    H117592   0.544   0.509   4.622 -1.0092 -1.1482  0.3792
 5862TIP3    H217593   0.501   0.641   4.683  1.4751 -0.0080 -0.2002
 5863TIP3   OH217594   1.424   4.166   3.737 -0.4668 -0.1465 -0.5897
 5863TIP3    H117595   1.332   4.140   3.725 -0.5216 -0.1221 -0.2385
 5863TIP3    H217596   1.461   4.097   3.793 -0.5442  0.3818  0.1350
 5864TIP3   OH217597   0.684   3.862   0.764  0.4256  0.2095 -0.1423
 5864TIP3    H117598   0.719   3.849   0.676  2.2915 -0.6200  0.6888
 5864TIP3    H217599   0.748   3.917   0.808 -0.3726  0.4302  0.7854
 5865TIP3   OH217600   1.312   3.995   1.044 -0.0697 -0.2188 -0.0293
 5865TIP3    H117601   1.261   3.954   0.974  0.2872 -0.9647  0.1344
 5865TIP3    H217602   1.246   4.022   1.109 -0.6380  2.4034 -1.5356
 5866TIP3   OH217603   2.937   4.810   1.961 -0.7073 -0.0279  0.0341
 5866TIP3    H117604   2.958   4.884   2.017 -1.2860  0.3475 -0.2389
 5866TIP3    H217605   2.842   4.803   1.964 -0.5982 -1.5895  1.1108
 5867TIP3   OH217606   0.811   0.675   4.127 -0.3777 -0.4505  0.0632
 5867TIP3    H117607   0.805   0.586   4.092  0.8948 -0.0926 -1.1577
 5867TIP3    H217608   0.905   0.688   4.141 -0.4760  0.9472 -0.4552
 5868TIP3   OH217609   2.099   4.414   4.239  0.5667 -0.4338  0.1245
 5868TIP3    H117610   2.190   4.395   4.220  0.7010  1.3379 -1.2839
 5868TIP3    H217611   2.080   4.494   4.190 -1.9683 -1.1892 -0.3024
 5869TIP3   OH217612   2.880   0.555   2.661 -0.2134  0.3503 -0.5007
 5869TIP3    H117613   2.877   0.599   2.576  0.2753  0.4939 -0.4422
 5869TIP3    H217614   2.954   0.495   2.655 -0.5883 -0.1315 -0.4119
 5870TIP3   OH217615   0.920   2.061   3.401 -0.1971  0.6544  0.6021
 5870TIP3    H117616   0.947   2.111   3.325  0.0021  0.0032  0.2342
 5870TIP3    H217617   0.949   2.113   3.476 -0.9081  1.5801  0.2541
 5871TIP3   OH217618   0.662   0.551   0.638  0.8745 -0.4164 -0.3937
 5871TIP3    H117619   0.637   0.535   0.729 -0.7738 -0.5578 -0.8423
 5871TIP3    H217620   0.755   0.575   0.642  0.4925  0.9435  1.4738
 5872TIP3   OH217621   5.171   1.919   4.043  1.0199 -0.2120  0.0804
 5872TIP3    H117622   5.178   1.974   4.120 -0.9680  0.1915  0.0156
 5872TIP3    H217623   5.213   1.836   4.069 -0.3952 -0.4065  1.9184
 5873TIP3   OH217624   5.659   2.305   2.465 -0.1679  0.1991  0.4421
 5873TIP3    H117625   5.683   2.343   2.380 -0.5068 -0.6280 -0.0310
 5873TIP3    H217626   5.660   2.210   2.450  1.1315 -0.0219  1.7196
 5874TIP3   OH217627   1.161   2.048   0.517 -0.7867  0.0677 -0.2004
 5874TIP3    H117628   1.183   1.957   0.497  0.9212  0.4871 -0.3785
 5874TIP3    H217629   1.141   2.087   0.432  2.7392  0.8848 -0.8212
 5875TIP3   OH217630   3.846   5.598   3.232  0.3183  0.2151  0.0272
 5875TIP3    H117631   3.759   5.633   3.252  0.4066  1.3223 -1.3859
 5875TIP3    H217632   3.831   5.535   3.161  0.4027 -1.3030  1.3138
 5876TIP3   OH217633   1.776   0.917   0.041  0.6091 -0.5184 -0.0401
 5876TIP3    H117634   1.742   0.923  -0.048  1.1435  1.2357 -0.1689
 5876TIP3    H217635   1.699   0.922   0.097  0.4315  1.0754 -0.3792
 5877TIP3   OH217636   1.011   3.399   0.011 -0.4274  0.2239 -0.1454
 5877TIP3    H117637   0.976   3.468  -0.046  0.7220  1.3032  0.4228
 5877TIP3    H217638   1.085   3.440   0.055 -0.1131 -1.1988  0.6818
 5878TIP3   OH217639   3.123   4.359   2.848  0.0208 -0.1445 -0.1968
 5878TIP3    H117640   3.164   4.318   2.924 -0.0307 -0.7423 -0.4872
 5878TIP3    H217641   3.133   4.295   2.778 -0.6189  0.0835 -0.4987
 5879TIP3   OH217642   2.698   1.080   0.785  0.3102 -0.2151 -0.6569
 5879TIP3    H117643   2.793   1.076   0.774  0.3073  1.5306 -1.5684
 5879TIP3    H217644   2.671   1.160   0.739 -1.7388 -1.2227 -1.3289
 5880TIP3   OH217645   2.932   1.170   4.302 -0.0314 -0.2387 -0.3622
 5880TIP3    H117646   2.950   1.078   4.284  0.6491  0.1969 -2.1435
 5880TIP3    H217647   2.967   1.185   4.390  0.3695 -1.5240 -0.2868
 5881TIP3   OH217648   5.110   3.297   1.625  0.1084 -0.1477 -0.2068
 5881TIP3    H117649   5.097   3.391   1.617 -0.6224 -0.2325 -0.0579
 5881TIP3    H217650   5.043   3.268   1.687  0.5307 -0.7190 -0.0051
 5882TIP3   OH217651   3.380   4.987   4.622  0.0814 -0.1435 -0.6038
 5882TIP3    H117652   3.430   4.932   4.562 -0.4304 -0.1607 -1.0249
 5882TIP3    H217653   3.427   5.071   4.623  1.1664 -0.7327  0.4528
 5883TIP3   OH217654   3.284   2.415   1.490  0.3417 -0.3029 -0.1516
 5883TIP3    H117655   3.203   2.452   1.524  0.4936  1.1528 -1.2621
 5883TIP3    H217656   3.327   2.376   1.566 -1.5531 -1.4445  0.3822
 5884TIP3   OH217657   1.749   3.610   0.618  0.0788 -0.6745 -0.8180
 5884TIP3    H117658   1.788   3.696   0.602  0.1402 -0.6011 -0.3023
 5884TIP3    H217659   1.776   3.557   0.543  0.0548 -0.2486 -1.1292
 5885TIP3   OH217660   3.717   2.514   1.057  0.2209  0.4298  0.6524
 5885TIP3    H117661   3.648   2.484   1.116  0.4260 -0.9852  0.2242
 5885TIP3    H217662   3.757   2.588   1.101 -2.0343  1.7722  0.5800
 5886TIP3   OH217663   3.895   0.493   3.659  0.0002  0.0779 -0.1583
 5886TIP3    H117664   3.969   0.525   3.607  0.8776  0.9534  1.5253
 5886TIP3    H217665   3.901   0.398   3.652  0.3625  0.1619 -1.2667
 5887TIP3   OH217666   3.562   5.610   1.595  0.8945 -0.2946  0.4301
 5887TIP3    H117667   3.569   5.521   1.629  0.1953  0.2380  2.1204
 5887TIP3    H217668   3.472   5.617   1.564  2.0962 -1.5089 -4.0591
 5888TIP3   OH217669   0.270   4.825   4.331  0.2700  0.6293  0.1942
 5888TIP3    H117670   0.331   4.858   4.265 -0.4127 -1.9789 -1.9607
 5888TIP3    H217671   0.317   4.753   4.372 -0.8604 -0.6908 -0.7160
 5889TIP3   OH217672   1.456   1.090   4.403 -0.1689 -0.8855 -0.2539
 5889TIP3    H117673   1.538   1.085   4.355  0.8490  1.3422  1.0432
 5889TIP3    H217674   1.388   1.092   4.336  1.1713  1.9089 -1.7051
 5890TIP3   OH217675   4.805   0.066   3.687 -0.1226 -0.0543  0.4090
 5890TIP3    H117676   4.840   0.110   3.764  0.2613 -2.1580  1.5055
 5890TIP3    H217677   4.881   0.051   3.631  0.1360 -1.2502  1.0552
 5891TIP3   OH217678   3.909   4.005   0.364 -0.3265  0.0177  0.0107
 5891TIP3    H117679   3.887   4.093   0.395 -0.7308  0.3505 -1.1470
 5891TIP3    H217680   3.897   4.010   0.269 -0.2744 -1.2716 -0.0808
 5892TIP3   OH217681   2.500   3.461   4.910  0.2005 -0.3308 -0.0385
 5892TIP3    H117682   2.513   3.376   4.868  3.6365  0.0124  0.0631
 5892TIP3    H217683   2.560   3.460   4.984 -0.0430  2.0147  0.2421
 5893TIP3   OH217684   3.370   2.364   0.369  0.1508 -0.1801  0.5418
 5893TIP3    H117685   3.292   2.378   0.316  0.7712 -0.7952 -0.5665
 5893TIP3    H217686   3.439   2.342   0.306  1.5097  1.3900  1.3799
 5894TIP3   OH217687   1.558   0.569   4.100 -0.2777  0.4306 -0.3429
 5894TIP3    H117688   1.571   0.519   4.180 -1.3962 -0.2460 -0.5626
 5894TIP3    H217689   1.543   0.503   4.032 -2.5923  1.0259 -0.4933
 5895TIP3   OH217690   3.216   2.676   1.101 -0.3202 -0.2197 -0.2160
 5895TIP3    H117691   3.154   2.603   1.098 -1.1326  0.4921 -2.5649
 5895TIP3    H217692   3.293   2.645   1.055 -0.2916  0.0869 -0.3773
 5896TIP3   OH217693   5.735   5.179   0.398 -0.1550 -0.3109 -0.2179
 5896TIP3    H117694   5.648   5.194   0.362  0.4734 -0.4120 -1.9030
 5896TIP3    H217695   5.724   5.186   0.493 -2.1478 -1.1893 -0.3338
 5897TIP3   OH217696   4.672   2.986   5.043 -0.0430 -0.0548  0.2391
 5897TIP3    H117697   4.742   3.011   5.104 -0.8759  0.6775  0.9346
 5897TIP3    H217698   4.658   3.064   4.990 -1.7906  0.6044  1.5618
 5898TIP3   OH217699   5.485   4.943   4.221 -0.3894  0.3268  0.4452
 5898TIP3    H117700   5.523   5.027   4.194  1.0007 -0.2554  0.4833
 5898TIP3    H217701   5.433   4.963   4.298 -0.7249  1.2750 -0.0104
 5899TIP3   OH217702   5.674   3.080   3.259  0.0609 -0.3461  0.0497
 5899TIP3    H117703   5.671   3.044   3.348  0.6909  0.2938  0.3398
 5899TIP3    H217704   5.753   3.133   3.258 -0.1173 -0.0926 -0.8019
 5900TIP3   OH217705   4.669   2.680   0.196 -0.9009  0.0031 -0.4684
 5900TIP3    H117706   4.688   2.746   0.130  1.6942 -0.1538  0.0184
 5900TIP3    H217707   4.743   2.620   0.192 -1.4434 -0.8951  1.5271
 5901TIP3   OH217708   6.290   3.398   0.975  0.4684 -0.2752 -0.3447
 5901TIP3    H117709   6.353   3.470   0.967  0.9752 -0.7970 -1.1975
 5901TIP3    H217710   6.254   3.408   1.063  1.0470  0.6012 -0.1896
 5902TIP3   OH217711   5.638   5.753   2.025 -0.1082  0.1522  0.2206
 5902TIP3    H117712   5.664   5.841   2.051  1.1567 -0.1184 -0.0844
 5902TIP3    H217713   5.570   5.728   2.088  0.1742  0.9831  0.8584
 5903TIP3   OH217714   5.560   5.614   5.130 -0.7451 -0.5139  0.3772
 5903TIP3    H117715   5.552   5.519   5.141  1.6436 -0.7769  0.3286
 5903TIP3    H217716   5.569   5.647   5.220  0.3283 -0.5796  0.3082
 5904TIP3   OH217717   3.122   1.424   3.102  0.2465  0.3314 -0.1802
 5904TIP3    H117718   3.044   1.439   3.156  1.1383  0.7740  1.0321
 5904TIP3    H217719   3.177   1.501   3.117  0.5475  0.4327 -1.7092
 5905TIP3   OH217720   5.454   4.033   0.586  0.2738 -0.0323 -0.8636
 5905TIP3    H117721   5.427   4.050   0.496 -0.2874  0.7857 -0.5493
 5905TIP3    H217722   5.501   4.112   0.612 -2.5311  1.2715  0.6844
 5906TIP3   OH217723   0.858   5.198   3.412  0.1435  0.0746 -0.3555
 5906TIP3    H117724   0.946   5.220   3.442  0.0343 -0.9708  0.8598
 5906TIP3    H217725   0.840   5.259   3.341  1.0575  1.6517  0.7031
 5907TIP3   OH217726   6.243   4.118   1.154  0.7438 -0.2154 -0.2357
 5907TIP3    H117727   6.259   4.162   1.070 -0.0109 -0.4355 -0.5019
 5907TIP3    H217728   6.275   4.180   1.220  2.5106 -0.5724 -0.7210
 5908TIP3   OH217729   3.112   5.643   1.750  0.2593  0.6702  0.0269
 5908TIP3    H117730   3.186   5.691   1.711  0.1645  0.7769 -0.0205
 5908TIP3    H217731   3.088   5.579   1.684  1.0956 -0.1791  0.5244
 5909TIP3   OH217732   2.533   4.670   3.144 -0.7331 -0.0758 -0.1120
 5909TIP3    H117733   2.568   4.597   3.092 -1.7500 -1.1296  0.6138
 5909TIP3    H217734   2.438   4.666   3.128 -0.7804  1.2349 -0.2224
 5910TIP3   OH217735   2.540   5.830   1.299  0.2355  0.0142 -0.0022
 5910TIP3    H117736   2.619   5.881   1.283  0.1815  0.2652  0.5185
 5910TIP3    H217737   2.552   5.793   1.386  0.0026 -0.3660 -0.1270
 5911TIP3   OH217738   3.662   3.764   4.138 -0.3022 -0.1262  0.1027
 5911TIP3    H117739   3.750   3.794   4.160 -0.0722 -1.7636  1.5886
 5911TIP3    H217740   3.605   3.807   4.202 -0.4723  0.1749 -0.2470
 5912TIP3   OH217741   2.391   0.210   4.087  0.2816 -0.1036  0.1055
 5912TIP3    H117742   2.446   0.254   4.022 -0.1066 -1.3108 -1.1043
 5912TIP3    H217743   2.322   0.274   4.106 -0.2908 -0.1309 -1.6258
 5913TIP3   OH217744   5.769   3.645   0.784 -0.7055  0.9847 -0.5314
 5913TIP3    H117745   5.765   3.554   0.755 -2.0718  0.4362  1.2054
 5913TIP3    H217746   5.678   3.675   0.783 -0.5214  1.6917  0.7693
 5914TIP3   OH217747   0.128   5.308   5.054  0.2605 -0.2536  0.1511
 5914TIP3    H117748   0.144   5.301   4.960 -2.2529  1.1678 -0.4838
 5914TIP3    H217749   0.035   5.286   5.064 -0.1403  1.8577  1.9267
 5915TIP3   OH217750   1.393   3.187   4.746 -0.3957 -0.4522 -0.3931
 5915TIP3    H117751   1.392   3.169   4.652  0.9283  0.3792 -0.5952
 5915TIP3    H217752   1.450   3.264   4.755  1.0995 -1.6680  1.2749
 5916TIP3   OH217753   1.279   1.062   4.201 -0.2987  0.3174  0.1043
 5916TIP3    H117754   1.184   1.057   4.213 -0.3998 -0.1566 -0.7497
 5916TIP3    H217755   1.304   0.973   4.175  0.0685  0.8874 -1.6525
 5917TIP3   OH217756   2.943   1.937   3.379 -0.6169  0.6343 -0.2199
 5917TIP3    H117757   2.922   1.888   3.459  0.5606  1.4089  0.5939
 5917TIP3    H217758   3.039   1.940   3.377 -0.6057  3.4361  0.1294
 5918TIP3   OH217759   1.832   1.300   0.936  0.2807  0.2542 -0.2560
 5918TIP3    H117760   1.776   1.375   0.917 -0.3764  0.1272  1.0454
 5918TIP3    H217761   1.840   1.254   0.852 -0.7364  0.8385 -0.6970
 5919TIP3   OH217762   3.057   5.451   4.656  0.5630  0.5074 -0.1806
 5919TIP3    H117763   3.024   5.412   4.737 -1.4993  2.5952  0.0598
 5919TIP3    H217764   3.151   5.464   4.673  0.4967 -0.5537  1.2196
 5920TIP3   OH217765   6.066   0.096   2.133  0.4031  0.1933  0.3996
 5920TIP3    H117766   6.090   0.020   2.081 -0.7023 -0.1112  0.3029
 5920TIP3    H217767   6.048   0.164   2.069 -1.9886 -0.4802  0.2580
 5921TIP3   OH217768   3.039   2.474   3.868  0.3819 -0.1533  0.0253
 5921TIP3    H117769   2.945   2.484   3.855  0.6089  0.4812 -1.3498
 5921TIP3    H217770   3.074   2.563   3.861  1.0825 -0.3807  0.5060
 5922TIP3   OH217771   2.116   0.334   1.395 -0.4563  0.5143 -0.2068
 5922TIP3    H117772   2.031   0.350   1.355 -0.5365 -0.3755 -0.4172
 5922TIP3    H217773   2.103   0.356   1.487 -0.5163  1.7255 -0.4906
 5923TIP3   OH217774   1.207   1.945   3.133  0.0956 -0.1091 -0.5150
 5923TIP3    H117775   1.227   1.869   3.078 -0.5617 -0.0949 -0.7905
 5923TIP3    H217776   1.267   2.013   3.104 -1.3063  0.4177 -2.3792
 5924TIP3   OH217777   4.915   1.835   0.127  0.2577 -0.5845  0.0689
 5924TIP3    H117778   4.890   1.758   0.076 -0.2239  0.4987 -1.4281
 5924TIP3    H217779   4.892   1.909   0.070 -0.1658  0.6957  1.8202
 5925TIP3   OH217780   3.768   1.220   3.135 -0.3096  0.6820  0.6355
 5925TIP3    H117781   3.836   1.273   3.176 -1.0812  1.8429  0.4550
 5925TIP3    H217782   3.697   1.281   3.117 -0.7723 -0.1906 -0.6522
 5926TIP3   OH217783   2.803   1.797   4.174  0.2847 -0.5817  0.5798
 5926TIP3    H117784   2.758   1.714   4.192 -0.3145 -0.2961  0.4175
 5926TIP3    H217785   2.895   1.772   4.161  0.2187 -1.1465  1.1285
 5927TIP3   OH217786   2.974   1.783   2.848 -0.0183 -0.4673  0.6090
 5927TIP3    H117787   2.904   1.780   2.913  0.5644 -2.2024  1.2145
 5927TIP3    H217788   2.959   1.706   2.794 -0.4916  0.9520 -1.3691
 5928TIP3   OH217789   3.075   5.133   3.143 -0.2792 -0.0827 -0.5432
 5928TIP3    H117790   2.987   5.105   3.115  0.5195 -1.1924 -2.0787
 5928TIP3    H217791   3.064   5.226   3.165 -1.5502  0.1913 -2.1308
 5929TIP3   OH217792   4.862   1.345   5.192 -0.3958 -0.0038  0.1612
 5929TIP3    H117793   4.931   1.376   5.133  0.3128  1.1243  1.5127
 5929TIP3    H217794   4.784   1.340   5.136  0.4006  0.3344 -1.0285
 5930TIP3   OH217795   5.440   0.980   4.435  0.3445  0.0709 -0.3645
 5930TIP3    H117796   5.393   0.965   4.352 -1.0544 -0.2078  0.4458
 5930TIP3    H217797   5.456   1.074   4.436 -3.4197  0.8706  0.8860
 5931TIP3   OH217798   5.650   0.418   1.064 -0.1669 -0.1265 -0.1797
 5931TIP3    H117799   5.664   0.512   1.055 -0.0771  0.1736  2.4360
 5931TIP3    H217800   5.737   0.379   1.054  0.2555  0.3518  1.4771
 5932TIP3   OH217801   5.259   5.557   4.351  0.3469 -0.0271  0.6365
 5932TIP3    H117802   5.205   5.636   4.360  0.6153  0.1778  0.4739
 5932TIP3    H217803   5.340   5.579   4.398 -0.1826 -0.7803  1.9430
 5933TIP3   OH217804   4.590   0.695   2.131 -0.0528 -0.2752 -0.3186
 5933TIP3    H117805   4.583   0.600   2.138  0.2824 -0.3359 -0.7406
 5933TIP3    H217806   4.500   0.724   2.115 -0.1129 -0.5515 -0.4918
 5934TIP3   OH217807   2.264   4.674   3.097 -0.4126  0.1099 -0.3145
 5934TIP3    H117808   2.176   4.674   3.134 -0.6909 -1.1547 -0.8944
 5934TIP3    H217809   2.250   4.676   3.002  0.1483 -0.7832 -0.4299
 5935TIP3   OH217810   1.514   0.830   2.321  0.3070 -0.5586  0.0205
 5935TIP3    H117811   1.564   0.832   2.240 -2.4849 -0.2485 -1.8241
 5935TIP3    H217812   1.483   0.920   2.333 -0.1642 -0.8154  0.8486
 5936TIP3   OH217813   2.092   5.408   3.414  0.3861  0.1589  0.3154
 5936TIP3    H117814   2.097   5.313   3.421  0.1526  0.1766  0.7578
 5936TIP3    H217815   2.158   5.440   3.476  1.5083  0.2739 -0.9021
 5937TIP3   OH217816   4.596   2.576   0.565  0.2718  0.9992 -0.5674
 5937TIP3    H117817   4.529   2.538   0.509  0.9643 -0.7375 -0.2822
 5937TIP3    H217818   4.548   2.614   0.638 -0.4327  0.1460 -0.5701
 5938TIP3   OH217819   1.761   5.980   2.284 -0.1998 -0.6738 -0.0707
 5938TIP3    H117820   1.826   5.993   2.215 -1.5240 -2.1031 -1.6509
 5938TIP3    H217821   1.769   5.888   2.307 -3.6256 -1.7668 -2.5040
 5939TIP3   OH217822   4.720   3.480   0.309 -0.3554  0.0607  0.5140
 5939TIP3    H117823   4.634   3.440   0.323 -1.2350  1.5881 -0.3012
 5939TIP3    H217824   4.740   3.521   0.393 -0.7355  0.2673  0.5078
 5940TIP3   OH217825   2.269   5.281   0.821  0.1167  0.1869 -0.5436
 5940TIP3    H117826   2.252   5.359   0.874 -0.6102 -0.4605  0.1973
 5940TIP3    H217827   2.357   5.294   0.787 -0.3595  1.8220 -1.2766
 5941TIP3   OH217828   2.798   1.416   2.969 -0.2587 -0.1325  0.6320
 5941TIP3    H117829   2.733   1.360   3.011 -1.2689 -1.2890 -2.2551
 5941TIP3    H217830   2.855   1.356   2.921  1.7602  1.0153  1.4341
 5942TIP3   OH217831   5.479   2.573   4.684  0.3002 -0.3909 -0.2078
 5942TIP3    H117832   5.492   2.484   4.718  0.2206 -0.7462 -1.0991
 5942TIP3    H217833   5.564   2.597   4.646  0.3338 -0.0623  0.0637
 5943TIP3   OH217834   3.474   1.464   1.415 -0.4099 -0.5087 -0.5349
 5943TIP3    H117835   3.551   1.492   1.464  0.4305 -1.3586 -1.3537
 5943TIP3    H217836   3.489   1.495   1.326 -1.8836  0.9326 -0.3365
 5944TIP3   OH217837   2.965   1.555   0.476 -0.0809  0.0639 -0.2435
 5944TIP3    H117838   3.049   1.587   0.443 -0.1748  0.4711 -0.0928
 5944TIP3    H217839   2.969   1.569   0.570  0.1676 -1.0629 -0.0772
 5945TIP3   OH217840   6.057   4.863   1.436 -0.1765 -0.1303  0.3717
 5945TIP3    H117841   6.090   4.931   1.378  1.5722 -0.4863  0.8843
 5945TIP3    H217842   5.983   4.903   1.482  0.4206  1.1864  0.2030
 5946TIP3   OH217843   6.002   1.169   2.022  0.3245  0.2170  0.2560
 5946TIP3    H117844   6.065   1.152   2.092 -0.9363  1.3893  1.7463
 5946TIP3    H217845   5.937   1.099   2.030  0.4235  0.0848 -0.0654
 5947TIP3   OH217846   0.420   5.274   4.528 -0.1227  0.4686  0.0675
 5947TIP3    H117847   0.372   5.207   4.479 -0.7693 -1.2913  2.8122
 5947TIP3    H217848   0.358   5.347   4.536 -0.8267 -0.1116  0.0816
 5948TIP3   OH217849   1.104   2.916   4.437 -1.1153  0.0343 -0.4268
 5948TIP3    H117850   1.127   2.933   4.529 -0.6031 -3.2701  0.1855
 5948TIP3    H217851   1.181   2.944   4.388 -0.7041  0.2611  0.3255
 5949TIP3   OH217852   4.741   3.308   4.520 -0.1464 -0.3279  0.0368
 5949TIP3    H117853   4.809   3.337   4.582  0.7519  1.5440 -1.7223
 5949TIP3    H217854   4.775   3.227   4.483  0.6744  0.0658 -0.0931
 5950TIP3   OH217855   2.528   0.919   0.704  0.2056  0.1976  0.3606
 5950TIP3    H117856   2.604   0.973   0.726 -0.6415  1.7405 -0.3211
 5950TIP3    H217857   2.464   0.981   0.670 -0.6470 -1.3120 -0.9225
 5951TIP3   OH217858   3.412   2.747   0.186  0.4496  0.1820 -0.2270
 5951TIP3    H117859   3.371   2.744   0.273  1.7492 -1.4713  0.3913
 5951TIP3    H217860   3.502   2.772   0.203  0.7065 -0.1232 -1.1076
 5952TIP3   OH217861   5.400   0.885   3.334 -0.1941 -0.3978  0.4053
 5952TIP3    H117862   5.447   0.867   3.253  3.2795  1.7718  1.7270
 5952TIP3    H217863   5.348   0.963   3.315  3.3058  2.3070  0.9574
 5953TIP3   OH217864   1.974   2.202   3.188  0.4532  0.2498 -0.1932
 5953TIP3    H117865   1.889   2.224   3.227  0.4290 -0.1182 -0.0347
 5953TIP3    H217866   1.954   2.172   3.100  0.3122 -0.8507  0.2019
 5954TIP3   OH217867   5.982   3.239   4.723  0.6389  0.0389  0.1183
 5954TIP3    H117868   6.070   3.200   4.724  0.3849 -0.8398  4.2011
 5954TIP3    H217869   5.981   3.299   4.797 -2.3219 -0.2320  0.4074
 5955TIP3   OH217870   4.745   3.649   0.096 -0.1879 -0.1704 -0.6036
 5955TIP3    H117871   4.729   3.587   0.167 -2.2485 -1.3594 -1.9822
 5955TIP3    H217872   4.760   3.732   0.140  0.0467 -1.1309  1.2436
 5956TIP3   OH217873   2.014   2.117   1.953 -0.3748 -0.5400 -0.3855
 5956TIP3    H117874   1.980   2.107   2.042 -1.0469  0.8018 -0.4673
 5956TIP3    H217875   2.009   2.211   1.936  1.1242 -0.5897 -1.3138
 5957TIP3   OH217876   3.553   5.897   3.725  0.3681 -0.7590 -0.0582
 5957TIP3    H117877   3.565   5.807   3.754  2.4244 -0.4706  0.0773
 5957TIP3    H217878   3.588   5.899   3.636 -1.7695 -0.5696 -0.9701
 5958TIP3   OH217879   2.378   2.522   1.374  0.1213 -0.4955  0.9209
 5958TIP3    H117880   2.308   2.467   1.340  0.8857 -0.6637 -0.4588
 5958TIP3    H217881   2.356   2.535   1.467 -1.6931 -0.5504  0.5308
 5959TIP3   OH217882   5.973   2.666   2.248 -0.2244  0.0809  0.0522
 5959TIP3    H117883   5.969   2.740   2.188  0.7309 -0.8806 -1.2614
 5959TIP3    H217884   6.007   2.594   2.195 -1.3514 -1.3821  1.2128
 5960TIP3   OH217885   0.488   4.424   2.697  0.7598 -0.2203 -0.3593
 5960TIP3    H117886   0.495   4.361   2.769 -2.5604 -1.4834 -0.9517
 5960TIP3    H217887   0.413   4.479   2.721  0.3011  0.0600 -2.2952
 5961TIP3   OH217888   5.453   0.750   5.045 -0.4079 -0.2624  0.3046
 5961TIP3    H117889   5.434   0.728   4.954 -2.0172  0.5584  0.4163
 5961TIP3    H217890   5.368   0.755   5.088  0.2928 -0.2560  1.7806
 5962TIP3   OH217891   0.907   5.258   2.621  0.3698  0.9436 -0.2903
 5962TIP3    H117892   0.851   5.191   2.581  0.4349  0.0604  1.0356
 5962TIP3    H217893   0.990   5.251   2.574  0.3129  0.2146 -0.2940
 5963TIP3   OH217894   4.763   0.304   1.258  0.2179 -0.1316 -0.3081
 5963TIP3    H117895   4.801   0.392   1.259 -1.5350  0.6760  1.5528
 5963TIP3    H217896   4.772   0.273   1.348  0.1745 -1.6155 -0.7808
 5964TIP3   OH217897   2.984   0.311   1.210 -0.2298 -0.3689  0.5647
 5964TIP3    H117898   3.055   0.263   1.253  0.1480 -0.1145  0.2391
 5964TIP3    H217899   2.948   0.249   1.147  0.3628 -0.1869  0.0309
 5965TIP3   OH217900   2.643   0.951   4.240  0.2272 -0.1368  0.5094
 5965TIP3    H117901   2.569   0.904   4.278  0.0469 -1.4142 -1.2784
 5965TIP3    H217902   2.622   0.958   4.146  1.6446  0.8800  0.2287
 5966TIP3   OH217903   4.050   1.998   3.508 -0.7167  0.1677  0.6688
 5966TIP3    H117904   3.969   2.042   3.480 -0.7016 -1.0774 -1.5680
 5966TIP3    H217905   4.023   1.945   3.583 -0.7962  3.5480  3.3057
 5967TIP3   OH217906   3.159   0.624   0.807  0.1196  0.1282 -0.5958
 5967TIP3    H117907   3.072   0.646   0.840  0.6023  1.8965 -0.3894
 5967TIP3    H217908   3.144   0.597   0.716 -0.4429  2.7407 -1.3569
 5968TIP3   OH217909   1.912   4.428   1.067  0.0083  0.4014 -0.4709
 5968TIP3    H117910   1.920   4.453   1.159 -0.8987 -1.9425  0.3192
 5968TIP3    H217911   1.869   4.503   1.026  0.4106  1.4958  0.9880
 5969TIP3   OH217912   4.746   2.293   2.227  0.3511  0.6318  0.3899
 5969TIP3    H117913   4.828   2.258   2.262  2.6275  3.2865 -1.8008
 5969TIP3    H217914   4.739   2.255   2.139 -0.4672  0.8690  0.3450
 5970TIP3   OH217915   0.151   3.438   3.525  0.1953  0.1069 -0.5099
 5970TIP3    H117916   0.124   3.390   3.446 -1.7766  0.6427 -0.2130
 5970TIP3    H217917   0.137   3.530   3.502 -0.2847  0.2690  0.4134
 5971TIP3   OH217918   0.961   2.514   0.325 -0.0576 -0.3839 -0.1468
 5971TIP3    H117919   0.979   2.445   0.262 -1.0626 -0.3925 -0.4455
 5971TIP3    H217920   0.973   2.473   0.411 -2.2835 -1.4648 -0.2700
 5972TIP3   OH217921   3.221   3.522   0.563  0.1321 -0.3427  0.0891
 5972TIP3    H117922   3.276   3.465   0.509  1.0160  0.2373  0.3633
 5972TIP3    H217923   3.274   3.541   0.640  0.3489  1.8111 -0.5385
 5973TIP3   OH217924   3.533   0.443   3.194 -0.3409  0.5281  0.1515
 5973TIP3    H117925   3.481   0.434   3.114  1.5402 -0.7999 -1.0057
 5973TIP3    H217926   3.605   0.380   3.184 -0.5038 -0.3783  3.3095
 5974TIP3   OH217927   6.189   0.695   4.269  0.2137 -0.0149  0.2480
 5974TIP3    H117928   6.128   0.681   4.342  1.3081 -3.1088  0.7347
 5974TIP3    H217929   6.276   0.684   4.308  0.8492 -1.2501 -1.3822
 5975TIP3   OH217930   0.086   2.260   4.459 -0.0542  0.0571 -0.3828
 5975TIP3    H117931   0.020   2.303   4.514  1.1859  1.7768 -0.1826
 5975TIP3    H217932   0.080   2.304   4.375  0.3085 -0.3285 -0.6154
 5976TIP3   OH217933   1.263   3.050   2.272  0.1140  0.1887  0.4298
 5976TIP3    H117934   1.329   3.067   2.205  0.3210 -0.7911  0.3619
 5976TIP3    H217935   1.310   2.998   2.338 -0.5319 -0.3593  0.4690
 5977TIP3   OH217936   5.781   4.618   3.457  0.1280 -0.7095  0.1602
 5977TIP3    H117937   5.744   4.534   3.430 -1.0794 -0.5339  1.1870
 5977TIP3    H217938   5.865   4.623   3.412 -0.2851 -1.9595 -0.7925
 5978TIP3   OH217939   4.200   1.075   0.713  0.1432 -0.4562 -0.2851
 5978TIP3    H117940   4.133   1.094   0.646 -1.2041 -1.3355  0.7681
 5978TIP3    H217941   4.240   1.160   0.731 -0.8091  0.1260 -0.8220
 5979TIP3   OH217942   2.105   5.082   3.839 -0.0126  0.0984  0.3127
 5979TIP3    H117943   2.039   5.061   3.773 -0.2494  1.1679  0.1890
 5979TIP3    H217944   2.110   5.178   3.839  2.9073  0.0719 -1.0522
 5980TIP3   OH217945   1.499   4.891   4.740  0.0486 -0.2780 -0.2385
 5980TIP3    H117946   1.535   4.828   4.803 -0.1257  0.1782  0.3189
 5980TIP3    H217947   1.438   4.944   4.791 -0.6822 -0.4038 -0.9673
 5981TIP3   OH217948   0.476   5.768   1.343 -0.1853  0.1479 -0.1895
 5981TIP3    H117949   0.397   5.718   1.321 -0.0652  0.1939 -0.7386
 5981TIP3    H217950   0.446   5.859   1.345 -0.5968  0.0160  1.6642
 5982TIP3   OH217951   2.751   0.097   3.348 -0.3597  0.8909  0.0300
 5982TIP3    H117952   2.765   0.017   3.296 -1.2610  0.5015  0.3702
 5982TIP3    H217953   2.664   0.127   3.322 -0.3353  1.3451  0.4632
 5983TIP3   OH217954   0.200   2.403   3.106  0.1644  0.2937  0.3937
 5983TIP3    H117955   0.268   2.340   3.084  0.3232  0.6986 -0.3067
 5983TIP3    H217956   0.149   2.360   3.174 -0.4666 -1.1153 -0.9042
 5984TIP3   OH217957   3.770   2.692   4.646 -0.3249 -0.2321  0.4529
 5984TIP3    H117958   3.723   2.705   4.728  0.1954  0.3014  0.6728
 5984TIP3    H217959   3.724   2.748   4.583  0.7330  1.2399  0.9502
 5985TIP3   OH217960   5.212   2.177   2.931  0.0010 -0.2149  0.3406
 5985TIP3    H117961   5.236   2.196   2.840 -0.0576  0.1448  0.4012
 5985TIP3    H217962   5.249   2.090   2.948  2.7241  0.9800  0.9705
 5986TIP3   OH217963   0.840   2.405   3.370  0.4734  0.1327  0.8609
 5986TIP3    H117964   0.849   2.500   3.375  0.0235  0.5885 -3.0806
 5986TIP3    H217965   0.747   2.391   3.349  0.7254 -1.0602  0.4564
 5987TIP3   OH217966   4.599   2.652   4.022 -0.0831  1.0340  0.4670
 5987TIP3    H117967   4.579   2.559   4.012  3.3516  0.1157  0.9007
 5987TIP3    H217968   4.669   2.655   4.087 -1.8927  4.2335  2.5651
 5988TIP3   OH217969   3.512   0.214   3.937 -0.4220 -0.0336 -0.2099
 5988TIP3    H117970   3.433   0.210   3.991 -0.8383  0.4708 -0.7635
 5988TIP3    H217971   3.489   0.273   3.865  0.1208 -0.6902 -0.9374
 5989TIP3   OH217972   1.167   1.715   2.381  0.0390 -0.3434 -0.1870
 5989TIP3    H117973   1.217   1.779   2.330 -0.7689  0.1257 -0.4134
 5989TIP3    H217974   1.228   1.643   2.396  0.4910 -0.2024 -1.2727
 5990TIP3   OH217975   1.876   5.505   0.199 -0.1740  1.0448 -0.1811
 5990TIP3    H117976   1.915   5.583   0.239 -2.4418  2.9249 -1.4013
 5990TIP3    H217977   1.793   5.493   0.245 -0.3408 -0.0274 -0.7221
 5991TIP3   OH217978   3.674   1.333   4.598  0.1683  0.4265  0.1258
 5991TIP3    H117979   3.763   1.366   4.602  0.1188  0.5952 -0.1490
 5991TIP3    H217980   3.624   1.392   4.653  0.0904  0.7839 -0.3199
 5992TIP3   OH217981   2.198   0.792   0.631 -0.6033 -0.2610 -0.0981
 5992TIP3    H117982   2.106   0.797   0.657 -1.3616 -0.7015 -2.4660
 5992TIP3    H217983   2.223   0.701   0.648 -0.7965 -0.3131 -0.0914
 5993TIP3   OH217984   6.061   1.560   2.780  0.2859 -0.1810 -0.2402
 5993TIP3    H117985   6.003   1.577   2.855  0.9006  0.4173  0.1139
 5993TIP3    H217986   6.081   1.647   2.745 -0.5029 -0.4909 -1.5110
 5994TIP3   OH217987   3.785   2.875   1.352 -0.2297  0.4632  0.0859
 5994TIP3    H117988   3.851   2.844   1.290  0.7025  1.3661  0.6004
 5994TIP3    H217989   3.705   2.828   1.327  0.9004 -1.7447  0.3132
 5995TIP3   OH217990   1.842   1.931   3.283 -0.2289  0.0264 -0.0893
 5995TIP3    H117991   1.835   2.026   3.289 -0.4264  0.1272 -1.6007
 5995TIP3    H217992   1.936   1.914   3.278 -0.2386  0.2779 -1.3998
 5996TIP3   OH217993   6.038   4.087   2.978  0.8362  0.3139  0.6095
 5996TIP3    H117994   6.062   4.014   3.035 -1.5918 -0.8488  0.3047
 5996TIP3    H217995   6.002   4.153   3.038  1.4676  0.5614  0.7236
 5997TIP3   OH217996   1.533   5.205   2.103  0.3972 -0.1964  0.0081
 5997TIP3    H117997   1.567   5.295   2.102 -0.4558  0.1355 -0.2350
 5997TIP3    H217998   1.605   5.151   2.072  0.2633  0.6498 -1.9237
 5998TIP3   OH217999   2.796   0.916   4.948 -0.3660  0.3457  0.2336
 5998TIP3    H118000   2.826   0.897   4.859 -1.1631 -0.8076  0.1958
 5998TIP3    H218001   2.707   0.948   4.938 -0.6976 -0.4127  0.6547
 5999TIP3   OH218002   1.566   3.002   4.881  0.3289  0.0421 -0.2514
 5999TIP3    H118003   1.575   2.992   4.976  1.3477 -3.3759 -0.5826
 5999TIP3    H218004   1.494   3.065   4.871 -1.7510 -1.5798  2.8034
 6000TIP3   OH218005   1.383   1.288   3.104  0.3362  0.2187  0.1957
 6000TIP3    H118006   1.469   1.330   3.108  0.0903  1.1045 -2.3243
 6000TIP3    H218007   1.321   1.361   3.098 -0.5793 -0.4293  1.3517
 6001TIP3   OH218008   5.551   0.250   2.558  0.0713 -0.0305  0.5746
 6001TIP3    H118009   5.532   0.329   2.608 -2.1824 -0.6665  0.8241
 6001TIP3    H218010   5.607   0.198   2.616  1.6578  1.3492  0.3704
 6002TIP3   OH218011   2.806   0.427   1.756  0.0876 -0.0124  0.2982
 6002TIP3    H118012   2.830   0.516   1.783 -0.4919  0.3603 -0.3664
 6002TIP3    H218013   2.861   0.370   1.809  0.2915  0.7385  0.9144
 6003TIP3   OH218014   4.980   4.983   2.977  0.2111 -0.1022 -0.3944
 6003TIP3    H118015   4.911   5.047   2.959  0.0358  0.3141  1.5041
 6003TIP3    H218016   4.936   4.914   3.028  1.4960  1.2222  2.7906
 6004TIP3   OH218017   2.404   1.852   0.680  0.3224  0.2214  0.3226
 6004TIP3    H118018   2.370   1.784   0.622  1.4091 -1.7628  1.8552
 6004TIP3    H218019   2.479   1.889   0.633 -0.6252  0.7789 -0.7697
 6005TIP3   OH218020   1.662   0.289   2.627 -0.3676  0.1706 -0.8751
 6005TIP3    H118021   1.647   0.381   2.651  0.4452  0.0532  0.1865
 6005TIP3    H218022   1.575   0.250   2.628 -0.4841  0.3333  1.3794
 6006TIP3   OH218023   4.257   3.959   0.073  0.3413 -0.5884  0.2432
 6006TIP3    H118024   4.241   3.866   0.088  2.3786 -0.7426  1.9540
 6006TIP3    H218025   4.322   3.961   0.003  0.8654 -0.5138  0.7231
 6007TIP3   OH218026   3.266   1.593   2.631 -0.1894 -0.4308  0.1958
 6007TIP3    H118027   3.267   1.571   2.724  1.5563 -0.3056  0.2280
 6007TIP3    H218028   3.353   1.569   2.599 -0.1509  1.1887 -1.0236
 6008TIP3   OH218029   2.843   4.512   3.536  0.4808 -0.2723 -0.0424
 6008TIP3    H118030   2.906   4.508   3.607 -0.6065  0.8782  1.0226
 6008TIP3    H218031   2.771   4.455   3.564 -1.1235  2.1342  1.0397
 6009TIP3   OH218032   3.509   0.796   1.214  0.3285  0.0223 -0.0573
 6009TIP3    H118033   3.474   0.796   1.125 -0.5771 -0.7821  0.2739
 6009TIP3    H218034   3.524   0.703   1.233  2.3555  0.2992 -0.0467
 6010TIP3   OH218035   3.779   5.033   4.551 -0.2193  0.0446  0.6576
 6010TIP3    H118036   3.855   5.059   4.604 -1.3055  1.5259  1.5616
 6010TIP3    H218037   3.744   5.116   4.517 -0.5672 -0.7409 -1.0098
 6011TIP3   OH218038   2.737   3.883   0.690 -0.4832 -0.2403 -0.2734
 6011TIP3    H118039   2.679   3.829   0.743 -1.2905  1.0237  0.1610
 6011TIP3    H218040   2.800   3.820   0.652 -0.6639 -1.3205  1.1360
 6012TIP3   OH218041   5.885   5.698   3.722  0.1111  0.0306 -0.1694
 6012TIP3    H118042   5.831   5.665   3.650  0.7509  1.2397 -1.2463
 6012TIP3    H218043   5.822   5.738   3.782 -0.2622  1.2016 -1.2837
 6013TIP3   OH218044   3.180   4.615   1.320  0.1379 -0.1266  0.2503
 6013TIP3    H118045   3.146   4.571   1.242  2.0503 -0.6746 -0.3139
 6013TIP3    H218046   3.101   4.641   1.368 -1.0870 -2.1635 -0.5049
 6014TIP3   OH218047   2.487   1.434   4.491 -0.0992  0.0112  0.2291
 6014TIP3    H118048   2.517   1.396   4.574  0.3275 -0.8940 -0.3282
 6014TIP3    H218049   2.520   1.374   4.424 -1.3810  0.1305 -0.5363
 6015TIP3   OH218050   5.890   0.751   1.151  0.5204  0.0125 -0.2850
 6015TIP3    H118051   5.893   0.688   1.223  2.1467  0.0050 -0.3279
 6015TIP3    H218052   5.804   0.737   1.111  0.5211 -1.6280  0.2118
 6016TIP3   OH218053   3.056   4.413   4.626  0.1888  0.3760  0.0845
 6016TIP3    H118054   3.033   4.409   4.719  0.3289  0.8558  0.1418
 6016TIP3    H218055   2.978   4.381   4.580  0.9320 -2.1981  0.4505
 6017TIP3   OH218056   1.593   2.559   3.751  0.2275  0.0939  0.6072
 6017TIP3    H118057   1.640   2.578   3.833  0.6680 -1.1922  0.6791
 6017TIP3    H218058   1.513   2.515   3.780 -0.6248  1.4628  0.4310
 6018TIP3   OH218059   4.044   3.147   4.614  0.2411 -0.5151 -0.3536
 6018TIP3    H118060   4.131   3.182   4.636  0.9842 -0.9884 -2.3213
 6018TIP3    H218061   3.995   3.152   4.696  2.6085 -1.6808  1.2743
 6019TIP3   OH218062   0.233   2.814   1.871 -0.1214 -0.2910  0.1605
 6019TIP3    H118063   0.302   2.878   1.853 -0.3054 -0.3193 -0.7096
 6019TIP3    H218064   0.260   2.772   1.952  0.1628  0.6668  0.5838
 6020TIP3   OH218065   6.122   3.033   0.642 -0.3377  0.0328 -0.6083
 6020TIP3    H118066   6.200   3.075   0.677 -1.1866  0.8306  0.3884
 6020TIP3    H218067   6.129   2.942   0.672 -0.2313  0.3148  0.2554
 6021TIP3   OH218068   0.476   2.168   1.495  0.7646  0.0234  0.5320
 6021TIP3    H118069   0.553   2.144   1.444 -0.0387  0.8925 -1.1863
 6021TIP3    H218070   0.442   2.246   1.451 -0.6117  0.1760  1.7823
 6022TIP3   OH218071   4.833   0.717   5.073 -0.4218  0.0700  0.2039
 6022TIP3    H118072   4.786   0.634   5.075  0.5133 -0.5614 -1.6261
 6022TIP3    H218073   4.821   0.750   4.983  1.4473  0.5395  0.0743
 6023TIP3   OH218074   1.510   5.624   2.834 -0.0469 -0.4890  0.3612
 6023TIP3    H118075   1.513   5.584   2.922 -0.2422 -0.9296  0.1711
 6023TIP3    H218076   1.446   5.572   2.786  0.1099 -0.2926 -0.0677
 6024TIP3   OH218077   2.573   2.159   1.562 -0.6340  0.4500 -0.1146
 6024TIP3    H118078   2.564   2.116   1.647 -0.1571  0.1743 -0.1958
 6024TIP3    H218079   2.522   2.105   1.501  0.0297 -0.0626 -0.2320
 6025TIP3   OH218080   2.455   2.010   2.609  0.0817 -0.2176 -0.2837
 6025TIP3    H118081   2.401   2.078   2.650 -0.6080 -0.6707 -0.4171
 6025TIP3    H218082   2.506   1.973   2.681 -0.5821 -0.5133  0.0441
 6026TIP3   OH218083   1.591   2.722   0.444 -0.2918 -0.1124  0.6572
 6026TIP3    H118084   1.644   2.795   0.473 -0.7686 -0.1123  1.5579
 6026TIP3    H218085   1.629   2.645   0.488 -0.2558 -0.2964  0.3085
 6027TIP3   OH218086   2.280   4.520   5.058  0.0637 -0.0123 -0.1172
 6027TIP3    H118087   2.205   4.559   5.015  0.6050  2.0356  0.6976
 6027TIP3    H218088   2.303   4.445   5.003 -1.0738  0.7559 -1.6959
 6028TIP3   OH218089   3.019   3.727   3.084 -0.3243 -0.0509 -0.4474
 6028TIP3    H118090   3.071   3.801   3.051  0.2671 -1.1985 -2.2182
 6028TIP3    H218091   2.933   3.738   3.044 -0.8977  0.7532  0.9184
 6029TIP3   OH218092   0.610   5.798   1.102 -0.2636  0.5821 -0.6891
 6029TIP3    H118093   0.703   5.780   1.113 -0.1443  0.9567 -1.0826
 6029TIP3    H218094   0.576   5.803   1.191  0.4299  2.2013 -0.4788
 6030TIP3   OH218095   2.447   3.277   1.050  0.0455  0.0907 -0.4828
 6030TIP3    H118096   2.400   3.262   0.968  0.3277 -1.4670 -0.3909
 6030TIP3    H218097   2.441   3.193   1.097  0.0896  0.8783  0.9824
 6031TIP3   OH218098   0.721   2.100   3.047 -0.3137 -0.5048 -0.6839
 6031TIP3    H118099   0.779   2.038   3.003  0.8865 -0.1105  0.2953
 6031TIP3    H218100   0.779   2.169   3.079 -1.4825  0.5549 -0.7653
 6032TIP3   OH218101   0.307   3.954   2.801  0.2448  0.3690 -0.7812
 6032TIP3    H118102   0.315   3.862   2.824  0.9118  0.2753 -1.3664
 6032TIP3    H218103   0.249   3.990   2.868  0.1191 -0.4328 -0.4456
 6033TIP3   OH218104   0.237   1.789   2.383 -0.0672  0.0209 -0.5329
 6033TIP3    H118105   0.252   1.716   2.443 -1.1347  0.0202 -0.2523
 6033TIP3    H218106   0.290   1.767   2.306  0.5090 -0.4823 -0.0104
 6034TIP3   OH218107   6.063   5.624   4.614  0.0516  0.3727  0.3516
 6034TIP3    H118108   6.025   5.688   4.554  0.5874  1.5904  1.2704
 6034TIP3    H218109   6.010   5.545   4.602 -0.2296  0.7776 -1.2587
 6035TIP3   OH218110   4.481   2.944   1.179  0.0062 -0.1440  0.0554
 6035TIP3    H118111   4.569   2.959   1.214  0.9267 -0.3345 -2.0355
 6035TIP3    H218112   4.441   2.883   1.241  0.3989  1.7810  2.3871
 6036TIP3   OH218113   4.542   2.213   2.876  0.1223 -0.0139  0.3718
 6036TIP3    H118114   4.469   2.229   2.816  0.4434 -0.1323 -0.0550
 6036TIP3    H218115   4.502   2.215   2.963 -0.3075  0.3769  0.1682
 6037TIP3   OH218116   3.009   5.943   1.171  0.0339  0.8197  0.5558
 6037TIP3    H118117   2.941   5.992   1.218 -2.0459 -1.6092  0.3317
 6037TIP3    H218118   3.078   5.930   1.235 -1.2051  0.5388  1.8861
 6038TIP3   OH218119   1.446   5.176   2.907 -0.1900 -0.0683  0.5159
 6038TIP3    H118120   1.483   5.091   2.931 -0.8182 -0.9171 -1.2855
 6038TIP3    H218121   1.369   5.154   2.854 -0.5761  1.6386  0.3088
 6039TIP3   OH218122   1.849   2.624   0.826  0.4230  0.9871  0.5680
 6039TIP3    H118123   1.902   2.683   0.880  2.1541  0.3725 -0.3541
 6039TIP3    H218124   1.794   2.577   0.888  2.5104  0.1320  1.8939
 6040TIP3   OH218125   4.931   1.514   4.900 -0.1151  0.1919  0.6624
 6040TIP3    H118126   4.986   1.441   4.927  0.5241  0.7532  0.9088
 6040TIP3    H218127   4.881   1.480   4.826  2.4851  0.4420 -1.3331
 6041TIP3   OH218128   3.636   3.736   4.526  0.7549  0.4173  0.1271
 6041TIP3    H118129   3.600   3.671   4.587 -0.9240  0.8605 -0.3567
 6041TIP3    H218130   3.650   3.687   4.445  0.4943  0.4258  0.0774
 6042TIP3   OH218131   6.034   3.161   1.215  0.2487  0.8384  0.5502
 6042TIP3    H118132   6.072   3.151   1.302  0.2207  3.8207  1.0251
 6042TIP3    H218133   5.948   3.201   1.231 -0.6039 -0.3582 -0.7905
 6043TIP3   OH218134   4.905   2.438   1.245  0.1864  0.3343 -0.1109
 6043TIP3    H118135   5.000   2.430   1.257  0.4749 -0.2655 -2.3609
 6043TIP3    H218136   4.868   2.371   1.302  1.3276 -1.5372 -1.4508
 6044TIP3   OH218137   3.778   4.366   1.376  0.8207 -0.2830 -0.1059
 6044TIP3    H118138   3.756   4.412   1.457 -0.5308 -1.4574  0.2353
 6044TIP3    H218139   3.770   4.274   1.397  0.6409 -0.6263 -1.5328
 6045TIP3   OH218140   0.878   5.305   4.203 -0.2807 -0.3135 -0.0613
 6045TIP3    H118141   0.811   5.288   4.269 -0.3392 -1.3364 -0.3527
 6045TIP3    H218142   0.842   5.266   4.123  0.5145 -0.5912 -0.2924
 6046TIP3   OH218143   2.137   1.974   4.879  0.0072 -0.2695 -0.4143
 6046TIP3    H118144   2.097   1.980   4.966 -0.2600  0.5694 -0.5802
 6046TIP3    H218145   2.127   1.882   4.854  1.0495 -0.7628  0.8780
 6047TIP3   OH218146   5.383   2.757   4.019  0.0586 -0.3381  0.1104
 6047TIP3    H118147   5.442   2.832   4.026 -0.5071  0.1872 -0.6645
 6047TIP3    H218148   5.356   2.739   4.109  0.6618  0.0026  0.3639
 6048TIP3   OH218149   3.027   1.620   1.875  0.0084  0.2476 -0.0017
 6048TIP3    H118150   3.057   1.579   1.956  2.7901 -0.2497 -1.1828
 6048TIP3    H218151   3.038   1.714   1.891  1.4151  0.1138 -0.0785
 6049TIP3   OH218152   2.440   2.210   3.032  0.3833 -0.3856  0.6543
 6049TIP3    H118153   2.535   2.199   3.042  0.5654 -0.1970 -0.6724
 6049TIP3    H218154   2.425   2.201   2.938 -0.4457  2.9472  0.3546
 6050TIP3   OH218155   2.210   0.814   2.944  0.0336 -0.4328  0.2397
 6050TIP3    H118156   2.182   0.748   3.008  0.4597 -1.7609 -0.9089
 6050TIP3    H218157   2.180   0.781   2.860 -2.7081  2.4675 -0.1318
 6051TIP3   OH218158   4.898   1.722   3.740 -0.6385 -0.1975 -0.1006
 6051TIP3    H118159   4.961   1.652   3.761 -0.7308 -0.4165 -0.5514
 6051TIP3    H218160   4.881   1.713   3.646  1.2710  2.0087 -0.7544
 6052TIP3   OH218161   6.174   1.664   0.971 -0.3437  0.1277 -0.1576
 6052TIP3    H118162   6.183   1.614   1.052  0.8548 -0.0043 -0.3602
 6052TIP3    H218163   6.127   1.743   0.997  0.3737  0.2658  0.7532
 6053TIP3   OH218164   3.627   4.974   0.557  0.6647  0.2901 -0.6902
 6053TIP3    H118165   3.626   5.047   0.496  1.4609  0.4349 -0.5434
 6053TIP3    H218166   3.666   5.009   0.637 -0.8892  0.2526  0.1176
 6054TIP3   OH218167   5.586   0.003   1.003  0.1838  0.0534  0.6365
 6054TIP3    H118168   5.617   0.086   0.967 -2.2827  0.6486 -0.3683
 6054TIP3    H218169   5.625  -0.064   0.946 -0.5930  0.7781 -0.8313
 6055TIP3   OH218170   1.023   0.912   0.528  0.1380 -0.6096  0.2592
 6055TIP3    H118171   1.088   0.983   0.531  0.2547 -0.7109  0.1504
 6055TIP3    H218172   0.981   0.914   0.614 -0.0599 -0.2203  0.1565
 6056TIP3   OH218173   3.050   2.088   2.363  0.1633 -0.5164 -0.2139
 6056TIP3    H118174   3.113   2.135   2.308 -0.1181  0.0729 -0.0484
 6056TIP3    H218175   3.087   2.094   2.452  0.5437 -1.3374 -0.3100
 6057TIP3   OH218176   4.675   4.437   3.554  0.4598 -0.0175 -0.5118
 6057TIP3    H118177   4.676   4.360   3.498 -1.0214 -0.5278  0.1047
 6057TIP3    H218178   4.669   4.511   3.494  0.1795 -0.4840 -1.0721
 6058TIP3   OH218179   5.102   5.637   0.824  0.0563 -0.2822  0.6836
 6058TIP3    H118180   5.059   5.552   0.817  1.6436 -1.0773  0.0854
 6058TIP3    H218181   5.194   5.616   0.836  0.4180  1.3677  0.9602
 6059TIP3   OH218182   1.283   4.150   4.379 -0.1851 -0.2740  0.5336
 6059TIP3    H118183   1.305   4.220   4.441  0.5633 -1.8222  2.0889
 6059TIP3    H218184   1.365   4.130   4.335 -0.6749  0.6844 -0.8848
 6060TIP3   OH218185   0.328   5.876   3.117  0.5468 -0.1044  0.4778
 6060TIP3    H118186   0.242   5.893   3.154 -0.1112 -0.1983 -0.9315
 6060TIP3    H218187   0.373   5.960   3.120  0.2404  0.0478  0.8203
 6061TIP3   OH218188   0.460   1.278   4.477 -0.2238 -0.3089 -0.4332
 6061TIP3    H118189   0.391   1.307   4.419  0.9879  0.2694 -1.6279
 6061TIP3    H218190   0.468   1.347   4.542 -0.0196  0.1550 -0.9478
 6062TIP3   OH218191   4.671   3.233   2.855  0.1847 -0.2173  0.1207
 6062TIP3    H118192   4.626   3.315   2.835  1.0899  0.2385 -0.1154
 6062TIP3    H218193   4.744   3.229   2.793  0.9789 -0.5112  1.0290
 6063TIP3   OH218194   0.140   3.590   0.941  0.3977 -0.0932  0.1264
 6063TIP3    H118195   0.111   3.681   0.950  0.2943 -0.0734 -0.3648
 6063TIP3    H218196   0.232   3.597   0.917  0.5343 -0.1350  0.6139
 6064TIP3   OH218197   2.930   0.667   2.430  0.7269  0.2105 -0.4565
 6064TIP3    H118198   2.912   0.760   2.442 -1.6027 -0.3753  1.7018
 6064TIP3    H218199   2.882   0.643   2.351  1.7033  0.8906 -1.2730
 6065TIP3   OH218200   1.242   0.124   3.453  0.0044 -0.0446  0.1015
 6065TIP3    H118201   1.224   0.078   3.371 -0.6593  2.3350 -1.1900
 6065TIP3    H218202   1.202   0.210   3.441  3.6253  1.9899  1.1651
 6066TIP3   OH218203   2.562   4.484   0.584 -0.3723  0.3119 -0.2339
 6066TIP3    H118204   2.589   4.462   0.495 -1.7164  2.1082 -1.1592
 6066TIP3    H218205   2.497   4.418   0.606 -0.0960 -0.0956 -0.6152
 6067TIP3   OH218206   1.099   3.564   1.694  0.3385 -0.6220 -0.0545
 6067TIP3    H118207   1.157   3.496   1.729  1.3654  0.6647  0.8527
 6067TIP3    H218208   1.144   3.595   1.615 -0.4653 -1.4239 -0.8551
 6068TIP3   OH218209   2.741   5.003   1.206  0.2748 -0.4816 -0.2683
 6068TIP3    H118210   2.722   4.910   1.219 -1.7541  0.0319  0.8734
 6068TIP3    H218211   2.816   5.020   1.263  0.5828 -1.3898 -0.3879
 6069TIP3   OH218212   0.715   0.098   2.304  0.0074  0.3580 -0.3380
 6069TIP3    H118213   0.647   0.040   2.272 -1.1401  0.4341  1.7952
 6069TIP3    H218214   0.667   0.172   2.342  1.3879  2.0410 -1.7152
 6070TIP3   OH218215   3.044   5.201   5.002 -0.0836 -0.5572 -0.3145
 6070TIP3    H118216   3.085   5.149   4.932  0.1865  0.4208 -0.9076
 6070TIP3    H218217   2.976   5.251   4.958 -1.9304 -2.0727  0.6488
 6071TIP3   OH218218   2.315   2.263   1.001 -0.2539 -0.3169  0.4647
 6071TIP3    H118219   2.348   2.272   0.912  1.4940 -1.2792  0.9552
 6071TIP3    H218220   2.226   2.230   0.991 -0.7867  1.4191 -0.9323
 6072TIP3   OH218221   0.607   3.277   4.463  0.0200  0.4681  0.1567
 6072TIP3    H118222   0.601   3.184   4.442  0.2252  0.4740  0.0754
 6072TIP3    H218223   0.533   3.292   4.522 -0.9152  0.5766 -0.9974
 6073TIP3   OH218224   4.972   5.389   0.777  0.2737 -0.0575 -0.2319
 6073TIP3    H118225   4.958   5.334   0.854 -0.8718  0.3258 -0.1451
 6073TIP3    H218226   4.903   5.363   0.716  0.6701  0.2105 -0.8055
 6074TIP3   OH218227   4.389   3.601   4.335  0.1328 -0.0600 -0.1883
 6074TIP3    H118228   4.470   3.596   4.385 -0.7203 -1.5039  1.1331
 6074TIP3    H218229   4.351   3.514   4.341 -1.3394  0.4782 -1.0914
 6075TIP3   OH218230   4.443   1.948   4.815  0.1464 -0.1226  0.0743
 6075TIP3    H118231   4.519   1.971   4.869 -0.3718  1.9862  0.0045
 6075TIP3    H218232   4.385   1.901   4.875  0.5232  0.2888  0.7756
 6076TIP3   OH218233   3.129   5.018   0.837  0.2608  0.2703  0.1857
 6076TIP3    H118234   3.121   5.026   0.932 -0.4985  0.9114  0.0824
 6076TIP3    H218235   3.195   4.950   0.823  1.9452  1.6477  1.1679
 6077TIP3   OH218236   1.529   5.543   1.559 -0.4416 -0.9689 -0.4304
 6077TIP3    H118237   1.494   5.481   1.623 -2.0259 -1.6810 -1.9037
 6077TIP3    H218238   1.568   5.489   1.491  0.1532 -0.2685 -0.6620
 6078TIP3   OH218239   1.232   0.658   1.412  0.3173  0.1643  0.0714
 6078TIP3    H118240   1.287   0.734   1.392 -2.7216  2.0384 -2.0075
 6078TIP3    H218241   1.189   0.682   1.495  0.7705 -0.1677  0.4044
 6079TIP3   OH218242   5.262   1.397   3.558 -0.3817 -0.5032 -0.2391
 6079TIP3    H118243   5.169   1.404   3.581  0.0997  2.1654  1.3473
 6079TIP3    H218244   5.293   1.321   3.607 -1.0408  0.6280  2.0854
 6080TIP3   OH218245   2.550   3.490   2.505  0.1395  0.4271 -0.2970
 6080TIP3    H118246   2.630   3.505   2.556  1.5879 -2.4477 -1.5005
 6080TIP3    H218247   2.544   3.566   2.447  1.4978  1.1187  0.4067
 6081TIP3   OH218248   4.860   1.096   3.882 -0.0584 -0.3393  0.6280
 6081TIP3    H118249   4.836   1.174   3.932 -2.0033 -0.3321 -0.2432
 6081TIP3    H218250   4.798   1.029   3.910 -1.1771 -0.3591 -1.6085
 6082TIP3   OH218251   4.987   2.775   2.544 -0.0181  0.4115 -0.1703
 6082TIP3    H118252   4.914   2.763   2.484  0.5601  1.9108 -1.2327
 6082TIP3    H218253   5.033   2.691   2.543  0.6560  0.7282 -2.7727
 6083TIP3   OH218254   4.905   3.246   0.277  0.6134 -0.2478 -0.1358
 6083TIP3    H118255   4.859   3.328   0.294  1.5997  0.2272  0.3757
 6083TIP3    H218256   4.962   3.234   0.354  2.4053 -0.0385 -1.3570
 6084TIP3   OH218257   5.782   3.698   4.619  0.1001 -0.2585 -0.4070
 6084TIP3    H118258   5.717   3.737   4.677 -1.3805  0.7088 -2.5956
 6084TIP3    H218259   5.853   3.762   4.617  1.5444 -1.5795  2.4444
 6085TIP3   OH218260   6.162   1.493   3.274  0.4281  0.5699  0.2224
 6085TIP3    H118261   6.234   1.439   3.244 -1.9114 -2.5838 -0.2405
 6085TIP3    H218262   6.146   1.464   3.364 -0.4294  0.9758  0.2174
 6086TIP3   OH218263   2.831   3.286   1.992 -0.2651 -0.5241 -0.3018
 6086TIP3    H118264   2.917   3.252   2.013 -0.3435 -0.4653  0.1238
 6086TIP3    H218265   2.785   3.213   1.950  0.0255 -0.5209 -0.6306
 6087TIP3   OH218266   1.888   3.141   2.236  0.3490  0.3441  0.5957
 6087TIP3    H118267   1.875   3.236   2.229 -1.1541  0.2102  1.0330
 6087TIP3    H218268   1.977   3.131   2.270  0.3638  1.6222  1.0049
 6088TIP3   OH218269   4.219   1.520   1.591  0.1043 -0.2821  0.2185
 6088TIP3    H118270   4.173   1.444   1.554 -1.4521  0.2281  1.0293
 6088TIP3    H218271   4.186   1.595   1.542  0.9238 -0.0171  0.0631
 6089TIP3   OH218272   4.496   0.233   3.841  0.0751 -0.2143 -1.2648
 6089TIP3    H118273   4.534   0.252   3.927 -2.2762 -1.8917  0.2649
 6089TIP3    H218274   4.556   0.274   3.779  1.3288  1.9384  1.1863
 6090TIP3   OH218275   3.996   2.346   4.392  0.8637  0.2137 -0.1381
 6090TIP3    H118276   4.039   2.292   4.326 -0.4311 -0.8018 -0.1887
 6090TIP3    H218277   3.953   2.415   4.342 -0.7161 -0.9632 -0.4659
 6091TIP3   OH218278   4.372   3.110   4.816 -0.3091 -0.1125 -0.4124
 6091TIP3    H118279   4.401   3.020   4.828 -0.0042  0.1114  0.6370
 6091TIP3    H218280   4.312   3.126   4.888 -0.9587  0.2907 -1.0301
 6092TIP3   OH218281   0.880   2.590   1.838 -0.1747  0.3941 -0.2701
 6092TIP3    H118282   0.955   2.613   1.783 -0.4480  1.0024 -0.3933
 6092TIP3    H218283   0.812   2.651   1.812 -1.1483 -0.9867 -1.0789
 6093TIP3   OH218284   3.978   5.824   2.595 -0.1027  0.2847  0.3573
 6093TIP3    H118285   4.070   5.800   2.604 -0.2931 -1.4758 -1.6570
 6093TIP3    H218286   3.961   5.819   2.501 -1.7195  2.7919  0.4283
 6094TIP3   OH218287   2.646   2.901   3.164  0.2103 -0.4331 -0.5239
 6094TIP3    H118288   2.639   2.860   3.249  1.4393 -0.9256 -0.6422
 6094TIP3    H218289   2.581   2.856   3.110  0.5896 -1.2891 -0.2859
 6095TIP3   OH218290   5.137   2.845   3.365  0.2863  0.4597  0.2670
 6095TIP3    H118291   5.220   2.887   3.387  0.8651 -1.8137  3.1085
 6095TIP3    H218292   5.126   2.778   3.433 -1.7784 -2.2267 -2.4525
 6096TIP3   OH218293   4.880   5.544  -0.028  0.5997  0.3553 -0.0387
 6096TIP3    H118294   4.898   5.580   0.059 -1.8910  1.3235  0.1757
 6096TIP3    H218295   4.852   5.454  -0.013 -2.8035  1.3763  0.6570
 6097TIP3   OH218296   6.221   3.537   1.623 -0.3735 -0.5286 -0.4451
 6097TIP3    H118297   6.311   3.554   1.651 -0.3553  0.0517 -0.8223
 6097TIP3    H218298   6.229   3.511   1.531 -0.5854 -0.4913 -0.4756
 6098TIP3   OH218299   3.116   3.419   0.068 -0.2528 -0.2185 -0.6113
 6098TIP3    H118300   3.207   3.442   0.051 -0.8507  0.8998 -2.5493
 6098TIP3    H218301   3.112   3.324   0.052  0.4856 -0.2065 -0.8983
 6099TIP3   OH218302   0.577   4.989   3.194  0.3217  0.4129  0.1495
 6099TIP3    H118303   0.483   5.006   3.197  0.1381 -0.6689  1.7738
 6099TIP3    H218304   0.606   4.999   3.285  2.1043  2.2867 -0.5612
 6100TIP3   OH218305   2.511   5.035   1.409 -0.2063  0.0613 -0.3058
 6100TIP3    H118306   2.538   5.029   1.317 -1.7806 -0.2370 -0.7817
 6100TIP3    H218307   2.444   4.968   1.418 -0.5557  0.5497  0.8787
 6101TIP3   OH218308   0.107   0.651   4.393  0.3261 -0.4345 -0.1008
 6101TIP3    H118309   0.147   0.708   4.327  0.2424 -0.7059 -0.3880
 6101TIP3    H218310   0.175   0.586   4.412  0.6738  0.1551  0.7295
 6102TIP3   OH218311   6.078   5.358   1.629  0.5066 -0.4439  0.0720
 6102TIP3    H118312   6.050   5.291   1.567 -0.0593  1.1457 -1.4695
 6102TIP3    H218313   6.173   5.365   1.616  0.3664  0.0000 -0.7520
 6103TIP3   OH218314   2.633   5.599   4.322  0.2229  0.3695 -0.7127
 6103TIP3    H118315   2.701   5.556   4.374  0.1534  0.8080 -0.2534
 6103TIP3    H218316   2.556   5.599   4.379  0.3533  1.5184 -0.5164
 6104TIP3   OH218317   0.179   0.856   2.974  0.1763  0.4245  0.3539
 6104TIP3    H118318   0.137   0.927   3.024 -1.6115  0.6470 -1.3205
 6104TIP3    H218319   0.245   0.820   3.033  0.9893  3.3164  1.3602
 6105TIP3   OH218320   3.250   5.365   0.323  0.1367 -0.3360 -0.2680
 6105TIP3    H118321   3.256   5.385   0.416 -0.5896  0.5928 -0.4052
 6105TIP3    H218322   3.319   5.417   0.282  0.5768 -0.8868 -0.2312
 6106TIP3   OH218323   4.313   2.330   1.716 -0.3681  0.0893  0.0438
 6106TIP3    H118324   4.232   2.340   1.766  0.0493  1.0970  0.5393
 6106TIP3    H218325   4.380   2.312   1.782  0.3387  2.2634 -0.0158
 6107TIP3   OH218326   4.046   3.977   4.517 -0.7452 -0.4106  0.0308
 6107TIP3    H118327   4.072   3.895   4.559 -0.1357  0.0342  0.5331
 6107TIP3    H218328   4.125   4.030   4.517 -1.3902  0.5803  0.6808
 6108TIP3   OH218329   0.474   3.914   2.012 -0.0345  0.6535  0.0988
 6108TIP3    H118330   0.462   3.860   2.090  0.4192 -0.0851 -0.3287
 6108TIP3    H218331   0.455   3.855   1.939  0.0603  1.1903 -0.3698
 6109TIP3   OH218332   3.784   2.940   4.771 -0.0936 -0.1242  0.4466
 6109TIP3    H118333   3.875   2.913   4.759  0.1552  0.1993  1.4974
 6109TIP3    H218334   3.743   2.923   4.687  0.9360 -0.2923 -0.0395
 6110TIP3   OH218335   1.927   2.891   4.985  0.5424 -0.5580  0.4063
 6110TIP3    H118336   1.910   2.909   4.892 -0.7564 -0.2391  0.6896
 6110TIP3    H218337   1.929   2.977   5.026  0.9100 -0.7098  0.7147
 6111TIP3   OH218338   5.459   5.919   4.954 -0.4885  0.0616 -0.0261
 6111TIP3    H118339   5.396   5.961   5.013 -0.5655  1.2826 -0.9418
 6111TIP3    H218340   5.545   5.943   4.989 -0.5345  0.2226 -0.0226
 6112TIP3   OH218341   4.383   4.035   1.234  0.6484  0.0333  0.6782
 6112TIP3    H118342   4.465   4.024   1.186  0.3075 -1.5168  0.3976
 6112TIP3    H218343   4.334   3.956   1.216 -1.1162  1.1204  0.5117
 6113TIP3   OH218344   5.664   0.771   0.064  0.0329 -0.4893  0.0212
 6113TIP3    H118345   5.586   0.761   0.010 -0.4916 -0.7685  0.8145
 6113TIP3    H218346   5.737   0.751   0.005 -0.2581  2.4445 -1.5285
 6114TIP3   OH218347   4.667   3.165   0.621  0.3109  0.1038  0.6108
 6114TIP3    H118348   4.639   3.108   0.692  0.1840 -0.5416  0.0474
 6114TIP3    H218349   4.761   3.177   0.635  0.1332  0.6696  1.3670
 6115TIP3   OH218350   4.942   1.707   2.248  0.1569 -0.1736 -0.1773
 6115TIP3    H118351   4.984   1.756   2.318 -0.7120  1.3162 -0.6550
 6115TIP3    H218352   4.887   1.771   2.203 -3.3875 -2.1486  0.9597
 6116TIP3   OH218353   6.272   2.817   3.463  0.1829 -0.4910 -0.1946
 6116TIP3    H118354   6.187   2.845   3.429  0.7451  0.0403 -1.1884
 6116TIP3    H218355   6.294   2.739   3.412  0.5455 -0.3080 -0.3235
 6117TIP3   OH218356   3.967   1.818   3.749 -0.1367 -0.2836 -0.2702
 6117TIP3    H118357   3.873   1.837   3.757 -0.0627 -0.2350  0.5904
 6117TIP3    H218358   3.981   1.744   3.808  0.7905  1.2246  1.5246
 6118TIP3   OH218359   1.679   5.300   2.547  0.0440  0.0602  0.0029
 6118TIP3    H118360   1.744   5.256   2.603 -0.8931  0.2464  1.2913
 6118TIP3    H218361   1.701   5.393   2.554  0.5866  0.0000 -0.8268
 6119TIP3   OH218362   4.950   5.665   0.538  0.4816  0.1079  0.1976
 6119TIP3    H118363   4.921   5.649   0.628  0.2729 -0.5374  0.0185
 6119TIP3    H218364   5.044   5.647   0.540  0.6137  0.7710  0.4371
 6120TIP3   OH218365   0.198   3.499   0.480  0.1667  0.0843  0.2477
 6120TIP3    H118366   0.238   3.436   0.540 -0.5324 -0.0658  0.5651
 6120TIP3    H218367   0.270   3.528   0.424  0.6352 -0.4792  0.5476
 6121TIP3   OH218368   2.496   4.420   4.376 -0.1084  0.6964 -0.1593
 6121TIP3    H118369   2.449   4.370   4.309 -0.8006 -0.6185  1.2289
 6121TIP3    H218370   2.567   4.361   4.404  0.1873  1.2335  0.2400
 6122TIP3   OH218371   5.415   3.495   1.660  0.2051  0.3465  0.6607
 6122TIP3    H118372   5.334   3.546   1.669  0.7605  1.5555 -0.6849
 6122TIP3    H218373   5.458   3.533   1.583  2.2584  0.0167  1.5837
 6123TIP3   OH218374   1.880   2.967   1.224  0.1526 -0.2410 -0.3238
 6123TIP3    H118375   1.903   2.886   1.269  0.0622 -0.1686 -0.1469
 6123TIP3    H218376   1.813   2.940   1.161  1.1120 -0.5563 -1.2416
 6124TIP3   OH218377  -0.006   3.958   2.032 -0.2101  0.2208  0.0802
 6124TIP3    H118378  -0.061   3.881   2.015 -0.7867  0.5858  0.2629
 6124TIP3    H218379   0.067   3.924   2.084 -1.0046 -0.0311  1.0583
 6125TIP3   OH218380   3.550   4.385   4.285  0.4591 -0.1056 -1.0396
 6125TIP3    H118381   3.592   4.334   4.216  1.0734 -0.1741 -0.6197
 6125TIP3    H218382   3.534   4.322   4.355  1.8973  0.4139 -0.2164
 6126TIP3   OH218383   1.529   0.720   1.674  0.4293 -0.0084 -0.0264
 6126TIP3    H118384   1.568   0.805   1.694 -0.1182  0.2391  0.0086
 6126TIP3    H218385   1.568   0.695   1.590 -0.9814  1.2874 -1.1481
 6127TIP3   OH218386   5.140   5.053   0.262  0.0657 -0.1025  0.8292
 6127TIP3    H118387   5.059   5.016   0.227  0.7762 -0.6865 -0.2220
 6127TIP3    H218388   5.115   5.141   0.290 -1.2796 -0.7707  1.9245
 6128TIP3   OH218389   4.642   3.735   1.701  0.4995 -0.0018 -0.0679
 6128TIP3    H118390   4.564   3.680   1.714  0.7372 -0.3619 -0.1504
 6128TIP3    H218391   4.610   3.809   1.649  0.5718 -1.1253 -1.8301
 6129TIP3   OH218392   2.313   2.094   3.262  0.2420 -0.0063  0.4531
 6129TIP3    H118393   2.381   2.105   3.329 -0.0335 -1.7929  1.0886
 6129TIP3    H218394   2.360   2.104   3.179  1.1087 -0.2599  0.8943
 6130TIP3   OH218395   4.288   1.448   2.772  0.1182  0.3134  0.1602
 6130TIP3    H118396   4.289   1.515   2.841 -1.9452  0.5010  0.0632
 6130TIP3    H218397   4.222   1.386   2.801  1.6185 -1.4425 -0.0249
 6131TIP3   OH218398   5.191   0.352   2.426 -0.1628 -0.3842 -0.0880
 6131TIP3    H118399   5.106   0.392   2.407 -0.2538 -1.0317 -1.1822
 6131TIP3    H218400   5.217   0.389   2.510 -0.8993  0.8485 -0.3759
 6132TIP3   OH218401   4.879   4.005   4.039  0.6795 -0.3207  0.2456
 6132TIP3    H118402   4.917   4.078   4.087 -0.2161  0.4868 -0.2187
 6132TIP3    H218403   4.789   3.999   4.071  0.3309 -0.3236 -0.6898
 6133TIP3   OH218404   5.669   1.976   1.739 -0.2566 -0.0210 -0.1141
 6133TIP3    H118405   5.710   1.905   1.690  0.5914  0.4143 -0.0606
 6133TIP3    H218406   5.612   2.020   1.676  0.1685  0.0080 -0.4763
 6134TIP3   OH218407   4.711   0.530   3.474 -0.0956 -0.0865 -0.0193
 6134TIP3    H118408   4.667   0.581   3.405 -0.0724 -2.5365 -1.9852
 6134TIP3    H218409   4.798   0.568   3.480 -0.5197  0.9928 -0.4200
 6135TIP3   OH218410   4.496   5.961   0.862 -0.5580  0.0968  0.0795
 6135TIP3    H118411   4.580   5.936   0.823 -0.6982 -0.7957  0.3364
 6135TIP3    H218412   4.484   5.901   0.935 -1.4455  0.1857  0.0177
 6136TIP3   OH218413   5.592   0.161   1.366 -0.1817  0.2559 -0.2013
 6136TIP3    H118414   5.573   0.114   1.447  0.8441 -0.9385 -0.6175
 6136TIP3    H218415   5.663   0.111   1.326 -0.2246  1.2055 -1.5168
 6137TIP3   OH218416   3.277   3.965   3.741 -0.2820  0.2514 -0.0280
 6137TIP3    H118417   3.308   4.056   3.736 -1.0052  0.4521 -1.2795
 6137TIP3    H218418   3.226   3.953   3.661 -0.9940 -0.9653  0.5815
 6138TIP3   OH218419   4.108   4.967   1.634 -0.0912  0.5576  0.0741
 6138TIP3    H118420   4.119   4.883   1.680 -1.8766  0.0555 -0.3148
 6138TIP3    H218421   4.138   4.949   1.545 -1.1003  0.1044 -0.1902
 6139TIP3   OH218422   2.642   0.951   3.952 -0.4005 -0.2710  0.2255
 6139TIP3    H118423   2.562   1.000   3.933 -0.0173  0.7292  1.0636
 6139TIP3    H218424   2.634   0.871   3.901 -1.3740  0.3558 -0.6474
 6140TIP3   OH218425   3.077   3.762   4.144  0.4924 -0.4657 -0.0956
 6140TIP3    H118426   2.989   3.779   4.113 -0.4716 -1.7117  1.7380
 6140TIP3    H218427   3.133   3.820   4.093 -1.1881 -0.7103 -2.3708
 6141TIP3   OH218428   2.126   3.613   3.164 -0.3873 -0.2974 -0.1208
 6141TIP3    H118429   2.082   3.697   3.180  0.0825 -0.0928  0.1287
 6141TIP3    H218430   2.129   3.571   3.250 -0.2836 -0.4036 -0.1756
 6142TIP3   OH218431   1.661   1.917   1.249 -0.1133 -0.1124 -0.0710
 6142TIP3    H118432   1.588   1.978   1.255  0.2953  0.8159 -3.0124
 6142TIP3    H218433   1.724   1.948   1.315 -1.2672  0.6221  0.7200
 6143TIP3   OH218434   3.493   3.954   4.022 -0.3660 -0.0863 -0.1761
 6143TIP3    H118435   3.546   3.878   4.000 -1.0696 -0.2600 -1.3517
 6143TIP3    H218436   3.438   3.925   4.095 -0.8391 -0.8022 -0.8110
 6144TIP3   OH218437   3.535   1.552   2.698  0.2648  0.2751  0.6051
 6144TIP3    H118438   3.590   1.579   2.624  0.5941 -0.4988  0.5594
 6144TIP3    H218439   3.586   1.575   2.776  0.7750 -0.6434  0.5617
 6145TIP3   OH218440   4.786   1.780   3.491 -0.2094  0.2286 -0.3672
 6145TIP3    H118441   4.734   1.859   3.477  0.2668  0.6209  0.0404
 6145TIP3    H218442   4.758   1.721   3.421 -2.3515 -0.1879  0.7432
 6146TIP3   OH218443   2.821   5.541   4.529  0.1911  0.1659  0.1029
 6146TIP3    H118444   2.913   5.520   4.547  0.5287  1.4242 -0.0488
 6146TIP3    H218445   2.779   5.536   4.615  0.4835 -0.0273  0.2374
 6147TIP3   OH218446   6.165   1.377   4.340  0.2356 -0.1328 -0.1900
 6147TIP3    H118447   6.226   1.310   4.311 -1.2047 -2.0862  1.0870
 6147TIP3    H218448   6.080   1.349   4.307 -0.4149  1.0961  0.3471
 6148TIP3   OH218449   1.209   4.909   1.050  0.2493 -0.1283 -0.5458
 6148TIP3    H118450   1.122   4.948   1.045  0.9242  1.4840 -0.4667
 6148TIP3    H218451   1.267   4.984   1.067  1.5650 -1.2503  0.0799
 6149TIP3   OH218452   4.734   2.386   4.289  0.5125 -0.3136 -0.3878
 6149TIP3    H118453   4.780   2.343   4.217 -0.8421 -2.3003 -0.1479
 6149TIP3    H218454   4.699   2.466   4.249  5.0279  2.0466 -0.2698
 6150TIP3   OH218455   1.731   4.217   0.958 -0.1204  0.3079  0.1083
 6150TIP3    H118456   1.772   4.284   1.013 -2.2049  0.6341  1.3765
 6150TIP3    H218457   1.638   4.220   0.982 -0.7951 -0.8685 -2.1077
 6151TIP3   OH218458   3.774   3.588   2.597 -0.1981  0.4876  0.0036
 6151TIP3    H118459   3.819   3.620   2.675 -1.1718 -1.8435  1.6133
 6151TIP3    H218460   3.842   3.540   2.548 -0.1857 -0.4096  0.8674
 6152TIP3   OH218461   4.981   0.448   1.159 -0.5768  0.1389  0.6002
 6152TIP3    H118462   5.045   0.519   1.151  0.6195 -1.0916 -2.2058
 6152TIP3    H218463   5.005   0.403   1.240  0.3919  1.2801  0.9800
 6153TIP3   OH218464   5.505   5.388   0.407  0.5661  0.3813 -0.5608
 6153TIP3    H118465   5.461   5.353   0.329 -0.0785 -2.2899  0.8900
 6153TIP3    H218466   5.435   5.398   0.471  1.5595 -1.2402  0.8849
 6154TIP3   OH218467   3.066   3.889   0.361 -0.1567 -0.2287  0.3987
 6154TIP3    H118468   3.040   3.966   0.310  0.5723 -0.7521 -0.8196
 6154TIP3    H218469   3.138   3.851   0.311 -0.0627 -1.3245  1.3380
 6155TIP3   OH218470   6.181   3.576   4.211 -0.3173 -0.0093 -0.5367
 6155TIP3    H118471   6.275   3.594   4.202 -0.6199  1.3626 -1.2411
 6155TIP3    H218472   6.155   3.625   4.289 -0.4425 -0.4200 -0.3204
 6156TIP3   OH218473   4.306   0.239   4.477 -0.2052  0.1178  0.5165
 6156TIP3    H118474   4.365   0.166   4.491  0.3598  0.6789  1.1190
 6156TIP3    H218475   4.230   0.221   4.532 -0.1874 -0.1498  0.4511
 6157TIP3   OH218476   1.161   4.344   2.973  0.0766 -0.3478 -0.4028
 6157TIP3    H118477   1.119   4.398   3.040 -0.0722 -0.3815 -0.4688
 6157TIP3    H218478   1.255   4.347   2.995  0.0175 -0.4487 -0.1286
 6158TIP3   OH218479   1.168   3.104   2.819 -0.2314 -0.4838  0.0958
 6158TIP3    H118480   1.191   3.025   2.867  0.6444  0.4723  1.3071
 6158TIP3    H218481   1.238   3.166   2.839 -1.7215  1.1378  0.5296
 6159TIP3   OH218482  -0.011   3.425   0.094  0.3663 -0.1338 -0.3310
 6159TIP3    H118483   0.041   3.367   0.040 -0.5892 -0.3733 -1.0256
 6159TIP3    H218484  -0.011   3.508   0.048 -1.5804 -0.7039 -1.4848
 6160TIP3   OH218485   5.929   2.043   4.339  0.1205 -0.3085  0.2950
 6160TIP3    H118486   5.998   2.054   4.405 -0.8088 -1.2332  1.4902
 6160TIP3    H218487   5.858   1.999   4.387 -1.2986  0.6214 -0.8863
 6161TIP3   OH218488   5.122   1.058   4.705  0.0665  0.2015 -0.0497
 6161TIP3    H118489   5.101   1.049   4.798  3.4769  0.7376  0.9347
 6161TIP3    H218490   5.141   0.969   4.676  1.2632  0.2609  0.4731
 6162TIP3   OH218491   3.098   3.195   4.331 -0.2606  0.3996 -1.1563
 6162TIP3    H118492   3.014   3.157   4.304  0.3221 -0.8745 -1.2602
 6162TIP3    H218493   3.087   3.289   4.320 -1.0862  0.1274 -2.8995
 6163TIP3   OH218494   2.692   5.155   1.636 -0.5111  0.0125 -0.0040
 6163TIP3    H118495   2.634   5.132   1.710  0.4245 -0.4252  0.6134
 6163TIP3    H218496   2.643   5.126   1.559 -0.9637 -0.6977  0.5286
 6164TIP3   OH218497   2.568   1.228   2.210  0.1485 -0.1202 -0.2630
 6164TIP3    H118498   2.546   1.278   2.131  1.0391 -0.1091 -0.5133
 6164TIP3    H218499   2.653   1.263   2.237 -0.2585  0.0525  0.8524
 6165TIP3   OH218500   3.471   1.611   4.191 -0.5294 -1.2036  0.2939
 6165TIP3    H118501   3.450   1.695   4.232 -2.5201 -0.2536 -2.3970
 6165TIP3    H218502   3.448   1.546   4.257 -0.7083  0.2803  1.7707
 6166TIP3   OH218503   5.244   5.218   1.894 -0.8094 -0.8955 -0.1375
 6166TIP3    H118504   5.203   5.295   1.934  0.2863 -0.0111 -0.6622
 6166TIP3    H218505   5.308   5.189   1.959 -0.8673 -1.0500 -0.1513
 6167TIP3   OH218506   1.684   3.548   2.643  0.1985 -0.3363 -0.1993
 6167TIP3    H118507   1.747   3.488   2.682  1.9445  2.4031  1.4767
 6167TIP3    H218508   1.624   3.570   2.714  0.0807  0.5078 -0.5427
 6168TIP3   OH218509   1.791   3.377   2.167  0.1362  0.3919  0.1271
 6168TIP3    H118510   1.875   3.424   2.168 -0.1173  0.8392  0.9818
 6168TIP3    H218511   1.725   3.445   2.159 -0.1708  0.0494 -0.3799
 6169TIP3   OH218512   4.472   5.348   1.408 -0.0372  0.2581  0.0050
 6169TIP3    H118513   4.456   5.440   1.391  1.2251  0.6907  0.9921
 6169TIP3    H218514   4.550   5.347   1.464  0.1456 -1.4140 -0.2214
 6170TIP3   OH218515   4.585   0.937   3.127  0.2045  0.5352  0.3422
 6170TIP3    H118516   4.551   0.949   3.038 -1.6639  0.0280  0.9458
 6170TIP3    H218517   4.556   1.016   3.174  0.0600  0.2039  0.8137
 6171TIP3   OH218518   5.497   4.135   3.933 -0.0829  0.7791  0.0659
 6171TIP3    H118519   5.428   4.084   3.975 -1.2010  1.0538 -1.3468
 6171TIP3    H218520   5.492   4.221   3.974  0.0089  0.5406  0.5821
 6172TIP3   OH218521   2.584   5.799   2.902  0.1941 -0.4694  0.6478
 6172TIP3    H118522   2.620   5.860   2.838 -0.3060 -2.5055 -1.7167
 6172TIP3    H218523   2.641   5.722   2.897  0.3280 -0.5880  2.9265
 6173TIP3   OH218524   6.194   3.521   1.207 -0.0605 -0.2351 -0.5069
 6173TIP3    H118525   6.209   3.600   1.260 -3.3904  0.4243 -0.3491
 6173TIP3    H218526   6.193   3.449   1.270 -0.0390  0.0148 -0.2204
 6174TIP3   OH218527   4.589   2.953   4.020  0.0672 -0.3166 -0.0296
 6174TIP3    H118528   4.657   3.006   4.062 -0.5543  0.8717 -0.4846
 6174TIP3    H218529   4.603   2.865   4.055  3.9207 -0.9549 -2.5099
 6175TIP3   OH218530   1.311   1.543   4.615  0.0416 -0.1512 -0.4411
 6175TIP3    H118531   1.274   1.566   4.700 -2.1447 -0.0662 -1.3598
 6175TIP3    H218532   1.285   1.452   4.601 -0.9758  0.3000 -1.6634
 6176TIP3   OH218533   5.107   5.066   1.422 -0.0361 -0.0714  0.1465
 6176TIP3    H118534   5.161   5.125   1.370 -1.6545 -0.3221 -1.9349
 6176TIP3    H218535   5.133   4.978   1.394 -0.9493 -0.2075 -0.3043
 6177TIP3   OH218536   3.355   0.914  -0.022 -0.4308  0.3022 -0.4162
 6177TIP3    H118537   3.432   0.866   0.009 -1.5705 -1.6590 -0.4199
 6177TIP3    H218538   3.309   0.939   0.058 -0.0858  0.9912 -0.4265
 6178TIP3   OH218539   0.614   1.580   0.364  0.1411  0.3072  0.3564
 6178TIP3    H118540   0.632   1.657   0.418 -1.6046  1.1182 -0.1216
 6178TIP3    H218541   0.540   1.607   0.309 -0.9291 -1.9107  0.5903
 6179TIP3   OH218542   0.985   3.561   4.222  0.3202 -0.2719 -0.8526
 6179TIP3    H118543   0.924   3.635   4.221  1.4056  0.6443 -0.5465
 6179TIP3    H218544   1.062   3.591   4.174  1.7277 -0.3266  1.2382
 6180TIP3   OH218545   4.756   2.367   3.150  0.0802  0.0816 -0.5128
 6180TIP3    H118546   4.676   2.356   3.202  1.0648  0.5130  1.1564
 6180TIP3    H218547   4.784   2.457   3.169  0.9871 -0.0777 -1.0572
 6181TIP3   OH218548   3.151   0.264   0.079  0.4488 -0.1705 -0.0857
 6181TIP3    H118549   3.192   0.178   0.092  1.4606  0.1985 -0.7179
 6181TIP3    H218550   3.199   0.322   0.137  1.5730  0.4752 -1.5944
 6182TIP3   OH218551   5.407   3.735   3.660  0.6926  0.4441 -0.2449
 6182TIP3    H118552   5.413   3.650   3.615 -1.7964  0.7234 -1.3095
 6182TIP3    H218553   5.468   3.728   3.733 -0.5213 -2.9279  0.6540
 6183TIP3   OH218554   0.155   5.306   2.025 -0.3449 -0.2470 -0.6192
 6183TIP3    H118555   0.115   5.337   1.944 -0.5471  0.8065 -0.1272
 6183TIP3    H218556   0.129   5.214   2.031 -1.5221  0.0454 -1.0277
 6184TIP3   OH218557   4.954   4.943   0.912  0.0029 -0.3226  0.1074
 6184TIP3    H118558   4.894   4.880   0.872 -1.1228  1.8263 -1.9080
 6184TIP3    H218559   5.040   4.902   0.907 -0.3989 -1.0404 -2.8621
 6185TIP3   OH218560   4.181   3.159   5.039 -0.2118  0.1797  0.5345
 6185TIP3    H118561   4.192   3.234   5.098 -1.4395  0.3462  0.5888
 6185TIP3    H218562   4.118   3.190   4.973  1.3898  0.1231 -1.1025
 6186TIP3   OH218563   5.056   3.559   0.557 -0.1659 -0.3308  0.7833
 6186TIP3    H118564   4.977   3.608   0.577  0.2633 -0.0781  1.9414
 6186TIP3    H218565   5.078   3.584   0.467 -2.7082 -2.2436 -0.5126
 6187TIP3   OH218566   5.626   0.612   2.162 -0.0214 -1.0675  0.0060
 6187TIP3    H118567   5.708   0.618   2.112 -0.9472 -0.2138 -1.4917
 6187TIP3    H218568   5.593   0.702   2.165 -0.9031 -1.3978  0.6040
 6188TIP3   OH218569   5.342   3.386   0.626 -0.2152  0.2907 -0.4538
 6188TIP3    H118570   5.333   3.372   0.721  0.2165  0.6481 -0.3567
 6188TIP3    H218571   5.317   3.478   0.613  0.1428  0.3669 -0.6230
 6189TIP3   OH218572   2.659   0.269   4.641  0.0686  0.4457  0.1289
 6189TIP3    H118573   2.695   0.181   4.648  0.0660  0.4696  0.4736
 6189TIP3    H218574   2.699   0.317   4.714  2.4304  1.5823 -1.7975
 6190TIP3   OH218575   5.429   2.562   5.029 -0.0708 -0.2655  0.1911
 6190TIP3    H118576   5.475   2.515   5.098 -1.0388  0.2577  1.2279
 6190TIP3    H218577   5.353   2.508   5.009 -0.9860  0.6254  1.1269
 6191TIP3   OH218578   0.788   3.735   0.134  0.2620 -0.2125  0.1857
 6191TIP3    H118579   0.803   3.825   0.162  1.4379 -0.4871  0.4772
 6191TIP3    H218580   0.695   3.719   0.153  0.1802  0.7564  0.6239
 6192TIP3   OH218581   4.915   1.958   1.696  0.5109  0.1847 -0.5411
 6192TIP3    H118582   4.917   1.904   1.775 -0.6816  2.8594  1.4692
 6192TIP3    H218583   4.828   1.942   1.659  0.5652 -0.0584 -0.5660
 6193TIP3   OH218584   4.156   2.427   0.097 -0.3298  0.3387  0.3190
 6193TIP3    H118585   4.241   2.470   0.084  0.0016 -0.7883 -1.6094
 6193TIP3    H218586   4.093   2.486   0.056 -0.1022 -0.1013 -0.7008
 6194TIP3   OH218587   3.283   4.556   4.091 -0.8436 -0.0788  0.2225
 6194TIP3    H118588   3.350   4.489   4.105  0.7123  0.6644 -2.8456
 6194TIP3    H218589   3.295   4.618   4.164 -0.7493 -1.8331  1.7679
 6195TIP3   OH218590   0.138   1.584   3.692 -0.4978  0.3266 -0.3493
 6195TIP3    H118591   0.061   1.630   3.658  0.0275  2.2206  0.8475
 6195TIP3    H218592   0.158   1.518   3.626 -1.7598  1.3284 -1.8021
 6196TIP3   OH218593   0.171   3.412   2.124  0.7113  0.2693  0.2481
 6196TIP3    H118594   0.090   3.408   2.074  1.4478  2.4365 -1.2800
 6196TIP3    H218595   0.229   3.349   2.082  0.3228 -0.1850  0.3884
 6197TIP3   OH218596   1.095   4.822   0.430  0.7348 -0.7009  0.2884
 6197TIP3    H118597   1.160   4.754   0.452 -1.4533 -2.1687  2.8477
 6197TIP3    H218598   1.036   4.779   0.368 -0.1210 -0.8652  1.1910
 6198TIP3   OH218599   3.159   0.964   4.277 -0.0867  0.0682  0.4484
 6198TIP3    H118600   3.149   0.984   4.371  0.8074 -0.6356  0.7093
 6198TIP3    H218601   3.254   0.969   4.262 -0.3222  1.5699 -0.7552
 6199TIP3   OH218602   1.559   1.788   1.515 -0.0788 -0.0661 -0.1228
 6199TIP3    H118603   1.595   1.855   1.573  0.1767  0.1749 -0.5526
 6199TIP3    H218604   1.622   1.782   1.443 -1.0497  0.6127 -1.0673
 6200TIP3   OH218605   6.143   0.083   4.107  0.4649  0.2754 -0.3738
 6200TIP3    H118606   6.153   0.118   4.196 -1.7613  1.4538 -0.5135
 6200TIP3    H218607   6.072   0.135   4.069  0.3483 -1.2083 -2.3256
 6201TIP3   OH218608   6.072   1.588   4.505 -0.3291 -0.1162 -0.4398
 6201TIP3    H118609   6.105   1.505   4.471 -2.9268 -1.1516 -0.6762
 6201TIP3    H218610   5.995   1.606   4.452 -0.7761  1.5860  0.7149
 6202TIP3   OH218611   0.994   5.425   2.184  0.1027  0.4275 -0.5432
 6202TIP3    H118612   0.932   5.360   2.153  0.6010 -0.2928 -0.0660
 6202TIP3    H218613   0.984   5.425   2.279  1.4421 -0.3496 -0.3738
 6203TIP3   OH218614   4.788   5.223   1.959 -0.3292 -0.1350  0.3589
 6203TIP3    H118615   4.767   5.190   1.871  0.5956 -0.7079  0.3351
 6203TIP3    H218616   4.802   5.317   1.947 -3.9770  0.5873  0.5922
 6204TIP3   OH218617   1.983   5.934   2.110  0.3344 -0.3950 -0.2434
 6204TIP3    H118618   2.001   6.027   2.120 -0.9431 -0.0019 -1.2893
 6204TIP3    H218619   2.069   5.893   2.101  0.9329  0.5998  0.6843
 6205TIP3   OH218620   1.512   1.357   4.153 -0.1578  0.1979  0.2345
 6205TIP3    H118621   1.547   1.295   4.089  0.5662 -0.5726  1.3342
 6205TIP3    H218622   1.589   1.403   4.186 -0.4772  0.3477  0.7866
 6206TIP3   OH218623   5.353   4.383   4.874  0.0941  0.4701  0.0275
 6206TIP3    H118624   5.430   4.391   4.930  1.0287  1.0914 -1.2990
 6206TIP3    H218625   5.351   4.463   4.822 -1.0729  0.1721 -0.4381
 6207TIP3   OH218626   2.331   5.704   4.479 -0.4892 -0.2431 -0.0070
 6207TIP3    H118627   2.322   5.640   4.549  1.1948 -0.9851 -0.4219
 6207TIP3    H218628   2.304   5.657   4.400 -0.3042 -0.0924 -0.1604
 6208TIP3   OH218629   0.268   0.594   0.535  0.6609 -0.0229  0.5559
 6208TIP3    H118630   0.249   0.628   0.447  2.2743  0.3750  0.3319
 6208TIP3    H218631   0.222   0.654   0.594 -2.2061 -1.4810  0.0023
 6209TIP3   OH218632   1.435   4.429   1.600  0.0039  0.4776  0.3395
 6209TIP3    H118633   1.436   4.333   1.604  1.0867  0.4157 -0.6673
 6209TIP3    H218634   1.522   4.452   1.567 -0.7155  1.7397 -0.7675
 6210TIP3   OH218635   3.528   1.650   2.423 -0.2912 -0.3129  0.0913
 6210TIP3    H118636   3.552   1.693   2.342 -0.9650  1.0508  0.5900
 6210TIP3    H218637   3.474   1.576   2.395 -3.8247  2.2903 -0.6685
 6211TIP3   OH218638   2.831   3.248   4.823 -0.3577 -0.6237  0.1454
 6211TIP3    H118639   2.890   3.172   4.815 -0.6249 -0.6919 -1.5241
 6211TIP3    H218640   2.878   3.308   4.881  0.2245 -1.7306  0.8517
 6212TIP3   OH218641   1.035   2.539   2.671 -0.6463  0.0959 -0.5315
 6212TIP3    H118642   0.943   2.536   2.696 -0.3809 -2.2165  0.4775
 6212TIP3    H218643   1.047   2.461   2.617  0.9313 -0.2309  0.2352
 6213TIP3   OH218644   3.016   5.310   0.918  0.0831 -0.1086 -0.0466
 6213TIP3    H118645   2.974   5.314   0.832 -0.0962 -3.2865 -0.2125
 6213TIP3    H218646   2.943   5.305   0.980  0.1873  2.8786  0.4781
 6214TIP3   OH218647   1.847   1.967   4.843 -0.2191  0.1660  0.1250
 6214TIP3    H118648   1.924   2.023   4.842 -0.3215  0.3160 -0.8154
 6214TIP3    H218649   1.782   2.016   4.893 -0.6877  1.4506 -1.6354
 6215TIP3   OH218650   0.389   5.520   1.461  0.0418  0.1068 -0.5000
 6215TIP3    H118651   0.358   5.444   1.510 -2.3700  0.0998 -1.8925
 6215TIP3    H218652   0.379   5.593   1.522  4.9087 -0.7646  1.8680
 6216TIP3   OH218653   4.216   3.409   0.826 -0.0217 -0.2414 -0.0451
 6216TIP3    H118654   4.229   3.347   0.754 -0.9085 -0.2663 -0.1972
 6216TIP3    H218655   4.162   3.362   0.889 -1.3582  0.5892 -0.5088
 6217TIP3   OH218656   2.479   1.530   2.814  0.1600 -0.0777 -0.3129
 6217TIP3    H118657   2.443   1.486   2.891 -0.8940 -0.0032 -0.7454
 6217TIP3    H218658   2.526   1.606   2.849 -1.7458  0.9317  0.1860
 6218TIP3   OH218659   0.836   4.231   5.120  0.3221 -0.4866 -0.2677
 6218TIP3    H118660   0.837   4.291   5.046 -1.5683 -0.9854 -0.7461
 6218TIP3    H218661   0.800   4.149   5.086 -0.7711 -0.6742  1.2031
 6219TIP3   OH218662   6.184   4.742   4.583 -0.6185  0.4412 -0.0299
 6219TIP3    H118663   6.247   4.673   4.564 -2.2341 -1.0000 -0.4407
 6219TIP3    H218664   6.232   4.824   4.568  0.8234 -0.5923 -1.3577
 6220TIP3   OH218665   1.518   3.611   3.392 -0.3238  0.1643  0.1462
 6220TIP3    H118666   1.473   3.686   3.430 -1.2595  0.1951 -0.9608
 6220TIP3    H218667   1.596   3.598   3.447 -1.5799  0.2103  2.0135
 6221TIP3   OH218668   2.139   4.560   4.640 -0.3812  0.4198  0.4634
 6221TIP3    H118669   2.231   4.539   4.622 -1.1341 -2.2392 -0.7809
 6221TIP3    H218670   2.139   4.587   4.732  1.3954 -1.8877  1.2697
 6222TIP3   OH218671   6.000   5.011   4.621 -0.4343  0.1424  0.3149
 6222TIP3    H118672   6.080   5.050   4.656 -0.4409 -1.2535  2.0387
 6222TIP3    H218673   5.982   5.060   4.541 -0.2480  3.3449  2.0638
 6223TIP3   OH218674   4.459   2.162   3.134 -0.1942 -0.3247 -0.6409
 6223TIP3    H118675   4.499   2.080   3.164  0.5659 -0.1151 -1.0505
 6223TIP3    H218676   4.469   2.222   3.208 -0.2606 -0.4388 -0.5386
 6224TIP3   OH218677   4.788   1.332   3.965  0.5272  0.9849  0.3149
 6224TIP3    H118678   4.778   1.354   4.057  2.5760  1.1695  0.5475
 6224TIP3    H218679   4.840   1.404   3.929 -0.3952  1.0181 -1.0488
 6225TIP3   OH218680   0.870   1.677   3.756 -0.0829  0.3357 -0.1829
 6225TIP3    H118681   0.897   1.615   3.687 -1.6609 -1.4155  0.6813
 6225TIP3    H218682   0.931   1.660   3.828 -2.2456 -2.4930  1.1757
 6226TIP3   OH218683   4.919   3.117   2.684 -0.4055 -0.1298 -0.5222
 6226TIP3    H118684   4.988   3.103   2.748 -0.8350  1.4727  0.3631
 6226TIP3    H218685   4.964   3.154   2.608 -0.3009  1.3307  0.2150
 6227TIP3   OH218686   0.019   0.815   3.487 -0.3917  0.3752 -0.1989
 6227TIP3    H118687   0.003   0.747   3.552 -1.8420  0.8997  0.0244
 6227TIP3    H218688   0.018   0.770   3.403  0.2991 -0.1237  0.0583
 6228TIP3   OH218689   2.849   3.367   3.002  0.4318  0.5771  0.4080
 6228TIP3    H118690   2.901   3.291   3.028 -0.7729 -0.3675  0.1499
 6228TIP3    H218691   2.806   3.340   2.921 -0.0653  1.5177  0.3467
 6229TIP3   OH218692   6.001   4.593   3.755  0.8285  0.0496 -0.6758
 6229TIP3    H118693   6.029   4.561   3.840 -1.0729 -1.2129 -0.4489
 6229TIP3    H218694   5.972   4.515   3.708  0.6158  0.8786 -1.9908
 6230TIP3   OH218695   3.729   0.780   0.102 -0.4160  0.7297 -0.2323
 6230TIP3    H118696   3.687   0.753   0.021  0.0548 -1.5725  0.1989
 6230TIP3    H218697   3.658   0.783   0.166 -0.2919 -1.3336  0.0820
 6231TIP3   OH218698   5.557   3.491   2.484  0.2757 -0.2316  0.2387
 6231TIP3    H118699   5.649   3.502   2.461  0.5206 -0.2484  1.1657
 6231TIP3    H218700   5.511   3.558   2.433  0.6892 -0.7808 -0.8847
 6232TIP3   OH218701   5.034   3.657   0.316  0.1339 -0.3973 -0.0000
 6232TIP3    H118702   5.025   3.593   0.246 -1.1222  0.1974 -0.4076
 6232TIP3    H218703   4.999   3.738   0.280 -0.7439 -0.1246  1.3629
 6233TIP3   OH218704   0.379   1.822   2.748 -0.1303  0.7793 -0.2182
 6233TIP3    H118705   0.451   1.795   2.691 -0.2696  2.2276 -1.1377
 6233TIP3    H218706   0.408   1.801   2.836  0.5270 -0.5641 -0.7335
 6234TIP3   OH218707   0.341   5.343   3.505  0.0461  0.7100 -0.4052
 6234TIP3    H118708   0.371   5.285   3.574 -0.4152  1.5857  0.5587
 6234TIP3    H218709   0.422   5.375   3.463  0.3247  0.1896 -0.2660
 6235TIP3   OH218710   3.092   3.440   2.010  0.7205 -0.3001 -0.1571
 6235TIP3    H118711   3.050   3.465   1.927 -0.5518 -1.4285  0.1012
 6235TIP3    H218712   3.044   3.489   2.077 -0.0872 -1.4396  0.1248
 6236TIP3   OH218713   2.135   0.665   0.938 -0.4606 -0.1814  0.4279
 6236TIP3    H118714   2.149   0.590   0.880  0.5560  2.4566 -3.0776
 6236TIP3    H218715   2.221   0.707   0.943 -1.4618  2.0225  0.2435
 6237TIP3   OH218716   0.846   0.202   1.793  0.2257 -0.2665 -0.3511
 6237TIP3    H118717   0.782   0.133   1.810  0.6356 -0.7956 -0.9211
 6237TIP3    H218718   0.794   0.283   1.791 -0.2514 -0.5495  0.3612
 6238TIP3   OH218719   6.121   2.417   4.218 -0.5319 -0.6395  0.2408
 6238TIP3    H118720   6.094   2.472   4.144 -0.4360 -1.7400 -0.6289
 6238TIP3    H218721   6.081   2.459   4.294 -1.1708  0.1528 -0.5083
 6239TIP3   OH218722   3.146   1.838   2.596  0.1234  0.1477  0.4639
 6239TIP3    H118723   3.176   1.885   2.674 -0.1208 -0.7142  1.0983
 6239TIP3    H218724   3.158   1.746   2.619 -1.5500 -0.1826  0.1491
 6240TIP3   OH218725   5.359   2.378   2.490  0.1674  0.0356  0.2595
 6240TIP3    H118726   5.366   2.407   2.581  0.8339 -0.2703  0.3074
 6240TIP3    H218727   5.443   2.337   2.471 -0.4184 -1.0315 -0.1084
 6241TIP3   OH218728   0.239   4.071   1.923 -0.4050  0.2015  0.3772
 6241TIP3    H118729   0.165   4.053   1.982 -0.2178  0.9731  0.8627
 6241TIP3    H218730   0.314   4.027   1.964 -0.0677  1.5453  1.2595
 6242TIP3   OH218731   4.617   1.481   0.636 -0.6965 -0.4304  0.0063
 6242TIP3    H118732   4.551   1.534   0.592 -0.6475 -0.4070 -0.0389
 6242TIP3    H218733   4.685   1.543   0.662 -1.1398 -0.3064  0.9057
 6243TIP3   OH218734   5.078   5.549   1.809  0.3657 -0.5507  0.6134
 6243TIP3    H118735   5.113   5.510   1.729  1.5834  0.9628  0.3685
 6243TIP3    H218736   5.129   5.510   1.880 -0.0990 -1.2146  0.5917
 6244TIP3   OH218737   0.904   2.889   0.557 -0.0211  0.3584  0.2724
 6244TIP3    H118738   0.971   2.937   0.509  0.0810 -0.4486 -0.4126
 6244TIP3    H218739   0.881   2.946   0.631  0.6516  1.1001 -0.0855
 6245TIP3   OH218740   1.010   5.231   4.505 -0.3079  0.4481  0.4411
 6245TIP3    H118741   1.087   5.198   4.552 -0.8233 -0.5148  0.6203
 6245TIP3    H218742   0.943   5.241   4.573 -0.4723  0.8773  0.2177
 6246TIP3   OH218743   5.292   3.007   1.670 -0.7017 -0.1809  0.2435
 6246TIP3    H118744   5.315   3.100   1.678 -0.7480 -0.1628  0.1687
 6246TIP3    H218745   5.341   2.977   1.593 -0.9996 -0.1195  0.0289
 6247TIP3   OH218746   1.826   0.665   3.344  0.0443  0.0316  0.2743
 6247TIP3    H118747   1.778   0.743   3.370  0.8826  0.3817  0.7902
 6247TIP3    H218748   1.874   0.691   3.266  0.8397  0.2298  0.8262
 6248TIP3   OH218749   2.339   5.856   1.110  0.6731 -0.1496 -0.4013
 6248TIP3    H118750   2.295   5.937   1.136 -0.3934 -0.7953 -0.0990
 6248TIP3    H218751   2.422   5.858   1.157  0.9589  1.0634 -0.9116
 6249TIP3   OH218752   0.385   3.693   0.833 -0.3716  0.7551  0.0876
 6249TIP3    H118753   0.414   3.605   0.858 -2.5481 -0.6086 -1.8470
 6249TIP3    H218754   0.460   3.749   0.855  0.7479 -1.3765  2.2444
 6250TIP3   OH218755   2.325   3.752   5.068  0.0465 -0.3990 -0.2766
 6250TIP3    H118756   2.243   3.706   5.089 -0.6501  0.1703 -1.6162
 6250TIP3    H218757   2.315   3.778   4.976  2.1417 -1.1451 -0.7745
 6251TIP3   OH218758   6.082   4.068   3.872  0.7548 -0.2471 -0.2327
 6251TIP3    H118759   6.154   4.007   3.855  1.8485  0.7553  0.5854
 6251TIP3    H218760   6.016   4.045   3.808  0.9174 -2.5826  0.3244
 6252TIP3   OH218761   0.914   5.273   1.894 -0.1018 -0.4535  0.3389
 6252TIP3    H118762   0.958   5.200   1.937  1.2716  0.5991  0.8343
 6252TIP3    H218763   0.983   5.314   1.842 -0.3231  1.5603  1.5156
 6253TIP3   OH218764   5.389   1.281   1.785  0.4333 -0.0311 -0.6623
 6253TIP3    H118765   5.300   1.310   1.804  0.1903 -0.9073 -0.4221
 6253TIP3    H218766   5.390   1.266   1.690  0.2960 -0.1482 -0.6439
 6254TIP3   OH218767   3.256   0.355   4.826  0.5962  0.6638 -0.2323
 6254TIP3    H118768   3.259   0.442   4.787  1.6667  0.5102 -0.5302
 6254TIP3    H218769   3.173   0.353   4.874  0.0468  1.4490 -1.1242
 6255TIP3   OH218770   1.917   4.905   2.203  0.5002 -0.0714 -0.1422
 6255TIP3    H118771   1.848   4.847   2.235 -0.5995  1.3834  0.2347
 6255TIP3    H218772   1.991   4.847   2.186 -0.2987 -1.4749  0.9381
 6256TIP3   OH218773   1.696   0.643   0.839 -0.2439  0.0302 -0.0027
 6256TIP3    H118774   1.701   0.547   0.833 -2.7150 -0.1072 -1.5487
 6256TIP3    H218775   1.602   0.662   0.828 -0.1460  2.5414  2.6262
 6257TIP3   OH218776   0.861   5.766   3.840  0.0926 -0.0320  0.0259
 6257TIP3    H118777   0.941   5.819   3.845 -0.3559  0.7316 -0.7597
 6257TIP3    H218778   0.793   5.827   3.811 -0.6307 -0.8402 -0.0195
 6258TIP3   OH218779   2.650   5.932   0.926  0.1327 -0.1057 -0.4161
 6258TIP3    H118780   2.611   5.845   0.921 -1.2538  0.4862 -0.4265
 6258TIP3    H218781   2.723   5.929   0.864 -0.1349 -1.1460 -0.7024
 6259TIP3   OH218782   2.742   4.539   2.721 -0.2280 -0.4210  0.3466
 6259TIP3    H118783   2.802   4.614   2.718 -1.5595  0.7063  0.6753
 6259TIP3    H218784   2.733   4.512   2.630  0.5357 -0.4032  0.2602
 6260TIP3   OH218785   0.982   3.335   4.383  0.3200  0.1733  0.0119
 6260TIP3    H118786   1.002   3.264   4.322 -2.4916  0.5208 -1.4532
 6260TIP3    H218787   0.994   3.415   4.332 -1.7568  0.4855 -0.0635
 6261TIP3   OH218788   4.825   3.257   1.324  0.0267 -0.0783  0.0112
 6261TIP3    H118789   4.911   3.236   1.288 -0.2177  0.3948 -0.8825
 6261TIP3    H218790   4.773   3.284   1.248 -0.4160  1.2375  0.7490
 6262TIP3   OH218791   6.261   4.247   4.680  0.4144  0.5755  0.2463
 6262TIP3    H118792   6.322   4.277   4.749  1.7580 -0.4581 -0.4375
 6262TIP3    H218793   6.258   4.320   4.618  0.2794  0.9763  0.7149
 6263TIP3   OH218794   4.530   4.491   4.213 -0.3005  0.1771  0.3030
 6263TIP3    H118795   4.561   4.549   4.143  0.2545 -0.9306 -0.4007
 6263TIP3    H218796   4.472   4.546   4.266 -0.3594  1.1717 -0.7559
 6264TIP3   OH218797   5.715   4.815   1.391 -0.1805  0.0607 -0.0065
 6264TIP3    H118798   5.698   4.903   1.425  0.0557 -0.7620  2.3947
 6264TIP3    H218799   5.698   4.756   1.465  0.7930 -1.8360 -1.2049
 6265TIP3   OH218800   1.547   4.815   1.554  0.6009  0.4786 -0.1753
 6265TIP3    H118801   1.528   4.780   1.641  2.1371 -1.6241 -0.6099
 6265TIP3    H218802   1.580   4.903   1.570  0.1131  0.4115  1.2973
 6266TIP3   OH218803   1.686   1.527   4.744 -0.4408 -0.6584 -0.1531
 6266TIP3    H118804   1.612   1.510   4.803 -0.5471 -1.3574 -0.4778
 6266TIP3    H218805   1.649   1.514   4.657 -0.3763  0.7283 -0.3977
 6267TIP3   OH218806   5.997   0.627   3.529  0.1189  0.1105  0.0186
 6267TIP3    H118807   5.911   0.590   3.511  0.7092 -0.9294 -0.8160
 6267TIP3    H218808   6.056   0.582   3.468  0.9382  2.3678 -0.9779
 6268TIP3   OH218809   3.289   4.249   4.144 -0.2973  0.2447  0.5141
 6268TIP3    H118810   3.279   4.304   4.222  2.1988 -0.1579  1.2073
 6268TIP3    H218811   3.376   4.270   4.111 -1.2998  0.4299 -2.2594
 6269TIP3   OH218812   2.405   3.406   0.336 -0.1141  0.0562  0.1874
 6269TIP3    H118813   2.437   3.459   0.408 -0.1565 -0.8355  0.8846
 6269TIP3    H218814   2.386   3.320   0.375 -0.3954 -0.3678 -0.8234
 6270TIP3   OH218815   5.816   4.072   0.896  0.2185 -0.1245  0.0898
 6270TIP3    H118816   5.816   4.053   0.802  0.4228  1.9343 -0.3833
 6270TIP3    H218817   5.724   4.064   0.922  0.3627 -2.3123  0.1396
 6271TIP3   OH218818   2.682   1.097   1.550 -0.2209 -0.1285 -0.1973
 6271TIP3    H118819   2.644   1.034   1.490  0.2152  0.0947 -0.7174
 6271TIP3    H218820   2.726   1.161   1.494  1.0917 -0.4919  0.3634
 6272TIP3   OH218821   2.483   4.539   1.754  0.2889  0.0934  0.3303
 6272TIP3    H118822   2.396   4.520   1.719  0.8974 -2.6070  0.0542
 6272TIP3    H218823   2.479   4.510   1.845  1.0509 -0.7255  0.1237
 6273TIP3   OH218824   1.748   5.936   3.331  0.0100 -0.4133  0.4007
 6273TIP3    H118825   1.714   6.018   3.296 -1.8519 -1.6782 -0.8997
 6273TIP3    H218826   1.828   5.919   3.280 -0.7160 -0.4176 -0.7627
 6274TIP3   OH218827   6.075   2.198   5.139  0.2811 -0.7407 -0.3453
 6274TIP3    H118828   6.165   2.194   5.107  0.3755 -0.4678 -0.1157
 6274TIP3    H218829   6.080   2.248   5.221  0.1098 -1.7967  0.3397
 6275TIP3   OH218830   5.426   0.558   1.192 -0.6488  0.1494 -0.0075
 6275TIP3    H118831   5.441   0.487   1.254 -0.4274 -0.6047 -0.9019
 6275TIP3    H218832   5.466   0.528   1.110  0.8152  1.9523 -0.0259
 6276TIP3   OH218833   2.566   2.490   1.890  0.1495  0.3535 -0.0640
 6276TIP3    H118834   2.477   2.455   1.886  0.2605  0.1195 -4.0830
 6276TIP3    H218835   2.617   2.420   1.931 -1.2605 -0.0399  1.1089
 6277TIP3   OH218836   2.063   5.175   0.659  0.4053 -0.5499 -0.3924
 6277TIP3    H118837   2.093   5.113   0.592  0.8900 -0.4122 -0.3057
 6277TIP3    H218838   2.139   5.232   0.674  0.0474 -0.1034 -0.2798
 6278TIP3   OH218839   3.513   3.848   2.739 -0.3203  0.7695 -0.2563
 6278TIP3    H118840   3.506   3.752   2.740  1.9250  0.5483  0.9562
 6278TIP3    H218841   3.526   3.872   2.830  0.7556  2.0575 -0.7254
 6279TIP3   OH218842   5.889   1.921   0.197  0.0664 -0.6867 -0.0060
 6279TIP3    H118843   5.822   1.984   0.168 -0.7357 -1.1210  0.8434
 6279TIP3    H218844   5.864   1.839   0.155  0.2275 -0.7900  0.0996
 6280TIP3   OH218845   0.887   5.887   1.065 -0.2006 -0.2809  0.4888
 6280TIP3    H118846   0.912   5.859   0.977 -0.3533 -0.2684  0.4422
 6280TIP3    H218847   0.893   5.982   1.063  0.8024 -0.3212  0.7888
 6281TIP3   OH218848   0.761   1.852   3.255  0.8742  0.1733  0.3599
 6281TIP3    H118849   0.823   1.916   3.291 -0.7409  0.4658  2.8543
 6281TIP3    H218850   0.736   1.888   3.170  2.2247  1.3121  0.4059
 6282TIP3   OH218851   2.413   1.356   2.608 -0.7263  0.6085 -0.1438
 6282TIP3    H118852   2.325   1.327   2.629 -0.4471 -0.0780  0.1308
 6282TIP3    H218853   2.440   1.409   2.683 -1.6453  2.5506 -1.1339
 6283TIP3   OH218854   5.043   0.869   1.958 -0.2749  0.1576 -0.0813
 6283TIP3    H118855   5.027   0.963   1.948 -0.1700  0.2965  0.9370
 6283TIP3    H218856   4.995   0.829   1.886  1.7184  1.1369 -2.0872
 6284TIP3   OH218857   5.095   2.190   0.355 -0.3973  0.1467  0.2988
 6284TIP3    H118858   5.125   2.106   0.389 -1.3002  0.0555  0.9235
 6284TIP3    H218859   5.005   2.198   0.387 -0.8338  0.6729 -0.9892
 6285TIP3   OH218860   2.812   0.041   4.992 -0.2374 -0.3269 -1.0233
 6285TIP3    H118861   2.808   0.075   5.081 -0.2028 -2.3482 -0.2131
 6285TIP3    H218862   2.721   0.022   4.970 -0.3132  0.7185 -1.6642
 6286TIP3   OH218863   0.433   3.196   1.472 -0.0031  0.1187  0.1390
 6286TIP3    H118864   0.480   3.113   1.479 -0.1123  0.1308  1.1731
 6286TIP3    H218865   0.501   3.262   1.468  0.0869 -0.0235 -0.8622
 6287TIP3   OH218866   3.813   2.680   4.080 -0.1068  0.2346  0.3239
 6287TIP3    H118867   3.753   2.754   4.074  0.5948  0.6934 -1.5542
 6287TIP3    H218868   3.800   2.631   3.999  0.2910 -1.0650  1.0036
 6288TIP3   OH218869   2.516   5.132   3.300  0.5942  0.7423  0.5206
 6288TIP3    H118870   2.599   5.175   3.280  0.8328  0.4680  0.9351
 6288TIP3    H218871   2.539   5.042   3.320 -0.0275  0.0197 -1.6637
 6289TIP3   OH218872   5.401   4.581   2.664  0.1079  0.0777 -0.5124
 6289TIP3    H118873   5.311   4.595   2.692  0.0472  1.7717 -1.3878
 6289TIP3    H218874   5.439   4.525   2.731 -1.4677 -0.3189  0.0927
 6290TIP3   OH218875   4.464   1.471   4.175 -0.3248  0.3692  0.2331
 6290TIP3    H118876   4.514   1.486   4.256 -0.2099  0.2507  0.1846
 6290TIP3    H218877   4.395   1.410   4.201  0.5315 -0.7688 -0.0521
 6291TIP3   OH218878   0.526   0.233   4.325 -0.8625  0.7980  0.0846
 6291TIP3    H118879   0.524   0.273   4.238  0.6116  0.8829  0.0755
 6291TIP3    H218880   0.523   0.308   4.385 -1.3537  0.7598  0.1155
 6292TIP3   OH218881   3.328   3.345   2.374  0.1471  0.0453 -0.1934
 6292TIP3    H118882   3.316   3.352   2.279  1.2603 -1.6606 -0.5081
 6292TIP3    H218883   3.383   3.421   2.397 -3.0297  2.5798 -0.2176
 6293TIP3   OH218884   0.675   2.988   1.750  0.3826 -0.5678 -0.7984
 6293TIP3    H118885   0.694   2.896   1.736 -0.9863 -1.1757  0.9750
 6293TIP3    H218886   0.589   2.989   1.792  0.1754  1.5510 -1.1428
 6294TIP3   OH218887   3.116   1.875   0.718 -0.2915  0.1410  0.3046
 6294TIP3    H118888   3.190   1.827   0.682 -0.6214  0.8760 -1.4715
 6294TIP3    H218889   3.137   1.887   0.810  2.9092  2.2544 -0.5409
 6295TIP3   OH218890   3.969   5.425   2.365  0.3203 -0.1030  0.6676
 6295TIP3    H118891   3.948   5.399   2.455 -0.7155  1.2580  0.8586
 6295TIP3    H218892   4.058   5.392   2.351  0.9803  0.6789  2.6263
 6296TIP3   OH218893   5.291   0.910   4.224 -0.1605  0.1266 -0.6590
 6296TIP3    H118894   5.250   0.827   4.250  2.8616 -0.9540  1.1733
 6296TIP3    H218895   5.340   0.888   4.145 -1.0134  0.7645 -1.3867
 6297TIP3   OH218896   6.316   5.760   2.269  0.2885  0.1360 -0.2525
 6297TIP3    H118897   6.331   5.771   2.362 -2.9503  0.2896  0.3735
 6297TIP3    H218898   6.270   5.676   2.261 -0.1386  0.4628 -1.6027
 6298TIP3   OH218899   1.133   2.538   1.165 -0.4059 -0.2003  0.8719
 6298TIP3    H118900   1.135   2.632   1.183 -0.8613 -0.1111  0.4633
 6298TIP3    H218901   1.221   2.518   1.133  0.2841 -0.2663  2.6674
 6299TIP3   OH218902   0.382   2.252   4.037  0.4283 -0.2070 -0.4453
 6299TIP3    H118903   0.330   2.323   3.999  1.1552 -0.7709 -2.6386
 6299TIP3    H218904   0.435   2.295   4.105 -1.9429  0.5800  1.0156
 6300TIP3   OH218905   2.497   0.705   4.803  0.3049  0.0063 -0.4103
 6300TIP3    H118906   2.548   0.642   4.751 -1.1069 -2.3096  0.8359
 6300TIP3    H218907   2.412   0.662   4.815  0.3188  0.7268  3.1706
 6301TIP3   OH218908   6.075   5.134   2.874  0.2702  0.6919  0.4356
 6301TIP3    H118909   6.168   5.129   2.854  0.5883  1.7460  1.5780
 6301TIP3    H218910   6.067   5.103   2.964 -0.7300 -0.9501 -0.1583
 6302TIP3   OH218911   4.775   0.984   4.582  0.7086  0.1759  0.2297
 6302TIP3    H118912   4.742   0.972   4.493 -0.2173  1.2455  0.4039
 6302TIP3    H218913   4.829   1.063   4.577  0.3239  0.4768  0.6875
 6303TIP3   OH218914   5.926   2.856   0.902  0.2659 -0.2825 -0.5342
 6303TIP3    H118915   5.980   2.885   0.829  2.7544  0.1202  1.3338
 6303TIP3    H218916   5.895   2.770   0.876  1.0242 -0.1047 -2.1152
 6304TIP3   OH218917   1.358   2.436   2.655 -0.0998 -0.1662 -0.5905
 6304TIP3    H118918   1.305   2.410   2.731  0.0134  0.0639 -0.4273
 6304TIP3    H218919   1.363   2.532   2.662  1.5379 -0.2717  0.2231
 6305TIP3   OH218920   0.228   0.837   0.700  0.0374  0.0706  0.4781
 6305TIP3    H118921   0.228   0.922   0.745 -0.0476  0.8476 -0.9369
 6305TIP3    H218922   0.321   0.817   0.688  0.0550  0.2846  0.2442
 6306TIP3   OH218923   5.611   2.459   3.037  0.6091 -0.0728  0.0474
 6306TIP3    H118924   5.632   2.482   3.127 -0.4763 -0.8096  0.5037
 6306TIP3    H218925   5.645   2.532   2.985 -1.3661  1.8568  1.2951
 6307TIP3   OH218926   1.336   3.001   4.313 -0.1192 -0.1384 -0.1039
 6307TIP3    H118927   1.408   2.942   4.336  0.9801  1.1532 -0.0861
 6307TIP3    H218928   1.352   3.080   4.364 -0.8915  0.6144 -0.9761
 6308TIP3   OH218929   3.320   3.086   2.446  0.3072  0.0694  0.1404
 6308TIP3    H118930   3.373   3.034   2.385  2.4667  0.3062  1.7303
 6308TIP3    H218931   3.345   3.176   2.428 -0.7104  0.3237 -0.0906
 6309TIP3   OH218932   2.907   0.544   3.614  0.1082  0.4380 -0.4466
 6309TIP3    H118933   2.954   0.613   3.567 -0.4962  0.7352 -0.6310
 6309TIP3    H218934   2.890   0.477   3.547  0.5945  0.1626 -0.2943
 6310TIP3   OH218935   6.284   3.526   0.349  0.0394  0.1425  0.2413
 6310TIP3    H118936   6.364   3.507   0.399  1.3282  2.0358 -0.9568
 6310TIP3    H218937   6.298   3.484   0.264 -1.1294 -1.1258  0.6401
 6311TIP3   OH218938   3.448   5.034   4.328  0.0956  0.5599 -0.6177
 6311TIP3    H118939   3.457   5.129   4.326 -0.9566  0.6723 -2.1191
 6311TIP3    H218940   3.534   5.001   4.302  0.3030  1.1187 -0.6567
 6312TIP3   OH218941   6.008   3.848   4.637 -0.3868  0.1785  0.8032
 6312TIP3    H118942   6.027   3.935   4.603 -1.1141 -0.6710 -2.0543
 6312TIP3    H218943   6.080   3.829   4.697  0.8777  1.9366 -0.0815
 6313TIP3   OH218944   2.305   5.956   4.569 -0.0887 -0.0453  0.1916
 6313TIP3    H118945   2.320   5.862   4.558  3.1631  0.4171 -0.1608
 6313TIP3    H218946   2.297   5.968   4.663  1.2932 -0.4767  0.3800
 6314TIP3   OH218947   3.180   2.182   2.609  1.1291 -0.0009 -0.3783
 6314TIP3    H118948   3.263   2.174   2.562  0.8441 -2.0415 -0.6040
 6314TIP3    H218949   3.203   2.168   2.701  1.0314 -0.7856 -0.4642
 6315TIP3   OH218950   2.544   2.673   0.937 -0.4993 -0.4841 -0.0334
 6315TIP3    H118951   2.613   2.728   0.973 -1.2330 -0.1041  0.8464
 6315TIP3    H218952   2.572   2.583   0.954 -1.1289 -0.3128  2.1412
 6316TIP3   OH218953   5.872   5.702   2.632 -0.5068  0.8935 -0.0908
 6316TIP3    H118954   5.902   5.643   2.563  0.5375 -0.3980  1.3934
 6316TIP3    H218955   5.928   5.779   2.624  0.6316  0.1209  0.2155
 6317TIP3   OH218956   5.471   3.549   3.082  0.3065 -0.1840  0.3875
 6317TIP3    H118957   5.403   3.616   3.080  0.4043  0.0895  2.8243
 6317TIP3    H218958   5.423   3.466   3.078  0.0975 -0.0163 -1.2176
 6318TIP3   OH218959   3.281   1.931   4.112  0.3437  0.2496  0.0404
 6318TIP3    H118960   3.319   2.016   4.088 -1.1378  0.9435  0.0785
 6318TIP3    H218961   3.260   1.940   4.205 -0.4023  0.0657 -0.1101
 6319TIP3   OH218962   3.995   0.250   1.874 -0.2346  0.1001 -0.1663
 6319TIP3    H118963   4.005   0.345   1.878 -1.1303  0.1835  0.4134
 6319TIP3    H218964   3.911   0.237   1.830  0.4868 -0.4639 -1.4373
 6320TIP3   OH218965   5.525   0.920   3.080  0.3146 -0.5674 -0.0281
 6320TIP3    H118966   5.451   0.914   3.019  0.8542 -0.1522 -0.7412
 6320TIP3    H218967   5.589   0.975   3.035  0.2690  0.7085  1.4125
 6321TIP3   OH218968   4.365   3.783   3.869 -0.2656  0.1789  0.2388
 6321TIP3    H118969   4.380   3.709   3.929  3.9066  0.2245 -0.4456
 6321TIP3    H218970   4.422   3.852   3.902 -1.1345  1.7370 -1.3776
 6322TIP3   OH218971   0.314   0.958   5.002  0.0013  0.0665  0.2576
 6322TIP3    H118972   0.333   0.867   5.025  0.3526  0.2193  0.5873
 6322TIP3    H218973   0.261   0.952   4.923 -2.2529 -0.5368  1.7101
 6323TIP3   OH218974   0.579   3.584   4.169 -0.3152  0.0989  0.6065
 6323TIP3    H118975   0.508   3.524   4.191  0.3220  0.1841  3.2813
 6323TIP3    H218976   0.636   3.582   4.245  1.9997  0.8721 -1.0067
 6324TIP3   OH218977   1.679   5.476   4.604 -0.0679 -0.2344 -0.1108
 6324TIP3    H118978   1.619   5.527   4.550  0.1296 -1.7455 -1.8230
 6324TIP3    H218979   1.707   5.404   4.548  0.8624 -1.3643  1.7155
 6325TIP3   OH218980   5.584   4.361   4.568  0.1889  0.2699 -0.1583
 6325TIP3    H118981   5.612   4.290   4.625 -0.3060 -0.7098 -1.1140
 6325TIP3    H218982   5.491   4.372   4.587  0.8075  2.7236  2.1456
 6326TIP3   OH218983   5.697   2.829   1.152 -0.2648 -0.2399  0.2716
 6326TIP3    H118984   5.621   2.888   1.148  1.0788  1.5808  0.3284
 6326TIP3    H218985   5.714   2.806   1.061  0.8020  1.6971 -0.0771
 6327TIP3   OH218986   4.208   4.856   1.420  0.2100 -0.4741 -0.1082
 6327TIP3    H118987   4.296   4.820   1.431 -0.1300 -1.1359  0.5787
 6327TIP3    H218988   4.183   4.831   1.331  1.0154  0.4241 -0.6079
 6328TIP3   OH218989   1.008   2.766   2.949  0.3684 -0.4690 -0.2903
 6328TIP3    H118990   0.978   2.817   2.874  0.5672 -0.7800 -0.5778
 6328TIP3    H218991   0.979   2.818   3.025 -3.1631 -1.9062 -0.4343
 6329TIP3   OH218992   4.760   4.592   4.601 -0.0038 -0.1864  0.1497
 6329TIP3    H118993   4.764   4.513   4.656 -0.9970 -0.1385  0.3174
 6329TIP3    H218994   4.725   4.561   4.518  0.0263  0.0021  0.0674
 6330TIP3   OH218995   2.186   5.073   2.070 -0.6391  0.5161  0.1727
 6330TIP3    H118996   2.167   5.000   2.130 -0.7686  0.6579  0.3052
 6330TIP3    H218997   2.217   5.031   1.990 -0.8061  0.3093  0.2153
 6331TIP3   OH218998   0.296   4.240   0.960 -0.0480  0.3240  0.3413
 6331TIP3    H118999   0.350   4.177   0.912  0.2275 -0.7636  2.0105
 6331TIP3    H219000   0.355   4.276   1.027 -0.0598  2.7460 -0.8491
 6332TIP3   OH219001   3.572   2.062   0.628  0.5989  0.2846 -0.7874
 6332TIP3    H119002   3.528   2.138   0.590 -0.5068  0.8211  1.3859
 6332TIP3    H219003   3.533   2.053   0.715  1.3232 -2.2658 -0.6520
 6333TIP3   OH219004   1.967   4.734   3.010  0.3622  0.1356  0.0561
 6333TIP3    H119005   1.989   4.798   3.077 -0.2352  0.3048  0.1026
 6333TIP3    H219006   1.892   4.773   2.963 -1.3583 -1.3808  1.3844
 6334TIP3   OH219007   1.126   3.270   2.153 -0.1274 -0.2891 -0.4263
 6334TIP3    H119008   1.139   3.187   2.199  0.4025 -0.1234 -0.2768
 6334TIP3    H219009   1.191   3.329   2.191 -1.0232  0.4247  0.0241
 6335TIP3   OH219010   1.031   2.913   0.983  0.1132  0.0712  0.3617
 6335TIP3    H119011   1.099   2.977   0.962  1.2884 -0.8954  1.0997
 6335TIP3    H219012   1.060   2.832   0.940 -1.7014  0.1505 -1.1492
 6336TIP3   OH219013   4.427   3.652   3.246  0.0493  0.2220 -0.1489
 6336TIP3    H119014   4.346   3.692   3.214 -0.6207  0.1538  1.3951
 6336TIP3    H219015   4.431   3.568   3.200  0.8452  1.4457 -2.5020
 6337TIP3   OH219016   4.828   1.862   1.345  0.4056  0.1901  0.1806
 6337TIP3    H119017   4.916   1.891   1.319  0.9879 -0.8347  0.9148
 6337TIP3    H219018   4.781   1.942   1.363  1.0110  0.7848 -0.7866
 6338TIP3   OH219019   3.175   5.829   0.327 -0.2659  0.5034  0.5604
 6338TIP3    H119020   3.196   5.805   0.237 -0.8819 -0.5935  0.6903
 6338TIP3    H219021   3.260   5.853   0.365  0.5720 -2.2452  0.6087
 6339TIP3   OH219022   5.779   4.804   0.620  0.2614  0.0924 -0.0389
 6339TIP3    H119023   5.834   4.789   0.544 -0.5293  1.4596 -0.9190
 6339TIP3    H219024   5.699   4.753   0.604  0.1768  0.2217 -0.0350
 6340TIP3   OH219025   4.625   4.036   3.102  0.3644  0.2577 -0.2867
 6340TIP3    H119026   4.621   3.951   3.146 -0.3015  0.4294 -0.0110
 6340TIP3    H219027   4.710   4.071   3.127  0.5791 -0.2559 -0.2729
 6341TIP3   OH219028   3.098   3.929   1.088  0.1684 -0.2038 -0.0679
 6341TIP3    H119029   3.168   3.942   1.152 -0.2918 -2.0445  0.8803
 6341TIP3    H219030   3.037   3.870   1.131 -0.5011 -0.9794 -1.9717
 6342TIP3   OH219031   4.477   2.057   5.156  0.4566 -0.0001  0.5787
 6342TIP3    H119032   4.517   1.980   5.197  0.4950  0.9945  2.5338
 6342TIP3    H219033   4.389   2.028   5.133  0.3455 -0.5641  1.6284
 6343TIP3   OH219034   2.583   2.564   2.358 -0.0016  0.3201 -0.0090
 6343TIP3    H119035   2.550   2.521   2.280 -0.4514 -1.2479  1.0030
 6343TIP3    H219036   2.599   2.493   2.420 -0.0777  1.5475  1.4879
 6344TIP3   OH219037   3.485   3.177   0.290 -0.3741 -0.5961  0.5578
 6344TIP3    H119038   3.511   3.197   0.200 -0.3665  0.9785  0.8928
 6344TIP3    H219039   3.397   3.212   0.298 -0.8445 -1.7936  0.8317
 6345TIP3   OH219040   2.931   1.748   0.143 -0.4414  0.4571  0.0240
 6345TIP3    H119041   2.950   1.788   0.228  0.9922 -0.4251  0.1636
 6345TIP3    H219042   2.884   1.667   0.164  0.5848 -0.1539  0.0662
 6346TIP3   OH219043   1.186   1.175   2.570  0.4380 -0.4461  0.2697
 6346TIP3    H119044   1.117   1.228   2.609 -0.1861 -0.8214 -0.2952
 6346TIP3    H219045   1.191   1.097   2.626 -0.8840 -1.2718 -0.7083
 6347TIP3   OH219046   2.157   3.831   2.722 -0.4390  0.1316 -0.1697
 6347TIP3    H119047   2.134   3.755   2.775  0.7145 -0.6000 -0.6903
 6347TIP3    H219048   2.090   3.834   2.653 -0.4485 -0.4441 -0.1879
 6348TIP3   OH219049   0.492   1.807   2.992  0.6990  0.1855  0.0663
 6348TIP3    H119050   0.566   1.863   2.967 -0.4994  0.8273 -2.3287
 6348TIP3    H219051   0.532   1.730   3.032  2.5527  1.3026  0.4622
 6349TIP3   OH219052   3.197   2.801   4.852 -0.5388  0.2337 -0.5234
 6349TIP3    H119053   3.276   2.812   4.801 -1.5889 -0.4663 -2.3930
 6349TIP3    H219054   3.223   2.742   4.924  0.3134 -1.2250 -1.9578
 6350TIP3   OH219055   0.330   1.717   4.712 -0.2961  0.7514 -0.3238
 6350TIP3    H119056   0.304   1.630   4.682  1.0807  0.2446 -0.1001
 6350TIP3    H219057   0.287   1.727   4.797 -0.4119  0.2588 -0.3210
 6351TIP3   OH219058   1.938   1.206   2.931  0.1495  0.0119 -0.4783
 6351TIP3    H119059   1.857   1.157   2.947 -0.3861  1.2772  0.8273
 6351TIP3    H219060   2.007   1.149   2.966 -0.4214 -0.0435  0.6103
 6352TIP3   OH219061   0.892   5.182   2.883  0.4924  0.0079 -0.0945
 6352TIP3    H119062   0.797   5.172   2.897  0.6069  0.1435  0.8746
 6352TIP3    H219063   0.900   5.215   2.794 -0.4446  1.0100  0.1699
 6353TIP3   OH219064   4.839   4.535   2.445  0.0799  0.2822  0.1876
 6353TIP3    H119065   4.865   4.622   2.416  1.1010 -0.3882 -1.0538
 6353TIP3    H219066   4.920   4.484   2.442 -0.5625 -0.7850  0.5428
 6354TIP3   OH219067   2.156   2.397   0.180 -0.4874  0.0180  0.1956
 6354TIP3    H119068   2.191   2.313   0.150  0.1240  0.7713 -1.3584
 6354TIP3    H219069   2.086   2.417   0.117  0.6991  1.5647 -0.7192
 6355TIP3   OH219070   1.277   1.051   4.892 -0.0370 -0.1336  0.2823
 6355TIP3    H119071   1.371   1.040   4.903 -0.3225 -2.0073  1.2008
 6355TIP3    H219072   1.262   1.040   4.798  0.7133  0.9590  0.0118
 6356TIP3   OH219073   5.591   4.373   3.785 -0.0055 -0.4625 -0.8064
 6356TIP3    H119074   5.587   4.280   3.806  0.0437 -0.1853  0.4853
 6356TIP3    H219075   5.503   4.394   3.753 -0.4312 -0.6584  0.2103
 6357TIP3   OH219076   0.576   0.316   3.812 -0.1610  0.3924 -0.0867
 6357TIP3    H119077   0.495   0.271   3.787 -0.5012  0.1633  1.3524
 6357TIP3    H219078   0.639   0.245   3.826  0.0553  0.5223 -0.4070
 6358TIP3   OH219079   1.532   3.341   4.306  0.5728 -0.0649 -0.3398
 6358TIP3    H119080   1.575   3.347   4.221  0.1224  1.5488 -0.4775
 6358TIP3    H219081   1.482   3.422   4.314  1.3928  0.3086  1.8973
 6359TIP3   OH219082   2.167   4.034   0.578  0.6186 -0.3818 -0.4273
 6359TIP3    H119083   2.223   4.005   0.506  1.6069 -1.3643  0.6976
 6359TIP3    H219084   2.085   3.984   0.566 -0.2497  1.3365 -2.2913
 6360TIP3   OH219085   2.444   4.948   4.364  0.6989 -0.9305 -0.1978
 6360TIP3    H119086   2.396   4.865   4.363  0.6597 -0.9297 -2.1566
 6360TIP3    H219087   2.472   4.961   4.273 -0.4730  1.8588 -0.2826
 6361TIP3   OH219088   3.408   0.185   2.848  0.0224 -0.0009  0.2732
 6361TIP3    H119089   3.448   0.114   2.897 -1.4637 -0.4791  0.8437
 6361TIP3    H219090   3.384   0.250   2.915  1.6765  1.2506 -0.2657
 6362TIP3   OH219091   3.976   5.348   2.621  0.2220 -0.0258  0.0108
 6362TIP3    H119092   3.910   5.322   2.685  1.5288 -2.1100  0.6150
 6362TIP3    H219093   4.041   5.397   2.672 -0.3261  1.1703 -0.3961
 6363TIP3   OH219094   3.109   2.861   2.296  0.3329  0.2666 -0.7024
 6363TIP3    H119095   3.178   2.903   2.245  0.8732 -1.0922 -1.1332
 6363TIP3    H219096   3.133   2.768   2.298 -1.4838 -0.2604 -0.8942
 6364TIP3   OH219097   3.731   0.799   2.630  0.0634 -0.4559  0.2032
 6364TIP3    H119098   3.747   0.885   2.669  0.7118 -0.4599 -0.0407
 6364TIP3    H219099   3.636   0.791   2.628 -0.1983  1.6654 -2.7980
 6365TIP3   OH219100   5.177   5.171   2.806  0.2206 -0.3154  0.1833
 6365TIP3    H119101   5.264   5.195   2.837  0.0214  0.3363  0.2370
 6365TIP3    H219102   5.117   5.202   2.874 -0.1646  0.5452 -0.5290
 6366TIP3   OH219103   3.637   4.359   0.607 -0.2449 -0.0781 -0.0123
 6366TIP3    H119104   3.620   4.451   0.589  0.5052 -0.3696 -2.6192
 6366TIP3    H219105   3.557   4.328   0.649 -0.9665  1.4771 -0.1581
 6367TIP3   OH219106   0.178   5.760   2.933 -0.0844  0.1208  0.3765
 6367TIP3    H119107   0.111   5.809   2.980  1.1273 -0.1389  2.4876
 6367TIP3    H219108   0.261   5.795   2.966  0.8404 -0.1313 -1.5644
 6368TIP3   OH219109   4.647   3.913   4.126 -0.3251 -0.0082 -0.0654
 6368TIP3    H119110   4.616   3.909   4.217 -0.3555 -2.5339 -0.1278
 6368TIP3    H219111   4.581   3.967   4.081 -0.8273  0.4853  1.1981
 6369TIP3   OH219112   5.927   2.397   0.861 -0.2836  0.2002 -0.5677
 6369TIP3    H119113   6.010   2.443   0.877  0.8513 -1.6475 -0.8491
 6369TIP3    H219114   5.945   2.342   0.786 -1.6352 -0.6140 -0.3172
 6370TIP3   OH219115   5.977   4.272   4.122  0.4542  0.1225 -0.0078
 6370TIP3    H119116   5.888   4.294   4.148  0.2005  0.0751 -0.8187
 6370TIP3    H219117   5.967   4.200   4.060  1.0487  0.1707 -0.1658
 6371TIP3   OH219118   4.123   0.502   1.871 -0.4756  0.4447  0.8013
 6371TIP3    H119119   4.090   0.588   1.847  1.3242  1.1818  0.7947
 6371TIP3    H219120   4.180   0.518   1.946  0.9470 -0.5090 -0.0234
 6372TIP3   OH219121   5.528   5.508   1.157 -0.5173  0.0884 -0.1547
 6372TIP3    H119122   5.479   5.477   1.081 -1.9042  0.5401  0.5152
 6372TIP3    H219123   5.462   5.519   1.225  0.9726 -2.6717  1.9579
 6373TIP3   OH219124   6.304   4.070   2.329 -0.0584  0.1519  0.0582
 6373TIP3    H119125   6.302   4.007   2.257 -0.9092  1.1114 -0.7764
 6373TIP3    H219126   6.248   4.142   2.301 -0.5336  0.4926  1.7460
 6374TIP3   OH219127   1.814   1.735   0.336  0.0918 -0.1347 -0.4081
 6374TIP3    H119128   1.802   1.796   0.264  0.8070  0.9389  0.3473
 6374TIP3    H219129   1.792   1.649   0.300  0.2894  0.4029 -1.8437
 6375TIP3   OH219130   1.668   4.807   3.783  0.0570  0.2040  0.3235
 6375TIP3    H119131   1.620   4.810   3.865 -2.6181 -1.7799 -1.0214
 6375TIP3    H219132   1.743   4.750   3.801  0.8847  1.6840  1.9149
 6376TIP3   OH219133   1.124   3.078   1.490  0.2112 -0.3370 -0.3721
 6376TIP3    H119134   1.072   3.064   1.569  0.4263 -0.3199 -0.2295
 6376TIP3    H219135   1.198   3.019   1.498  1.2013  0.9339  0.2959
 6377TIP3   OH219136   2.036   5.724   2.983  0.2585 -0.3896  0.6415
 6377TIP3    H119137   2.079   5.711   3.068  0.8488  0.1461  0.4320
 6377TIP3    H219138   1.943   5.708   3.001  0.4026 -0.4997  1.3419
 6378TIP3   OH219139   4.481   2.830   0.326  0.4268  0.0116  0.5658
 6378TIP3    H119140   4.528   2.773   0.264  0.5381  0.3643  0.3203
 6378TIP3    H219141   4.538   2.907   0.335  0.6741 -0.2748  1.5351
 6379TIP3   OH219142   5.895   4.484   4.649  0.3149  0.1773  0.4469
 6379TIP3    H119143   5.914   4.400   4.690  0.0813  0.7733  1.8342
 6379TIP3    H219144   5.927   4.550   4.711 -1.2689  1.1323  0.3189
 6380TIP3   OH219145   1.387   2.886   0.299 -0.2385  0.4862 -0.3116
 6380TIP3    H119146   1.432   2.968   0.279 -0.4107  0.0881 -2.5396
 6380TIP3    H219147   1.446   2.841   0.360  0.1151  1.9853  0.5229
 6381TIP3   OH219148   2.379   3.952   3.520  0.1621  0.4568 -0.3898
 6381TIP3    H119149   2.368   3.881   3.583  1.8658  0.0380 -0.5142
 6381TIP3    H219150   2.311   3.937   3.454 -0.1892 -0.4192  0.1567
 6382TIP3   OH219151   2.411   5.383   2.940 -0.3977 -0.1611 -0.5507
 6382TIP3    H119152   2.408   5.370   3.034  0.8518  0.9663 -0.3213
 6382TIP3    H219153   2.393   5.477   2.928 -0.9540 -0.3682 -1.4698
 6383TIP3   OH219154   1.145   2.288   5.094 -0.5132  0.3229  0.0704
 6383TIP3    H119155   1.088   2.344   5.147 -2.9248  1.1524 -3.0631
 6383TIP3    H219156   1.220   2.344   5.073 -1.7251  1.6653 -0.9884
 6384TIP3   OH219157   4.429   3.877   0.364 -0.1071 -0.3997 -0.1099
 6384TIP3    H119158   4.351   3.891   0.418 -1.2371 -2.1655 -1.1676
 6384TIP3    H219159   4.450   3.964   0.330 -0.7150  0.3619  1.3589
 6385TIP3   OH219160   3.651   2.850   3.239 -0.1546 -0.0888  0.0899
 6385TIP3    H119161   3.673   2.831   3.330  1.5777 -0.9985 -0.4812
 6385TIP3    H219162   3.580   2.915   3.245 -2.2714 -2.3882  2.0871
 6386TIP3   OH219163   0.306   5.543   2.831  0.5092  0.3376 -0.1764
 6386TIP3    H119164   0.248   5.617   2.851 -0.3153 -0.3273 -0.0456
 6386TIP3    H219165   0.363   5.537   2.908  0.2009  0.4847  0.0700
 6387TIP3   OH219166   1.383   5.926   4.532  0.6190  0.6568 -0.3708
 6387TIP3    H119167   1.431   5.970   4.461  0.6721  1.5208  0.1843
 6387TIP3    H219168   1.351   5.998   4.587  0.7397 -0.0058  0.5882
 6388TIP3   OH219169   2.924   3.011   5.117  0.0650  0.0173 -0.0247
 6388TIP3    H119170   2.930   2.988   5.024  0.3030  0.2993 -0.0819
 6388TIP3    H219171   2.983   2.949   5.160  1.8533  1.4120 -0.3441
 6389TIP3   OH219172   1.900   1.258   0.651 -0.1433  0.3424 -0.6257
 6389TIP3    H119173   1.821   1.210   0.627  0.3440  0.1843 -2.0460
 6389TIP3    H219174   1.920   1.310   0.573 -0.4503  2.5986  0.7135
 6390TIP3   OH219175   2.376   3.836   0.609  0.1563  0.2403 -0.2558
 6390TIP3    H119176   2.355   3.929   0.611  0.2023  0.2520 -0.3261
 6390TIP3    H219177   2.292   3.792   0.593  0.0487  0.2417  0.2899
 6391TIP3   OH219178   2.569   1.275   3.200  1.1726 -0.0761  0.2479
 6391TIP3    H119179   2.511   1.293   3.127 -0.6452 -3.4876  0.6505
 6391TIP3    H219180   2.523   1.307   3.277  0.4817 -1.3762  0.4018
 6392TIP3   OH219181   6.008   3.756   3.935  0.4654 -0.0631  0.5589
 6392TIP3    H119182   5.988   3.670   3.898  2.9773 -0.3441 -0.3554
 6392TIP3    H219183   6.095   3.777   3.902 -0.0449  2.8570  0.7718
 6393TIP3   OH219184   6.029   2.273   0.062  0.3627 -0.6052 -0.1502
 6393TIP3    H119185   6.116   2.264   0.102 -0.0029  0.4675  0.9364
 6393TIP3    H219186   6.002   2.184   0.044  1.2417 -1.0214  0.4906
 6394TIP3   OH219187   4.171   5.668   1.254  0.3857  0.5012  0.1024
 6394TIP3    H119188   4.153   5.758   1.226  2.7151  1.3027  0.9425
 6394TIP3    H219189   4.087   5.623   1.244 -0.0367  1.7438 -3.9839
 6395TIP3   OH219190   1.213   2.213   2.361 -0.5308 -0.1400 -0.1655
 6395TIP3    H119191   1.290   2.270   2.366 -1.0877  0.5405  1.7226
 6395TIP3    H219192   1.246   2.125   2.375  0.6169 -0.7365 -4.9301
 6396TIP3   OH219193   4.674   0.100   4.328 -0.7164 -0.2218 -0.3690
 6396TIP3    H119194   4.633   0.143   4.403 -2.1116 -0.9225 -0.7040
 6396TIP3    H219195   4.605   0.046   4.290  0.0548 -0.1329 -1.9772
 6397TIP3   OH219196   4.479   0.235   1.251 -0.3481 -0.5127 -0.1394
 6397TIP3    H119197   4.470   0.218   1.157 -1.2700 -0.5843 -0.0420
 6397TIP3    H219198   4.569   0.267   1.261  0.5081 -2.5729 -0.7305
 6398TIP3   OH219199   3.453   1.830   4.412  0.1049 -0.0447 -0.1821
 6398TIP3    H119200   3.371   1.877   4.402 -0.1451 -0.5103 -0.3638
 6398TIP3    H219201   3.434   1.762   4.477 -0.1391 -1.2292 -1.4594
 6399TIP3   OH219202   1.691   1.349   1.384 -0.1574  0.0733 -0.2797
 6399TIP3    H119203   1.669   1.401   1.307 -1.3920 -0.0377 -0.0264
 6399TIP3    H219204   1.669   1.405   1.458  1.3711  0.3192  0.0047
 6400TIP3   OH219205   3.428   1.393   4.363  0.4009 -0.4327  0.0174
 6400TIP3    H119206   3.345   1.417   4.404 -1.1878 -1.9484 -2.0659
 6400TIP3    H219207   3.485   1.370   4.436 -0.8342  1.0296  1.5353
 6401TIP3   OH219208   4.120   5.363   3.205 -0.1388 -0.2218 -0.2734
 6401TIP3    H119209   4.201   5.390   3.248 -0.9705  0.6441  0.8017
 6401TIP3    H219210   4.060   5.341   3.276 -0.6770 -1.4410 -1.0640
 6402TIP3   OH219211   3.639   4.663   0.577 -0.8143 -0.2902  0.5087
 6402TIP3    H119212   3.701   4.708   0.634  2.1217 -0.1387 -2.5161
 6402TIP3    H219213   3.603   4.733   0.521  2.0133 -1.0649 -2.6341
 6403TIP3   OH219214   4.925   5.869   3.610  0.2572  0.0551  0.7122
 6403TIP3    H119215   4.876   5.797   3.571  1.2217  1.1269 -2.7860
 6403TIP3    H219216   5.008   5.829   3.636  0.0270 -0.4632  0.6692
 6404TIP3   OH219217   5.468   5.747   1.579 -0.0471  0.4257 -0.1110
 6404TIP3    H119218   5.546   5.794   1.609 -0.0585  0.4209 -0.0742
 6404TIP3    H219219   5.455   5.679   1.644 -0.5545  0.9251  0.3135
 6405TIP3   OH219220   1.612   3.321   1.572  0.2646  0.4759 -0.0692
 6405TIP3    H119221   1.641   3.382   1.504 -0.4381 -0.3593 -1.1785
 6405TIP3    H219222   1.567   3.375   1.636  0.1097  1.1869 -0.7649
 6406TIP3   OH219223   4.153   0.684   5.159  0.2483  0.0376  0.3303
 6406TIP3    H119224   4.185   0.663   5.071  1.8568  0.9649  0.6621
 6406TIP3    H219225   4.187   0.772   5.177 -2.4579  1.1300  0.7715
 6407TIP3   OH219226   3.486   2.310   3.099  0.0349  0.0026  0.0618
 6407TIP3    H119227   3.485   2.402   3.125  3.3991 -0.0258  0.8179
 6407TIP3    H219228   3.542   2.308   3.021  0.3408 -1.4227  0.2855
 6408TIP3   OH219229   3.945   5.554   1.383  0.1981 -0.4813 -0.1194
 6408TIP3    H119230   3.891   5.540   1.305  0.2081 -0.6457 -0.0958
 6408TIP3    H219231   3.919   5.485   1.443  0.7011 -0.7848 -0.2469
 6409TIP3   OH219232   3.492   0.258   2.311 -0.3349 -0.4622 -0.2967
 6409TIP3    H119233   3.409   0.302   2.328 -0.2921 -0.6862  0.5423
 6409TIP3    H219234   3.540   0.317   2.254 -1.7018 -1.0327 -2.1201
 6410TIP3   OH219235   0.441   4.101   3.058  0.0601  0.2108  0.0514
 6410TIP3    H119236   0.369   4.163   3.054 -0.0951 -0.0049 -0.8363
 6410TIP3    H219237   0.496   4.124   2.983  0.2089 -0.4591 -0.0518
 6411TIP3   OH219238   1.994   0.754   1.515 -0.0825  0.6552  0.6517
 6411TIP3    H119239   1.977   0.783   1.425 -1.1587  0.4752  0.7866
 6411TIP3    H219240   2.082   0.787   1.534  1.6076 -2.0658 -1.6017
 6412TIP3   OH219241   0.446   0.464   4.969  0.2758  0.3777  0.0483
 6412TIP3    H119242   0.533   0.436   4.995 -0.4798 -2.0469  0.2252
 6412TIP3    H219243   0.455   0.489   4.877  0.7336 -2.4495 -0.7791
 6413TIP3   OH219244   2.296   3.963   0.348  0.4303  0.0591 -0.0029
 6413TIP3    H119245   2.285   3.869   0.338  0.3148 -0.0126  0.7049
 6413TIP3    H219246   2.384   3.981   0.314  0.6790 -0.3933  0.3862
 6414TIP3   OH219247   0.848   3.108   4.045  0.6507 -0.0257 -0.3930
 6414TIP3    H119248   0.911   3.117   4.116 -0.7101  0.8440  0.7473
 6414TIP3    H219249   0.899   3.070   3.973  2.4935  0.7642  0.4213
 6415TIP3   OH219250   2.878   2.976   3.840  0.2227  0.1274  0.2360
 6415TIP3    H119251   2.784   2.982   3.857  0.4261  2.9167  0.8556
 6415TIP3    H219252   2.886   2.977   3.745 -0.3642  1.7744  0.1659
 6416TIP3   OH219253   3.216   1.908   2.905 -0.3048 -0.5455  0.2373
 6416TIP3    H119254   3.137   1.875   2.864 -0.0774 -0.2178 -0.4839
 6416TIP3    H219255   3.190   1.990   2.946  0.1423  0.8303 -2.0532
 6417TIP3   OH219256   3.307   5.519   4.725  0.0605 -0.1309  0.2035
 6417TIP3    H119257   3.397   5.507   4.753 -0.3138 -1.3368  0.9458
 6417TIP3    H219258   3.314   5.560   4.638  1.2886  0.3402  0.5119
 6418TIP3   OH219259   3.894   1.767   4.527 -0.5870 -0.6462  1.0201
 6418TIP3    H119260   3.817   1.770   4.471 -0.3325  0.7870  0.6891
 6418TIP3    H219261   3.922   1.859   4.534  2.4960 -1.2853 -0.9001
 6419TIP3   OH219262   5.487   1.313   2.676 -0.3794 -0.1887 -0.2654
 6419TIP3    H119263   5.576   1.293   2.646 -0.0830 -1.1312  1.1445
 6419TIP3    H219264   5.499   1.384   2.739 -0.2670 -1.8234  1.6844
 6420TIP3   OH219265   0.428   3.689   3.790 -0.4396 -0.8316  0.6180
 6420TIP3    H119266   0.472   3.606   3.771 -0.8696 -1.1144  0.8426
 6420TIP3    H219267   0.406   3.683   3.883  2.2898  0.8122  1.5064
 6421TIP3   OH219268   1.952   3.603   0.813 -0.2207 -0.3757 -0.4593
 6421TIP3    H119269   1.915   3.581   0.898  2.1893 -2.9086  0.0519
 6421TIP3    H219270   1.876   3.608   0.754 -1.9618  1.5773  1.7582
 6422TIP3   OH219271   1.522   2.292   5.150 -0.4930  0.8076 -0.3025
 6422TIP3    H119272   1.482   2.366   5.104 -1.8460  0.3961  0.1666
 6422TIP3    H219273   1.450   2.253   5.199  0.8335  1.0683  1.9874
 6423TIP3   OH219274   2.887   5.706   3.440 -0.1054 -0.8099 -0.0001
 6423TIP3    H119275   2.957   5.770   3.451 -1.8839  1.1178  0.6673
 6423TIP3    H219276   2.868   5.706   3.346 -0.0068 -0.4716 -0.0183
 6424TIP3   OH219277   2.671   2.139   4.796 -0.2066 -0.2020  0.4627
 6424TIP3    H119278   2.712   2.077   4.856  0.6288 -1.1061 -0.9843
 6424TIP3    H219279   2.720   2.221   4.809 -2.1835  0.6906  3.3613
 6425TIP3   OH219280   4.555   3.844   4.374  0.3283  0.3086 -0.1559
 6425TIP3    H119281   4.459   3.836   4.370  0.2507  1.4793 -1.8693
 6425TIP3    H219282   4.584   3.761   4.412 -1.3091 -0.4820 -0.5156
 6426TIP3   OH219283   5.202   1.115   3.646 -0.5621  0.0863 -0.2093
 6426TIP3    H119284   5.268   1.165   3.693 -1.2689  2.4335 -1.4779
 6426TIP3    H219285   5.248   1.040   3.609  0.7425  0.1751  1.2010
 6427TIP3   OH219286   1.623   2.385   1.506  0.0341 -0.1602 -0.3367
 6427TIP3    H119287   1.606   2.425   1.591  0.1403  2.3879 -1.4324
 6427TIP3    H219288   1.536   2.377   1.466  0.1290  0.0481 -0.5824
 6428TIP3   OH219289   4.621   3.041   0.366  0.1335 -0.2948 -0.3455
 6428TIP3    H119290   4.651   3.086   0.445  0.4518  0.4493 -0.8695
 6428TIP3    H219291   4.702   3.011   0.324  0.1182  0.9179 -1.3044
 6429TIP3   OH219292   4.476   3.121   3.270 -0.5124 -0.1683 -0.3526
 6429TIP3    H119293   4.486   3.174   3.349 -1.7008  1.1499 -1.0518
 6429TIP3    H219294   4.382   3.101   3.266 -0.2438 -1.4820 -0.6582
 6430TIP3   OH219295   5.638   3.492   4.512  0.8402  0.0520  0.6108
 6430TIP3    H119296   5.680   3.566   4.557 -1.4561  2.7131 -1.3185
 6430TIP3    H219297   5.679   3.490   4.426 -0.1229  0.0906  0.1363
 6431TIP3   OH219298   4.084   4.282   4.546 -0.0868  0.0511 -0.0411
 6431TIP3    H119299   4.160   4.274   4.604 -1.3110  0.1573  1.6639
 6431TIP3    H219300   4.119   4.316   4.464  1.6824  0.2403  0.7600
 6432TIP3   OH219301   3.971   3.567   0.624 -0.6172 -0.3505 -0.1632
 6432TIP3    H119302   3.927   3.652   0.624 -2.8485 -1.4068 -1.4688
 6432TIP3    H219303   3.935   3.522   0.701  1.0150  0.0641  0.8772
 6433TIP3   OH219304   5.839   3.315   3.660  0.2338  0.4261 -0.2851
 6433TIP3    H119305   5.894   3.280   3.730 -0.1155 -1.2027 -0.7909
 6433TIP3    H219306   5.756   3.337   3.703  0.5403  0.8775  0.0814
 6434TIP3   OH219307   1.263   4.071   5.003 -0.2041  0.0677  0.3543
 6434TIP3    H119308   1.244   3.979   5.021 -0.8850  0.2053  0.3891
 6434TIP3    H219309   1.294   4.106   5.086 -0.5440  0.0161  0.5024
 6435TIP3   OH219310   0.604   3.675   4.822  0.0722  0.0443  1.0397
 6435TIP3    H119311   0.658   3.612   4.776 -1.1533 -0.7651  0.6567
 6435TIP3    H219312   0.665   3.740   4.855  1.1503 -0.1981 -0.3863
 6436TIP3   OH219313   1.161   1.472   3.054  0.3006  0.1008  0.0864
 6436TIP3    H119314   1.116   1.493   3.136 -0.8721 -0.1226 -0.4913
 6436TIP3    H219315   1.198   1.556   3.026 -0.6222  0.5069  0.0479
 6437TIP3   OH219316   4.737   1.140   2.550 -0.2287  0.0844 -0.1534
 6437TIP3    H119317   4.793   1.063   2.539 -0.7538 -0.6128  1.6624
 6437TIP3    H219318   4.705   1.160   2.462  0.0150 -1.7064 -0.6856
 6438TIP3   OH219319   1.379   4.570   1.262 -0.2210 -0.6316 -0.2149
 6438TIP3    H119320   1.464   4.551   1.223  1.5815  2.8088  1.6441
 6438TIP3    H219321   1.387   4.538   1.352 -0.8744 -0.2428 -0.0155
 6439TIP3   OH219322   1.701   5.572   2.603  0.6264  0.5128 -0.0250
 6439TIP3    H119323   1.674   5.654   2.562  0.6271  1.5455  1.8973
 6439TIP3    H219324   1.665   5.577   2.692  2.2801 -0.6572  0.7689
 6440TIP3   OH219325   3.840   0.889   4.588 -0.7926 -0.2622  0.6976
 6440TIP3    H119326   3.921   0.886   4.538  0.7213 -2.4605  3.0404
 6440TIP3    H219327   3.789   0.815   4.556 -1.4775  0.5067 -0.0525
 6441TIP3   OH219328   3.691   1.731   4.310 -0.6799 -0.2658 -0.3226
 6441TIP3    H119329   3.617   1.757   4.366 -0.9682 -3.3269  0.8878
 6441TIP3    H219330   3.654   1.667   4.250  0.3512  0.5913 -1.9481
 6442TIP3   OH219331   1.958   1.665   1.095 -0.1286 -0.0549  0.5084
 6442TIP3    H119332   1.964   1.620   1.179 -2.1240 -0.0726  0.6979
 6442TIP3    H219333   1.929   1.754   1.118 -0.5545 -0.0223 -0.1253
 6443TIP3   OH219334   3.912   3.139   1.387 -0.2287 -0.0904  0.6395
 6443TIP3    H119335   3.936   3.160   1.477  1.2237 -0.8951  0.4812
 6443TIP3    H219336   3.912   3.044   1.384  0.8578 -0.0866 -0.4526
 6444TIP3   OH219337   0.585   2.361   4.259  0.0864  0.3885 -0.1651
 6444TIP3    H119338   0.641   2.291   4.292 -1.3795 -0.4306  0.6807
 6444TIP3    H219339   0.589   2.429   4.326  1.4477  1.1282 -0.9498
 6445TIP3   OH219340   2.363   4.341   1.369  0.2052  0.1244  0.5085
 6445TIP3    H119341   2.299   4.403   1.335 -1.2863 -1.1379  0.9047
 6445TIP3    H219342   2.418   4.320   1.294 -1.3503 -0.5745 -0.4914
 6446TIP3   OH219343   6.237   3.885   2.745 -0.1552 -0.2964  0.0761
 6446TIP3    H119344   6.288   3.933   2.680 -1.1469  0.4948 -0.1505
 6446TIP3    H219345   6.147   3.889   2.712 -0.6933  0.1851  1.5223
 6447TIP3   OH219346   6.033   1.993   0.687 -0.2000  0.7209 -0.5259
 6447TIP3    H119347   6.026   2.083   0.655  1.8948  1.6381  1.2836
 6447TIP3    H219348   6.126   1.972   0.679 -0.3712 -0.6371  0.6321
 6448TIP3   OH219349   2.996   4.980   5.139 -0.0237  0.6603  0.1389
 6448TIP3    H119350   3.024   5.062   5.098 -1.4759  1.1936  0.1575
 6448TIP3    H219351   2.989   4.918   5.066 -0.8639  1.1179 -0.1859
 6449TIP3   OH219352   2.040   2.396   1.978 -0.6869 -0.0961 -0.2727
 6449TIP3    H119353   2.045   2.446   2.060  3.3561 -0.1116 -0.2897
 6449TIP3    H219354   2.041   2.463   1.910 -1.1522 -0.1497 -0.3388
 6450TIP3   OH219355   0.077   2.253   3.299  1.0429 -0.1733  0.4695
 6450TIP3    H119356   0.018   2.282   3.369 -0.9942 -1.4343 -0.6402
 6450TIP3    H219357   0.152   2.217   3.345 -0.7959 -2.1768  2.1199
 6451TIP3   OH219358   1.428   0.340   4.460  0.0833  0.1219  0.5937
 6451TIP3    H119359   1.395   0.417   4.507 -2.1975  0.6317 -1.6455
 6451TIP3    H219360   1.490   0.375   4.397 -2.1259  0.4803 -1.5272
 6452TIP3   OH219361   0.822   4.922   3.675 -0.8401  0.0290 -0.1927
 6452TIP3    H119362   0.770   4.853   3.633 -2.1451  0.7656  0.1700
 6452TIP3    H219363   0.822   4.898   3.768 -0.1964 -0.1607 -0.2325
 6453TIP3   OH219364   3.338   5.593   4.454  0.0310  0.2711 -0.1748
 6453TIP3    H119365   3.268   5.594   4.389  1.0496  0.3741 -1.2954
 6453TIP3    H219366   3.395   5.666   4.430  1.9590 -1.3656 -0.9457
 6454TIP3   OH219367   2.974   3.182   1.495  0.3121  0.1215 -0.0498
 6454TIP3    H119368   2.999   3.240   1.567  2.0607 -2.3438  1.4481
 6454TIP3    H219369   2.889   3.147   1.520  0.0528  0.6835 -0.1265
 6455TIP3   OH219370   2.483   1.995   0.215  0.3929 -0.1594 -0.5920
 6455TIP3    H119371   2.508   2.026   0.302  1.3487 -0.5705 -0.7032
 6455TIP3    H219372   2.539   1.919   0.200 -1.1780 -1.3265 -0.7477
 6456TIP3   OH219373   3.668   4.447   3.481  0.0317  0.5396 -0.4602
 6456TIP3    H119374   3.603   4.495   3.428 -0.9055 -0.9681 -0.7262
 6456TIP3    H219375   3.721   4.401   3.416  1.5738  1.9475 -0.2551
 6457TIP3   OH219376   2.234   5.561   3.609  0.1341  0.0494 -0.0487
 6457TIP3    H119377   2.257   5.627   3.543 -2.1826  1.4173  0.4172
 6457TIP3    H219378   2.154   5.594   3.649  0.2371 -1.8751  1.9168
 6458TIP3   OH219379   5.416   0.617   3.749 -0.1634 -0.0337  0.5026
 6458TIP3    H119380   5.390   0.525   3.759  0.0331  0.0971  3.1405
 6458TIP3    H219381   5.495   0.625   3.802 -0.3861  1.7396  0.6359
 6459TIP3   OH219382   2.477   5.457   4.564 -0.1990  0.2841 -0.3789
 6459TIP3    H119383   2.504   5.371   4.597 -0.3913  0.4793  0.3075
 6459TIP3    H219384   2.431   5.497   4.637 -1.4291  0.3889 -1.1911
 6460TIP3   OH219385   4.796   0.614   2.672 -0.3581  0.1646 -0.0466
 6460TIP3    H119386   4.766   0.627   2.582  0.8376  0.7639 -0.3816
 6460TIP3    H219387   4.777   0.522   2.690 -1.9290  0.3923 -0.3886
 6461TIP3   OH219388   0.362   2.393   2.839  0.5944 -0.2373 -0.2762
 6461TIP3    H119389   0.312   2.473   2.822 -0.2297 -0.9251 -1.2510
 6461TIP3    H219390   0.301   2.322   2.816  0.3115 -1.2678  3.0067
 6462TIP3   OH219391   4.546   5.406   1.847 -0.0258  0.2127  0.0249
 6462TIP3    H119392   4.504   5.486   1.880  0.3988  0.3419  0.2574
 6462TIP3    H219393   4.634   5.434   1.821 -0.4058  0.1560 -1.4109
 6463TIP3   OH219394   1.268   4.100   0.374 -0.4699  0.1272  0.5568
 6463TIP3    H119395   1.351   4.139   0.346 -0.9278  1.9374  1.5262
 6463TIP3    H219396   1.237   4.051   0.298  1.0296  0.2043 -0.1269
 6464TIP3   OH219397   3.061   1.779   1.631 -0.1420 -0.7111 -0.3939
 6464TIP3    H119398   3.061   1.723   1.708  1.1585  0.5572  0.5852
 6464TIP3    H219399   3.148   1.768   1.592 -0.8400 -1.4730 -1.8120
 6465TIP3   OH219400   1.639   4.631   2.681 -0.1521  0.2716  0.0044
 6465TIP3    H119401   1.568   4.642   2.618 -0.2533  0.2285  0.1091
 6465TIP3    H219402   1.688   4.713   2.677 -0.2750  0.3455  0.0141
 6466TIP3   OH219403   4.661   2.492   2.872  0.3647 -0.1225 -0.3872
 6466TIP3    H119404   4.635   2.505   2.781  2.5336 -1.3770 -1.2764
 6466TIP3    H219405   4.656   2.579   2.911  0.1185  0.5856 -1.9296
 6467TIP3   OH219406   3.911   2.380   1.279 -0.5958 -0.4457  0.1327
 6467TIP3    H119407   3.913   2.285   1.265  0.3596  0.0002 -4.5478
 6467TIP3    H219408   3.821   2.399   1.304 -1.2200 -2.4668 -0.3770
 6468TIP3   OH219409   4.151   1.439   0.310 -0.2641 -0.3778 -0.0226
 6468TIP3    H119410   4.096   1.368   0.278  0.6770 -1.9026  1.6001
 6468TIP3    H219411   4.111   1.518   0.274 -1.3558 -1.6936 -1.8731
 6469TIP3   OH219412   5.672   3.950   0.385  0.2632 -0.0843  0.0806
 6469TIP3    H119413   5.583   3.914   0.381  0.7121 -1.1752 -0.4477
 6469TIP3    H219414   5.709   3.931   0.298  0.8606  0.7738  0.1362
 6470TIP3   OH219415   2.126   5.422   0.514 -0.2930  0.2065  0.1451
 6470TIP3    H119416   2.199   5.360   0.509  0.2747  0.8383  0.4736
 6470TIP3    H219417   2.164   5.506   0.488 -0.8601  0.5807  0.5159
 6471TIP3   OH219418   1.885   2.818   3.724  0.3718 -0.1340 -0.2532
 6471TIP3    H119419   1.900   2.741   3.669 -0.6279  1.2421 -2.6168
 6471TIP3    H219420   1.969   2.864   3.723  0.3566 -0.1056 -0.6874
 6472TIP3   OH219421   4.946   1.944   3.868  0.2690  0.2491  0.0748
 6472TIP3    H119422   5.015   1.922   3.930  0.2297 -1.5826 -0.4563
 6472TIP3    H219423   4.919   1.859   3.831 -2.2543  0.8866  0.2551
 6473TIP3   OH219424   5.865   2.302   4.535  0.3378 -0.1224  0.4639
 6473TIP3    H119425   5.892   2.320   4.625 -1.5009 -1.1833  1.2814
 6473TIP3    H219426   5.914   2.223   4.510  1.5935  0.7335  0.1397
 6474TIP3   OH219427   1.059   4.397   4.055 -0.3606 -0.0043  0.1021
 6474TIP3    H119428   1.104   4.315   4.072 -0.7330 -0.2837 -0.2520
 6474TIP3    H219429   1.128   4.459   4.033 -0.1464 -0.4059 -0.3491
 6475TIP3   OH219430   1.319   2.379   4.423 -0.0357  0.2833 -0.5035
 6475TIP3    H119431   1.366   2.297   4.405 -1.5744 -0.9531  0.8363
 6475TIP3    H219432   1.240   2.374   4.369 -0.0836  0.9513 -0.5047
 6476TIP3   OH219433   0.155   4.936   1.404 -0.4294 -0.2480 -0.0150
 6476TIP3    H119434   0.127   4.849   1.377  0.7768 -0.5771 -0.2354
 6476TIP3    H219435   0.249   4.938   1.387 -0.3181  0.8595  0.6209
 6477TIP3   OH219436   4.418   4.508   4.754  0.5814  0.0725 -0.1127
 6477TIP3    H119437   4.413   4.439   4.688  1.1807 -0.8573  0.7815
 6477TIP3    H219438   4.330   4.545   4.757  0.4565 -0.0898 -1.1789
 6478TIP3   OH219439   2.886   3.700   0.423 -0.7556  0.1381  0.0828
 6478TIP3    H119440   2.806   3.727   0.378  0.3211 -0.0825 -2.1231
 6478TIP3    H219441   2.952   3.763   0.395  0.4852 -1.3598 -0.5480
 6479TIP3   OH219442   1.104   0.832   4.449 -0.9101  0.0902 -0.2055
 6479TIP3    H119443   1.076   0.901   4.389 -1.3718 -0.6631 -0.8776
 6479TIP3    H219444   1.072   0.751   4.409 -0.1877 -0.5368  0.4549
 6480TIP3   OH219445   3.631   5.658   2.936  0.7707 -0.0118  0.4694
 6480TIP3    H119446   3.621   5.568   2.904  1.5731  0.3481 -0.8939
 6480TIP3    H219447   3.714   5.687   2.897 -0.0422  1.6896 -0.0663
 6481TIP3   OH219448   0.237   0.921   2.114 -0.2846 -0.5892 -0.7588
 6481TIP3    H119449   0.150   0.959   2.129 -0.8034 -1.3603 -1.7068
 6481TIP3    H219450   0.279   0.979   2.051  0.1435  0.1381  0.1847
 6482TIP3   OH219451   0.198   0.239   0.806 -0.6039 -0.1351 -0.0744
 6482TIP3    H119452   0.244   0.164   0.843 -1.2872 -1.1127 -1.1250
 6482TIP3    H219453   0.265   0.285   0.755 -0.5434 -0.9665 -0.7625
 6483TIP3   OH219454   0.728   4.534   2.986 -0.4309  0.9083 -0.0681
 6483TIP3    H119455   0.691   4.605   3.039 -0.0501  1.8271 -0.9992
 6483TIP3    H219456   0.735   4.571   2.898  0.5011 -0.0338 -0.4073
 6484TIP3   OH219457   5.739   0.201   0.794 -0.5664 -1.0524 -0.4926
 6484TIP3    H119458   5.828   0.190   0.826 -0.3948 -0.4532 -0.7624
 6484TIP3    H219459   5.743   0.277   0.737 -1.4988 -0.2851  0.4370
 6485TIP3   OH219460   2.281   1.424   4.921  0.3605  0.2384  0.4372
 6485TIP3    H119461   2.301   1.357   4.986  0.7595 -1.8621 -1.6909
 6485TIP3    H219462   2.364   1.438   4.874 -0.7053 -1.3316 -2.1513
 6486TIP3   OH219463   2.540   4.627   5.102  0.1939  0.0964  0.9013
 6486TIP3    H119464   2.461   4.639   5.049  1.3505 -0.6282 -1.0929
 6486TIP3    H219465   2.554   4.712   5.144 -1.2393  0.4447  0.7346
 6487TIP3   OH219466   3.504   0.410   4.574  0.2652 -0.3992 -0.0952
 6487TIP3    H119467   3.592   0.374   4.565  0.2604 -0.8743  1.4170
 6487TIP3    H219468   3.449   0.336   4.600 -0.1064  0.2936  1.2477
 6488TIP3   OH219469   1.612   4.907   0.338 -0.2903  0.0460  0.2943
 6488TIP3    H119470   1.660   4.825   0.325  0.6612  0.5038  0.7604
 6488TIP3    H219471   1.675   4.964   0.383 -0.8868  1.0794 -0.1478
 6489TIP3   OH219472   0.591   4.845   3.854 -0.0563 -0.4613  0.3375
 6489TIP3    H119473   0.542   4.837   3.772 -1.1643  0.2895  0.9129
 6489TIP3    H219474   0.554   4.777   3.910  0.2165 -0.5060  0.4637
 6490TIP3   OH219475   2.096   0.401   0.021  0.6689  0.0294 -0.4989
 6490TIP3    H119476   2.017   0.412   0.073  0.8519 -2.3690  0.3979
 6490TIP3    H219477   2.166   0.386   0.085  0.9337 -2.7781 -1.3068
 6491TIP3   OH219478   1.143   0.465   2.740  0.4415 -0.4711  0.3406
 6491TIP3    H119479   1.096   0.398   2.691  1.3220  0.7272 -2.3101
 6491TIP3    H219480   1.077   0.533   2.758 -0.2323 -1.5420  2.2465
 6492TIP3   OH219481   5.654   1.383   3.594  0.3808  0.1910 -0.7251
 6492TIP3    H119482   5.669   1.448   3.662  0.5394  0.2676 -0.8315
 6492TIP3    H219483   5.740   1.343   3.579 -0.2570 -2.3722  1.6305
 6493TIP3   OH219484   2.727   4.120   1.070  0.0724  0.0407  0.4532
 6493TIP3    H119485   2.645   4.106   1.118  0.4406  1.4246  1.5594
 6493TIP3    H219486   2.787   4.155   1.135  1.3359 -0.2374 -0.5163
 6494TIP3   OH219487   6.269   4.092   4.966 -0.2441  0.0578 -0.0053
 6494TIP3    H119488   6.179   4.064   4.951 -0.3765  0.9375 -0.9867
 6494TIP3    H219489   6.267   4.187   4.952  1.2466 -0.1678 -2.2714
 6495TIP3   OH219490   2.563   0.583   0.644  0.3058 -0.1983 -0.2739
 6495TIP3    H119491   2.470   0.560   0.652  0.1190  1.0305  1.7404
 6495TIP3    H219492   2.599   0.569   0.731  1.3642  1.8821 -0.3005
 6496TIP3   OH219493   2.583   1.503   1.067 -0.1359 -0.1294 -0.6208
 6496TIP3    H119494   2.585   1.595   1.041 -1.2917  0.4431  1.1249
 6496TIP3    H219495   2.606   1.455   0.988  0.5654  1.6539 -1.5518
 6497TIP3   OH219496   0.047   4.487   0.315  0.6423 -0.7007 -0.2561
 6497TIP3    H119497  -0.003   4.413   0.279  1.1159 -1.6378  0.9101
 6497TIP3    H219498   0.033   4.480   0.409  1.3180  0.2576 -0.0804
 6498TIP3   OH219499   2.590   4.862   2.479 -0.3677  0.1210 -0.2730
 6498TIP3    H119500   2.686   4.854   2.482 -0.4626 -0.7517  1.2092
 6498TIP3    H219501   2.565   4.814   2.400  0.3866 -0.0094 -0.4436
 6499TIP3   OH219502   0.383   3.968   4.880  0.0972 -0.1166 -0.0305
 6499TIP3    H119503   0.353   3.881   4.851 -1.3329  0.3998 -0.1634
 6499TIP3    H219504   0.413   4.010   4.800 -0.2082 -0.1113 -0.1464
 6500TIP3   OH219505   5.525   3.377   1.190  0.3113 -0.2665 -0.1220
 6500TIP3    H119506   5.528   3.334   1.104  1.2801 -0.5493  0.0462
 6500TIP3    H219507   5.432   3.396   1.203  0.0444 -0.9721 -0.8619
 6501TIP3   OH219508   2.677   3.597   0.780  0.2238 -0.0824 -0.0090
 6501TIP3    H119509   2.699   3.535   0.710  0.6647 -0.3158  0.3338
 6501TIP3    H219510   2.758   3.607   0.830  0.0206  0.3945  0.2320
 6502TIP3   OH219511   0.603   1.781   4.808  0.6228 -0.0500 -0.1705
 6502TIP3    H119512   0.513   1.751   4.797  0.0704  0.6952  1.9805
 6502TIP3    H219513   0.595   1.872   4.836  2.0543  0.0846 -0.1333
 6503TIP3   OH219514   4.512   0.973   4.242  0.2303  0.1447 -0.6317
 6503TIP3    H119515   4.594   1.022   4.238 -0.6456  1.7149 -0.5211
 6503TIP3    H219516   4.512   0.933   4.329  0.4133  1.0165 -0.2215
 6504TIP3   OH219517   2.745   1.949   2.077  0.3097 -0.5121 -0.7156
 6504TIP3    H119518   2.695   1.940   2.158  0.1382 -2.8359 -1.0303
 6504TIP3    H219519   2.685   1.992   2.017 -0.5007 -1.1800 -0.4002
 6505TIP3   OH219520   2.530   1.385   1.401  0.4709 -0.1295  0.2464
 6505TIP3    H119521   2.552   1.391   1.494  1.1310 -0.4784  0.1210
 6505TIP3    H219522   2.463   1.452   1.387  1.1051  0.6228  0.7608
 6506TIP3   OH219523   5.108   0.090   1.461  0.2772 -0.3757 -0.3411
 6506TIP3    H119524   5.161   0.070   1.537 -0.6538  0.6984  0.6209
 6506TIP3    H219525   5.018   0.075   1.490 -0.1317  0.6670 -1.0218
 6507TIP3   OH219526   0.095   2.400   1.021  0.2943  0.1171 -0.2117
 6507TIP3    H119527   0.108   2.438   0.934  2.4902 -1.2508 -0.5498
 6507TIP3    H219528   0.077   2.476   1.077 -1.4943  0.9950 -1.8666
 6508TIP3   OH219529   0.749   3.955   1.148 -0.1998  0.2725  0.0398
 6508TIP3    H119530   0.664   3.989   1.177  0.5906  1.3316  1.2623
 6508TIP3    H219531   0.760   3.992   1.060 -0.5742  0.9582  0.2675
 6509TIP3   OH219532   1.021   0.482   1.320  0.1438  0.1718  0.0879
 6509TIP3    H119533   1.050   0.459   1.409  0.6011 -0.9599 -0.3359
 6509TIP3    H219534   1.071   0.424   1.263 -1.5420 -0.4733 -0.7977
 6510TIP3   OH219535   4.257   1.718   0.813  0.2542  0.7329  0.1356
 6510TIP3    H119536   4.282   1.756   0.728  0.1712  0.3107 -0.0799
 6510TIP3    H219537   4.162   1.729   0.817  0.2626  0.7843  0.1902
 6511TIP3   OH219538   0.915   0.642   3.237  0.4755  0.0733  0.0739
 6511TIP3    H119539   0.825   0.665   3.217  0.5079  1.7070  1.6261
 6511TIP3    H219540   0.909   0.556   3.279 -0.6619  1.1724  2.2986
 6512TIP3   OH219541   4.703   3.202   1.573  0.2070 -0.0725  0.5005
 6512TIP3    H119542   4.717   3.107   1.577 -1.1074 -0.2721  0.8242
 6512TIP3    H219543   4.706   3.222   1.480 -2.3093 -0.9207  0.1762
 6513TIP3   OH219544   2.914   0.645   4.929  0.1569 -0.2309  0.9512
 6513TIP3    H119545   2.839   0.672   4.982 -0.6931 -0.9995  0.1912
 6513TIP3    H219546   2.902   0.692   4.846 -0.3634 -1.5165  0.2643
 6514TIP3   OH219547   6.108   5.885   2.582  0.2769  0.3179  0.0426
 6514TIP3    H119548   6.129   5.890   2.488  1.1704  0.8156  0.2508
 6514TIP3    H219549   6.121   5.974   2.614 -0.7003  0.3047  0.5171
 6515TIP3   OH219550   4.417   1.612   1.815 -0.2847 -0.3279 -0.5529
 6515TIP3    H119551   4.394   1.664   1.738 -1.4046  0.6749  0.4062
 6515TIP3    H219552   4.503   1.645   1.841 -0.0559 -0.4323 -1.1866
 6516TIP3   OH219553   1.600   1.567   3.883 -0.4724  0.3919 -0.3015
 6516TIP3    H119554   1.679   1.536   3.838 -0.9292 -0.4066 -0.5696
 6516TIP3    H219555   1.565   1.489   3.926 -1.3788  0.6392 -0.5769
 6517TIP3   OH219556   5.077   4.336   3.304 -0.1167  0.0127  0.0449
 6517TIP3    H119557   4.995   4.308   3.345  0.0139  0.7959  0.8575
 6517TIP3    H219558   5.143   4.329   3.373  0.6904 -1.3855 -0.8128
 6518TIP3   OH219559   3.511   4.009   0.054 -0.1165  0.1022 -0.2010
 6518TIP3    H119560   3.503   3.931  -0.001 -0.9333  0.6785 -0.9129
 6518TIP3    H219561   3.587   3.991   0.109  0.4160 -0.6946 -1.1686
 6519TIP3   OH219562   5.953   2.121   1.457  0.0313  0.0428 -0.8212
 6519TIP3    H119563   5.985   2.193   1.402  0.2689 -0.2244 -1.0307
 6519TIP3    H219564   6.027   2.101   1.515 -0.1504  0.1914 -0.5380
 6520TIP3   OH219565   6.365   5.684   4.886 -0.2245 -0.2146 -0.9155
 6520TIP3    H119566   6.360   5.640   4.801 -1.0127 -3.1732  0.5329
 6520TIP3    H219567   6.281   5.667   4.927  1.1016 -1.3319  1.5296
 6521TIP3   OH219568   3.004   4.136   1.489  0.0225 -0.0823 -0.0582
 6521TIP3    H119569   3.029   4.186   1.411 -1.5566  1.2467  0.2447
 6521TIP3    H219570   3.027   4.192   1.563  0.2033 -0.7290  0.3884
 6522TIP3   OH219571   2.234   0.095   1.426 -0.3674  0.3329  0.3067
 6522TIP3    H119572   2.167   0.027   1.426  1.0633 -1.1371  0.3598
 6522TIP3    H219573   2.186   0.176   1.407 -2.0276 -0.7652 -0.4447
 6523TIP3   OH219574   0.025   5.126   0.745  0.0499 -0.1101 -0.2362
 6523TIP3    H119575   0.093   5.110   0.679  0.6488  3.1536 -0.5992
 6523TIP3    H219576  -0.057   5.119   0.696  0.4554  1.4999 -1.2191
 6524TIP3   OH219577   5.032   5.298   0.395 -0.4293 -0.0864  0.1893
 6524TIP3    H119578   4.942   5.305   0.363 -0.2490  0.5310 -0.1865
 6524TIP3    H219579   5.028   5.326   0.486 -0.5606  0.2421  0.0813
 6525TIP3   OH219580   3.670   5.820   1.727 -0.4156 -0.2036 -0.2097
 6525TIP3    H119581   3.751   5.814   1.676  0.3000 -0.8296  0.9550
 6525TIP3    H219582   3.621   5.741   1.704  1.3528 -2.2349  2.3719
 6526TIP3   OH219583   1.571   2.348   4.150  0.4199 -0.2848 -0.4084
 6526TIP3    H119584   1.578   2.281   4.082  0.9501  0.3415 -0.9744
 6526TIP3    H219585   1.602   2.428   4.109 -1.6361  0.6785 -0.2321
 6527TIP3   OH219586   6.275   0.464   2.649  0.7314  0.5754 -0.0406
 6527TIP3    H119587   6.310   0.548   2.618 -1.0826  1.8690  1.2506
 6527TIP3    H219588   6.189   0.457   2.608  0.3830 -0.1067  0.7838
 6528TIP3   OH219589   3.013   2.542   4.469 -0.0795  0.2377 -0.4482
 6528TIP3    H119590   3.003   2.479   4.398  1.3343  0.2140 -0.6560
 6528TIP3    H219591   3.078   2.605   4.437  0.0355  0.6481  0.5431
 6529TIP3   OH219592   2.283   5.651   0.428 -0.5042  0.1508  0.0427
 6529TIP3    H119593   2.329   5.591   0.370  1.7382 -0.0578  1.8656
 6529TIP3    H219594   2.339   5.729   0.432 -0.8619  0.3775  1.4152
 6530TIP3   OH219595   4.904   2.575   2.159  0.3601  0.3633  0.0834
 6530TIP3    H119596   4.885   2.603   2.249 -0.9423 -0.4473  0.0791
 6530TIP3    H219597   4.939   2.654   2.117  0.0340  1.0319  1.0134
 6531TIP3   OH219598   0.684   1.725   1.150  0.3067 -0.3262  0.0183
 6531TIP3    H119599   0.721   1.811   1.128 -0.0110  0.4183  2.1483
 6531TIP3    H219600   0.758   1.674   1.183  0.6488 -1.2015 -1.9417
 6532TIP3   OH219601   4.755   3.815   2.866  0.0004 -0.4773  0.0187
 6532TIP3    H119602   4.788   3.738   2.820  1.7999 -0.0588  0.5073
 6532TIP3    H219603   4.822   3.833   2.932 -1.8226 -0.2506  1.9051
 6533TIP3   OH219604   5.207   1.725   3.101 -0.2832  0.4759 -0.0660
 6533TIP3    H119605   5.244   1.714   3.189  0.1163  1.0968 -0.1459
 6533TIP3    H219606   5.148   1.800   3.110 -0.8759  0.0236 -0.1396
 6534TIP3   OH219607   2.308   2.118   2.798 -0.2385 -0.0787  1.0187
 6534TIP3    H119608   2.213   2.112   2.791 -0.1612 -0.2595  0.0687
 6534TIP3    H219609   2.335   2.032   2.828 -0.1466 -0.9938 -1.4777
 6535TIP3   OH219610   3.543   1.481   4.772  0.5217  0.4525  0.3331
 6535TIP3    H119611   3.592   1.560   4.793  0.7785  0.1630  0.8589
 6535TIP3    H219612   3.546   1.429   4.853 -0.2355  0.2131  0.2115
 6536TIP3   OH219613   1.794   3.087   3.662  0.0766 -0.0427 -0.3309
 6536TIP3    H119614   1.856   3.153   3.692  1.4995 -0.4322 -2.2230
 6536TIP3    H219615   1.828   3.005   3.695 -2.5470  0.0917  3.4185
 6537TIP3   OH219616   0.747   4.677   3.571 -0.3690  0.2992  0.2019
 6537TIP3    H119617   0.659   4.644   3.553 -0.7045  1.6433 -0.8317
 6537TIP3    H219618   0.782   4.701   3.485  0.3428  1.3443  0.7504
 6538TIP3   OH219619   3.306   5.317   0.858 -0.0895 -0.0533 -0.0008
 6538TIP3    H119620   3.327   5.378   0.928 -0.2526  0.2422 -0.2045
 6538TIP3    H219621   3.210   5.310   0.860 -0.0845 -0.1592 -0.0942
 6539TIP3   OH219622   3.301   0.558   2.503 -0.3507  0.3424  0.0342
 6539TIP3    H119623   3.271   0.609   2.579  1.3250  1.2467  0.1428
 6539TIP3    H219624   3.331   0.475   2.541 -1.6269 -0.1491  0.0434
 6540TIP3   OH219625   2.301   0.821   3.337  0.0457 -0.2213 -0.2686
 6540TIP3    H119626   2.341   0.903   3.308 -0.3048  0.0176 -0.0760
 6540TIP3    H219627   2.334   0.756   3.275  0.3137  0.0642 -0.4324
 6541TIP3   OH219628   0.385   2.283   0.725 -0.6846  0.0498 -0.1265
 6541TIP3    H119629   0.301   2.328   0.722  0.7241  2.8899  0.1661
 6541TIP3    H219630   0.441   2.330   0.664  1.7637  0.7635  2.4404
 6542TIP3   OH219631   1.458   4.281   1.052 -0.2953  0.8408 -0.3763
 6542TIP3    H119632   1.397   4.207   1.046  1.9136 -1.0099 -1.5695
 6542TIP3    H219633   1.443   4.317   1.139 -1.1373 -1.3370  0.4615
 6543TIP3   OH219634   2.397   1.306   1.173  0.4719 -0.8402 -0.0316
 6543TIP3    H119635   2.439   1.317   1.259  0.7485 -0.5972 -0.1951
 6543TIP3    H219636   2.440   1.371   1.118 -1.4450  0.7854  0.2771
 6544TIP3   OH219637   5.315   2.459   3.326 -0.0324  0.3044  0.4359
 6544TIP3    H119638   5.396   2.485   3.369  0.4395  1.2636 -0.9511
 6544TIP3    H219639   5.315   2.507   3.243 -0.2692 -2.3354 -1.2268
 6545TIP3   OH219640   2.226   0.716   0.169  0.0998 -0.2366 -0.1997
 6545TIP3    H119641   2.145   0.729   0.121 -0.2357 -0.0792  0.4058
 6545TIP3    H219642   2.232   0.621   0.181  0.5096 -0.3342 -1.0985
 6546TIP3   OH219643   2.518   0.599   3.856 -0.1888  1.3047  0.3404
 6546TIP3    H119644   2.471   0.670   3.813  1.9528  1.7323 -1.4711
 6546TIP3    H219645   2.609   0.628   3.858  1.1202 -1.9746 -2.0014
 6547TIP3   OH219646   1.204   3.811   5.063 -0.6101  0.1767  0.3178
 6547TIP3    H119647   1.146   3.771   4.998 -0.5053  0.1458  0.2436
 6547TIP3    H219648   1.150   3.819   5.141 -0.6642 -0.0067  0.2993
 6548TIP3   OH219649   4.848   2.622   3.229  0.3789 -0.0134  0.6399
 6548TIP3    H119650   4.775   2.657   3.178  0.6857 -0.4812 -0.1352
 6548TIP3    H219651   4.829   2.649   3.319 -1.4326 -1.2275  0.6779
 6549TIP3   OH219652   4.312   2.761   1.788  0.0997  0.2142 -0.1122
 6549TIP3    H119653   4.407   2.755   1.782  0.1715  1.5181 -0.6276
 6549TIP3    H219654   4.291   2.726   1.875  0.8993 -1.3072 -0.4908
 6550TIP3   OH219655   4.413   1.005   1.169  0.6251 -0.1723  0.0243
 6550TIP3    H119656   4.434   0.912   1.177  0.9563 -0.3758 -2.3348
 6550TIP3    H219657   4.487   1.042   1.120 -1.0147  0.5738 -2.0737
 6551TIP3   OH219658   3.209   5.532   1.972  0.6324  0.2000  0.0033
 6551TIP3    H119659   3.246   5.460   1.920  0.4718  0.4188 -0.4173
 6551TIP3    H219660   3.172   5.592   1.907  1.2393  0.9321  0.3123
 6552TIP3   OH219661   0.720   3.840   2.182 -0.4386 -0.1748 -0.2047
 6552TIP3    H119662   0.731   3.897   2.106  1.3358 -0.3679 -0.1300
 6552TIP3    H219663   0.724   3.899   2.257 -1.2679 -0.0952 -0.2166
 6553TIP3   OH219664   4.910   0.839   2.763 -0.1941 -0.3986  0.2373
 6553TIP3    H119665   4.911   0.876   2.675  1.6992 -2.1349 -0.5531
 6553TIP3    H219666   4.879   0.750   2.751 -1.4828 -0.1716  1.6135
 6554TIP3   OH219667   0.809   0.570   3.789  0.0332 -0.4615  0.5184
 6554TIP3    H119668   0.785   0.529   3.872  1.7909 -1.4263  0.6152
 6554TIP3    H219669   0.860   0.502   3.744  0.9329  0.7936 -0.3991
 6555TIP3   OH219670   3.149   0.966   2.850  0.5311  0.4080 -0.3532
 6555TIP3    H119671   3.238   0.985   2.878 -0.2080  0.3424  2.2200
 6555TIP3    H219672   3.102   0.944   2.930 -1.5329 -0.7191 -1.7819
 6556TIP3   OH219673   5.620   3.164   2.743 -0.0031  0.3379  0.6571
 6556TIP3    H119674   5.547   3.110   2.713  0.8191  0.2404 -1.2872
 6556TIP3    H219675   5.647   3.123   2.825  0.0721 -1.7453 -0.3511
 6557TIP3   OH219676   3.678   5.322   1.018 -1.2070  0.0047  0.1334
 6557TIP3    H119677   3.631   5.285   0.944  1.7234  0.4472 -2.1096
 6557TIP3    H219678   3.683   5.251   1.081 -1.1921 -1.3731 -1.3638
 6558TIP3   OH219679   0.247   2.091   3.423 -0.3689  0.2349 -1.0918
 6558TIP3    H119680   0.298   2.061   3.348 -1.3453  0.0951 -1.7160
 6558TIP3    H219681   0.297   2.062   3.499  0.2546 -0.2919 -1.6881
 6559TIP3   OH219682   0.274   2.188   1.108  0.0422 -0.2785  0.3738
 6559TIP3    H119683   0.230   2.267   1.078  2.1695  1.0742  0.6254
 6559TIP3    H219684   0.294   2.204   1.200 -1.2919 -2.0037  1.0301
 6560TIP3   OH219685   6.335   2.438   1.618  0.4265  0.2135 -0.0145
 6560TIP3    H119686   6.329   2.347   1.646  0.8874  0.0294 -0.5159
 6560TIP3    H219687   6.349   2.487   1.699  0.4868 -0.1918  0.2223
 6561TIP3   OH219688   5.731   1.425   0.562 -0.1317  0.4174  0.2149
 6561TIP3    H119689   5.775   1.407   0.479  0.2520  0.9595  0.2948
 6561TIP3    H219690   5.649   1.377   0.556  0.7333 -1.1238  0.3242
 6562TIP3   OH219691   2.813   5.869   4.923 -0.2899 -0.6847 -0.6341
 6562TIP3    H119692   2.794   5.952   4.879  0.2025 -0.3566 -0.2505
 6562TIP3    H219693   2.909   5.866   4.927 -0.2077  0.7868  3.0581
 6563TIP3   OH219694   1.524   4.773   4.062  0.4799 -0.6160  0.1265
 6563TIP3    H119695   1.515   4.869   4.057 -0.5640 -0.7587 -1.3290
 6563TIP3    H219696   1.610   4.760   4.101  0.7162  0.9298  0.2096
 6564TIP3   OH219697   5.694   3.966   3.887  0.3550  0.3089 -0.0621
 6564TIP3    H119698   5.720   3.948   3.977  0.2181 -0.1051 -0.1016
 6564TIP3    H219699   5.623   4.030   3.895 -2.2639 -2.4205  0.3794
 6565TIP3   OH219700   1.488   2.833   3.407  0.3506  0.5453  0.2140
 6565TIP3    H119701   1.535   2.870   3.483  0.2739 -0.7990  0.9408
 6565TIP3    H219702   1.554   2.832   3.337  0.7727  0.6991  0.5977
 6566TIP3   OH219703   4.418   5.007   2.402 -0.6336 -0.2883 -0.0166
 6566TIP3    H119704   4.481   4.978   2.468 -0.7130  1.4449  0.8912
 6566TIP3    H219705   4.344   5.040   2.454 -1.6290 -0.8695 -1.0359
 6567TIP3   OH219706   4.741   5.007   3.272  0.3259  0.0908 -0.2372
 6567TIP3    H119707   4.748   4.972   3.184  1.6748 -1.6849  0.5230
 6567TIP3    H219708   4.650   4.989   3.297  0.2873 -0.5394 -0.8052
 6568TIP3   OH219709   3.432   1.200   0.373  0.0676  0.5574  0.6771
 6568TIP3    H119710   3.503   1.140   0.352 -0.2688  0.6893 -0.9595
 6568TIP3    H219711   3.362   1.144   0.406 -0.1250  0.0793 -0.5156
 6569TIP3   OH219712   6.158   1.181   0.791 -0.3191 -0.0087  1.0399
 6569TIP3    H119713   6.088   1.203   0.729  0.5698  1.0057  0.3568
 6569TIP3    H219714   6.212   1.117   0.744  1.2996  1.9682  0.0042
 6570TIP3   OH219715   3.969   5.291   1.125  0.0453 -0.3304 -0.0576
 6570TIP3    H119716   3.900   5.241   1.169 -0.3468  0.1905 -0.0629
 6570TIP3    H219717   4.046   5.234   1.127 -0.2975 -0.7874  0.2437
 6571TIP3   OH219718   3.463   1.965   2.496  0.5113 -0.2161  0.2239
 6571TIP3    H119719   3.493   1.952   2.586  0.8523  0.2600  0.1811
 6571TIP3    H219720   3.453   1.876   2.462  2.0264 -0.4168  0.2076
 6572TIP3   OH219721   1.687   5.743   1.430 -0.0220  0.3508 -0.0692
 6572TIP3    H119722   1.652   5.674   1.487  0.9491  0.2849  0.4710
 6572TIP3    H219723   1.610   5.783   1.391 -0.6619 -0.2844  0.5082
 6573TIP3   OH219724   1.032   3.586   1.384 -0.2391 -0.1807 -0.3079
 6573TIP3    H119725   1.008   3.656   1.323 -1.4959 -1.3129 -1.1795
 6573TIP3    H219726   1.125   3.573   1.370  0.5071  2.5725  1.2547
 6574TIP3   OH219727   5.444   5.404   3.029  0.0104 -0.0060 -0.2598
 6574TIP3    H119728   5.450   5.333   2.965 -0.0176 -0.6497  0.4366
 6574TIP3    H219729   5.534   5.425   3.051  0.0415  0.6362 -0.9459
 6575TIP3   OH219730   3.212   1.280   1.616  0.0294  0.1708  0.1257
 6575TIP3    H119731   3.159   1.350   1.579 -2.2777 -2.1057 -1.2379
 6575TIP3    H219732   3.230   1.308   1.706 -0.6162  2.5436 -0.4287
 6576TIP3   OH219733   0.858   5.432   0.423 -0.2517  0.3983  0.1159
 6576TIP3    H119734   0.816   5.518   0.412 -0.3121  0.5019  1.0827
 6576TIP3    H219735   0.815   5.377   0.358 -0.2168  1.1003 -0.5167
 6577TIP3   OH219736   2.677   3.845   2.571 -0.1677  0.6081  0.7066
 6577TIP3    H119737   2.633   3.837   2.486 -1.0886  0.3884  1.1882
 6577TIP3    H219738   2.619   3.900   2.623 -0.3790 -0.4936  1.6835
 6578TIP3   OH219739   3.728   4.099   1.472  0.0991  0.2133  0.0082
 6578TIP3    H119740   3.756   4.028   1.529 -0.1666 -0.4387 -0.6571
 6578TIP3    H219741   3.778   4.085   1.391 -1.7475 -0.6969 -1.0296
 6579TIP3   OH219742   2.295   5.542   1.670  0.6837  1.0469  0.3057
 6579TIP3    H119743   2.207   5.566   1.701  0.4419  1.7700 -0.8570
 6579TIP3    H219744   2.342   5.626   1.665  1.9769  0.5004  2.4270
 6580TIP3   OH219745   0.939   0.985   2.624  0.0898 -0.1771 -0.1450
 6580TIP3    H119746   0.989   0.973   2.705  1.1469  1.3539 -0.5160
 6580TIP3    H219747   0.850   1.007   2.654  0.5173  0.5830  0.6294
 6581TIP3   OH219748   2.016   3.898   3.123  1.1502  0.4236 -0.6486
 6581TIP3    H119749   2.017   3.970   3.060 -0.2015  0.8857 -0.1696
 6581TIP3    H219750   1.930   3.858   3.112 -0.2807  2.1707  2.6881
 6582TIP3   OH219751   2.735   1.643   4.453 -0.7752 -0.0901  0.2151
 6582TIP3    H119752   2.650   1.688   4.448 -0.9954 -0.5117  0.1806
 6582TIP3    H219753   2.724   1.564   4.401 -0.7899 -0.8410  1.3404
 6583TIP3   OH219754   4.811   3.373   3.624 -0.0963 -0.3260 -0.0367
 6583TIP3    H119755   4.849   3.412   3.546 -1.0043 -0.1479 -0.4079
 6583TIP3    H219756   4.785   3.448   3.678 -0.3510 -0.4313 -0.0093
 6584TIP3   OH219757   1.701   1.043   4.291  0.2011 -0.3980 -0.0014
 6584TIP3    H119758   1.789   1.005   4.288  0.0174 -0.9976  1.5957
 6584TIP3    H219759   1.716   1.137   4.286  0.7759 -0.5491 -2.0759
 6585TIP3   OH219760   1.630   0.341   0.100  0.6367  0.0568  0.4565
 6585TIP3    H119761   1.607   0.292   0.021  1.5392 -0.4271  0.4854
 6585TIP3    H219762   1.561   0.407   0.107 -0.4697 -1.0247  0.2703
 6586TIP3   OH219763   5.463   0.262   1.147 -0.0684  0.2201  0.0053
 6586TIP3    H119764   5.527   0.326   1.115  0.6350  0.4397  1.7213
 6586TIP3    H219765   5.506   0.222   1.223 -0.2394 -2.7219 -1.3056
 6587TIP3   OH219766   4.890   4.811   4.900 -0.1518 -0.2701  0.4538
 6587TIP3    H119767   4.912   4.732   4.949  0.9836 -1.6438 -2.1015
 6587TIP3    H219768   4.974   4.854   4.885 -0.8121  1.9641  2.4941
 6588TIP3   OH219769   5.429   4.605   4.752 -0.1555  0.6307 -0.1632
 6588TIP3    H119770   5.521   4.623   4.768 -0.3960  0.5328  1.5004
 6588TIP3    H219771   5.409   4.653   4.672  1.2052  1.0659 -0.2680
 6589TIP3   OH219772   5.638   3.016   2.970 -0.3248  0.3376  0.4169
 6589TIP3    H119773   5.643   3.029   3.065 -0.9367 -1.9945  0.8320
 6589TIP3    H219774   5.674   2.928   2.956 -1.5901  0.0487 -1.3447
 6590TIP3   OH219775   4.443   3.902   3.358 -0.1524  0.1417 -0.4799
 6590TIP3    H119776   4.393   3.832   3.314  2.0047  0.3725 -3.5825
 6590TIP3    H219777   4.514   3.856   3.403  0.2859  0.2118 -1.0968
 6591TIP3   OH219778   5.883   0.232   2.439  0.6646 -0.5694 -0.3549
 6591TIP3    H119779   5.913   0.319   2.465  1.0258 -0.7356 -0.2045
 6591TIP3    H219780   5.832   0.247   2.359  1.7012 -0.3474 -1.0006
 6592TIP3   OH219781   1.349   2.053   1.193 -0.0110 -0.0281  0.0378
 6592TIP3    H119782   1.267   2.093   1.165 -0.0658 -0.7189 -0.8460
 6592TIP3    H219783   1.417   2.113   1.163 -0.1759  0.3465  0.4157
 6593TIP3   OH219784   0.862   2.372   2.018  0.2415  0.3016 -0.2346
 6593TIP3    H119785   0.864   2.454   1.969 -0.0306  1.3932  1.4755
 6593TIP3    H219786   0.781   2.329   1.990 -0.2623  1.2327 -0.2451
 6594TIP3   OH219787   2.505   2.135   1.158 -0.2215 -0.5451 -0.4634
 6594TIP3    H119788   2.436   2.171   1.103 -0.5548 -1.4279 -0.6394
 6594TIP3    H219789   2.461   2.070   1.213  0.0676  0.4169  0.9661
 6595TIP3   OH219790   1.787   1.706   3.452  0.2063 -0.1762  0.0643
 6595TIP3    H119791   1.764   1.775   3.389 -1.2073 -0.5255  0.1669
 6595TIP3    H219792   1.724   1.636   3.434  0.9044 -0.9833  0.7237
 6596TIP3   OH219793   5.507   1.092   1.282 -0.5209 -0.3246 -0.2530
 6596TIP3    H119794   5.532   0.999   1.291  0.0228 -0.0384  1.5343
 6596TIP3    H219795   5.565   1.125   1.213  0.3151 -0.9752  0.1177
 6597TIP3   OH219796   1.451   0.205   5.208 -0.6960  0.2488 -0.1966
 6597TIP3    H119797   1.454   0.118   5.167 -0.3216  0.5243 -0.7687
 6597TIP3    H219798   1.416   0.263   5.140  1.2413  0.9712 -0.6638
 6598TIP3   OH219799   5.269   1.406   1.247  0.0043 -0.5585  0.0691
 6598TIP3    H119800   5.244   1.466   1.176  0.8672 -0.0207  0.2169
 6598TIP3    H219801   5.236   1.448   1.326  1.6811  0.3728  0.3170
 6599TIP3   OH219802   6.132   0.482   4.895  0.4483  0.0339 -0.3623
 6599TIP3    H119803   6.097   0.542   4.829  1.3704 -0.0476 -0.9405
 6599TIP3    H219804   6.223   0.468   4.869  0.3376 -1.3776 -0.0625
 6600TIP3   OH219805   6.212   4.979   2.421 -0.4148 -0.3107 -0.1839
 6600TIP3    H119806   6.229   4.920   2.349  0.5624  0.4566 -0.6011
 6600TIP3    H219807   6.256   4.940   2.497 -1.3953 -1.0867  0.0030
 6601TIP3   OH219808   5.945   5.931   2.188 -0.0747 -0.1995 -0.7655
 6601TIP3    H119809   6.032   5.958   2.217 -0.0858 -0.6277 -0.3168
 6601TIP3    H219810   5.902   6.012   2.161  0.2492  0.0919 -0.4123
 6602TIP3   OH219811   6.018   1.836   1.134  0.0654 -0.3381 -0.0777
 6602TIP3    H119812   6.048   1.927   1.129  0.3545 -0.4892 -1.2575
 6602TIP3    H219813   5.940   1.840   1.190  0.5378  0.5110  0.5341
 6603TIP3   OH219814   5.094   4.168   1.437  0.3238 -0.2948  0.3912
 6603TIP3    H119815   5.146   4.142   1.513 -0.7080  1.6715  1.8586
 6603TIP3    H219816   5.070   4.259   1.455 -1.3269 -0.2969 -1.5330
 6604TIP3   OH219817   3.131   2.214   4.407 -0.4746 -0.6960  0.6547
 6604TIP3    H119818   3.066   2.255   4.463 -0.4125  1.6366 -0.8648
 6604TIP3    H219819   3.095   2.220   4.318  0.7938 -1.4593  0.0485
 6605TIP3   OH219820   1.730   1.094   3.101  0.4312  0.2394 -0.0662
 6605TIP3    H119821   1.729   1.181   3.142 -1.3807  0.9272 -1.4098
 6605TIP3    H219822   1.638   1.069   3.098  0.8761 -1.4294 -0.3669
 6606TIP3   OH219823   5.649   4.771   3.131  0.0702 -0.1236 -0.1851
 6606TIP3    H119824   5.641   4.776   3.036 -0.6102  0.4664 -0.1072
 6606TIP3    H219825   5.598   4.846   3.163  1.9102  0.8663  0.5703
 6607TIP3   OH219826   3.039   2.443   4.199 -0.1579  0.0378 -0.3915
 6607TIP3    H119827   2.970   2.415   4.140 -0.5092 -0.1152  0.0894
 6607TIP3    H219828   3.120   2.420   4.153 -0.4119  0.3215 -1.0044
 6608TIP3   OH219829   4.826   0.276   3.903  0.3162  0.8435  0.1273
 6608TIP3    H119830   4.772   0.350   3.930  0.8623  1.8165 -1.3315
 6608TIP3    H219831   4.833   0.285   3.808  0.1938 -1.2343 -0.1261
 6609TIP3   OH219832   3.040   2.331   0.516 -0.3690 -0.1852 -0.2965
 6609TIP3    H119833   3.063   2.420   0.490 -1.0736 -0.0909 -0.6256
 6609TIP3    H219834   3.101   2.310   0.587 -0.9181  0.9782  0.5661
 6610TIP3   OH219835   5.394   2.345   0.198 -0.5066  0.2232 -0.0171
 6610TIP3    H119836   5.432   2.287   0.132 -0.0890 -1.7640  1.8568
 6610TIP3    H219837   5.300   2.339   0.183 -0.3766  2.3375 -2.3773
 6611TIP3   OH219838   4.011   3.757   3.986 -0.3888 -0.0082  0.1074
 6611TIP3    H119839   4.035   3.826   4.048  0.5862 -0.6123  0.4168
 6611TIP3    H219840   4.017   3.676   4.036 -2.4571 -0.2688  0.0084
 6612TIP3   OH219841   2.096   0.199   0.244  0.8332 -0.6394  0.2552
 6612TIP3    H119842   2.009   0.235   0.226  1.3897  0.2114 -0.8374
 6612TIP3    H219843   2.112   0.219   0.336  0.6627  0.9569 -0.0387
 6613TIP3   OH219844   3.740   0.051   4.653 -0.4390  0.3253 -0.4043
 6613TIP3    H119845   3.719  -0.021   4.712 -0.6342  0.6084 -0.1236
 6613TIP3    H219846   3.735   0.013   4.565 -3.3874  0.6333 -0.4839
 6614TIP3   OH219847   2.388   0.281   0.711  0.3381  0.2522 -0.1021
 6614TIP3    H119848   2.477   0.294   0.743 -0.4405  1.1425  1.9230
 6614TIP3    H219849   2.361   0.197   0.749 -0.3511  0.9731  1.0793
 6615TIP3   OH219850   5.094   3.277   3.932 -0.1596  0.2012  0.2076
 6615TIP3    H119851   5.164   3.226   3.892  0.8547  0.5973  1.3974
 6615TIP3    H219852   5.131   3.365   3.940 -0.9996  0.5441  0.3589
 6616TIP3   OH219853   2.782   1.751   3.241  0.4212  0.1644 -0.1800
 6616TIP3    H119854   2.856   1.692   3.253  0.7708  0.6692  0.1903
 6616TIP3    H219855   2.809   1.832   3.283  0.5782  1.1285 -2.0580
 6617TIP3   OH219856   1.834   1.209   1.803 -0.2783 -0.2328  0.5115
 6617TIP3    H119857   1.783   1.130   1.783  0.6634 -0.9712  0.9684
 6617TIP3    H219858   1.845   1.206   1.898  0.5103 -0.0115  0.4267
 6618TIP3   OH219859   0.033   0.425   4.830  0.0216 -0.0394  0.1577
 6618TIP3    H119860   0.099   0.444   4.763 -0.7352  0.0407 -0.5820
 6618TIP3    H219861   0.014   0.332   4.820 -1.1439  0.2741 -0.7297
 6619TIP3   OH219862   0.446   1.421   1.989  0.2216  0.1710  0.3957
 6619TIP3    H119863   0.499   1.498   1.972  2.0743 -1.2171 -0.4998
 6619TIP3    H219864   0.419   1.390   1.903 -1.7815  0.6265  0.8191
 6620TIP3   OH219865   2.783   1.440   3.794 -0.0711  0.1092  0.0375
 6620TIP3    H119866   2.806   1.527   3.827 -1.3403  0.4935 -0.0345
 6620TIP3    H219867   2.693   1.427   3.822 -0.4292 -0.5217 -1.3169
 6621TIP3   OH219868   1.391   2.691   1.355 -0.6282 -0.3252 -0.7653
 6621TIP3    H119869   1.325   2.718   1.292  0.9115  1.0695 -1.8721
 6621TIP3    H219870   1.430   2.612   1.318  1.6330  1.5638 -2.7211
 6622TIP3   OH219871   3.596   5.453   4.782  0.1223  0.2691 -0.6319
 6622TIP3    H119872   3.677   5.481   4.741  0.9783 -0.8364  0.2444
 6622TIP3    H219873   3.611   5.464   4.876 -1.0497  0.8205 -0.4817
 6623TIP3   OH219874   5.672   0.363   4.040  0.0924 -0.3069  0.0557
 6623TIP3    H119875   5.659   0.313   3.959  1.1423 -1.5755  0.6308
 6623TIP3    H219876   5.715   0.301   4.100 -1.9087  0.1465  2.0915
 6624TIP3   OH219877   0.526   4.265   1.963 -0.1383 -0.3933  0.4811
 6624TIP3    H119878   0.541   4.341   1.907  0.6644  0.1234  1.3564
 6624TIP3    H219879   0.609   4.217   1.961 -1.0849 -2.0900 -1.2346
 6625TIP3   OH219880   0.376   2.971   4.668  0.0659 -0.2473 -0.7149
 6625TIP3    H119881   0.406   2.905   4.605  3.7294  1.2915 -0.8693
 6625TIP3    H219882   0.449   2.979   4.730 -1.1703  2.0624  0.5715
 6626TIP3   OH219883   6.264   1.862   0.208 -0.4181 -0.4553  0.5131
 6626TIP3    H119884   6.271   1.862   0.304 -1.2911  1.2478  0.6144
 6626TIP3    H219885   6.349   1.893   0.177 -0.8283  1.1645  0.8785
 6627TIP3   OH219886   0.983   2.365   4.870 -0.0384  0.0981 -0.0163
 6627TIP3    H119887   1.042   2.324   4.934 -0.1398  1.9812  1.3833
 6627TIP3    H219888   1.032   2.364   4.788  2.2328  1.9995  1.1878
 6628TIP3   OH219889   3.420   0.598   0.130  0.2938 -0.1105  0.4555
 6628TIP3    H119890   3.376   0.589   0.045 -0.4063 -3.1872  1.0142
 6628TIP3    H219891   3.494   0.537   0.125  0.7211  0.2735  1.7559
 6629TIP3   OH219892   0.190   0.899   3.728  0.0984  0.4035  0.5321
 6629TIP3    H119893   0.138   0.853   3.661  0.3644  0.9695 -0.0665
 6629TIP3    H219894   0.125   0.950   3.777  0.0513  0.9275 -0.0654
 6630TIP3   OH219895   4.788   4.327   4.672 -0.3122 -0.0658 -0.0762
 6630TIP3    H119896   4.875   4.314   4.634 -0.2733  0.3216 -0.1228
 6630TIP3    H219897   4.728   4.329   4.597 -0.2096  0.9097 -0.1419
 6631TIP3   OH219898   4.262   3.335   2.188 -0.4135  0.2052  0.4725
 6631TIP3    H119899   4.311   3.302   2.263  0.1535 -0.4238 -0.1555
 6631TIP3    H219900   4.302   3.292   2.113 -0.4231  1.4416 -0.2753
 6632TIP3   OH219901   2.470   4.051   5.161  0.6352 -0.1247 -0.0854
 6632TIP3    H119902   2.473   4.019   5.071  0.7170  0.1019 -0.1631
 6632TIP3    H219903   2.439   3.976   5.212  4.2473 -1.5707  0.2746
 6633TIP3   OH219904   4.313   0.605   1.072  0.4544  0.6534  0.0885
 6633TIP3    H119905   4.290   0.515   1.051  0.6119  0.5620  0.3003
 6633TIP3    H219906   4.236   0.656   1.047 -0.5133  0.2168  1.9575
 6634TIP3   OH219907   1.994   5.247   2.150  0.0384 -0.2968 -0.0712
 6634TIP3    H119908   2.055   5.175   2.133  1.5206  0.6692  0.9514
 6634TIP3    H219909   2.041   5.325   2.121 -0.9914  0.4182  0.1378
 6635TIP3   OH219910   2.377   0.804   4.095  0.1660  0.5012  0.1457
 6635TIP3    H119911   2.294   0.804   4.142  0.5692  0.4584  0.8654
 6635TIP3    H219912   2.389   0.714   4.065 -0.4322  0.6801 -0.6617
 6636TIP3   OH219913   3.063   3.607   3.339  0.9096  0.5130 -0.2405
 6636TIP3    H119914   3.069   3.646   3.252  0.4442 -0.3023 -0.6521
 6636TIP3    H219915   2.975   3.630   3.369 -0.1959 -1.8377 -1.3381
 6637TIP3   OH219916   2.472   4.891   2.939  0.1004  0.2133 -0.1556
 6637TIP3    H119917   2.407   4.839   2.892  0.8102 -0.4835 -0.3793
 6637TIP3    H219918   2.527   4.827   2.983  0.0865  0.8273  0.7931
 6638TIP3   OH219919   5.232   1.127   1.270 -0.2897 -0.2351  0.5247
 6638TIP3    H119920   5.325   1.115   1.251 -0.3072  0.0473  0.2551
 6638TIP3    H219921   5.216   1.220   1.253 -0.8203 -0.4677 -0.3138
 6639TIP3   OH219922   6.189   5.514   2.710 -0.2051 -0.0411  0.4514
 6639TIP3    H119923   6.263   5.483   2.658 -0.8743  1.5428 -1.6050
 6639TIP3    H219924   6.115   5.515   2.649 -1.2631  1.0461  1.6720
 6640TIP3   OH219925   1.791   4.110   4.356 -0.0748  0.1559  0.1283
 6640TIP3    H119926   1.851   4.150   4.292  1.2361  0.5189  1.5103
 6640TIP3    H219927   1.801   4.164   4.434 -2.5103  0.4123  0.3177
   6.34255   5.97982   5.17868   0.00000   0.00000  -2.11418   0.00000  -2.11418  -2.98991
