Title
19942
    1ASP      N    1   5.124   5.662   2.872  0.0611  0.2364 -0.6502
    1ASP    HT1    2   5.111   5.647   2.975 -0.2769  0.6939 -0.6226
    1ASP    HT2    3   5.149   5.762   2.856 -1.4664  0.5616 -1.1014
    1ASP    HT3    4   5.216   5.623   2.844  1.0026  0.8412  1.3652
    1ASP     CA    5   5.001   5.628   2.800 -0.3963  0.0430 -0.2189
    1ASP     HA    6   5.011   5.526   2.767 -0.5217  0.5555 -1.9955
    1ASP     CB    7   4.880   5.650   2.897  0.5788 -0.6911 -0.2449
    1ASP    HB1    8   4.859   5.754   2.931 -2.3831 -0.8045 -1.4205
    1ASP    HB2    9   4.887   5.585   2.987 -3.0910  0.2187  0.8978
    1ASP     CG   10   4.751   5.600   2.830 -0.7087  0.2133 -0.0046
    1ASP    OD1   11   4.642   5.618   2.891  0.5579 -0.1776 -1.1461
    1ASP    OD2   12   4.761   5.547   2.714  0.2822 -0.1210 -0.2778
    1ASP      C   13   4.999   5.707   2.669  0.0657  0.5128 -0.8111
    1ASP      O   14   5.096   5.696   2.598 -0.1482  0.2038  0.3307
    2ALA      N   15   4.890   5.778   2.634  0.0463 -0.1832 -0.1643
    2ALA     HN   16   4.801   5.781   2.678  1.1882 -0.9328  2.3532
    2ALA     CA   17   4.899   5.866   2.522 -0.3760  0.4466  0.1052
    2ALA     HA   18   4.962   5.822   2.446 -0.5512 -2.1923  1.4050
    2ALA     CB   19   4.759   5.901   2.469  0.3050  0.3977  0.1835
    2ALA    HB1   20   4.685   5.895   2.552 -2.2011 -0.2846 -1.9617
    2ALA    HB2   21   4.728   5.829   2.390  0.1232  1.8094 -1.0751
    2ALA    HB3   22   4.766   6.002   2.424 -0.1719  0.4377  0.1994
    2ALA      C   23   4.965   5.998   2.564  0.5797  0.7611  0.1567
    2ALA      O   24   4.920   6.067   2.652  0.0527  0.1729  0.2712
    3ASP      N   25   5.071   6.036   2.488  0.4103  0.6988  0.5242
    3ASP     HN   26   5.103   5.986   2.408  0.9566  1.5768  0.1867
    3ASP     CA   27   5.136   6.164   2.512  0.4259 -0.5050 -0.3167
    3ASP     HA   28   5.147   6.199   2.614 -1.6126  2.9827 -1.1618
    3ASP     CB   29   5.277   6.179   2.455 -0.2997 -0.0133  0.5545
    3ASP    HB1   30   5.321   6.279   2.476  1.1298 -0.4319 -0.2501
    3ASP    HB2   31   5.266   6.154   2.347 -0.3697  0.3514  0.4793
    3ASP     CG   32   5.376   6.078   2.505  0.2120  0.4804  0.2765
    3ASP    OD1   33   5.473   6.045   2.433  0.7442 -0.8157  0.6378
    3ASP    OD2   34   5.362   6.021   2.614  0.4131 -0.3270  0.6055
    3ASP      C   35   5.058   6.281   2.459  0.2345 -0.2368  0.4654
    3ASP      O   36   5.016   6.282   2.345 -0.2493  0.0075  0.2825
    4GLY      N   37   5.040   6.389   2.537 -0.3486  0.0347 -0.2692
    4GLY     HN   38   5.072   6.387   2.632 -0.9434  0.5838 -0.0508
    4GLY     CA   39   5.000   6.521   2.501 -0.6308 -0.4279  0.4343
    4GLY    HA1   40   4.994   6.577   2.593 -1.2155  0.0714  0.0974
    4GLY    HA2   41   4.904   6.518   2.452 -1.2132  0.4674  1.4718
    4GLY      C   42   5.102   6.588   2.402  0.1754  0.5348 -0.0093
    4GLY      O   43   5.204   6.527   2.359  0.5102  0.7675 -0.3961
    5PRO      N   44   5.072   6.711   2.365  0.0777 -0.1720 -0.8191
    5PRO     CD   45   4.932   6.763   2.357 -0.0671 -0.4033 -0.2925
    5PRO    HD1   46   4.900   6.790   2.460  0.2320  3.2498 -1.0237
    5PRO    HD2   47   4.864   6.692   2.306 -1.2549  0.2571  0.3237
    5PRO     CA   48   5.164   6.816   2.322  0.1333 -0.5386  0.6682
    5PRO     HA   49   5.207   6.786   2.228  1.8748 -2.0581  1.8664
    5PRO     CB   50   5.080   6.950   2.321  0.6082 -0.2634  0.0440
    5PRO    HB1   51   5.123   7.020   2.245  0.0141  0.3559  0.2725
    5PRO    HB2   52   5.079   6.991   2.424  0.5281 -1.0624  0.3711
    5PRO     CG   53   4.937   6.903   2.288  0.2645 -1.0247  0.1722
    5PRO    HG1   54   4.866   6.981   2.322  2.9492  2.3462 -1.4016
    5PRO    HG2   55   4.935   6.882   2.179  0.0981  1.3251 -0.3161
    5PRO      C   56   5.289   6.828   2.404  0.4557 -0.8642  0.3094
    5PRO      O   57   5.273   6.812   2.526  0.2701  0.3239  0.4116
    6GLY      N   58   5.406   6.850   2.354 -0.1586  0.4161 -0.1796
    6GLY     HN   59   5.422   6.864   2.257 -1.3648  0.7230 -0.3435
    6GLY     CA   60   5.533   6.863   2.435  0.2363  0.7378  0.0193
    6GLY    HA1   61   5.609   6.878   2.360  0.7878  2.3751  0.8667
    6GLY    HA2   62   5.542   6.770   2.490 -0.2286  0.6809  0.0101
    6GLY      C   63   5.543   6.984   2.525  0.2896 -0.8452  0.5264
    6GLY      O   64   5.591   6.986   2.638  0.6230  0.6029 -0.2010
    7ASP      N   65   5.497   7.100   2.462 -0.7039 -0.6540  0.8716
    7ASP     HN   66   5.480   7.089   2.364  2.7395  1.3732 -0.1410
    7ASP     CA   67   5.495   7.239   2.508  0.4410  1.0383 -0.5586
    7ASP     HA   68   5.561   7.234   2.593  0.1225 -0.2928 -0.3659
    7ASP     CB   69   5.544   7.342   2.401 -0.2772  0.1789  1.3202
    7ASP    HB1   70   5.477   7.349   2.313  0.5223  0.3772  0.7134
    7ASP    HB2   71   5.645   7.310   2.370  0.3186  3.1229 -0.1250
    7ASP     CG   72   5.564   7.480   2.457  0.2551 -0.7765 -0.7604
    7ASP    OD1   73   5.606   7.575   2.386  0.2993  0.1091 -0.3233
    7ASP    OD2   74   5.542   7.511   2.580  0.7345 -0.4904 -0.6579
    7ASP      C   75   5.358   7.276   2.552 -0.6235  0.4278  0.2926
    7ASP      O   76   5.266   7.288   2.467  0.2860  0.7800  0.9611
    8PRO      N   77   5.323   7.307   2.684 -0.0719  1.1762  0.0974
    8PRO     CD   78   5.403   7.273   2.805  0.2030 -0.1133 -0.1445
    8PRO    HD1   79   5.466   7.359   2.835  3.4248 -2.4317  0.2561
    8PRO    HD2   80   5.474   7.189   2.786 -0.2262 -0.7246  0.8574
    8PRO     CA   81   5.184   7.336   2.716 -0.3229  0.0310  0.0204
    8PRO     HA   82   5.116   7.259   2.685  0.8097 -0.1576 -2.2294
    8PRO     CB   83   5.189   7.342   2.876  0.1633  0.4807 -0.3746
    8PRO    HB1   84   5.093   7.302   2.915  0.8687 -0.1321  0.7559
    8PRO    HB2   85   5.218   7.443   2.911  0.6698 -0.2058  1.2420
    8PRO     CG   86   5.302   7.239   2.911  0.4506 -0.0611 -0.3436
    8PRO    HG1   87   5.339   7.249   3.015  1.0354 -1.8172 -0.3433
    8PRO    HG2   88   5.268   7.136   2.887  0.9301 -0.0908 -0.9347
    8PRO      C   89   5.139   7.465   2.664 -0.1628 -0.4998 -1.0912
    8PRO      O   90   5.024   7.500   2.681 -0.4983  0.6746  0.5494
    9ASP      N   91   5.220   7.550   2.597  0.3175 -0.3082  0.1677
    9ASP     HN   92   5.316   7.526   2.590  0.1169 -0.7389 -2.0207
    9ASP     CA   93   5.180   7.681   2.551  0.1701  0.2859  0.2102
    9ASP     HA   94   5.106   7.717   2.621  2.0179  1.6340  1.5510
    9ASP     CB   95   5.308   7.755   2.532 -0.3199  0.7919  0.0561
    9ASP    HB1   96   5.295   7.850   2.476 -1.6573 -0.1696 -1.3575
    9ASP    HB2   97   5.378   7.693   2.470  1.1636  1.3789  1.0846
    9ASP     CG   98   5.370   7.788   2.671 -0.1941 -0.4022  0.3453
    9ASP    OD1   99   5.497   7.793   2.669 -0.2441 -0.0936  0.5107
    9ASP    OD2  100   5.306   7.813   2.774 -0.5081  0.2785  0.4339
    9ASP      C  101   5.110   7.670   2.418  0.0265  0.5460 -0.1616
    9ASP      O  102   5.073   7.765   2.354  0.6177  0.1385 -0.1387
   10ALA      N  103   5.091   7.549   2.369  0.4330  0.3099 -0.1882
   10ALA     HN  104   5.125   7.477   2.429  1.2891  0.5572 -0.3658
   10ALA     CA  105   5.059   7.516   2.234 -0.2712  0.5064  0.0000
   10ALA     HA  106   5.124   7.578   2.173  0.6962 -0.5584 -0.1017
   10ALA     CB  107   5.089   7.366   2.213 -0.2383  0.2859  0.5254
   10ALA    HB1  108   5.025   7.300   2.276 -1.6862  1.5620  0.4626
   10ALA    HB2  109   5.191   7.333   2.240 -0.5572 -0.1049  1.2865
   10ALA    HB3  110   5.079   7.340   2.105  0.0363 -0.4993  0.6810
   10ALA      C  111   4.916   7.540   2.192  0.6668  0.4522  0.1170
   10ALA      O  112   4.821   7.525   2.272  0.6455  0.2510 -0.2459
   11GLY      N  113   4.910   7.571   2.060  0.3841 -0.1195  0.0868
   11GLY     HN  114   4.996   7.581   2.009 -0.0369  1.2400 -0.4133
   11GLY     CA  115   4.785   7.598   1.982 -0.1955 -0.5835  0.4254
   11GLY    HA1  116   4.762   7.703   2.000 -1.4226 -0.8162  0.3199
   11GLY    HA2  117   4.704   7.531   2.008  1.1330 -1.9868  1.0705
   11GLY      C  118   4.814   7.574   1.836 -0.7119  0.1731  0.0683
   11GLY    OT1  119   4.915   7.622   1.774  0.1730  0.6553  0.4396
   11GLY    OT2  120   4.733   7.504   1.765  0.2280 -0.3838 -0.3316
   12LIT    LIT  121   0.490   4.723   0.117  0.1970 -0.1510 -0.1008
   13LIT    LIT  122   5.522   5.918   2.553 -1.0304 -0.8664 -0.6544
   14LIT    LIT  123   2.804   3.034   2.407  0.8373  0.8402  0.2142
   15LIT    LIT  124   3.532   1.121   4.995 -0.3457 -0.3947  0.1086
   16LIT    LIT  125   4.717   4.636   4.447 -0.1838  0.7191 -0.3644
   17LIT    LIT  126   2.494   4.042   0.927  0.1843  0.7021 -0.2159
   18LIT    LIT  127   2.010   5.777   3.097 -0.8001  0.6689 -0.2383
   19LIT    LIT  128   1.369   1.702   2.548  0.5729 -0.5783 -0.0868
   20LIT    LIT  129   0.664   5.153   2.435 -0.8051 -0.1062  0.4563
   21LIT    LIT  130   3.120   4.322   2.932  0.7450  0.0857 -0.9384
   22LIT    LIT  131   1.596   5.123   0.316  0.4141 -0.4724 -0.2524
   23LIT    LIT  132   1.303   0.515   1.566 -1.3541  0.6309  1.3326
   24LIT    LIT  133   4.684   1.370   2.677 -0.2665  0.7997  0.3361
   25LIT    LIT  134   1.171   5.585   2.116  0.1731  0.2949  0.2681
   26LIT    LIT  135   3.081   3.067   3.851 -0.6311  0.5818  0.3388
   27LIT    LIT  136   0.086   1.103   1.810  0.2723 -1.2709 -1.2628
   28LIT    LIT  137   4.580   4.730   3.517 -0.7745 -0.7141 -0.8854
   29LIT    LIT  138   1.811   4.789   3.764  0.1499 -0.5144  0.4846
   30LIT    LIT  139   0.728   1.788   4.460  0.3651 -0.3751 -0.4086
   31LIT    LIT  140   5.591   3.015   1.280 -1.1655  0.7262  0.1813
   32LIT    LIT  141   4.697   4.688   1.347 -1.0451 -0.1386  0.5043
   33LIT    LIT  142   3.847   4.010   1.500 -0.6402 -1.2556  0.1913
   34CLA    CLA  143   1.857   5.716   2.932 -0.5461  0.1602  0.1215
   35CLA    CLA  144   6.237   1.128   4.427 -0.3400 -0.1463  0.1967
   36CLA    CLA  145   5.915   4.309   2.385  0.4908 -0.0059 -0.3151
   37CLA    CLA  146   1.746   2.893   5.088 -0.0559 -0.3299  0.4320
   38CLA    CLA  147   4.363   5.801   1.981 -0.1278  0.0423  0.1467
   39CLA    CLA  148   2.163   0.696   0.321  0.0993  0.2934 -0.1182
   40CLA    CLA  149   5.287   4.528   1.949 -0.1789 -0.6056 -0.5705
   41CLA    CLA  150   0.256   1.216   3.335  0.1271  0.7584 -0.0827
   42CLA    CLA  151   2.955   3.065   1.288  0.1265 -0.0209  0.1352
   43CLA    CLA  152   2.053   4.343   1.583 -0.0730 -0.2649  0.3160
   44CLA    CLA  153   2.473   3.773   2.490  0.0147  0.0476  0.2220
   45CLA    CLA  154   5.277   5.148   3.943  0.2504  0.0411  0.0446
   46CLA    CLA  155   3.975   0.546   5.101 -0.1038 -0.1019 -0.3308
   47CLA    CLA  156   2.925   2.895   3.804 -0.2801  0.1320  0.1360
   48CLA    CLA  157   3.796   3.274   2.122 -0.3727  0.1817  0.0479
   49CLA    CLA  158   4.122   4.044   4.080 -0.2173 -0.3698  0.0456
   50CLA    CLA  159   4.621   1.575   2.763  0.2729 -0.2646 -0.2644
   51CLA    CLA  160   3.454   1.875   0.187 -0.2527  0.1013  0.1298
   52TIP3   OH2  161   5.820   2.520   3.204 -0.0166 -0.3866  0.3394
   52TIP3    H1  162   5.825   2.428   3.231 -1.1983 -1.3405 -2.3828
   52TIP3    H2  163   5.756   2.559   3.264 -0.7762 -1.7765  0.4743
   53TIP3   OH2  164   1.777   5.139   4.064  0.2674  0.5915 -0.3243
   53TIP3    H1  165   1.838   5.186   4.121  1.5589  0.5339 -1.6016
   53TIP3    H2  166   1.793   5.175   3.977 -0.6959 -0.2768 -0.8865
   54TIP3   OH2  167   4.644   3.093   4.644 -0.0523  0.4496 -0.2003
   54TIP3    H1  168   4.620   3.180   4.674  0.0688  0.5524 -0.3959
   54TIP3    H2  169   4.562   3.053   4.616  0.0517  0.9484 -1.2549
   55TIP3   OH2  170   5.528   5.212   3.006 -0.3930 -0.4880 -0.1561
   55TIP3    H1  171   5.570   5.223   3.091 -0.9712  0.0406  0.0668
   55TIP3    H2  172   5.473   5.134   3.017 -0.3433 -0.5163 -0.1041
   56TIP3   OH2  173   0.576   2.362   3.094  0.3228 -0.4512  0.0358
   56TIP3    H1  174   0.594   2.399   3.181 -0.6604 -1.2536  0.6045
   56TIP3    H2  175   0.548   2.437   3.042 -3.3839 -0.5174  1.6527
   57TIP3   OH2  176   2.242   1.341   0.970 -0.4708 -0.0955  0.6138
   57TIP3    H1  177   2.274   1.406   0.907  0.3411 -0.0688  1.0483
   57TIP3    H2  178   2.222   1.264   0.916  0.9353 -0.3351  0.4088
   58TIP3   OH2  179   5.311   4.763   4.651 -0.0541 -0.3064 -0.2328
   58TIP3    H1  180   5.303   4.820   4.574  3.1861  0.5978 -0.0377
   58TIP3    H2  181   5.235   4.785   4.705 -0.3836  1.8177 -1.4654
   59TIP3   OH2  182   3.439   0.840   1.396 -0.1620 -0.5267  0.0316
   59TIP3    H1  183   3.469   0.843   1.306  3.2497 -0.0966  1.0292
   59TIP3    H2  184   3.374   0.910   1.403  1.4627  1.2379 -1.5096
   60TIP3   OH2  185   3.942   0.485   2.798  0.0643 -0.9794  0.1588
   60TIP3    H1  186   3.989   0.522   2.724  0.7488  0.1166  1.1080
   60TIP3    H2  187   3.894   0.559   2.836  1.5995 -0.9549  2.2036
   61TIP3   OH2  188   2.113   1.861   5.133 -0.1590 -0.6270 -0.0102
   61TIP3    H1  189   2.108   1.777   5.088  0.5927 -1.1489  0.8420
   61TIP3    H2  190   2.143   1.840   5.221  0.3945  0.5734  0.1145
   62TIP3   OH2  191   2.949   0.525   4.418 -0.1575 -0.2291 -0.8460
   62TIP3    H1  192   2.917   0.602   4.371  0.6982  0.7236  0.0805
   62TIP3    H2  193   3.037   0.510   4.382  0.2455  0.1155 -0.0231
   63TIP3   OH2  194   3.887   3.840   2.126 -0.3400  0.3726 -0.0717
   63TIP3    H1  195   3.899   3.745   2.126  0.5059  0.4315 -1.8225
   63TIP3    H2  196   3.799   3.854   2.093 -0.5504  0.1980  0.4136
   64TIP3   OH2  197   4.099   5.068   2.022  0.0365 -0.4397 -0.1766
   64TIP3    H1  198   4.194   5.077   2.026 -0.0342 -0.0080  0.9150
   64TIP3    H2  199   4.070   5.144   1.972  0.2661 -0.6038 -0.5640
   65TIP3   OH2  200   5.543   2.404   0.651 -0.2167 -0.2213 -0.2845
   65TIP3    H1  201   5.522   2.416   0.559 -1.0237  0.9540  0.0330
   65TIP3    H2  202   5.612   2.336   0.651  1.2543  1.1644 -1.8940
   66TIP3   OH2  203   1.684   5.516   2.309  0.4621 -0.1635  0.1024
   66TIP3    H1  204   1.642   5.474   2.234 -1.4162 -0.3714  1.2369
   66TIP3    H2  205   1.653   5.468   2.385 -1.9418  3.2573  1.5080
   67TIP3   OH2  206   4.234   1.762   1.331  0.1757  0.3412  0.1591
   67TIP3    H1  207   4.294   1.795   1.398  1.0190  0.2634 -0.5320
   67TIP3    H2  208   4.235   1.667   1.343  2.1332  0.1022 -1.3748
   68TIP3   OH2  209   5.269   4.867   4.116  0.1586 -0.5626 -0.4206
   68TIP3    H1  210   5.248   4.955   4.087  0.0409  0.3050  2.0261
   68TIP3    H2  211   5.362   4.871   4.138 -0.1535 -0.5717  1.0459
   69TIP3   OH2  212   1.180   2.224   2.730  0.2505 -0.7573  0.4711
   69TIP3    H1  213   1.164   2.317   2.710  0.5961 -1.0871 -1.4950
   69TIP3    H2  214   1.134   2.210   2.813  0.4322  1.2334  0.9748
   70TIP3   OH2  215   4.464   4.772   2.285 -0.0539 -0.0665  0.2083
   70TIP3    H1  216   4.441   4.840   2.349  1.0833  0.4635  0.0961
   70TIP3    H2  217   4.419   4.798   2.205 -0.0313  0.2937  0.3081
   71TIP3   OH2  218   4.317   0.678   4.874 -0.0582 -0.0802 -0.4421
   71TIP3    H1  219   4.379   0.652   4.942  0.2821  0.9566 -0.3311
   71TIP3    H2  220   4.291   0.596   4.832  2.1201 -0.4695 -1.1404
   72TIP3   OH2  221   6.164   3.887   1.158 -0.3316  0.1565 -0.3631
   72TIP3    H1  222   6.087   3.929   1.120 -1.1033  0.9946  1.9728
   72TIP3    H2  223   6.130   3.804   1.192  0.5423 -1.0157 -2.1646
   73TIP3   OH2  224   4.896   0.383   2.727 -0.2329  0.3955 -0.0426
   73TIP3    H1  225   4.902   0.349   2.816 -0.3854 -0.4188 -0.3369
   73TIP3    H2  226   4.981   0.363   2.688 -0.0468  1.0478  0.0152
   74TIP3   OH2  227   0.628   4.883   3.014 -0.0954 -0.5247 -1.1784
   74TIP3    H1  228   0.710   4.933   3.012 -0.1881 -0.3074 -0.0290
   74TIP3    H2  229   0.641   4.812   2.951  1.8035 -1.7632  0.5038
   75TIP3   OH2  230   0.057   4.891   1.079  0.2980 -0.6933  0.2029
   75TIP3    H1  231   0.006   4.814   1.105  2.0395 -1.5005  1.4601
   75TIP3    H2  232   0.023   4.962   1.132 -1.5717 -0.4464 -1.2208
   76TIP3   OH2  233   3.067   1.341   3.047  0.3024 -0.4449 -0.2591
   76TIP3    H1  234   3.043   1.371   2.959  2.5299 -1.2476 -1.2306
   76TIP3    H2  235   3.053   1.246   3.044  1.2900 -0.6018 -0.0811
   77TIP3   OH2  236   5.343   2.398   3.092  0.5418  0.2565 -0.2208
   77TIP3    H1  237   5.407   2.467   3.110  0.5342  0.7957 -2.0279
   77TIP3    H2  238   5.326   2.405   2.998 -0.8317 -1.0471 -0.1133
   78TIP3   OH2  239   3.331   2.245   1.944 -0.7539 -0.3680  0.2231
   78TIP3    H1  240   3.270   2.318   1.939  0.1401  0.3628 -0.5662
   78TIP3    H2  241   3.333   2.209   1.855  3.4770  2.6778 -1.2241
   79TIP3   OH2  242   0.418   0.229   5.162 -0.0075  0.3173 -0.9091
   79TIP3    H1  243   0.428   0.140   5.128  0.1703 -0.4825  1.0821
   79TIP3    H2  244   0.342   0.224   5.220  1.9707  0.4971  1.9487
   80TIP3   OH2  245   4.972   1.148   3.492  0.0102 -0.1098  0.1415
   80TIP3    H1  246   4.917   1.119   3.565 -0.3693 -1.7150 -0.7360
   80TIP3    H2  247   4.979   1.071   3.436  1.1225  0.8046 -1.0183
   81TIP3   OH2  248   1.564   2.963   0.149  0.2950 -0.0509  0.2229
   81TIP3    H1  249   1.552   3.018   0.071 -0.7607 -0.1112  0.3217
   81TIP3    H2  250   1.498   2.996   0.210 -0.2418 -1.3166  0.3462
   82TIP3   OH2  251   2.865   4.561   4.425 -0.6281 -0.2823  0.4362
   82TIP3    H1  252   2.911   4.512   4.494  0.1454  0.2043  0.2821
   82TIP3    H2  253   2.891   4.652   4.440 -0.1177 -0.2224 -0.7434
   83TIP3   OH2  254   4.389   1.130   3.855 -0.5295 -0.3685  0.4443
   83TIP3    H1  255   4.396   1.198   3.788 -0.8800 -0.8810 -0.1255
   83TIP3    H2  256   4.479   1.113   3.880 -0.1050 -2.0349 -1.8408
   84TIP3   OH2  257   5.077   2.702   5.121  0.5976  0.0651  0.1620
   84TIP3    H1  258   5.026   2.776   5.087 -1.2952 -0.2390  2.0738
   84TIP3    H2  259   5.124   2.667   5.046 -0.2199  1.8325 -1.2303
   85TIP3   OH2  260   2.879   5.307   0.415  0.0555 -0.0288  0.2652
   85TIP3    H1  261   2.812   5.263   0.362  1.2986 -0.7657 -0.7412
   85TIP3    H2  262   2.878   5.261   0.499 -0.1549 -0.5515 -0.0211
   86TIP3   OH2  263   4.774   5.105   3.700 -0.6245  0.5280  0.7361
   86TIP3    H1  264   4.830   5.162   3.648  0.4247 -1.3893 -0.3832
   86TIP3    H2  265   4.825   5.084   3.778 -0.1806 -0.3526  0.2314
   87TIP3   OH2  266   5.116   4.932   3.801  0.2028  0.4098  0.2633
   87TIP3    H1  267   5.028   4.938   3.839 -0.1886 -0.2409 -0.5254
   87TIP3    H2  268   5.159   5.013   3.829 -0.9416  1.1616 -0.0804
   88TIP3   OH2  269   5.536   2.901   1.676  0.1451  0.7357 -0.2673
   88TIP3    H1  270   5.563   2.957   1.749  0.5930 -0.7749  0.7808
   88TIP3    H2  271   5.478   2.836   1.716  1.4355 -0.9361 -0.9604
   89TIP3   OH2  272   3.533   4.620   2.662 -0.3312  0.1454 -0.3303
   89TIP3    H1  273   3.440   4.635   2.680 -0.2348  1.3298 -0.7516
   89TIP3    H2  274   3.579   4.655   2.739 -0.1359  1.5634 -1.0606
   90TIP3   OH2  275   5.963   0.797   4.819  0.2894 -0.3106 -0.0248
   90TIP3    H1  276   6.015   0.816   4.741 -3.2863  0.4703 -2.4723
   90TIP3    H2  277   5.977   0.871   4.877  1.6286  0.0074 -0.7256
   91TIP3   OH2  278   5.564   3.775   3.424  0.0668 -0.0445  0.0631
   91TIP3    H1  279   5.560   3.785   3.519 -0.1363 -3.9955  0.6102
   91TIP3    H2  280   5.646   3.729   3.407 -0.0016  0.3872 -1.6702
   92TIP3   OH2  281  -0.010   0.747   0.276  0.5407  0.4837  0.0364
   92TIP3    H1  282   0.079   0.776   0.297  0.2402 -0.1485  2.4331
   92TIP3    H2  283  -0.042   0.706   0.356 -2.0310  0.9187 -0.6767
   93TIP3   OH2  284   3.412   5.728   1.065 -0.4589  0.1638 -0.7615
   93TIP3    H1  285   3.431   5.639   1.092  0.5494  0.5477 -0.1776
   93TIP3    H2  286   3.319   5.740   1.087 -0.1814 -0.1921  0.7297
   94TIP3   OH2  287   4.576   2.472   1.212  0.2002 -0.1774 -0.0016
   94TIP3    H1  288   4.627   2.394   1.234  1.4665  0.3001 -1.1325
   94TIP3    H2  289   4.568   2.519   1.295  1.2087 -0.5034  0.2978
   95TIP3   OH2  290   4.369   2.867   4.282 -0.4831 -0.3115 -0.0479
   95TIP3    H1  291   4.361   2.833   4.193  0.7622 -0.9355  0.0647
   95TIP3    H2  292   4.290   2.921   4.294  0.3484  1.5397 -2.2441
   96TIP3   OH2  293   1.679   2.010   0.035  0.1633  0.6669  0.1166
   96TIP3    H1  294   1.707   1.924   0.003  0.0711  0.5337  0.3938
   96TIP3    H2  295   1.638   1.993   0.119  0.9836  1.0849  0.6189
   97TIP3   OH2  296   0.781   0.760   1.044 -0.0399  0.4163 -0.1085
   97TIP3    H1  297   0.786   0.689   0.980  2.7761  0.6508 -0.2881
   97TIP3    H2  298   0.788   0.716   1.129 -0.3919  0.3401 -0.1182
   98TIP3   OH2  299   4.384   0.243   1.181  0.2097 -0.2755 -0.4665
   98TIP3    H1  300   4.462   0.217   1.132 -0.0345 -0.3400 -0.8216
   98TIP3    H2  301   4.379   0.337   1.168  1.2092  0.0197  0.9835
   99TIP3   OH2  302   0.640   3.894   4.839  0.3788 -0.7387  0.0208
   99TIP3    H1  303   0.570   3.960   4.840 -0.8473 -2.0087  0.6266
   99TIP3    H2  304   0.616   3.835   4.768  0.3760 -1.6404  0.7510
  100TIP3   OH2  305   2.619   4.965   0.729  0.0511  0.2026 -0.0996
  100TIP3    H1  306   2.581   4.905   0.666  0.3024 -1.6548  1.4280
  100TIP3    H2  307   2.544   5.001   0.778  0.0095 -2.4929  2.0641
  101TIP3   OH2  308   4.656   1.216   2.801  0.1689  0.9529 -0.5193
  101TIP3    H1  309   4.677   1.123   2.790  1.0844  0.8670  1.5908
  101TIP3    H2  310   4.648   1.228   2.895  0.8189  3.1673 -0.6911
  102TIP3   OH2  311   3.121   3.486   0.570  0.0083 -0.2151  0.0424
  102TIP3    H1  312   3.122   3.522   0.481 -0.4884 -0.8560 -0.2328
  102TIP3    H2  313   3.132   3.392   0.559  1.0221 -0.1933  0.7399
  103TIP3   OH2  314   3.010   2.263   2.397 -0.1470  0.3951 -0.6395
  103TIP3    H1  315   2.977   2.323   2.330  2.1991  1.2248 -1.1411
  103TIP3    H2  316   3.064   2.318   2.454 -0.4988 -0.6815  0.8077
  104TIP3   OH2  317   5.146   4.207   1.435  0.4223 -0.1016  0.2111
  104TIP3    H1  318   5.195   4.135   1.395  0.2500 -0.3705  0.4859
  104TIP3    H2  319   5.212   4.274   1.452  0.5017  0.0270 -0.5290
  105TIP3   OH2  320   1.674   0.633   2.019 -0.0912  0.7798 -0.3931
  105TIP3    H1  321   1.597   0.669   1.973 -1.0848 -0.3031  0.3675
  105TIP3    H2  322   1.670   0.672   2.106 -1.4407 -1.3904  0.5987
  106TIP3   OH2  323   5.161   3.073   4.949 -0.7021 -0.0555  0.0471
  106TIP3    H1  324   5.109   3.152   4.960 -1.0600 -0.3330  0.3535
  106TIP3    H2  325   5.097   3.002   4.943 -0.4987 -0.1386 -2.1346
  107TIP3   OH2  326   1.504   1.796   1.467  0.0982 -0.0612 -0.3019
  107TIP3    H1  327   1.474   1.861   1.404  0.7102  1.7055  1.1331
  107TIP3    H2  328   1.444   1.805   1.541  0.6597 -0.5796  0.2333
  108TIP3   OH2  329   0.663   3.326   3.110 -0.4795  0.7402 -0.3129
  108TIP3    H1  330   0.753   3.321   3.077 -0.5860  3.7786 -1.4165
  108TIP3    H2  331   0.610   3.341   3.031 -1.5386  2.0185  0.6091
  109TIP3   OH2  332   6.272   2.932   3.398 -0.5151 -0.4289  0.5073
  109TIP3    H1  333   6.336   2.914   3.467 -1.6241 -1.6761  1.2720
  109TIP3    H2  334   6.267   2.850   3.348 -0.3097  0.2029 -0.5498
  110TIP3   OH2  335   4.136   1.289   2.842 -0.4054  0.7565 -0.0174
  110TIP3    H1  336   4.210   1.340   2.809 -1.9468  2.4257 -1.0661
  110TIP3    H2  337   4.112   1.331   2.924 -1.8502  1.9813 -1.0170
  111TIP3   OH2  338   4.563   0.283   3.858 -0.1712  0.4469 -0.4307
  111TIP3    H1  339   4.532   0.371   3.838 -0.7913  0.2227 -0.4616
  111TIP3    H2  340   4.613   0.293   3.939 -0.6295  0.7439 -0.1830
  112TIP3   OH2  341   2.792   2.244   4.651  0.2112 -0.4568  0.5294
  112TIP3    H1  342   2.730   2.274   4.585 -0.3264 -1.6374  0.4830
  112TIP3    H2  343   2.767   2.291   4.730  0.3330  0.3337  0.1100
  113TIP3   OH2  344   2.958   1.292   1.882  0.0265  0.4475  0.1784
  113TIP3    H1  345   3.051   1.281   1.863 -0.1820 -1.3698 -0.0442
  113TIP3    H2  346   2.921   1.332   1.803  0.5360  0.7316  0.0843
  114TIP3   OH2  347   0.422   4.721   1.191  0.1016  0.1331  0.6229
  114TIP3    H1  348   0.362   4.647   1.192  1.6037 -1.1421  0.1067
  114TIP3    H2  349   0.450   4.731   1.282 -1.3167  1.1371  0.9800
  115TIP3   OH2  350   2.560   5.684   0.885 -0.6093  0.2211  0.4061
  115TIP3    H1  351   2.592   5.712   0.971 -2.0672 -0.5222  1.2219
  115TIP3    H2  352   2.639   5.679   0.831  0.4372  0.0713  1.8817
  116TIP3   OH2  353   1.350   4.336   3.023  0.1131 -0.1006  0.1860
  116TIP3    H1  354   1.338   4.245   3.050 -0.3993  0.1002  0.6428
  116TIP3    H2  355   1.387   4.330   2.934 -1.0295 -0.7488 -0.2569
  117TIP3   OH2  356   5.774   0.595   4.807 -0.5239  0.3873 -0.1930
  117TIP3    H1  357   5.699   0.654   4.805 -0.0855  1.0313  1.0027
  117TIP3    H2  358   5.849   0.651   4.784 -0.3197 -0.1083 -0.7621
  118TIP3   OH2  359   5.626   3.053   1.099  0.4114  0.2407 -0.2664
  118TIP3    H1  360   5.584   3.121   1.047  1.0131  0.9585  0.1678
  118TIP3    H2  361   5.713   3.044   1.061  0.8826  0.8295  0.6624
  119TIP3   OH2  362   5.807   2.667   2.460 -0.0545  0.0658  0.2204
  119TIP3    H1  363   5.808   2.589   2.404  1.5658 -0.6244  1.1763
  119TIP3    H2  364   5.714   2.689   2.467 -0.4410 -0.9273 -1.2081
  120TIP3   OH2  365   4.244   0.569   1.109 -0.1825  0.0972 -0.0811
  120TIP3    H1  366   4.294   0.591   1.031  1.0089  2.3740  1.2200
  120TIP3    H2  367   4.281   0.624   1.178 -0.9675 -2.0229  2.1978
  121TIP3   OH2  368   4.085   2.083   4.409 -0.2187  0.1494 -0.1549
  121TIP3    H1  369   4.096   2.151   4.343  1.2525  0.7615  0.6736
  121TIP3    H2  370   4.095   2.129   4.492 -0.9220 -0.8030  0.4757
  122TIP3   OH2  371   0.730   1.773   5.102 -0.5303 -0.1337 -0.3857
  122TIP3    H1  372   0.804   1.808   5.052  1.3403  0.1915  2.3594
  122TIP3    H2  373   0.653   1.790   5.047  1.2145  1.0186 -2.6491
  123TIP3   OH2  374   1.512   2.679   5.212 -0.2038  0.4076  0.1672
  123TIP3    H1  375   1.431   2.714   5.173 -0.5612  0.5912  1.0503
  123TIP3    H2  376   1.582   2.733   5.175 -0.5493  0.6580 -0.1264
  124TIP3   OH2  377   5.225   2.299   3.359  0.0432 -0.1973  0.0207
  124TIP3    H1  378   5.269   2.302   3.274  0.3768 -0.3221  0.1889
  124TIP3    H2  379   5.217   2.391   3.385 -1.4921 -0.0451 -0.8757
  125TIP3   OH2  380   0.156   4.270   2.590  0.4200 -0.2539  0.2417
  125TIP3    H1  381   0.202   4.207   2.535  1.3352  0.2242  0.4403
  125TIP3    H2  382   0.121   4.334   2.528 -0.3534 -0.8400  0.0563
  126TIP3   OH2  383   3.064   5.604   1.740  0.0571 -0.5789 -0.3029
  126TIP3    H1  384   3.087   5.681   1.687 -2.8071  0.6169 -0.0221
  126TIP3    H2  385   3.024   5.544   1.677 -1.6255  0.0494  0.1082
  127TIP3   OH2  386   0.894   2.290   1.838 -0.3848 -0.6358  0.0961
  127TIP3    H1  387   0.872   2.337   1.758 -0.1193 -0.3628  0.1836
  127TIP3    H2  388   0.988   2.301   1.848 -0.4966 -0.1936  0.7417
  128TIP3   OH2  389   5.115   3.366   1.148  0.1770 -0.1119  0.2341
  128TIP3    H1  390   5.088   3.413   1.227  1.4470 -0.8429  1.1339
  128TIP3    H2  391   5.108   3.431   1.078 -0.7744  0.6052  0.9650
  129TIP3   OH2  392   5.675   5.825   0.166  0.0507  0.1136  0.0643
  129TIP3    H1  393   5.629   5.899   0.206  0.4138 -0.2641  1.2308
  129TIP3    H2  394   5.664   5.838   0.072 -1.7211  0.4976  0.2831
  130TIP3   OH2  395   4.901   3.967   1.502 -0.3172  0.1338  0.1846
  130TIP3    H1  396   4.954   4.045   1.488 -0.3260  0.0159 -0.5420
  130TIP3    H2  397   4.824   3.998   1.550  0.2591  0.3582  0.9747
  131TIP3   OH2  398   0.733   3.456   1.926  0.3979  0.5859 -0.7751
  131TIP3    H1  399   0.797   3.526   1.914  0.3025  0.6698 -0.7921
  131TIP3    H2  400   0.657   3.483   1.874  0.1878  0.6948 -0.4206
  132TIP3   OH2  401   3.034   3.848   4.223  0.2630 -1.2371  0.5637
  132TIP3    H1  402   2.976   3.916   4.189 -0.8456 -1.5013  1.8503
  132TIP3    H2  403   3.117   3.862   4.178  0.1823  1.2212  1.0664
  133TIP3   OH2  404   4.239   4.571   3.308 -0.0628  0.6461 -0.4408
  133TIP3    H1  405   4.167   4.511   3.330  1.3676 -1.2480 -0.6267
  133TIP3    H2  406   4.259   4.550   3.216  1.2177  0.5772 -0.1600
  134TIP3   OH2  407   0.658   3.061   5.096 -0.5403 -0.0482 -0.5043
  134TIP3    H1  408   0.665   3.050   5.191 -1.2203 -0.4243 -0.4950
  134TIP3    H2  409   0.716   3.135   5.076 -0.1098 -0.1998  0.1515
  135TIP3   OH2  410   1.157   0.231   1.270 -0.0917  0.5257 -0.0589
  135TIP3    H1  411   1.104   0.173   1.215  1.4718 -3.1855  2.0047
  135TIP3    H2  412   1.243   0.232   1.228 -0.1604  1.6942 -0.2187
  136TIP3   OH2  413   5.790   2.052   4.179  0.0580  0.1754 -0.0853
  136TIP3    H1  414   5.712   2.094   4.143 -0.3009  0.0528  0.5366
  136TIP3    H2  415   5.801   2.092   4.265  0.3362 -0.2353  0.0710
  137TIP3   OH2  416   4.536   1.864   2.321 -0.4332  0.2951 -0.5071
  137TIP3    H1  417   4.476   1.926   2.278 -1.1818  0.3155  0.5222
  137TIP3    H2  418   4.558   1.906   2.405  0.7315  0.1096 -0.7022
  138TIP3   OH2  419   1.948   4.616   1.852  0.0243  0.2447  0.3566
  138TIP3    H1  420   2.024   4.671   1.832 -1.6449  2.1909 -1.0673
  138TIP3    H2  421   1.902   4.663   1.921 -0.6121 -0.1938  0.2353
  139TIP3   OH2  422   3.507   1.952   4.632  0.9032 -0.1894 -0.1240
  139TIP3    H1  423   3.461   1.877   4.670 -0.3477  0.7126  0.2193
  139TIP3    H2  424   3.507   1.936   4.538  0.8032 -0.6968 -0.0400
  140TIP3   OH2  425   2.478   2.325   2.569  0.1391  0.6248 -0.2178
  140TIP3    H1  426   2.490   2.369   2.653  0.2376  0.7425 -0.2948
  140TIP3    H2  427   2.536   2.371   2.508  1.7086 -0.8071  0.1220
  141TIP3   OH2  428   3.136   3.648   4.938 -1.0840  0.6857 -0.9964
  141TIP3    H1  429   3.217   3.606   4.967 -0.3044  0.5017 -3.2390
  141TIP3    H2  430   3.163   3.736   4.910 -1.7645  0.8269 -1.2244
  142TIP3   OH2  431   0.450   3.467   1.875 -0.6349 -0.4617 -0.4368
  142TIP3    H1  432   0.442   3.468   1.780  0.1120  1.3430 -0.5224
  142TIP3    H2  433   0.433   3.376   1.900  2.9156 -1.9357 -2.6244
  143TIP3   OH2  434   0.659   0.691   1.296 -0.0496 -0.0942  0.6329
  143TIP3    H1  435   0.585   0.652   1.250  0.1910  1.0286 -0.7540
  143TIP3    H2  436   0.635   0.782   1.309  0.7099  0.0637  0.9959
  144TIP3   OH2  437   1.164   5.264   1.399 -0.3377 -1.4431  0.1912
  144TIP3    H1  438   1.181   5.357   1.386 -2.1844 -1.2235 -1.0503
  144TIP3    H2  439   1.182   5.225   1.314 -0.7736 -2.0225  0.3614
  145TIP3   OH2  440   1.772   4.820   2.908 -0.5822 -0.4378 -0.5990
  145TIP3    H1  441   1.839   4.829   2.840 -1.6911  1.1965 -1.5195
  145TIP3    H2  442   1.719   4.900   2.901 -2.5428 -1.6042  0.2102
  146TIP3   OH2  443   2.588   4.050   2.035 -0.1495  0.0579 -0.7883
  146TIP3    H1  444   2.635   3.981   2.082 -0.6751  0.1909 -0.0388
  146TIP3    H2  445   2.552   4.106   2.104  0.3716  1.1605 -1.3847
  147TIP3   OH2  446   6.344   3.314   2.080  0.3267 -0.1769  0.3720
  147TIP3    H1  447   6.427   3.270   2.095  1.2187  0.9743 -1.0253
  147TIP3    H2  448   6.281   3.243   2.066  1.5577 -1.0486 -0.9707
  148TIP3   OH2  449   3.339   1.898   1.050  0.3224  0.4436  0.2764
  148TIP3    H1  450   3.419   1.929   1.006  1.0994 -1.6329  0.1442
  148TIP3    H2  451   3.335   1.950   1.131  1.1980  1.3420 -0.2402
  149TIP3   OH2  452   3.183   5.900   3.730  0.6908 -0.6819 -0.1641
  149TIP3    H1  453   3.141   5.814   3.723 -0.1828 -0.2620 -0.1966
  149TIP3    H2  454   3.277   5.880   3.736  0.4789 -1.6520  0.1898
  150TIP3   OH2  455   5.597   4.447   0.526  0.0035 -0.6256  0.7964
  150TIP3    H1  456   5.512   4.438   0.567 -1.5014  1.7176 -1.4759
  150TIP3    H2  457   5.579   4.441   0.432  1.2405  5.1798 -0.1844
  151TIP3   OH2  458   2.487   3.763   4.541  0.0749  0.4130 -0.5305
  151TIP3    H1  459   2.459   3.761   4.632  0.9154  1.3047 -0.2397
  151TIP3    H2  460   2.551   3.693   4.534 -0.7313 -0.3335 -0.7131
  152TIP3   OH2  461   3.323   5.590   3.949 -0.4545  0.3574  0.0926
  152TIP3    H1  462   3.246   5.555   3.994 -0.2071 -0.9853 -0.4988
  152TIP3    H2  463   3.294   5.606   3.860  0.1187 -0.8756 -0.3411
  153TIP3   OH2  464   1.285   5.488   0.504 -0.4819  0.9150 -0.6124
  153TIP3    H1  465   1.232   5.497   0.426  0.9886 -0.1805 -1.7969
  153TIP3    H2  466   1.225   5.454   0.570 -2.1454  3.4270 -0.7017
  154TIP3   OH2  467   4.228   5.516   1.263 -0.3549  0.0770  0.1177
  154TIP3    H1  468   4.137   5.534   1.236 -0.4325  2.1203  1.4589
  154TIP3    H2  469   4.219   5.465   1.344 -0.3504  0.7339  0.5421
  155TIP3   OH2  470   5.417   4.555   2.729  0.1891  0.1667 -0.0507
  155TIP3    H1  471   5.446   4.557   2.821 -1.1744  0.9484  0.3960
  155TIP3    H2  472   5.493   4.586   2.680  0.6461  0.6609  0.9232
  156TIP3   OH2  473   2.481   0.331   4.743 -0.3238  0.3219 -0.0045
  156TIP3    H1  474   2.437   0.300   4.822 -1.2415  0.2532 -0.5281
  156TIP3    H2  475   2.572   0.345   4.770 -0.7826  1.0407  1.2582
  157TIP3   OH2  476   0.828   3.425   0.246  0.6512 -0.5174  0.4293
  157TIP3    H1  477   0.758   3.491   0.244  0.1846 -1.0029  0.3854
  157TIP3    H2  478   0.843   3.404   0.153  0.1222 -1.1693  0.4873
  158TIP3   OH2  479   1.890   5.659   2.378  0.0219  0.5270 -0.4295
  158TIP3    H1  480   1.894   5.621   2.466  0.4620 -0.6749 -0.9473
  158TIP3    H2  481   1.812   5.619   2.338  0.7815 -0.2649 -1.1599
  159TIP3   OH2  482   3.346   0.810   2.930 -0.5387 -0.0108  0.4298
  159TIP3    H1  483   3.419   0.770   2.978  0.0484 -0.0717 -0.4796
  159TIP3    H2  484   3.387   0.878   2.876 -1.1885  0.1112  0.0806
  160TIP3   OH2  485   0.471   4.148   4.035 -0.0316 -0.2104  0.3440
  160TIP3    H1  486   0.397   4.205   4.013 -1.0040 -1.3743  0.4812
  160TIP3    H2  487   0.521   4.198   4.100 -0.8783  0.4682  0.4983
  161TIP3   OH2  488   1.871   5.345   3.904  0.0084 -0.1919 -0.9994
  161TIP3    H1  489   1.922   5.375   3.980  0.2338  1.3907 -1.7224
  161TIP3    H2  490   1.809   5.417   3.888 -0.5189 -0.8319 -1.8826
  162TIP3   OH2  491   2.807   2.315   4.266  0.0712 -0.2159 -0.6644
  162TIP3    H1  492   2.855   2.363   4.334 -1.7092 -0.8642  1.1551
  162TIP3    H2  493   2.837   2.225   4.275 -1.5346 -0.6710  0.6429
  163TIP3   OH2  494   2.294   2.775   1.726 -0.7263  0.4237  0.0869
  163TIP3    H1  495   2.304   2.731   1.810  2.4153  1.9219  0.6352
  163TIP3    H2  496   2.349   2.726   1.665 -2.8025 -0.5230 -1.1627
  164TIP3   OH2  497   6.025   3.712   0.842 -0.1887  0.0905 -0.1139
  164TIP3    H1  498   5.950   3.716   0.902  0.7303 -1.4798  1.2339
  164TIP3    H2  499   5.989   3.733   0.756 -1.6355  2.0513  0.9006
  165TIP3   OH2  500   5.195   1.122   2.296 -0.0088 -0.2590  0.4586
  165TIP3    H1  501   5.278   1.112   2.343  0.0843  1.6625  0.7804
  165TIP3    H2  502   5.220   1.118   2.203  1.0064  3.1737  0.4322
  166TIP3   OH2  503   2.601   2.674   3.302  0.1934  0.5668  0.2310
  166TIP3    H1  504   2.694   2.690   3.314  0.4153 -0.1124 -0.4865
  166TIP3    H2  505   2.594   2.579   3.291 -0.5186  0.6577 -0.1846
  167TIP3   OH2  506   0.859   2.208   0.650 -0.1738 -0.4222  0.2365
  167TIP3    H1  507   0.942   2.166   0.626  0.2168  0.4990 -0.0905
  167TIP3    H2  508   0.817   2.146   0.709  1.4513 -0.2742  1.6504
  168TIP3   OH2  509   0.438   4.582   0.731  0.1339 -0.0916  0.0069
  168TIP3    H1  510   0.459   4.521   0.802  0.8918  1.0597  0.8016
  168TIP3    H2  511   0.348   4.559   0.706 -0.5027  0.0654  1.9751
  169TIP3   OH2  512   0.201   4.040   2.068  0.3815 -0.1273  0.7542
  169TIP3    H1  513   0.203   3.975   1.998 -1.1554  1.0623 -0.4627
  169TIP3    H2  514   0.167   3.993   2.144 -2.0509 -0.5056 -0.4743
  170TIP3   OH2  515   5.629   2.377   1.180  0.1082  0.1368 -0.0903
  170TIP3    H1  516   5.558   2.324   1.218  0.3251  0.8086  1.3078
  170TIP3    H2  517   5.691   2.312   1.145 -0.0322 -0.5151  0.8358
  171TIP3   OH2  518   1.164   2.836   4.930  0.1592  0.0818 -0.4120
  171TIP3    H1  519   1.169   2.928   4.906 -1.5983 -0.1435 -1.8013
  171TIP3    H2  520   1.245   2.820   4.980  0.4837  2.3461 -0.1092
  172TIP3   OH2  521   2.298   1.296   3.209  0.4218 -0.3437 -0.0154
  172TIP3    H1  522   2.347   1.374   3.185 -0.1334 -0.0531 -0.2224
  172TIP3    H2  523   2.288   1.247   3.127 -1.7684  0.8143 -0.5321
  173TIP3   OH2  524   1.215   4.173   4.504 -0.1209  0.2983 -0.5569
  173TIP3    H1  525   1.143   4.121   4.538  1.9491 -1.0117  2.2536
  173TIP3    H2  526   1.175   4.256   4.478 -2.7985 -0.8713 -0.4771
  174TIP3   OH2  527   2.438   5.209   3.506 -0.7145 -0.1160  0.1540
  174TIP3    H1  528   2.408   5.206   3.597  0.6123 -1.2115  0.5767
  174TIP3    H2  529   2.513   5.269   3.508 -0.4706 -0.4121 -0.1562
  175TIP3   OH2  530   4.916   0.392   3.090  0.4120 -0.3230 -0.0135
  175TIP3    H1  531   4.891   0.314   3.141  1.1128 -0.3290  0.3274
  175TIP3    H2  532   4.835   0.442   3.083  0.4334  0.0380  1.7512
  176TIP3   OH2  533   1.862   3.759   0.029 -0.4327 -0.1523 -0.3475
  176TIP3    H1  534   1.932   3.819   0.004  0.3318  0.1351  2.2199
  176TIP3    H2  535   1.883   3.677  -0.015  1.0596  0.1631 -0.2611
  177TIP3   OH2  536   3.188   1.161   0.553 -0.0098  0.1918  0.1071
  177TIP3    H1  537   3.131   1.091   0.585 -0.6927 -0.3130 -2.0767
  177TIP3    H2  538   3.269   1.117   0.529  0.2030  0.4425  0.3580
  178TIP3   OH2  539   5.710   2.197   0.709 -0.2608 -0.0608 -1.0965
  178TIP3    H1  540   5.786   2.172   0.656 -0.2283 -0.5669 -0.8232
  178TIP3    H2  541   5.748   2.223   0.793 -0.4373 -1.2799 -0.6109
  179TIP3   OH2  542   1.953   0.917   0.360  0.9346  0.1625  0.3521
  179TIP3    H1  543   2.009   0.979   0.313  0.0860 -1.3524 -2.9835
  179TIP3    H2  544   2.000   0.834   0.355 -1.1719 -1.0117 -1.9921
  180TIP3   OH2  545   2.977   5.926   4.465 -0.1266 -0.6391 -0.2405
  180TIP3    H1  546   3.022   5.892   4.388  0.0789 -0.7827 -0.0583
  180TIP3    H2  547   3.016   6.012   4.479 -0.1185 -0.6392 -0.2626
  181TIP3   OH2  548   4.519   2.372   1.610  0.0184 -0.0065 -0.1523
  181TIP3    H1  549   4.565   2.419   1.540  1.9839 -0.4779  0.7487
  181TIP3    H2  550   4.485   2.441   1.667  0.6654  0.3684 -0.2045
  182TIP3   OH2  551   5.164   3.206   4.626  0.0076  0.0050  0.0316
  182TIP3    H1  552   5.211   3.123   4.634  0.4885  0.0188 -2.0562
  182TIP3    H2  553   5.158   3.239   4.716  2.0185 -1.0847  0.6380
  183TIP3   OH2  554   0.456   0.498   4.870 -0.6673 -0.5518 -0.1071
  183TIP3    H1  555   0.451   0.581   4.822  4.5411 -1.2925 -2.6636
  183TIP3    H2  556   0.392   0.442   4.826 -1.3866  0.9752 -1.1094
  184TIP3   OH2  557   1.035   4.897   0.395  0.1003  0.1241 -0.1230
  184TIP3    H1  558   1.009   4.814   0.434 -0.2571  0.5181  0.4956
  184TIP3    H2  559   1.024   4.884   0.301 -0.2827 -0.4179 -0.0084
  185TIP3   OH2  560   6.127   1.249   1.113  0.0995 -0.1275  0.1758
  185TIP3    H1  561   6.080   1.175   1.150 -2.7975  1.0764 -0.8281
  185TIP3    H2  562   6.135   1.312   1.185 -1.5335  0.3763 -0.0298
  186TIP3   OH2  563   3.658   2.950   2.578  0.2787 -0.5727  0.1107
  186TIP3    H1  564   3.717   2.919   2.510 -1.7114 -1.0124 -1.5032
  186TIP3    H2  565   3.648   3.044   2.561 -0.2607 -0.6924 -0.2801
  187TIP3   OH2  566   4.539   1.996   2.555 -0.1441 -0.0033  0.1475
  187TIP3    H1  567   4.478   1.929   2.585  1.1735 -0.9537  0.7926
  187TIP3    H2  568   4.563   2.044   2.635 -0.1518  0.4613 -0.1225
  188TIP3   OH2  569   1.636   4.565   0.067  0.2308 -0.5391  0.1698
  188TIP3    H1  570   1.549   4.550   0.031  0.1396 -2.0808  0.9615
  188TIP3    H2  571   1.696   4.536  -0.002  0.2219  1.9545 -1.0098
  189TIP3   OH2  572   0.900   4.910   0.864  0.0141 -0.1031 -0.4599
  189TIP3    H1  573   0.989   4.910   0.898 -0.0473 -0.4548 -0.2898
  189TIP3    H2  574   0.845   4.903   0.942 -0.3797  4.3815 -0.0816
  190TIP3   OH2  575   1.910   3.057   0.513 -0.3365 -0.0492 -0.5292
  190TIP3    H1  576   1.830   3.075   0.464 -0.6485 -0.1340 -0.0576
  190TIP3    H2  577   1.928   2.964   0.497 -0.8337 -0.2543  0.0860
  191TIP3   OH2  578   3.192   4.196   4.160  0.2140 -0.8109 -0.2662
  191TIP3    H1  579   3.114   4.205   4.104 -0.4266 -1.1086  0.5584
  191TIP3    H2  580   3.254   4.146   4.107  0.0246 -0.1764 -1.1050
  192TIP3   OH2  581   5.413   0.167   4.944 -0.1773 -0.2607 -0.4529
  192TIP3    H1  582   5.353   0.205   4.880  1.0116  0.7984 -0.9604
  192TIP3    H2  583   5.357   0.146   5.019 -1.3200 -0.0743 -1.2349
  193TIP3   OH2  584   3.180   0.276   1.135  0.2954 -0.1090  0.4356
  193TIP3    H1  585   3.208   0.215   1.067  1.8262  0.8156  0.1895
  193TIP3    H2  586   3.086   0.263   1.142  0.5128 -2.2288  0.1480
  194TIP3   OH2  587   4.872   5.551   4.314  0.4456 -0.7304  0.0433
  194TIP3    H1  588   4.842   5.641   4.327  0.9316 -0.6815  0.8566
  194TIP3    H2  589   4.852   5.533   4.222  2.9109  1.1972 -0.9873
  195TIP3   OH2  590   5.273   4.788   1.262  0.0988  0.2460  0.5220
  195TIP3    H1  591   5.233   4.767   1.177 -1.3431 -0.6264  1.3719
  195TIP3    H2  592   5.282   4.883   1.261  0.6267  0.2034 -0.8246
  196TIP3   OH2  593   2.350   0.695   2.078  0.2713 -0.3266 -0.0256
  196TIP3    H1  594   2.345   0.617   2.022 -0.3835 -0.6992  0.5380
  196TIP3    H2  595   2.302   0.762   2.029  1.2127 -0.1361 -0.7171
  197TIP3   OH2  596   1.888   2.792   0.488 -0.0103 -0.4179  0.0365
  197TIP3    H1  597   1.876   2.707   0.530 -0.6026 -0.4522 -0.1918
  197TIP3    H2  598   1.832   2.789   0.411 -0.1989  0.2523  0.1393
  198TIP3   OH2  599   6.350   3.831   2.666 -0.0068  0.0121  0.1893
  198TIP3    H1  600   6.320   3.755   2.616  0.1015  1.5545 -2.4608
  198TIP3    H2  601   6.271   3.869   2.703 -0.8490  1.2300 -2.5589
  199TIP3   OH2  602   4.570   2.838   0.641  0.6208  0.3443 -0.4075
  199TIP3    H1  603   4.650   2.884   0.665  0.1826  0.9536 -0.0707
  199TIP3    H2  604   4.592   2.746   0.649  1.2183  0.5073 -0.0867
  200TIP3   OH2  605   5.137   3.819   0.223 -0.0500 -0.0002  0.5588
  200TIP3    H1  606   5.164   3.852   0.308 -2.4474 -1.1765  1.8901
  200TIP3    H2  607   5.161   3.726   0.224 -1.4791 -0.3932  0.6399
  201TIP3   OH2  608   2.694   4.423   4.746 -0.8980  0.3253 -0.0166
  201TIP3    H1  609   2.767   4.366   4.769 -0.0731  1.2036 -0.3845
  201TIP3    H2  610   2.656   4.383   4.667 -0.6636 -0.0069  0.0363
  202TIP3   OH2  611   3.291   3.911   3.790 -0.0498  0.0873  0.4521
  202TIP3    H1  612   3.384   3.900   3.807 -0.1125 -0.8695  0.2815
  202TIP3    H2  613   3.274   3.853   3.715 -0.5736  1.0710 -0.2078
  203TIP3   OH2  614   2.967   3.227   4.947 -0.0468 -0.1752 -0.2538
  203TIP3    H1  615   3.044   3.209   4.894  0.1744  1.4785 -0.5705
  203TIP3    H2  616   2.999   3.286   5.016 -1.0911  0.9769 -0.7035
  204TIP3   OH2  617   4.649   5.179   0.290 -0.2830  0.1972 -0.0181
  204TIP3    H1  618   4.703   5.102   0.271  1.2560  1.0991  0.5535
  204TIP3    H2  619   4.561   5.154   0.260  0.2546 -1.6185 -0.2263
  205TIP3   OH2  620   5.021   2.796   4.715  0.1571  0.1561 -0.0595
  205TIP3    H1  621   5.070   2.746   4.780  1.8187  1.6750 -0.0599
  205TIP3    H2  622   4.930   2.793   4.745  0.6099 -0.6991  1.3038
  206TIP3   OH2  623   0.303   1.994   1.875  0.1897 -0.6598 -0.3311
  206TIP3    H1  624   0.211   2.001   1.903 -0.0297 -2.0014 -0.6315
  206TIP3    H2  625   0.298   1.976   1.782  0.8053  0.1270 -0.5288
  207TIP3   OH2  626   4.007   2.257   2.679 -0.0587 -0.0566  0.2617
  207TIP3    H1  627   3.957   2.175   2.675 -1.3968  0.6835  0.8944
  207TIP3    H2  628   3.945   2.324   2.652  0.4425  0.9609  1.5233
  208TIP3   OH2  629   4.203   3.462   1.836 -0.2423  0.2177 -0.0717
  208TIP3    H1  630   4.233   3.378   1.802  2.1131  0.6076  0.8099
  208TIP3    H2  631   4.128   3.485   1.783  0.4792 -1.3612 -1.8691
  209TIP3   OH2  632   3.833   0.324   4.979  0.2825 -0.5040 -0.5910
  209TIP3    H1  633   3.896   0.379   5.025  0.0428 -0.3421 -0.4523
  209TIP3    H2  634   3.870   0.312   4.892  0.3604 -0.1622 -0.6047
  210TIP3   OH2  635   2.039   3.029   2.421 -0.1890 -0.0179  0.2485
  210TIP3    H1  636   1.954   2.986   2.430  1.2300 -3.8704 -2.3559
  210TIP3    H2  637   2.045   3.051   2.328  1.2075  1.3839  0.6241
  211TIP3   OH2  638   6.274   2.468   3.186  0.4154 -0.7095  0.3608
  211TIP3    H1  639   6.246   2.441   3.273 -1.4377 -2.3356 -0.6654
  211TIP3    H2  640   6.296   2.561   3.195 -1.2226 -0.4450  2.2262
  212TIP3   OH2  641   0.135   5.891   0.712  0.4985  0.6196 -0.1716
  212TIP3    H1  642   0.114   5.859   0.800 -0.6474  1.5782 -0.0783
  212TIP3    H2  643   0.150   5.812   0.660 -0.6333 -0.0205  0.4485
  213TIP3   OH2  644   1.491   3.746   1.050  0.1729 -0.0287  0.1239
  213TIP3    H1  645   1.433   3.784   0.984 -0.1101  0.9457  0.9034
  213TIP3    H2  646   1.492   3.811   1.121  2.1892 -0.0367  0.1621
  214TIP3   OH2  647   6.120   4.829   1.150  0.3104  0.2538 -0.1237
  214TIP3    H1  648   6.134   4.827   1.055 -0.3490  0.9268 -0.2462
  214TIP3    H2  649   6.065   4.752   1.167  0.8976 -0.1850 -0.2057
  215TIP3   OH2  650   2.639   1.473   2.775 -0.4059 -0.1073 -0.2129
  215TIP3    H1  651   2.690   1.505   2.701 -0.2350  1.8871  0.7036
  215TIP3    H2  652   2.657   1.379   2.777 -0.6095 -0.2766 -2.8011
  216TIP3   OH2  653   3.397   5.824   4.473  0.3491 -0.1321  0.0515
  216TIP3    H1  654   3.491   5.837   4.457  0.3605  0.2331  0.3783
  216TIP3    H2  655   3.355   5.898   4.428  0.3458  0.6146  1.2339
  217TIP3   OH2  656   4.636   4.972   2.169 -0.6477  0.5441 -0.3740
  217TIP3    H1  657   4.675   5.034   2.231 -0.4442 -1.8027  2.0082
  217TIP3    H2  658   4.618   4.894   2.221  0.6228 -2.0594 -3.4805
  218TIP3   OH2  659   4.714   5.076   1.262  0.2326  0.2876 -0.0898
  218TIP3    H1  660   4.695   5.159   1.306 -1.6766  0.8612 -1.8509
  218TIP3    H2  661   4.800   5.088   1.223 -0.3492  1.7836 -0.9798
  219TIP3   OH2  662   0.502   4.640   1.642 -0.1298 -0.6451 -0.3041
  219TIP3    H1  663   0.411   4.652   1.668  0.3297  0.2736  0.9835
  219TIP3    H2  664   0.519   4.546   1.655 -0.7720 -0.7433 -0.1640
  220TIP3   OH2  665   4.406   3.713   0.799  0.1650 -0.1834 -0.3905
  220TIP3    H1  666   4.438   3.774   0.865  0.1736 -1.3439  0.7184
  220TIP3    H2  667   4.311   3.710   0.813  0.4152 -2.3740  1.3762
  221TIP3   OH2  668   0.378   4.559   4.405  0.4404  0.3638 -0.0300
  221TIP3    H1  669   0.464   4.561   4.448 -0.7090  0.9282  2.4698
  221TIP3    H2  670   0.394   4.593   4.317  2.8194  0.0854  0.2282
  222TIP3   OH2  671   6.117   0.194   2.838  0.0498 -0.3749 -0.3479
  222TIP3    H1  672   6.199   0.153   2.866  0.9116  1.0418 -0.6884
  222TIP3    H2  673   6.104   0.162   2.749  0.7613  0.1020 -0.6409
  223TIP3   OH2  674   4.197   0.893   0.075  0.6688 -0.3413  0.2368
  223TIP3    H1  675   4.192   0.930  -0.013 -0.1431  0.2788  0.5252
  223TIP3    H2  676   4.154   0.808   0.068  0.3982 -0.1931  0.0755
  224TIP3   OH2  677   6.264   1.635   4.328  0.1620 -0.0456 -0.5501
  224TIP3    H1  678   6.194   1.617   4.264  0.9506 -0.2854 -1.3577
  224TIP3    H2  679   6.280   1.551   4.370 -2.1876  0.5789  1.9407
  225TIP3   OH2  680   3.239   2.790   2.693  0.0306 -0.3092  0.1843
  225TIP3    H1  681   3.285   2.713   2.661  0.7609  0.2878 -0.2203
  225TIP3    H2  682   3.253   2.789   2.788  0.9849 -0.0747  0.0558
  226TIP3   OH2  683   5.433   3.705   3.881  0.2126  0.4373  0.1620
  226TIP3    H1  684   5.363   3.734   3.823 -0.4689 -0.8108  0.3202
  226TIP3    H2  685   5.390   3.689   3.965 -0.0222 -3.2033 -0.4692
  227TIP3   OH2  686   0.438   1.353   2.452  0.3401  0.2955 -0.6885
  227TIP3    H1  687   0.488   1.423   2.410  0.4232  1.0694  0.6607
  227TIP3    H2  688   0.394   1.395   2.525 -1.1140 -0.7001 -0.9632
  228TIP3   OH2  689   4.968   0.124   1.554  0.1898 -0.1227  0.0176
  228TIP3    H1  690   5.060   0.147   1.541 -0.2435  0.9286 -1.4993
  228TIP3    H2  691   4.930   0.200   1.598 -0.1316 -0.1988 -0.1258
  229TIP3   OH2  692   2.309   3.181   0.907 -0.4669 -0.3225  0.3147
  229TIP3    H1  693   2.320   3.247   0.976  1.0849 -0.5204  0.3025
  229TIP3    H2  694   2.227   3.204   0.864 -0.3082  1.1828  0.7624
  230TIP3   OH2  695   2.350   5.451   4.703 -0.0113  0.2484 -0.1363
  230TIP3    H1  696   2.309   5.369   4.730 -1.7739  1.2373  0.4146
  230TIP3    H2  697   2.434   5.426   4.666 -0.2600 -1.7386  0.5486
  231TIP3   OH2  698   4.303   3.259   1.640  0.0475  0.5180  0.4793
  231TIP3    H1  699   4.227   3.255   1.582  1.7220  0.0194 -1.8860
  231TIP3    H2  700   4.305   3.173   1.683  0.7705 -0.6657 -1.6904
  232TIP3   OH2  701   3.996   2.511   0.238 -0.4068 -0.4197  0.1371
  232TIP3    H1  702   4.044   2.430   0.223  1.1892  0.8941 -2.4919
  232TIP3    H2  703   3.925   2.509   0.174 -0.4987  0.1591  0.2168
  233TIP3   OH2  704   2.883   1.805   4.370 -0.4340  0.0770 -0.1983
  233TIP3    H1  705   2.908   1.862   4.297  1.3129 -1.2082 -0.6970
  233TIP3    H2  706   2.948   1.823   4.438 -0.0943 -0.9911 -0.2153
  234TIP3   OH2  707   0.285   2.748   0.110 -0.2917 -0.1847  0.0271
  234TIP3    H1  708   0.374   2.769   0.137 -0.0653  0.1976 -0.9743
  234TIP3    H2  709   0.275   2.790   0.025 -0.4357 -2.5990 -1.2410
  235TIP3   OH2  710   5.861   2.157   0.200  0.2879  0.4293  0.9587
  235TIP3    H1  711   5.784   2.206   0.173 -0.9107 -1.2648  1.2004
  235TIP3    H2  712   5.935   2.210   0.170 -0.9484  0.6956 -1.9047
  236TIP3   OH2  713   3.336   0.087   0.027 -0.1540 -0.1951  0.3275
  236TIP3    H1  714   3.310   0.143  -0.046  1.3425 -0.0718 -0.1482
  236TIP3    H2  715   3.279   0.011   0.021 -2.4253  1.3363  1.1371
  237TIP3   OH2  716   4.600   2.616   1.834 -0.3347  0.0946 -0.7721
  237TIP3    H1  717   4.562   2.529   1.844 -2.5686  1.1648  1.5264
  237TIP3    H2  718   4.689   2.608   1.868 -1.2855 -0.8884  1.7788
  238TIP3   OH2  719   5.378   5.299   2.478 -0.0644 -0.4738 -0.4275
  238TIP3    H1  720   5.391   5.249   2.397 -0.7366 -0.9497 -0.2510
  238TIP3    H2  721   5.291   5.274   2.508  0.2561 -0.4565  0.5592
  239TIP3   OH2  722   0.756   2.958   4.247  0.1988 -0.2794  0.3348
  239TIP3    H1  723   0.725   2.874   4.214  1.0280 -0.2403 -0.5612
  239TIP3    H2  724   0.851   2.949   4.253  0.4890  1.1287 -1.3890
  240TIP3   OH2  725   2.800   5.629   3.510  0.0986  0.2399 -0.2216
  240TIP3    H1  726   2.805   5.703   3.572 -0.9651  0.1194  0.0275
  240TIP3    H2  727   2.886   5.587   3.517  1.0416  1.9164 -0.9740
  241TIP3   OH2  728   5.411   2.962   4.916 -0.5086  0.1558 -0.3837
  241TIP3    H1  729   5.321   2.992   4.906 -1.1491 -1.4036  0.4068
  241TIP3    H2  730   5.404   2.871   4.945  1.3016  0.2873  0.6595
  242TIP3   OH2  731   0.373   5.168   1.360  0.7952  0.3040  0.7232
  242TIP3    H1  732   0.452   5.114   1.363 -0.0006 -1.1443 -1.4297
  242TIP3    H2  733   0.301   5.104   1.360 -0.1992  1.3299 -1.3333
  243TIP3   OH2  734   3.710   5.958   0.267  0.2444 -0.1209  0.8110
  243TIP3    H1  735   3.774   5.990   0.204 -0.3659 -0.5694 -0.0609
  243TIP3    H2  736   3.714   5.863   0.260 -2.2572 -0.1951 -1.1550
  244TIP3   OH2  737   1.417   0.452   3.349 -0.4283 -0.4183 -0.9222
  244TIP3    H1  738   1.441   0.410   3.266  1.9087 -2.4500  0.6054
  244TIP3    H2  739   1.371   0.384   3.398  0.5189 -0.1641  0.3849
  245TIP3   OH2  740   5.033   0.968   1.323 -0.0865  0.5279  0.1984
  245TIP3    H1  741   5.069   0.899   1.267  0.9319  0.6393  0.6745
  245TIP3    H2  742   5.041   1.048   1.272  1.7152  0.7824  0.8074
  246TIP3   OH2  743   0.226   3.643   4.758  0.4867 -0.3371 -0.3686
  246TIP3    H1  744   0.188   3.690   4.685 -0.7229 -0.6448  0.0411
  246TIP3    H2  745   0.231   3.708   4.828  1.7830 -0.0026 -0.7490
  247TIP3   OH2  746   6.145   4.068   2.902 -0.4544 -0.2546  0.6394
  247TIP3    H1  747   6.086   4.140   2.883 -0.1391 -0.3026 -0.5768
  247TIP3    H2  748   6.232   4.108   2.904  0.1373 -0.9941 -3.1821
  248TIP3   OH2  749   5.833   4.936   5.124 -0.0054 -0.4820  0.5109
  248TIP3    H1  750   5.871   4.876   5.060 -1.0511 -1.6541  0.9532
  248TIP3    H2  751   5.756   4.891   5.157 -1.1627  1.3387  0.4596
  249TIP3   OH2  752   1.467   5.416   4.543 -0.0211 -0.2363 -0.0961
  249TIP3    H1  753   1.542   5.469   4.517 -0.9014 -0.2483 -2.9434
  249TIP3    H2  754   1.412   5.476   4.594  0.7486  0.4591 -0.0616
  250TIP3   OH2  755   0.856   3.077   2.085 -0.1578 -0.1410  0.2528
  250TIP3    H1  756   0.815   3.104   2.167  0.0353 -0.5355  0.4867
  250TIP3    H2  757   0.920   3.010   2.112  0.9307  0.7454 -0.0406
  251TIP3   OH2  758   0.636   3.209   1.590  0.6484 -0.1344 -0.0369
  251TIP3    H1  759   0.605   3.149   1.521  1.9626 -0.7980 -0.0715
  251TIP3    H2  760   0.666   3.152   1.660  0.9355  0.5155  0.3786
  252TIP3   OH2  761   3.653   0.126   5.009  0.4771 -0.6206 -0.5060
  252TIP3    H1  762   3.577   0.178   5.037 -0.3917 -1.2407 -1.6415
  252TIP3    H2  763   3.714   0.190   4.973 -0.2754 -0.2897 -1.2311
  253TIP3   OH2  764   0.343   4.808   4.595 -0.2347 -0.2635  0.4462
  253TIP3    H1  765   0.411   4.778   4.655  1.3915  0.1486 -1.1134
  253TIP3    H2  766   0.284   4.860   4.650  0.6883 -0.6412  1.8448
  254TIP3   OH2  767   0.724   0.663   0.683 -0.0496  0.3962 -0.0904
  254TIP3    H1  768   0.711   0.701   0.596 -0.0080  0.9240  0.1303
  254TIP3    H2  769   0.635   0.646   0.715 -0.1089  1.2755  0.2287
  255TIP3   OH2  770   3.607   3.207   2.559  0.1462  0.2995 -0.2335
  255TIP3    H1  771   3.570   3.237   2.642  0.8198 -3.4922  1.6288
  255TIP3    H2  772   3.539   3.226   2.495 -1.6554  0.7588  1.6757
  256TIP3   OH2  773   0.877   5.588   0.185  0.3743 -0.3308  0.4969
  256TIP3    H1  774   0.835   5.502   0.180  1.4795 -0.8384 -0.4311
  256TIP3    H2  775   0.858   5.628   0.100 -1.2029  0.8905  1.3627
  257TIP3   OH2  776   4.346   5.271   1.738  0.3857 -0.2196  0.6996
  257TIP3    H1  777   4.295   5.321   1.802 -0.0239  1.1984 -0.6814
  257TIP3    H2  778   4.310   5.295   1.653  1.5662 -1.2966 -0.1504
  258TIP3   OH2  779   1.246   5.268   1.135  0.3474 -0.1175  0.3292
  258TIP3    H1  780   1.281   5.208   1.068 -0.6080  0.3289 -0.6081
  258TIP3    H2  781   1.291   5.351   1.119 -2.2934  1.0334 -2.1394
  259TIP3   OH2  782   1.407   1.885   1.189 -0.5150  0.3326 -0.2820
  259TIP3    H1  783   1.471   1.955   1.175 -1.9180  1.7849  0.3156
  259TIP3    H2  784   1.353   1.886   1.110 -1.4590  0.9545  0.3507
  260TIP3   OH2  785   6.111   3.980   2.404  0.1669  0.5418 -0.5598
  260TIP3    H1  786   6.147   4.068   2.407 -0.7725  0.9130  0.3641
  260TIP3    H2  787   6.106   3.952   2.495  1.3386 -0.8627 -0.8840
  261TIP3   OH2  788   4.306   3.008   1.414  0.0483  0.0676  0.7608
  261TIP3    H1  789   4.218   2.972   1.423 -0.3977  0.8202 -0.3641
  261TIP3    H2  790   4.324   3.005   1.320  0.4939  1.5484  0.7722
  262TIP3   OH2  791   1.154   3.159   0.759  0.2055 -0.0724  0.5040
  262TIP3    H1  792   1.080   3.106   0.729  0.4179  0.1950 -0.5406
  262TIP3    H2  793   1.115   3.242   0.785  0.2442  0.5058 -1.1814
  263TIP3   OH2  794   2.848   2.961   2.584  0.7698  0.0442 -0.0616
  263TIP3    H1  795   2.844   2.987   2.676  2.0939  0.9306 -0.2283
  263TIP3    H2  796   2.859   2.866   2.586 -0.8278 -0.1658  0.6286
  264TIP3   OH2  797   0.607   1.444   3.911 -0.3637  0.2529  0.1567
  264TIP3    H1  798   0.614   1.358   3.952 -0.0969 -0.2462 -0.9239
  264TIP3    H2  799   0.524   1.480   3.945 -0.0116 -0.0046  1.3617
  265TIP3   OH2  800   4.124   1.794   4.905 -0.2270 -0.6848  0.1773
  265TIP3    H1  801   4.190   1.805   4.973 -0.1405  1.9001 -0.2016
  265TIP3    H2  802   4.162   1.836   4.827 -1.0343 -1.9967 -0.9720
  266TIP3   OH2  803   2.938   2.973   5.076  0.5159 -0.4413 -0.4769
  266TIP3    H1  804   3.031   2.985   5.094  0.2317 -0.7145  1.4326
  266TIP3    H2  805   2.909   3.059   5.044  1.3551 -0.2641 -0.7914
  267TIP3   OH2  806   6.034   5.776   1.147  0.1030  0.5331 -0.5373
  267TIP3    H1  807   6.089   5.711   1.189 -1.0582  0.6107  1.2144
  267TIP3    H2  808   5.982   5.727   1.083  0.1078 -0.0510 -0.0985
  268TIP3   OH2  809   5.881   1.847   5.107  0.5852 -0.3544 -0.2527
  268TIP3    H1  810   5.805   1.799   5.139 -0.8819  0.5504 -2.1884
  268TIP3    H2  811   5.934   1.863   5.186 -0.4518 -2.2720  0.9192
  269TIP3   OH2  812   3.791   2.285   0.704  0.4102  0.5045 -0.1038
  269TIP3    H1  813   3.861   2.249   0.757 -0.3748  0.6983  1.1015
  269TIP3    H2  814   3.812   2.258   0.614  0.5288 -1.8363  0.5640
  270TIP3   OH2  815   4.326   0.194   3.540 -0.5136  0.2233 -0.2781
  270TIP3    H1  816   4.251   0.247   3.513 -1.1426  0.3144  1.4624
  270TIP3    H2  817   4.311   0.178   3.634  0.8278 -1.1212 -0.2523
  271TIP3   OH2  818   2.765   1.596   3.795  0.3738  0.2456 -0.2124
  271TIP3    H1  819   2.727   1.517   3.756  0.4001  1.2721 -2.4559
  271TIP3    H2  820   2.798   1.646   3.720  0.6439  2.2386  1.1752
  272TIP3   OH2  821   0.362   1.894   4.364 -0.0251 -0.1275  0.0995
  272TIP3    H1  822   0.363   1.965   4.429 -3.2036  2.5204 -2.3604
  272TIP3    H2  823   0.283   1.844   4.385 -1.2181  0.8895 -1.6306
  273TIP3   OH2  824   3.698   3.696   1.008 -0.1328 -0.1394  0.2829
  273TIP3    H1  825   3.615   3.732   0.978 -0.4892 -2.5709 -2.1041
  273TIP3    H2  826   3.761   3.720   0.940  0.9422  0.7937  1.5495
  274TIP3   OH2  827   3.067   1.699   5.121  0.0598 -1.1318 -0.6087
  274TIP3    H1  828   3.091   1.639   5.192  0.0930 -0.7780 -0.3205
  274TIP3    H2  829   2.972   1.691   5.113  0.0764 -1.3064 -0.6503
  275TIP3   OH2  830   2.133   4.013   4.024  0.1436  0.7858 -0.5748
  275TIP3    H1  831   2.189   4.019   4.102  2.4381  0.1125 -2.0646
  275TIP3    H2  832   2.051   3.977   4.057  1.2079  0.0340  1.4589
  276TIP3   OH2  833   4.717   0.799   5.063  0.0711 -0.1279 -0.0601
  276TIP3    H1  834   4.680   0.854   4.993  1.1659  0.5646 -0.1116
  276TIP3    H2  835   4.796   0.845   5.091  0.6151 -1.3116  0.4164
  277TIP3   OH2  836   1.081   3.110   4.932 -0.2922 -0.2605 -0.3123
  277TIP3    H1  837   1.052   3.170   4.863  1.1018  0.1973 -0.5451
  277TIP3    H2  838   1.023   3.127   5.006  0.1690  1.5049 -0.3246
  278TIP3   OH2  839   2.292   0.099   1.402  0.5563 -0.2799 -0.4043
  278TIP3    H1  840   2.198   0.099   1.423  0.0583  1.7318 -2.2049
  278TIP3    H2  841   2.312   0.008   1.381 -0.3815 -1.1992  2.2502
  279TIP3   OH2  842   4.612   3.004   0.997  0.2406  0.1999  0.1723
  279TIP3    H1  843   4.596   2.910   0.992 -0.0395  0.1413  1.7458
  279TIP3    H2  844   4.701   3.012   1.030 -0.7721  0.4086  3.1167
  280TIP3   OH2  845   3.190   5.070   2.483 -0.4552  0.1238 -0.6304
  280TIP3    H1  846   3.256   5.042   2.546  1.5300  2.3917 -1.5436
  280TIP3    H2  847   3.235   5.070   2.399 -0.8616  3.6499 -1.0086
  281TIP3   OH2  848   4.213   4.715   1.725  0.0486  0.1699  0.0447
  281TIP3    H1  849   4.225   4.805   1.697 -0.7574  0.2066 -0.2000
  281TIP3    H2  850   4.234   4.716   1.819 -1.8972  1.0529  0.5283
  282TIP3   OH2  851   2.540   3.445   2.991  0.1322  0.0552 -0.3411
  282TIP3    H1  852   2.504   3.532   3.006  0.8884  0.4957 -1.0376
  282TIP3    H2  853   2.463   3.389   2.980 -0.3813  0.4253  1.1541
  283TIP3   OH2  854   3.975   2.663   0.467  0.1885 -0.3374 -1.3065
  283TIP3    H1  855   3.996   2.750   0.433 -0.5501 -0.8405 -3.1836
  283TIP3    H2  856   3.942   2.615   0.391 -0.4968 -1.9095 -0.0747
  284TIP3   OH2  857   0.554   5.501   1.214  0.5964  0.0645 -0.1583
  284TIP3    H1  858   0.498   5.510   1.291  1.4060  0.8254  0.3635
  284TIP3    H2  859   0.627   5.445   1.243  0.6051 -0.1243 -0.5394
  285TIP3   OH2  860   0.553   4.382   2.984 -0.3172  0.9684  0.2061
  285TIP3    H1  861   0.508   4.311   2.937  1.8225  0.2930 -0.9594
  285TIP3    H2  862   0.483   4.442   3.008 -1.9505 -0.4490 -0.7159
  286TIP3   OH2  863   3.757   1.827   1.565 -0.4531 -0.3609  0.1049
  286TIP3    H1  864   3.816   1.891   1.527 -1.7427  1.2823  0.7590
  286TIP3    H2  865   3.781   1.824   1.658 -1.8965  0.9422  0.5459
  287TIP3   OH2  866   4.944   5.392   0.730  0.3368  0.3404  0.2157
  287TIP3    H1  867   5.030   5.359   0.754  0.3628 -1.2095 -1.7490
  287TIP3    H2  868   4.889   5.374   0.806  0.9042 -2.2273  0.1073
  288TIP3   OH2  869   2.082   3.675   1.725 -0.0181 -0.0193  0.6029
  288TIP3    H1  870   1.996   3.637   1.744  0.9659 -2.2381  0.8885
  288TIP3    H2  871   2.118   3.698   1.810 -0.5152  1.4733  0.4466
  289TIP3   OH2  872   0.336   4.813   3.991 -0.1475  0.7580 -0.0387
  289TIP3    H1  873   0.381   4.882   4.039 -0.5199  0.2443  1.0870
  289TIP3    H2  874   0.304   4.856   3.912 -0.3277  1.8697  0.6158
  290TIP3   OH2  875   3.095   5.835   2.916  0.2414  0.3493  0.4930
  290TIP3    H1  876   3.120   5.825   2.824  1.4303  2.3923  0.5315
  290TIP3    H2  877   3.023   5.773   2.928  1.7731 -1.8921 -1.0876
  291TIP3   OH2  878   4.717   1.191   3.950  0.1363 -1.1699  0.3840
  291TIP3    H1  879   4.709   1.268   3.893  0.1064  1.3126  3.5069
  291TIP3    H2  880   4.800   1.203   3.995 -0.3440 -2.4214  1.6865
  292TIP3   OH2  881   3.040   5.247   4.189  0.3826  0.3875 -0.3632
  292TIP3    H1  882   3.124   5.232   4.232  0.4514 -3.7627 -1.5044
  292TIP3    H2  883   2.975   5.225   4.254  0.3787 -1.5537 -0.9811
  293TIP3   OH2  884   5.114   5.891   2.229  0.2540  0.4692  0.7172
  293TIP3    H1  885   5.058   5.823   2.193  0.8151 -1.4358  3.1800
  293TIP3    H2  886   5.184   5.901   2.164 -0.8712  0.1393 -0.5899
  294TIP3   OH2  887   3.780   4.308   4.247 -0.0327  0.0852  0.0026
  294TIP3    H1  888   3.807   4.394   4.279  2.8429  0.0795 -2.0955
  294TIP3    H2  889   3.744   4.324   4.160  2.9819 -0.9723 -1.5667
  295TIP3   OH2  890   3.078   0.260   4.560 -0.4631  0.5969 -0.2205
  295TIP3    H1  891   2.998   0.209   4.570 -0.7497  0.9530 -0.6404
  295TIP3    H2  892   3.081   0.316   4.637  0.3625 -0.7220  0.7408
  296TIP3   OH2  893   0.646   1.402   4.268 -0.0296 -0.0304  0.0089
  296TIP3    H1  894   0.637   1.307   4.273 -0.0978 -0.2276 -2.4631
  296TIP3    H2  895   0.582   1.436   4.330 -0.7938 -1.5762  0.1062
  297TIP3   OH2  896   0.502   1.038   1.967 -0.3530  0.1635 -0.5046
  297TIP3    H1  897   0.460   1.117   1.934  1.6923  0.2203 -3.3377
  297TIP3    H2  898   0.587   1.036   1.923  0.1079 -3.0691  0.2796
  298TIP3   OH2  899   2.955   3.606   4.732 -0.0547 -0.5391 -0.2323
  298TIP3    H1  900   3.008   3.602   4.812 -1.0114 -1.8222  0.3930
  298TIP3    H2  901   3.009   3.654   4.669  1.3893 -0.8717  0.6934
  299TIP3   OH2  902   2.538   0.003   3.027  0.2592 -0.3043  0.1352
  299TIP3    H1  903   2.474  -0.027   2.963 -0.3283 -1.4985  1.2316
  299TIP3    H2  904   2.566   0.089   2.995 -1.5712  0.0681 -0.5970
  300TIP3   OH2  905   3.572   1.666   2.708  0.8912 -0.3349 -0.0525
  300TIP3    H1  906   3.541   1.610   2.779  0.9990  0.9576  1.0382
  300TIP3    H2  907   3.667   1.657   2.709  0.8580 -0.7951 -0.4568
  301TIP3   OH2  908   3.486   1.145   3.588  0.2459 -0.2044 -0.0695
  301TIP3    H1  909   3.432   1.222   3.573  0.3766  0.1747  1.2620
  301TIP3    H2  910   3.437   1.093   3.652  0.4215 -0.9577 -0.5247
  302TIP3   OH2  911   0.613   5.551   3.184 -0.0970  0.1313  0.5247
  302TIP3    H1  912   0.535   5.501   3.208  0.0767  0.3675  1.6152
  302TIP3    H2  913   0.626   5.612   3.257 -0.2780  1.7483 -0.7278
  303TIP3   OH2  914   2.028   5.412   1.059  0.7165 -0.3647 -0.2487
  303TIP3    H1  915   2.049   5.472   0.988  0.1974  0.2744  0.1263
  303TIP3    H2  916   1.972   5.463   1.117 -0.9229 -1.6263 -0.6386
  304TIP3   OH2  917   2.700   4.470   2.244  0.4065 -0.6017 -0.1311
  304TIP3    H1  918   2.697   4.566   2.241  0.8876 -0.5512  0.6630
  304TIP3    H2  919   2.791   4.448   2.228  0.4537 -0.8850  0.5071
  305TIP3   OH2  920   6.156   3.363   4.212  0.2112  0.1800  0.1934
  305TIP3    H1  921   6.158   3.378   4.117  1.1594  2.8413  0.5531
  305TIP3    H2  922   6.248   3.355   4.236  0.1058  1.5287  1.1286
  306TIP3   OH2  923   3.724   1.204   4.228 -0.4650  0.4029  0.1929
  306TIP3    H1  924   3.811   1.186   4.194 -0.3386  0.9171  0.2363
  306TIP3    H2  925   3.733   1.203   4.323 -0.1899  1.8777  0.2065
  307TIP3   OH2  926   0.095   1.056   0.103  0.3387  0.6718  0.7290
  307TIP3    H1  927   0.110   0.972   0.058  1.8453  0.9914  0.5569
  307TIP3    H2  928   0.143   1.120   0.049  0.4130  1.3995  1.6457
  308TIP3   OH2  929   5.631   3.271   3.362 -0.5369  0.4643 -0.6007
  308TIP3    H1  930   5.658   3.338   3.425  0.3243 -0.3526 -0.0873
  308TIP3    H2  931   5.713   3.238   3.324 -1.0440  1.4911 -2.7817
  309TIP3   OH2  932   4.490   5.276   4.246 -0.3553 -0.1333  0.4695
  309TIP3    H1  933   4.482   5.326   4.328  0.8031  0.2752  0.3549
  309TIP3    H2  934   4.445   5.329   4.181  2.0758  1.5803  0.0357
  310TIP3   OH2  935   4.541   1.972   4.909 -0.1646  0.5988  0.2268
  310TIP3    H1  936   4.619   1.966   4.854  0.0639 -1.6672  0.6772
  310TIP3    H2  937   4.501   2.056   4.886  0.8711  0.5273 -2.0922
  311TIP3   OH2  938   4.316   4.928   4.621  0.5237  0.1877 -0.3872
  311TIP3    H1  939   4.231   4.898   4.588  0.7055 -0.6171 -0.1487
  311TIP3    H2  940   4.355   4.973   4.547  0.0128  0.2923 -0.5963
  312TIP3   OH2  941   1.461   5.836   3.004  0.5244  0.2786 -0.0996
  312TIP3    H1  942   1.523   5.766   3.025 -0.3826 -0.4901  0.0617
  312TIP3    H2  943   1.514   5.901   2.957  1.4269 -0.4145 -0.0688
  313TIP3   OH2  944   0.241   3.844   2.752 -0.2987  0.7463 -0.6421
  313TIP3    H1  945   0.297   3.774   2.719  0.0058  0.9968 -0.6669
  313TIP3    H2  946   0.154   3.825   2.716 -0.1203  0.6301 -1.0126
  314TIP3   OH2  947   5.036   3.802   1.048 -0.0798  0.0038 -0.6733
  314TIP3    H1  948   5.020   3.720   1.001 -0.7787 -0.0708 -0.3224
  314TIP3    H2  949   5.128   3.798   1.074  0.5639  0.3819 -2.6697
  315TIP3   OH2  950   5.751   3.686   1.353  0.1738  0.0251 -1.0322
  315TIP3    H1  951   5.778   3.594   1.350 -0.5404 -0.1815 -1.3236
  315TIP3    H2  952   5.696   3.692   1.432 -0.1263  0.1036 -1.2469
  316TIP3   OH2  953   2.210   2.625   4.200 -0.0961 -0.1452  0.6923
  316TIP3    H1  954   2.183   2.708   4.161 -1.4493 -0.9502 -0.1584
  316TIP3    H2  955   2.235   2.570   4.126  1.5376 -0.2955  1.2895
  317TIP3   OH2  956   2.136   1.975   4.505 -0.0966  0.4197  0.2928
  317TIP3    H1  957   2.128   2.066   4.477  1.4955  0.7308  0.7191
  317TIP3    H2  958   2.099   1.974   4.593 -1.1389  0.3981 -0.1373
  318TIP3   OH2  959   5.108   3.528   4.459 -0.1844  0.5662 -0.0818
  318TIP3    H1  960   5.135   3.511   4.368  2.8717 -1.6612  1.0293
  318TIP3    H2  961   5.048   3.456   4.479 -1.3883  1.4313 -0.4544
  319TIP3   OH2  962   2.691   3.831   4.218  0.4642  0.0157  0.1019
  319TIP3    H1  963   2.696   3.914   4.264  1.4204 -0.3166  0.6262
  319TIP3    H2  964   2.729   3.767   4.279  0.7068 -0.6194 -0.6929
  320TIP3   OH2  965   0.591   5.585   2.533 -0.1356  0.0975  0.3193
  320TIP3    H1  966   0.548   5.628   2.607 -3.1481 -0.5208 -0.9071
  320TIP3    H2  967   0.648   5.653   2.496  0.1065  0.9541  2.1615
  321TIP3   OH2  968   1.742   4.505   4.024 -0.5701  0.0770 -0.1348
  321TIP3    H1  969   1.815   4.451   4.053  0.4769  1.0611 -0.8344
  321TIP3    H2  970   1.729   4.567   4.096 -2.1948 -1.4458  0.9512
  322TIP3   OH2  971   5.944   3.054   4.265 -0.5552  0.6745  0.0850
  322TIP3    H1  972   6.030   3.077   4.300  0.0709 -1.3988  0.0428
  322TIP3    H2  973   5.944   3.090   4.176  0.2652  0.6839  0.0803
  323TIP3   OH2  974   3.393   5.296   1.670 -0.4283 -0.6187  0.3819
  323TIP3    H1  975   3.369   5.239   1.743 -0.6822  0.2584  1.0044
  323TIP3    H2  976   3.319   5.290   1.609 -1.1765  0.2106  1.1673
  324TIP3   OH2  977   2.128   1.211   5.022 -0.4511  0.1117  0.1175
  324TIP3    H1  978   2.035   1.188   5.024 -0.7705  1.3253  0.5793
  324TIP3    H2  979   2.130   1.301   5.054  1.1118 -0.5974  2.2289
  325TIP3   OH2  980   5.448   4.579   1.664  0.1689  0.1578  0.1005
  325TIP3    H1  981   5.383   4.585   1.735 -1.3147 -0.6881 -1.1112
  325TIP3    H2  982   5.424   4.650   1.604  0.1039 -0.3975 -0.5436
  326TIP3   OH2  983   2.139   5.971   2.038  0.2602  0.0091  0.3660
  326TIP3    H1  984   2.194   6.032   2.088 -0.6109  0.3696  0.9185
  326TIP3    H2  985   2.193   5.894   2.025 -0.2761 -1.2440  4.2244
  327TIP3   OH2  986   3.509   4.842   2.056 -0.2817  0.6348  0.3264
  327TIP3    H1  987   3.594   4.877   2.028 -0.5051  1.0330  0.1373
  327TIP3    H2  988   3.527   4.799   2.140  0.9148 -2.7017 -1.4425
  328TIP3   OH2  989   2.933   5.834   0.980 -0.2245  0.2486  0.4031
  328TIP3    H1  990   2.841   5.815   0.997  0.0684 -1.0609  0.6703
  328TIP3    H2  991   2.980   5.761   1.021  0.8000 -0.2765 -1.5802
  329TIP3   OH2  992   4.188   4.294   3.695  0.2838  0.4555 -0.3105
  329TIP3    H1  993   4.271   4.322   3.732  1.3840 -1.4336 -1.1563
  329TIP3    H2  994   4.209   4.269   3.605 -1.0335 -0.7470 -0.3265
  330TIP3   OH2  995   5.984   3.312   1.859 -0.4684  0.2690 -0.2846
  330TIP3    H1  996   5.911   3.289   1.801 -0.3792  0.1257 -0.3412
  330TIP3    H2  997   5.986   3.408   1.859  0.0538  0.2706 -1.1872
  331TIP3   OH2  998   1.498   2.644   2.320  0.5091  0.0702  0.0195
  331TIP3    H1  999   1.520   2.686   2.404  0.2092  0.0748  0.0979
  331TIP3    H2 1000   1.583   2.621   2.282  0.6175 -0.9167  0.8263
  332TIP3   OH2 1001   4.861   4.448   1.685  0.8735  0.4217 -0.6719
  332TIP3    H1 1002   4.930   4.391   1.716  0.3957 -1.1709 -2.3762
  332TIP3    H2 1003   4.806   4.464   1.762  1.4437 -0.7840  0.0002
  333TIP3   OH2 1004   4.923   2.157   4.360  0.2362 -0.4789 -0.0825
  333TIP3    H1 1005   4.890   2.160   4.450  1.5644 -1.3691  0.4597
  333TIP3    H2 1006   4.890   2.237   4.320 -2.9298 -1.4866  0.2654
  334TIP3   OH2 1007   3.602   5.146   3.744  0.1532 -0.1525  0.0314
  334TIP3    H1 1008   3.617   5.146   3.838 -0.7646 -0.4911  0.1826
  334TIP3    H2 1009   3.519   5.100   3.732 -0.0476  0.4195 -0.8911
  335TIP3   OH2 1010   5.194   1.496   1.958  0.4017  0.2448 -0.2740
  335TIP3    H1 1011   5.177   1.583   1.996  1.1579  0.3984 -0.2701
  335TIP3    H2 1012   5.284   1.502   1.925  0.9400 -0.9654  0.9169
  336TIP3   OH2 1013   2.410   3.606   0.898 -0.3841  0.1071 -0.1989
  336TIP3    H1 1014   2.469   3.643   0.832 -0.8929 -0.8413 -1.2119
  336TIP3    H2 1015   2.433   3.652   0.979  2.4880 -0.9521 -0.2986
  337TIP3   OH2 1016   1.814   4.836   0.147 -0.3912 -0.4635  0.1402
  337TIP3    H1 1017   1.893   4.891   0.145  0.1408 -1.2236 -1.9447
  337TIP3    H2 1018   1.825   4.783   0.226  0.9035 -0.1566  0.1973
  338TIP3   OH2 1019   1.450   4.317   3.696  0.4513 -0.0475  0.4429
  338TIP3    H1 1020   1.439   4.236   3.745  1.4752 -1.7595 -1.9790
  338TIP3    H2 1021   1.393   4.307   3.620 -0.7827  2.3425  0.9374
  339TIP3   OH2 1022   4.967   4.618   2.670  0.5542 -0.0614  0.2507
  339TIP3    H1 1023   4.933   4.667   2.745  2.3934 -0.0301  1.1307
  339TIP3    H2 1024   5.037   4.673   2.635  0.7576 -0.7907 -0.5163
  340TIP3   OH2 1025   2.354   0.626   0.552  0.1646  0.2349 -0.5369
  340TIP3    H1 1026   2.329   0.534   0.547 -0.0745  0.3367 -1.6220
  340TIP3    H2 1027   2.286   0.671   0.502 -0.7270  1.2277  1.4911
  341TIP3   OH2 1028   2.716   4.009   4.885  0.4277  0.7709 -0.3663
  341TIP3    H1 1029   2.762   4.008   4.969 -0.8058 -0.2498  0.3390
  341TIP3    H2 1030   2.731   3.921   4.850  0.0349  0.8402 -0.7009
  342TIP3   OH2 1031   4.986   0.292   4.483  0.1980 -0.5010 -0.2581
  342TIP3    H1 1032   5.076   0.264   4.467  1.0451  2.0755 -0.5391
  342TIP3    H2 1033   4.983   0.311   4.576 -0.5283 -1.9740  0.0421
  343TIP3   OH2 1034   5.763   1.811   2.848 -0.5573 -0.2067  0.1232
  343TIP3    H1 1035   5.831   1.756   2.809  0.3346  0.9857 -0.0694
  343TIP3    H2 1036   5.689   1.752   2.863 -1.1716 -0.6932 -3.8311
  344TIP3   OH2 1037   3.631   2.993   4.506 -0.5223  0.1590  0.1167
  344TIP3    H1 1038   3.719   2.959   4.489  0.7807  0.2057  5.0932
  344TIP3    H2 1039   3.641   3.088   4.501 -0.7168  0.1427 -0.7397
  345TIP3   OH2 1040   5.608   0.810   4.772 -0.2772 -0.5912  0.4006
  345TIP3    H1 1041   5.617   0.764   4.689  1.4346 -0.5856  0.5444
  345TIP3    H2 1042   5.669   0.884   4.765 -1.5324  0.5562  0.9310
  346TIP3   OH2 1043   4.393   1.476   3.347 -0.6208  0.0390 -0.1595
  346TIP3    H1 1044   4.423   1.446   3.433  1.7962  0.3073 -0.8217
  346TIP3    H2 1045   4.408   1.571   3.348 -0.2924  0.0021 -0.9703
  347TIP3   OH2 1046   5.523   5.721   0.508 -0.1346 -0.1070  0.4914
  347TIP3    H1 1047   5.508   5.736   0.601 -0.6746  1.9089  0.1346
  347TIP3    H2 1048   5.543   5.808   0.473 -3.1952 -0.1697 -1.8432
  348TIP3   OH2 1049   2.298   2.469   4.449  0.5681  0.2940  0.0277
  348TIP3    H1 1050   2.304   2.548   4.395  3.4190  0.1706  0.0046
  348TIP3    H2 1051   2.316   2.397   4.388 -1.4568 -0.4015  0.1574
  349TIP3   OH2 1052   4.738   1.831   3.637  0.2098 -0.5715 -0.0955
  349TIP3    H1 1053   4.659   1.827   3.691  0.6100 -0.9991  0.4626
  349TIP3    H2 1054   4.807   1.797   3.692  1.1279  1.3119 -0.0030
  350TIP3   OH2 1055   2.688   5.909   3.963 -0.3771 -0.8768 -0.2802
  350TIP3    H1 1056   2.651   5.997   3.967  0.1160 -0.6645 -0.2684
  350TIP3    H2 1057   2.699   5.883   4.054 -0.2625 -0.8325 -0.2801
  351TIP3   OH2 1058   0.215   2.547   0.858 -0.1233 -0.4584  0.0836
  351TIP3    H1 1059   0.271   2.567   0.784  1.3902 -0.4627  1.1788
  351TIP3    H2 1060   0.128   2.537   0.820  0.7983 -1.7310 -1.8517
  352TIP3   OH2 1061   5.421   4.586   2.430  0.5546  0.5525  0.0989
  352TIP3    H1 1062   5.401   4.614   2.340  3.3842  0.1153 -0.7773
  352TIP3    H2 1063   5.470   4.505   2.419  2.1601  1.2069  1.9658
  353TIP3   OH2 1064   0.326   1.325   3.914  0.3591 -0.3517 -0.1456
  353TIP3    H1 1065   0.307   1.242   3.872  0.4873 -1.8790  2.5584
  353TIP3    H2 1066   0.343   1.302   4.006 -2.1925  2.8901  1.3698
  354TIP3   OH2 1067   2.687   5.267   1.598 -0.0269  0.4730  0.4577
  354TIP3    H1 1068   2.607   5.271   1.652 -0.2171 -1.1754  0.3467
  354TIP3    H2 1069   2.672   5.331   1.529 -1.3464  0.0873  0.3493
  355TIP3   OH2 1070   2.182   1.714   4.708 -0.1498 -0.1671  0.0047
  355TIP3    H1 1071   2.224   1.770   4.642 -1.0608  0.9727  0.3465
  355TIP3    H2 1072   2.214   1.626   4.689 -1.5532 -0.1671 -2.9853
  356TIP3   OH2 1073   4.179   1.302   1.941 -0.0805 -0.0755 -0.6665
  356TIP3    H1 1074   4.257   1.258   1.974  0.0458 -0.4740 -1.4668
  356TIP3    H2 1075   4.210   1.351   1.865 -0.6086 -0.2427 -0.9930
  357TIP3   OH2 1076   6.126   4.161   0.594 -0.0536  0.3269 -0.0110
  357TIP3    H1 1077   6.152   4.224   0.662  1.3840 -0.9512  0.7097
  357TIP3    H2 1078   6.207   4.143   0.546 -0.0511 -2.0248  0.7489
  358TIP3   OH2 1079   0.482   4.027   2.090  0.6331  0.2156  0.6277
  358TIP3    H1 1080   0.446   3.971   2.159 -1.6798 -2.0035 -2.1203
  358TIP3    H2 1081   0.406   4.052   2.037  2.3706  0.6691 -1.8434
  359TIP3   OH2 1082   5.936   6.004   4.746 -0.0807 -0.5610  0.3562
  359TIP3    H1 1083   5.852   6.027   4.707 -0.0071  1.0799  1.0895
  359TIP3    H2 1084   5.923   5.916   4.782 -1.9456  0.2047  1.6858
  360TIP3   OH2 1085   1.664   3.014   3.393 -0.0230 -0.2238 -0.0667
  360TIP3    H1 1086   1.656   3.052   3.480 -0.9004  1.1559 -0.7145
  360TIP3    H2 1087   1.585   3.043   3.347  0.7769 -0.2946 -1.5584
  361TIP3   OH2 1088   4.771   2.244   1.194  0.3102  0.3481  0.4177
  361TIP3    H1 1089   4.693   2.191   1.212  1.8347 -1.6805  1.3531
  361TIP3    H2 1090   4.784   2.237   1.100 -2.2478  3.1877 -0.3191
  362TIP3   OH2 1091   2.775   1.367   2.369 -0.2519 -0.6070  0.0675
  362TIP3    H1 1092   2.779   1.387   2.275 -1.6661 -2.7322 -0.5132
  362TIP3    H2 1093   2.769   1.271   2.373 -0.6970 -0.5407  2.3046
  363TIP3   OH2 1094   1.191   3.734   2.415 -0.2327  0.2704  0.1515
  363TIP3    H1 1095   1.253   3.742   2.487  0.5168  1.2925 -0.5759
  363TIP3    H2 1096   1.171   3.824   2.390 -1.0500 -0.0578 -0.4426
  364TIP3   OH2 1097   2.951   2.213   3.276 -0.0011  0.2788  0.0023
  364TIP3    H1 1098   2.877   2.269   3.251 -1.3916 -0.7804  1.5488
  364TIP3    H2 1099   2.910   2.134   3.311  1.9102 -1.3428 -1.2725
  365TIP3   OH2 1100   2.656   5.889   5.025  0.7555  0.0534  0.1985
  365TIP3    H1 1101   2.634   5.932   4.942  0.1836  0.3027  0.4703
  365TIP3    H2 1102   2.581   5.908   5.082  0.1182 -1.9526  0.0958
  366TIP3   OH2 1103   0.714   5.482   0.742  0.3848  0.2138  0.1139
  366TIP3    H1 1104   0.782   5.541   0.707 -0.6166  1.5550  0.3575
  366TIP3    H2 1105   0.647   5.541   0.777  1.2762 -0.9552  4.3657
  367TIP3   OH2 1106   5.260   1.720   2.646  0.5809 -0.5113  0.2389
  367TIP3    H1 1107   5.252   1.776   2.724  1.4369 -0.5412  0.3546
  367TIP3    H2 1108   5.334   1.756   2.598  0.1881 -0.6272 -0.4570
  368TIP3   OH2 1109   4.685   0.207   2.832 -0.5593  0.4347  0.1614
  368TIP3    H1 1110   4.631   0.178   2.758  0.2315 -1.0501  0.1433
  368TIP3    H2 1111   4.757   0.256   2.791 -0.2386 -0.2051 -0.0548
  369TIP3   OH2 1112   5.980   2.629   4.937 -0.5853  0.4663  0.0218
  369TIP3    H1 1113   6.016   2.592   4.857 -0.0724  1.3851 -0.1898
  369TIP3    H2 1114   6.056   2.646   4.992 -0.8235  0.9937  0.1978
  370TIP3   OH2 1115   4.692   0.284   4.648 -0.3730 -0.6850  0.4277
  370TIP3    H1 1116   4.775   0.307   4.689  0.2388  0.5297 -1.3891
  370TIP3    H2 1117   4.626   0.328   4.703  0.4920  1.7344 -0.3344
  371TIP3   OH2 1118   5.771   1.017   0.554  0.2795 -0.2136 -0.0181
  371TIP3    H1 1119   5.751   1.093   0.609 -0.4507  0.7323 -1.5191
  371TIP3    H2 1120   5.825   1.052   0.483 -1.1392 -0.7661 -1.4500
  372TIP3   OH2 1121   5.482   5.765   4.313  0.3745 -0.0657  0.4192
  372TIP3    H1 1122   5.530   5.684   4.332  1.0661  0.4651  0.9736
  372TIP3    H2 1123   5.524   5.831   4.367 -0.2633  0.6495  0.0570
  373TIP3   OH2 1124   1.920   3.015   4.748  0.0465 -1.0906 -0.1400
  373TIP3    H1 1125   1.988   2.982   4.806  0.6392  1.6320  0.8303
  373TIP3    H2 1126   1.968   3.055   4.675 -0.5129  0.2312  0.2000
  374TIP3   OH2 1127   5.565   5.941   0.885 -0.0257 -0.4503  0.3573
  374TIP3    H1 1128   5.561   5.959   0.791 -2.2316  1.4697  0.7021
  374TIP3    H2 1129   5.657   5.951   0.907  0.8110 -2.5253 -1.8181
  375TIP3   OH2 1130   5.496   0.253   1.344  0.4421 -0.1175  0.4374
  375TIP3    H1 1131   5.437   0.326   1.324  1.3444  0.8647  1.2856
  375TIP3    H2 1132   5.459   0.179   1.295 -0.8508  0.7376  0.0610
  376TIP3   OH2 1133   5.826   0.274   2.894 -0.0959 -0.0227  0.0457
  376TIP3    H1 1134   5.803   0.315   2.810 -0.1081  2.6219  1.2265
  376TIP3    H2 1135   5.921   0.264   2.889  0.0334  1.0226  0.0248
  377TIP3   OH2 1136   2.515   3.229   1.695  0.4641 -0.4284  0.1652
  377TIP3    H1 1137   2.491   3.247   1.604  1.9985 -1.5346 -0.5127
  377TIP3    H2 1138   2.533   3.315   1.732 -1.1368  0.1217 -0.2696
  378TIP3   OH2 1139   4.416   4.109   4.009  0.2101 -0.1761  1.1713
  378TIP3    H1 1140   4.326   4.084   4.027 -0.3455 -0.0742 -1.1954
  378TIP3    H2 1141   4.410   4.173   3.938  2.2527 -2.3461 -1.1405
  379TIP3   OH2 1142   4.133   4.042   2.915  0.4804 -0.3341 -0.7024
  379TIP3    H1 1143   4.129   4.102   2.989  0.8413 -0.0642 -0.8966
  379TIP3    H2 1144   4.050   4.055   2.869  0.2496 -0.5111 -0.3432
  380TIP3   OH2 1145   0.615   2.157   2.240  0.0620 -0.3717 -0.0832
  380TIP3    H1 1146   0.694   2.162   2.185 -1.7874  2.9813 -2.8126
  380TIP3    H2 1147   0.563   2.087   2.199 -0.1311  0.2538 -0.9314
  381TIP3   OH2 1148   0.185   3.114   3.331 -0.4031 -0.3621  0.1126
  381TIP3    H1 1149   0.115   3.065   3.288  0.1067 -0.6635 -0.3882
  381TIP3    H2 1150   0.242   3.142   3.259 -1.0943  1.6599  0.2998
  382TIP3   OH2 1151   2.148   5.659   4.880  0.5791  0.1714  0.2990
  382TIP3    H1 1152   2.187   5.730   4.829 -0.5504  1.1112  0.6925
  382TIP3    H2 1153   2.222   5.605   4.906  1.2772  0.0948 -1.6434
  383TIP3   OH2 1154   5.544   2.761   2.471 -0.2658 -0.3466 -0.6678
  383TIP3    H1 1155   5.580   2.850   2.469 -1.6130  0.2621  0.6802
  383TIP3    H2 1156   5.473   2.763   2.406 -1.4889  0.1496  0.6263
  384TIP3   OH2 1157   1.295   5.487   4.928  0.0521 -0.5492  0.2150
  384TIP3    H1 1158   1.232   5.523   4.990 -0.2420  0.0530 -0.4267
  384TIP3    H2 1159   1.328   5.408   4.971 -0.0168 -0.0433  1.2089
  385TIP3   OH2 1160   2.692   5.904   3.149 -0.0933  0.1405 -0.3115
  385TIP3    H1 1161   2.616   5.960   3.136 -1.1939 -1.2120  0.0930
  385TIP3    H2 1162   2.735   5.901   3.063 -1.1771 -0.0460 -0.8540
  386TIP3   OH2 1163   3.930   4.485   4.566 -0.6516 -0.0034 -0.1016
  386TIP3    H1 1164   3.992   4.415   4.586 -0.1409  0.8406  1.4012
  386TIP3    H2 1165   3.844   4.442   4.563 -0.3451 -0.6911  0.7805
  387TIP3   OH2 1166   4.040   0.648   3.834  0.0839 -0.5081 -0.1199
  387TIP3    H1 1167   4.100   0.576   3.815  0.1238 -0.2778 -0.9165
  387TIP3    H2 1168   3.953   0.611   3.819  0.1475  0.2550 -3.1705
  388TIP3   OH2 1169   4.609   3.505   4.470 -0.1577  0.1135  0.0338
  388TIP3    H1 1170   4.679   3.501   4.405  0.4783  2.4260  0.5303
  388TIP3    H2 1171   4.532   3.534   4.420 -0.4829 -1.1248 -0.2393
  389TIP3   OH2 1172   3.766   5.803   3.439  0.0298  0.0556 -0.0746
  389TIP3    H1 1173   3.775   5.727   3.497  3.1086  0.3383 -0.0587
  389TIP3    H2 1174   3.739   5.874   3.497 -1.0704 -0.5838  0.2261
  390TIP3   OH2 1175   3.538   0.785   1.138 -0.0920 -0.4200  0.2990
  390TIP3    H1 1176   3.518   0.784   1.044  1.2455  0.2475 -0.0257
  390TIP3    H2 1177   3.540   0.693   1.163  1.3789 -0.7182 -0.7856
  391TIP3   OH2 1178   0.748   2.758   3.194 -0.1123 -0.1619  0.2364
  391TIP3    H1 1179   0.758   2.780   3.101 -1.2599 -0.3872  0.0530
  391TIP3    H2 1180   0.779   2.836   3.241  1.7467 -0.5315 -0.2846
  392TIP3   OH2 1181   5.242   5.009   1.022  0.2173 -0.4697 -0.0360
  392TIP3    H1 1182   5.289   5.092   1.031  1.2882 -1.0063 -0.4530
  392TIP3    H2 1183   5.202   5.013   0.935  1.2892 -0.8606 -0.5743
  393TIP3   OH2 1184   6.006   5.902   2.976  0.2069  0.5431 -0.2783
  393TIP3    H1 1185   6.057   5.906   2.895  0.7956 -0.7198 -0.0004
  393TIP3    H2 1186   5.964   5.816   2.973  2.6343 -0.8948  2.0857
  394TIP3   OH2 1187   3.676   4.805   4.579  0.1480  0.0397 -0.0215
  394TIP3    H1 1188   3.595   4.782   4.532 -0.5161 -2.0730  1.9938
  394TIP3    H2 1189   3.741   4.814   4.509 -1.0718 -1.6400 -1.4874
  395TIP3   OH2 1190   1.621   2.508   3.378 -0.3242  0.3463 -0.9035
  395TIP3    H1 1191   1.603   2.587   3.429  2.9759  0.0473  1.0390
  395TIP3    H2 1192   1.536   2.484   3.340 -2.2077  2.7580  1.3730
  396TIP3   OH2 1193   4.521   0.942   4.448  0.1150  0.0707 -0.4011
  396TIP3    H1 1194   4.501   0.999   4.373  1.1959  0.9059 -0.0787
  396TIP3    H2 1195   4.444   0.951   4.505 -0.0038  0.7330 -0.6524
  397TIP3   OH2 1196   5.810   1.245   2.556 -0.6250  0.1680  0.4862
  397TIP3    H1 1197   5.731   1.261   2.607 -0.5966 -0.0335  0.5963
  397TIP3    H2 1198   5.819   1.150   2.555 -1.1718  0.1091 -0.7315
  398TIP3   OH2 1199   5.613   1.666   1.454  0.8382 -0.2853  0.3889
  398TIP3    H1 1200   5.558   1.639   1.380 -0.2252 -0.4345  1.2163
  398TIP3    H2 1201   5.622   1.761   1.443 -1.4331  0.1057  1.4172
  399TIP3   OH2 1202   1.164   1.678   2.212 -0.3410 -0.4802  0.2784
  399TIP3    H1 1203   1.196   1.760   2.174  0.3974 -0.7388  0.3115
  399TIP3    H2 1204   1.230   1.656   2.279  0.1196 -1.7204 -0.5530
  400TIP3   OH2 1205   4.472   4.248   1.713 -0.4214 -0.3766  0.4635
  400TIP3    H1 1206   4.555   4.227   1.757 -0.5700  0.2195  1.0421
  400TIP3    H2 1207   4.427   4.306   1.774 -0.0793  1.5352 -0.9983
  401TIP3   OH2 1208   0.564   0.962   3.834  0.3301  1.0152 -0.5981
  401TIP3    H1 1209   0.527   0.912   3.761 -1.2185 -1.1296  1.4927
  401TIP3    H2 1210   0.600   0.896   3.893  0.7209  2.5845  1.0196
  402TIP3   OH2 1211   3.060   2.287   2.870 -1.3365 -0.1525 -0.4934
  402TIP3    H1 1212   3.101   2.286   2.957 -2.7699 -0.6186  0.2144
  402TIP3    H2 1213   2.981   2.234   2.881 -1.1365 -0.9017 -2.3089
  403TIP3   OH2 1214   3.845   5.863   3.907 -0.5867  0.1036  0.4387
  403TIP3    H1 1215   3.840   5.894   3.816 -0.2638 -0.2707  0.2892
  403TIP3    H2 1216   3.754   5.860   3.936 -0.8398 -1.3533 -0.4182
  404TIP3   OH2 1217   0.239   0.423   3.687 -0.3191 -0.0563  0.3910
  404TIP3    H1 1218   0.230   0.458   3.775  0.2201  0.5296  0.2214
  404TIP3    H2 1219   0.334   0.416   3.673 -0.3514  1.1057 -0.6081
  405TIP3   OH2 1220   1.796   1.350   1.622  0.3370 -0.2543 -0.0255
  405TIP3    H1 1221   1.798   1.386   1.534 -0.5577 -0.6557 -0.2212
  405TIP3    H2 1222   1.870   1.391   1.667 -1.0427  2.4137  0.0214
  406TIP3   OH2 1223   4.017   1.370   0.893 -0.1872  0.6623  0.5754
  406TIP3    H1 1224   3.986   1.279   0.896 -0.3606  0.7006  0.0179
  406TIP3    H2 1225   3.967   1.411   0.823 -0.0485  1.1700  0.7650
  407TIP3   OH2 1226   3.893   4.099   0.103  0.3523 -0.6388  0.6183
  407TIP3    H1 1227   3.805   4.113   0.138  0.3897  1.6238 -0.0571
  407TIP3    H2 1228   3.939   4.181   0.120  1.6614 -0.9880 -0.9583
  408TIP3   OH2 1229   5.440   1.596   5.057  0.7612 -0.3304 -0.0570
  408TIP3    H1 1230   5.363   1.587   5.000  1.1762  1.5581 -1.0098
  408TIP3    H2 1231   5.433   1.524   5.119 -0.5696 -1.5453 -1.5235
  409TIP3   OH2 1232   1.099   3.805   4.654 -0.1665 -0.5208 -0.1446
  409TIP3    H1 1233   1.101   3.842   4.742  2.6726  1.1659 -0.7690
  409TIP3    H2 1234   1.030   3.853   4.609 -0.1751  0.1659  0.5797
  410TIP3   OH2 1235   5.015   5.645   2.152  0.2059 -0.0662  0.3377
  410TIP3    H1 1236   4.955   5.594   2.208 -1.0855 -0.2353 -1.1274
  410TIP3    H2 1237   4.993   5.618   2.063  2.1803  0.2358 -0.2820
  411TIP3   OH2 1238   1.872   0.954   1.882  0.0426  0.0500 -0.2262
  411TIP3    H1 1239   1.780   0.977   1.894 -0.0775  0.1261 -1.1984
  411TIP3    H2 1240   1.901   1.007   1.807  0.4052 -1.2064 -1.0077
  412TIP3   OH2 1241   4.660   5.060   4.661 -0.3108  0.5542  0.0759
  412TIP3    H1 1242   4.693   4.973   4.685 -1.1370  0.8339  2.5159
  412TIP3    H2 1243   4.569   5.044   4.635 -0.1794  0.5801 -0.4048
  413TIP3   OH2 1244   1.490   1.220   2.000 -0.2205  1.3718  0.3089
  413TIP3    H1 1245   1.521   1.310   1.984 -0.1100  1.0754 -1.3824
  413TIP3    H2 1246   1.424   1.206   1.932  0.4653 -0.1468 -0.0746
  414TIP3   OH2 1247   5.019   0.872   2.256  0.4025 -0.3357  0.5020
  414TIP3    H1 1248   5.084   0.928   2.297 -0.3499  1.1228 -0.2287
  414TIP3    H2 1249   5.023   0.895   2.163 -0.9731 -0.4144  0.4094
  415TIP3   OH2 1250   6.218   0.157   0.304  0.6059 -0.1389  0.1762
  415TIP3    H1 1251   6.201   0.085   0.243  0.1476  0.5996 -0.5956
  415TIP3    H2 1252   6.217   0.235   0.249 -0.3290  0.6000  1.2105
  416TIP3   OH2 1253   1.033   0.651   3.078 -0.2941 -0.8508 -0.5310
  416TIP3    H1 1254   1.070   0.589   3.140 -0.1626 -0.2324  0.0219
  416TIP3    H2 1255   1.073   0.735   3.101 -1.3728 -0.3313 -0.4795
  417TIP3   OH2 1256   4.114   3.088   0.900 -0.2477 -0.2764  0.1070
  417TIP3    H1 1257   4.193   3.054   0.859 -0.8544 -0.4577 -0.9447
  417TIP3    H2 1258   4.072   3.011   0.939 -0.8121 -0.5025 -0.9048
  418TIP3   OH2 1259   4.259   1.219   1.546 -0.8294  0.0411  0.1179
  418TIP3    H1 1260   4.196   1.208   1.617  0.6224  2.1775  1.8726
  418TIP3    H2 1261   4.221   1.286   1.489 -1.1365 -0.3139 -0.1017
  419TIP3   OH2 1262   2.759   2.204   2.540 -0.3262  0.2617  0.1053
  419TIP3    H1 1263   2.754   2.290   2.583 -0.2745  0.7460 -0.8422
  419TIP3    H2 1264   2.837   2.209   2.486 -0.7122 -0.1351 -0.4965
  420TIP3   OH2 1265   0.612   0.868   3.553  0.3217  0.0918  0.5709
  420TIP3    H1 1266   0.706   0.878   3.568  0.2868  0.4590  0.5574
  420TIP3    H2 1267   0.593   0.924   3.478  0.3260 -0.9927 -0.2756
  421TIP3   OH2 1268   1.574   0.951   2.108  0.2774 -0.4086 -0.5955
  421TIP3    H1 1269   1.540   1.039   2.093 -0.6371 -0.7128 -0.3583
  421TIP3    H2 1270   1.603   0.952   2.199  0.9563 -0.1458 -0.8023
  422TIP3   OH2 1271   2.495   4.339   4.959 -0.0692  0.0223 -0.3123
  422TIP3    H1 1272   2.489   4.275   4.888  2.2444  0.5909 -1.0921
  422TIP3    H2 1273   2.548   4.410   4.924 -0.3306  1.1409  1.4280
  423TIP3   OH2 1274   6.219   1.848   4.617 -0.2788 -0.4970  0.1510
  423TIP3    H1 1275   6.303   1.887   4.593 -0.2231  0.9922  2.5085
  423TIP3    H2 1276   6.154   1.917   4.600 -1.0370 -1.4739 -1.2045
  424TIP3   OH2 1277   4.257   2.155   1.543  0.1390 -0.0629 -0.7473
  424TIP3    H1 1278   4.320   2.143   1.472 -0.6613 -0.8173 -1.3460
  424TIP3    H2 1279   4.227   2.245   1.533  1.8893  0.6742  0.2079
  425TIP3   OH2 1280   0.171   4.847   1.682 -0.3721 -0.3171  0.4994
  425TIP3    H1 1281   0.162   4.848   1.586  0.6670 -0.4141  0.3876
  425TIP3    H2 1282   0.092   4.891   1.714 -0.6127 -0.0600 -0.4124
  426TIP3   OH2 1283   4.394   2.322   2.913 -0.0694  0.1031  0.6801
  426TIP3    H1 1284   4.424   2.364   2.993  0.9426  0.8803 -0.0898
  426TIP3    H2 1285   4.474   2.293   2.869 -0.5986 -0.0874 -0.1749
  427TIP3   OH2 1286   1.024   4.362   1.944  0.0628 -0.9185  0.3368
  427TIP3    H1 1287   1.038   4.456   1.928  2.3053 -1.3439 -0.5704
  427TIP3    H2 1288   0.983   4.358   2.030  0.3476  0.8819  0.5948
  428TIP3   OH2 1289   3.452   5.118   3.161 -0.1105  0.3471  0.2618
  428TIP3    H1 1290   3.527   5.178   3.171  0.3371  0.0134 -0.9689
  428TIP3    H2 1291   3.378   5.166   3.200  0.9261  0.2171  2.5553
  429TIP3   OH2 1292   5.046   3.953   1.767  0.0143 -0.2252  0.4099
  429TIP3    H1 1293   5.005   3.923   1.848  1.1242 -1.2667  0.6177
  429TIP3    H2 1294   5.054   3.874   1.714 -1.1780  0.5297 -0.9620
  430TIP3   OH2 1295   1.029   5.309   0.249 -0.6645  0.2245  0.4601
  430TIP3    H1 1296   1.071   5.395   0.253 -1.8542  0.8889 -0.6142
  430TIP3    H2 1297   0.968   5.309   0.322  0.0074 -0.0966  1.0324
  431TIP3   OH2 1298   2.631   5.557   2.737  0.4224  0.2392  0.4335
  431TIP3    H1 1299   2.723   5.533   2.734  0.8332  1.7676 -1.5072
  431TIP3    H2 1300   2.587   5.480   2.773  2.2743 -1.0278  0.1409
  432TIP3   OH2 1301   0.364   0.069   4.301  0.8922  0.5688  0.0675
  432TIP3    H1 1302   0.415   0.109   4.371  0.1578 -0.4733  1.2460
  432TIP3    H2 1303   0.336  -0.015   4.337  0.1675  0.1742 -1.3437
  433TIP3   OH2 1304   4.605   3.749   2.190 -0.5270 -0.2229  0.7565
  433TIP3    H1 1305   4.672   3.722   2.128  0.2156 -2.6041  2.4611
  433TIP3    H2 1306   4.563   3.826   2.149  2.2822  0.5116 -0.9770
  434TIP3   OH2 1307   2.637   2.547   5.004  0.0070 -0.1997  0.6231
  434TIP3    H1 1308   2.656   2.507   4.919  0.3466 -0.8037  0.9696
  434TIP3    H2 1309   2.590   2.478   5.052 -0.1348  0.1181  0.9426
  435TIP3   OH2 1310   6.250   1.588   1.801  0.5643  0.1219  0.0405
  435TIP3    H1 1311   6.254   1.613   1.893 -0.2669  0.3363  0.0293
  435TIP3    H2 1312   6.301   1.655   1.755 -0.2855  0.8905  0.1895
  436TIP3   OH2 1313   5.014   1.029   2.004 -0.3152 -0.1728  0.0099
  436TIP3    H1 1314   5.106   1.051   2.016 -0.1457 -0.5323 -0.5639
  436TIP3    H2 1315   4.966   1.097   2.050  0.2543 -0.7593  1.5125
  437TIP3   OH2 1316   5.032   2.741   1.331  0.1662 -0.0623  0.1010
  437TIP3    H1 1317   4.987   2.752   1.415 -0.7032 -2.5056  0.0186
  437TIP3    H2 1318   4.969   2.771   1.266 -0.1860 -0.6284  0.1748
  438TIP3   OH2 1319   3.288   1.211   0.121 -0.5436  0.1707 -0.0147
  438TIP3    H1 1320   3.307   1.275   0.189 -2.0294  0.7444 -0.1018
  438TIP3    H2 1321   3.214   1.160   0.155 -0.0106 -0.8685 -0.3622
  439TIP3   OH2 1322   1.266   3.776   4.329  0.3888  0.0649 -0.1140
  439TIP3    H1 1323   1.184   3.729   4.321 -0.0581 -0.0535  3.6675
  439TIP3    H2 1324   1.326   3.713   4.369  1.0163  1.4282  1.1493
  440TIP3   OH2 1325   0.177   5.711   2.748  0.1931  0.6693 -0.6871
  440TIP3    H1 1326   0.221   5.793   2.769  0.0073  0.5693  0.1370
  440TIP3    H2 1327   0.114   5.698   2.819  2.0157 -1.5127  0.6890
  441TIP3   OH2 1328   0.399   1.226   3.619 -0.3994  0.0437  0.2902
  441TIP3    H1 1329   0.374   1.213   3.527  1.8160 -2.5334 -0.1003
  441TIP3    H2 1330   0.332   1.179   3.669 -0.4107 -0.4850 -0.2043
  442TIP3   OH2 1331   5.493   1.515   3.730 -0.0768  0.7475 -0.5160
  442TIP3    H1 1332   5.428   1.495   3.663  0.5271  1.6133 -1.3835
  442TIP3    H2 1333   5.560   1.447   3.719 -0.5407  0.1918  0.0058
  443TIP3   OH2 1334   4.241   4.158   1.585  0.2548 -0.3429 -0.2592
  443TIP3    H1 1335   4.272   4.070   1.608 -0.5949 -1.2029 -2.1861
  443TIP3    H2 1336   4.317   4.214   1.598  0.5057 -1.1192  2.1125
  444TIP3   OH2 1337   4.621   2.907   4.180 -0.1613  0.0643  0.1922
  444TIP3    H1 1338   4.666   2.845   4.238 -1.1824 -0.1338  0.8078
  444TIP3    H2 1339   4.528   2.896   4.202 -0.6486 -0.4456 -1.9164
  445TIP3   OH2 1340   1.372   3.725   3.214 -0.1672  0.1618 -0.5069
  445TIP3    H1 1341   1.361   3.773   3.296 -0.5101 -0.2146 -0.3332
  445TIP3    H2 1342   1.284   3.699   3.189 -0.0399  0.0900 -0.8843
  446TIP3   OH2 1343   4.537   3.992   0.832  0.7122  0.3533  0.0819
  446TIP3    H1 1344   4.602   4.053   0.797  0.5136  0.0338 -0.8890
  446TIP3    H2 1345   4.454   4.040   0.828  0.8584  0.7525  1.2982
  447TIP3   OH2 1346   5.412   3.940   0.504  0.0588 -0.7355 -0.4401
  447TIP3    H1 1347   5.459   3.909   0.427 -0.1409 -2.0347 -0.0606
  447TIP3    H2 1348   5.465   4.012   0.538  0.2820 -0.3225 -1.6247
  448TIP3   OH2 1349   0.224   3.574   0.160  0.1972  0.0602 -0.1427
  448TIP3    H1 1350   0.299   3.522   0.189 -1.0835 -0.6466  2.1495
  448TIP3    H2 1351   0.148   3.521   0.181 -1.0225  0.9172 -2.0702
  449TIP3   OH2 1352   1.390   0.460   1.111  0.2587  0.0875  0.4707
  449TIP3    H1 1353   1.360   0.394   1.048  1.0225  0.7505 -0.6436
  449TIP3    H2 1354   1.331   0.534   1.098  1.7489  1.0797 -1.1397
  450TIP3   OH2 1355   6.168   4.737   2.129 -0.5797  0.3160  0.0473
  450TIP3    H1 1356   6.215   4.771   2.053 -1.7074  1.1694 -0.2981
  450TIP3    H2 1357   6.208   4.652   2.146 -0.7321 -0.1956 -1.9315
  451TIP3   OH2 1358   1.999   3.561   4.835 -0.5038 -0.0253 -0.4048
  451TIP3    H1 1359   1.953   3.481   4.861  1.4576 -0.6547  1.4486
  451TIP3    H2 1360   1.971   3.626   4.900 -1.5220  0.6265 -1.4652
  452TIP3   OH2 1361   1.495   0.607   0.764  0.1185 -0.6293 -0.3012
  452TIP3    H1 1362   1.466   0.516   0.776  1.1611 -0.9915 -0.4915
  452TIP3    H2 1363   1.586   0.607   0.792 -0.2150  0.6357  0.8629
  453TIP3   OH2 1364   0.187   2.234   0.190  0.0250  0.4206 -0.2454
  453TIP3    H1 1365   0.190   2.185   0.108  0.3818 -0.6874  0.4060
  453TIP3    H2 1366   0.279   2.248   0.213 -0.0658  0.4010  0.1418
  454TIP3   OH2 1367   5.432   3.555   1.427 -0.4570  0.3551  0.0833
  454TIP3    H1 1368   5.342   3.587   1.435 -0.7629 -0.8097  2.1733
  454TIP3    H2 1369   5.483   3.610   1.486 -0.2072 -0.2939  0.4902
  455TIP3   OH2 1370   1.937   5.899   4.691  0.2721 -0.1166 -0.1197
  455TIP3    H1 1371   1.927   5.819   4.742  1.9214 -0.8154 -0.8345
  455TIP3    H2 1372   1.944   5.870   4.600 -2.1747  1.0816 -0.7855
  456TIP3   OH2 1373   3.921   2.424   1.841  0.5995  0.1212 -0.2580
  456TIP3    H1 1374   3.890   2.341   1.805  2.1937 -0.0492 -1.3530
  456TIP3    H2 1375   3.888   2.491   1.780  1.0963  0.0662 -0.6026
  457TIP3   OH2 1376   1.215   5.564   1.366  0.7253  0.2251  0.1581
  457TIP3    H1 1377   1.141   5.624   1.353 -0.4691 -1.4061 -0.8769
  457TIP3    H2 1378   1.289   5.609   1.324 -0.0456  1.1448 -0.2569
  458TIP3   OH2 1379   3.297   5.993   3.497 -0.3683  0.2180  0.0813
  458TIP3    H1 1380   3.362   5.995   3.427  0.4155  0.2264  0.7840
  458TIP3    H2 1381   3.329   5.927   3.558 -1.5250 -0.4508 -0.0036
  459TIP3   OH2 1382   5.161   2.313   0.415  0.1973  0.5784  0.2979
  459TIP3    H1 1383   5.202   2.374   0.476  1.0220  0.1867  0.1497
  459TIP3    H2 1384   5.213   2.233   0.423  0.7564  0.7339 -1.4243
  460TIP3   OH2 1385   5.046   4.897   0.497  0.2594  0.0343  0.2204
  460TIP3    H1 1386   5.067   4.960   0.566  0.4887  1.0640 -0.7551
  460TIP3    H2 1387   5.045   4.949   0.416 -0.3632 -1.0656 -0.5119
  461TIP3   OH2 1388   1.120   1.807   3.380  0.1670  0.3250 -0.0091
  461TIP3    H1 1389   1.142   1.898   3.362  0.0105  0.1807 -1.0088
  461TIP3    H2 1390   1.059   1.783   3.310  1.2912 -0.9556 -0.6036
  462TIP3   OH2 1391   1.902   2.094   3.915  0.2954 -0.1673  0.2936
  462TIP3    H1 1392   1.854   2.014   3.891  3.0404 -2.0408  0.6120
  462TIP3    H2 1393   1.994   2.070   3.904  1.2312  2.8852  0.7929
  463TIP3   OH2 1394   2.607   1.093   5.015 -0.1636 -0.5557 -0.2183
  463TIP3    H1 1395   2.643   1.004   5.010 -1.8858 -1.3620  0.7552
  463TIP3    H2 1396   2.512   1.081   5.011 -0.4761  1.1620  0.8303
  464TIP3   OH2 1397   4.940   0.927   1.742 -0.5224 -0.2975 -0.0861
  464TIP3    H1 1398   4.892   0.941   1.824  0.2659 -0.3660  0.4039
  464TIP3    H2 1399   5.017   0.877   1.768  0.0796  0.2529 -0.7715
  465TIP3   OH2 1400   1.043   1.835   0.394 -0.2147  0.0013  0.3242
  465TIP3    H1 1401   1.086   1.756   0.425 -1.0414 -0.1004  1.2772
  465TIP3    H2 1402   0.955   1.806   0.369 -0.4413  0.5740  0.4470
  466TIP3   OH2 1403   1.904   2.642   5.095  0.9800  0.3153 -0.0128
  466TIP3    H1 1404   1.868   2.566   5.051  0.6214  0.1573  0.5485
  466TIP3    H2 1405   1.851   2.716   5.064  0.7572  0.2105  0.1176
  467TIP3   OH2 1406   0.410   4.017   0.178  0.3357  0.3133 -0.6809
  467TIP3    H1 1407   0.358   3.989   0.253  1.3030 -1.6764 -0.6868
  467TIP3    H2 1408   0.361   3.988   0.102  0.4265  0.3587 -0.7567
  468TIP3   OH2 1409   0.713   1.906   3.088 -0.1417  0.3719 -0.1223
  468TIP3    H1 1410   0.662   1.828   3.107  1.4703 -0.6715  0.1078
  468TIP3    H2 1411   0.780   1.876   3.025  2.1888  0.8487  1.9619
  469TIP3   OH2 1412   0.063   2.250   3.522 -0.2969  0.7039 -0.2080
  469TIP3    H1 1413  -0.008   2.186   3.527 -2.3311  2.7002 -1.4465
  469TIP3    H2 1414   0.143   2.198   3.530 -1.8424 -1.8420 -0.1670
  470TIP3   OH2 1415   2.355   1.053   1.383 -0.0467  0.6296  0.2326
  470TIP3    H1 1416   2.352   1.091   1.295  2.1618  1.5108  0.4925
  470TIP3    H2 1417   2.342   1.128   1.442  0.2989  0.3279  0.6926
  471TIP3   OH2 1418   3.685   1.917   2.898 -0.2835 -0.0831  0.2611
  471TIP3    H1 1419   3.763   1.918   2.953 -0.4936  0.0616  0.5621
  471TIP3    H2 1420   3.614   1.942   2.957 -0.5270 -0.0198 -0.0545
  472TIP3   OH2 1421   2.639   3.959   3.983 -0.3448 -0.1685  0.4512
  472TIP3    H1 1422   2.711   3.978   3.923 -2.4195  0.9251 -1.8946
  472TIP3    H2 1423   2.672   3.890   4.041  2.8609  1.0127  0.1754
  473TIP3   OH2 1424   5.650   1.581   2.531 -0.2082  0.3045  0.2883
  473TIP3    H1 1425   5.586   1.622   2.473  0.3753 -0.9572 -1.3132
  473TIP3    H2 1426   5.734   1.612   2.499  0.1709 -1.1469 -0.1907
  474TIP3   OH2 1427   1.395   5.156   4.894 -0.0876 -0.4146  0.1335
  474TIP3    H1 1428   1.415   5.115   4.810 -1.4992  1.3828 -1.1691
  474TIP3    H2 1429   1.301   5.171   4.892 -1.0795 -4.1008  3.9104
  475TIP3   OH2 1430   3.964   4.326   0.247  0.1724  0.0943  0.1281
  475TIP3    H1 1431   3.952   4.350   0.339  1.4867  1.6148 -0.0484
  475TIP3    H2 1432   4.012   4.399   0.210  2.3960 -1.8266 -1.0510
  476TIP3   OH2 1433   4.231   1.696   3.727  0.3467 -0.0122 -0.0971
  476TIP3    H1 1434   4.220   1.747   3.646  1.5621  3.0036  1.4547
  476TIP3    H2 1435   4.322   1.666   3.724 -0.2053 -1.7531 -0.7404
  477TIP3   OH2 1436   4.533   4.956   1.722 -0.2351 -0.0091  0.0470
  477TIP3    H1 1437   4.594   4.996   1.785 -0.6326  0.3206  0.2269
  477TIP3    H2 1438   4.534   4.863   1.744  2.1051 -0.4469 -1.5497
  478TIP3   OH2 1439   4.507   6.006   4.892 -0.2016 -0.0162  0.0476
  478TIP3    H1 1440   4.522   6.007   4.987 -0.6737  0.2623  0.1203
  478TIP3    H2 1441   4.570   5.943   4.859 -0.0774 -0.1634  0.5577
  479TIP3   OH2 1442   5.636   5.339   2.083  0.5575 -0.4101 -0.1240
  479TIP3    H1 1443   5.674   5.425   2.063 -1.8266  0.4962 -1.0693
  479TIP3    H2 1444   5.618   5.300   1.998 -0.7405 -0.7361  0.2854
  480TIP3   OH2 1445   2.071   4.669   4.259 -0.8982  0.0093 -0.6385
  480TIP3    H1 1446   2.060   4.692   4.167  1.7955  0.9028 -0.8233
  480TIP3    H2 1447   2.120   4.743   4.297 -1.3639 -0.6300  1.3602
  481TIP3   OH2 1448   3.559   2.016   0.437  0.0072  0.1413  0.1099
  481TIP3    H1 1449   3.520   1.973   0.361  0.9752 -0.6725  0.0743
  481TIP3    H2 1450   3.492   2.008   0.506  0.5618 -2.4271  0.4531
  482TIP3   OH2 1451   0.238   2.400   3.322 -0.1547 -0.2649  0.1875
  482TIP3    H1 1452   0.169   2.377   3.384 -0.6432 -1.5219 -0.7771
  482TIP3    H2 1453   0.261   2.490   3.344 -0.7315 -0.4732  1.7851
  483TIP3   OH2 1454   4.634   3.147   1.743 -0.8256 -0.5897  0.1532
  483TIP3    H1 1455   4.541   3.151   1.719 -0.6803 -0.6614 -0.4356
  483TIP3    H2 1456   4.645   3.060   1.782 -1.1175 -0.3784  0.7136
  484TIP3   OH2 1457   3.338   3.427   0.893 -0.1597  0.2065 -0.0105
  484TIP3    H1 1458   3.317   3.461   0.980  0.7751  0.9494 -0.0631
  484TIP3    H2 1459   3.431   3.407   0.897 -0.4284 -1.2155 -0.3739
  485TIP3   OH2 1460   3.506   3.319   2.263 -0.5440  0.3410 -0.3274
  485TIP3    H1 1461   3.599   3.318   2.240 -0.6651  0.8543 -0.8457
  485TIP3    H2 1462   3.482   3.411   2.262 -1.2666  0.1525 -1.0261
  486TIP3   OH2 1463   4.148   3.816   3.825 -0.2324 -0.2886 -0.6696
  486TIP3    H1 1464   4.148   3.871   3.903 -2.0360 -1.5462  0.2978
  486TIP3    H2 1465   4.241   3.807   3.803  0.5528 -1.2813  2.4126
  487TIP3   OH2 1466   5.450   3.435   3.162 -0.2975  0.0267  0.1633
  487TIP3    H1 1467   5.377   3.374   3.175  0.7857 -1.5969 -0.9560
  487TIP3    H2 1468   5.508   3.420   3.236 -0.1200 -0.1829 -0.0160
  488TIP3   OH2 1469   0.961   4.204   2.395  0.3201  0.1641 -0.0808
  488TIP3    H1 1470   0.921   4.129   2.352  1.6532  0.6600 -2.4159
  488TIP3    H2 1471   1.008   4.249   2.324 -0.2828  3.1069  1.2299
  489TIP3   OH2 1472   4.406   5.484   4.383 -0.3214 -0.5364  0.1130
  489TIP3    H1 1473   4.485   5.518   4.426 -0.9837 -0.6464  1.4669
  489TIP3    H2 1474   4.369   5.561   4.339 -1.3927  0.4378  2.5224
  490TIP3   OH2 1475   4.738   4.445   0.715 -0.5352 -0.0033 -0.1663
  490TIP3    H1 1476   4.760   4.483   0.800 -1.9056  1.1856 -0.2932
  490TIP3    H2 1477   4.677   4.509   0.676 -0.0904 -0.6184 -1.9481
  491TIP3   OH2 1478   3.250   2.728   3.207  0.2203 -0.0109  0.2819
  491TIP3    H1 1479   3.264   2.763   3.295  1.5615 -1.7600  0.8211
  491TIP3    H2 1480   3.336   2.695   3.180 -0.9222 -2.9143 -0.1246
  492TIP3   OH2 1481   2.077   1.431   1.785 -0.3493 -0.1805  0.6013
  492TIP3    H1 1482   2.118   1.348   1.810  0.1324  0.0958  0.7439
  492TIP3    H2 1483   2.149   1.485   1.754 -0.8558 -0.3012 -0.8535
  493TIP3   OH2 1484   3.447   0.509   3.471  0.1359  0.3949 -0.6413
  493TIP3    H1 1485   3.389   0.576   3.437 -0.6030  0.2404  0.2700
  493TIP3    H2 1486   3.525   0.557   3.499 -0.0257  0.7598 -0.8128
  494TIP3   OH2 1487   2.334   3.920   2.257 -0.2036  0.4379 -0.2573
  494TIP3    H1 1488   2.365   3.884   2.340  0.4420  2.0340  0.2372
  494TIP3    H2 1489   2.243   3.891   2.251  0.3864 -1.5996 -0.1287
  495TIP3   OH2 1490   5.968   4.631   2.356  0.6532  0.0383 -0.8000
  495TIP3    H1 1491   5.947   4.538   2.346  1.1295 -0.1084 -0.4894
  495TIP3    H2 1492   6.043   4.644   2.298 -0.9628  0.8340 -2.8497
  496TIP3   OH2 1493   2.952   4.724   2.006 -0.5615 -0.2925  0.8306
  496TIP3    H1 1494   2.945   4.666   1.930 -2.0144  1.7393 -0.7069
  496TIP3    H2 1495   3.039   4.708   2.041  0.4483 -0.7736 -1.7159
  497TIP3   OH2 1496   2.771   1.085   3.742 -0.7040 -0.0601  0.4184
  497TIP3    H1 1497   2.796   0.994   3.725 -0.1718  0.2311 -0.4305
  497TIP3    H2 1498   2.787   1.097   3.836  0.3034 -0.5149  0.3184
  498TIP3   OH2 1499   0.362   3.535   1.357 -0.0265 -0.3245  0.6372
  498TIP3    H1 1500   0.293   3.542   1.290  0.3524  1.2939  0.3649
  498TIP3    H2 1501   0.439   3.506   1.308 -0.1471 -0.7052  0.6712
  499TIP3   OH2 1502   4.436   4.265   3.506 -0.0571 -0.8185  0.7610
  499TIP3    H1 1503   4.361   4.210   3.481 -0.7908 -0.0679  1.2312
  499TIP3    H2 1504   4.513   4.216   3.477 -0.7476 -1.3648 -0.2120
  500TIP3   OH2 1505   3.953   1.276   1.264  0.8095 -0.0645 -0.2984
  500TIP3    H1 1506   3.999   1.230   1.195  0.4072 -0.6691 -0.1644
  500TIP3    H2 1507   3.879   1.318   1.220  0.2121 -0.9415 -0.1377
  501TIP3   OH2 1508   5.801   0.117   5.079 -0.1852  0.0310 -0.2011
  501TIP3    H1 1509   5.889   0.129   5.114 -0.0996  0.0347 -0.4202
  501TIP3    H2 1510   5.750   0.191   5.114  0.2257  0.7955 -1.1814
  502TIP3   OH2 1511   2.849   1.752   4.732  0.5539  0.2669 -0.2695
  502TIP3    H1 1512   2.795   1.822   4.768 -0.2455 -0.5241  0.0958
  502TIP3    H2 1513   2.804   1.671   4.756  2.0874 -0.4431  0.3959
  503TIP3   OH2 1514   2.357   3.505   4.785  0.1199 -0.1530  0.2874
  503TIP3    H1 1515   2.404   3.540   4.860  0.2208  1.1002 -0.3274
  503TIP3    H2 1516   2.318   3.423   4.816  1.2252 -0.3139  1.3147
  504TIP3   OH2 1517   2.818   2.434   3.079 -0.0286  0.4183  0.2165
  504TIP3    H1 1518   2.736   2.408   3.038  0.5082 -0.7249 -0.1895
  504TIP3    H2 1519   2.886   2.396   3.023  0.7488  0.0359  1.3677
  505TIP3   OH2 1520   4.737   5.847   3.269  0.2763 -0.2086 -0.2318
  505TIP3    H1 1521   4.699   5.774   3.317  1.5912 -0.5681  0.3245
  505TIP3    H2 1522   4.721   5.923   3.324  2.7887 -0.7851  1.4634
  506TIP3   OH2 1523   5.289   3.721   4.107  0.6931 -0.4426  0.0448
  506TIP3    H1 1524   5.332   3.806   4.100 -1.0897  0.4265 -1.1310
  506TIP3    H2 1525   5.292   3.700   4.200  0.1132  1.4849  0.5410
  507TIP3   OH2 1526   1.043   4.475   3.975 -0.1303 -0.1641  0.5787
  507TIP3    H1 1527   0.981   4.450   4.043  0.1770  0.2276  1.0081
  507TIP3    H2 1528   1.011   4.432   3.896 -1.0278  0.1427  0.7677
  508TIP3   OH2 1529   0.455   3.436   1.606 -0.2414  0.6527 -0.5204
  508TIP3    H1 1530   0.499   3.351   1.600 -0.0661  0.6412  0.6606
  508TIP3    H2 1531   0.427   3.455   1.516  1.0992  0.0848 -1.0935
  509TIP3   OH2 1532   1.189   0.361   3.525 -0.5729  0.1521 -0.1451
  509TIP3    H1 1533   1.207   0.414   3.603  0.0587 -1.8673  1.1568
  509TIP3    H2 1534   1.095   0.346   3.527 -0.6964  0.8830 -0.3054
  510TIP3   OH2 1535   0.977   2.852   1.419  0.0762  1.1212 -0.5067
  510TIP3    H1 1536   0.947   2.936   1.383  1.7944  1.2542 -1.7359
  510TIP3    H2 1537   1.072   2.857   1.416  0.2179 -0.7761 -0.3693
  511TIP3   OH2 1538   3.486   3.745   2.934 -0.0023 -0.0326 -0.6073
  511TIP3    H1 1539   3.503   3.787   2.850 -3.8889  0.7447 -1.1847
  511TIP3    H2 1540   3.409   3.790   2.968  0.4971 -1.3819  2.6801
  512TIP3   OH2 1541   5.047   5.839   0.122  0.1804 -0.7261 -0.2799
  512TIP3    H1 1542   5.044   5.894   0.044 -0.8960  1.0801  0.9685
  512TIP3    H2 1543   4.957   5.809   0.134  0.5885 -2.0689 -0.4398
  513TIP3   OH2 1544   6.166   2.796   3.780  0.1722 -0.0435 -0.3195
  513TIP3    H1 1545   6.172   2.879   3.829 -0.3522  0.1147 -0.5154
  513TIP3    H2 1546   6.188   2.729   3.845 -0.0061  0.2039  0.0027
  514TIP3   OH2 1547   4.005   2.964   0.500 -0.5249  0.0259  0.1743
  514TIP3    H1 1548   3.934   2.969   0.563 -0.0804  0.3434  0.6534
  514TIP3    H2 1549   4.048   3.049   0.506  1.0326 -0.7992  1.2327
  515TIP3   OH2 1550   2.754   5.110   2.635  0.6679 -0.3549  0.1289
  515TIP3    H1 1551   2.832   5.153   2.602  0.6353  0.3667  0.9619
  515TIP3    H2 1552   2.686   5.129   2.570  0.4932  1.4158  0.7803
  516TIP3   OH2 1553   5.008   5.778   1.537 -0.4333 -0.2351  0.0493
  516TIP3    H1 1554   5.012   5.796   1.631  2.4563 -0.9084  0.1524
  516TIP3    H2 1555   4.971   5.858   1.499  1.4981  1.4400  1.4844
  517TIP3   OH2 1556   4.871   3.664   5.073 -0.1171  0.3984  0.7217
  517TIP3    H1 1557   4.910   3.645   5.159 -1.0055 -2.5655  0.5846
  517TIP3    H2 1558   4.778   3.643   5.083 -0.5791  1.7070 -0.5163
  518TIP3   OH2 1559   3.074   0.871   2.846 -0.6185 -0.4219  0.4139
  518TIP3    H1 1560   3.110   0.956   2.821 -0.1524 -1.4025 -2.5548
  518TIP3    H2 1561   3.145   0.828   2.894  0.4970 -0.5115 -1.2652
  519TIP3   OH2 1562   1.155   4.634   3.513 -0.0384  0.1145  0.2907
  519TIP3    H1 1563   1.219   4.699   3.483 -0.2480  0.7746  1.1980
  519TIP3    H2 1564   1.208   4.560   3.541  0.6581  1.6211  3.4946
  520TIP3   OH2 1565   0.418   1.851   1.422  0.6149 -0.6745 -0.0171
  520TIP3    H1 1566   0.414   1.810   1.335  2.4524 -0.3620 -0.2945
  520TIP3    H2 1567   0.488   1.916   1.414 -0.6345  0.8946  1.0948
  521TIP3   OH2 1568   4.570   1.419   0.503  0.0295 -0.0625 -0.0088
  521TIP3    H1 1569   4.520   1.405   0.583  0.5878  0.5135  0.4570
  521TIP3    H2 1570   4.505   1.439   0.437 -0.3286  1.5541  0.7797
  522TIP3   OH2 1571   3.773   0.575   1.312 -0.3294  0.1157  0.2584
  522TIP3    H1 1572   3.832   0.590   1.386  0.7293 -1.5868 -0.1746
  522TIP3    H2 1573   3.685   0.580   1.349  0.1838 -1.5822  1.8691
  523TIP3   OH2 1574   3.620   5.062   4.984 -0.0486  0.4758  0.8482
  523TIP3    H1 1575   3.672   5.123   4.932 -0.4713  1.3842  1.4580
  523TIP3    H2 1576   3.676   5.041   5.059 -0.0077  0.3410  0.7787
  524TIP3   OH2 1577   2.306   1.151   0.218 -0.5514  0.1591 -0.1407
  524TIP3    H1 1578   2.384   1.206   0.216 -1.0141  0.8479  0.4406
  524TIP3    H2 1579   2.337   1.067   0.252 -0.2330  0.7267  1.0076
  525TIP3   OH2 1580   3.961   1.434   1.867  0.5422  0.6076 -0.2363
  525TIP3    H1 1581   3.878   1.392   1.889  0.2010  1.8745  1.0027
  525TIP3    H2 1582   4.028   1.371   1.894  0.1503  1.7018  4.0761
  526TIP3   OH2 1583   4.763   1.731   5.115 -0.6752 -0.1519  0.2947
  526TIP3    H1 1584   4.831   1.775   5.064  0.5927 -0.0519  2.0190
  526TIP3    H2 1585   4.713   1.682   5.049 -0.5720  1.7952 -1.3527
  527TIP3   OH2 1586   5.857   4.776   3.213  0.0276 -0.6125  0.1574
  527TIP3    H1 1587   5.864   4.833   3.290 -0.5478  1.7524 -1.4300
  527TIP3    H2 1588   5.764   4.753   3.210  0.2454 -1.6213  0.7492
  528TIP3   OH2 1589   4.922   3.667   0.393  0.5048  0.0055  0.6343
  528TIP3    H1 1590   4.951   3.590   0.345  1.1711  0.6263  0.0230
  528TIP3    H2 1591   4.995   3.728   0.388 -0.8890  1.6580 -1.0344
  529TIP3   OH2 1592   4.147   2.423   2.828  0.4234  0.3335  0.0926
  529TIP3    H1 1593   4.235   2.398   2.857  1.6038  3.5325 -0.4158
  529TIP3    H2 1594   4.115   2.346   2.781  3.3142 -0.6306 -0.4983
  530TIP3   OH2 1595   1.825   4.447   4.815  0.2415  0.4250 -0.2138
  530TIP3    H1 1596   1.837   4.358   4.781  2.9448  0.3520  0.7420
  530TIP3    H2 1597   1.844   4.504   4.741  0.3435  0.2146 -0.3507
  531TIP3   OH2 1598   1.035   0.629   5.087  0.3072  0.1424 -0.2249
  531TIP3    H1 1599   1.021   0.712   5.042  0.8422  0.9181  0.9782
  531TIP3    H2 1600   1.121   0.639   5.128 -1.5825  1.0228  4.0441
  532TIP3   OH2 1601   4.712   4.880   0.541 -0.5197 -0.8812 -0.2449
  532TIP3    H1 1602   4.659   4.954   0.570 -0.0120 -0.7725  0.4006
  532TIP3    H2 1603   4.788   4.919   0.498 -0.7958 -1.0384 -0.8989
  533TIP3   OH2 1604   2.307   2.274   1.109 -0.1151  0.3541 -1.0389
  533TIP3    H1 1605   2.275   2.347   1.056 -2.2875 -0.8103 -1.4403
  533TIP3    H2 1606   2.399   2.265   1.084  0.7261  3.8786  0.1542
  534TIP3   OH2 1607   2.998   4.866   3.421 -0.1020  0.3366  0.0807
  534TIP3    H1 1608   2.985   4.885   3.514 -0.5078  1.4035 -0.1748
  534TIP3    H2 1609   2.935   4.922   3.376  0.9555  0.7966 -0.8939
  535TIP3   OH2 1610   2.993   4.611   3.451  0.1636 -0.0161 -0.0806
  535TIP3    H1 1611   2.979   4.700   3.418  0.6843 -0.0677 -0.4543
  535TIP3    H2 1612   3.020   4.622   3.542  3.3465  0.4158 -0.9720
  536TIP3   OH2 1613   5.936   2.816   1.754 -1.1110  0.0089 -0.5998
  536TIP3    H1 1614   6.011   2.758   1.764 -0.8759  0.3188 -0.5516
  536TIP3    H2 1615   5.908   2.805   1.663 -1.4037 -0.5833 -0.4403
  537TIP3   OH2 1616   5.370   3.917   2.560 -0.8885 -0.4062 -0.1835
  537TIP3    H1 1617   5.375   3.989   2.497 -3.0621 -1.4901 -1.7449
  537TIP3    H2 1618   5.410   3.843   2.516  1.3668 -0.2365  1.4300
  538TIP3   OH2 1619   1.435   5.170   4.427  0.2221 -0.2767  0.5411
  538TIP3    H1 1620   1.439   5.256   4.470 -0.9421 -0.9388  2.0745
  538TIP3    H2 1621   1.405   5.111   4.496  1.0801 -1.9451 -0.4586
  539TIP3   OH2 1622   6.035   4.749   0.642  0.7172 -0.7409  0.4823
  539TIP3    H1 1623   5.970   4.680   0.657  0.9922 -1.3796 -1.0925
  539TIP3    H2 1624   6.033   4.764   0.548  2.1312 -0.0555  0.5316
  540TIP3   OH2 1625   3.774   5.242   1.016  0.2019 -0.6273 -0.0826
  540TIP3    H1 1626   3.701   5.295   1.047  0.1445  0.0304 -1.3016
  540TIP3    H2 1627   3.828   5.229   1.094 -1.2792 -1.2850  0.8878
  541TIP3   OH2 1628   1.340   3.104   5.009 -0.3862  0.5241 -0.0297
  541TIP3    H1 1629   1.348   3.135   5.099 -0.8962 -1.6057  0.8037
  541TIP3    H2 1630   1.246   3.104   4.991 -0.4016 -0.4481 -0.0098
  542TIP3   OH2 1631   0.322   2.283   1.571 -0.0080 -0.3809 -1.0432
  542TIP3    H1 1632   0.307   2.297   1.478  0.6739  1.4313 -0.9357
  542TIP3    H2 1633   0.417   2.296   1.582  0.0261 -1.2823 -0.2108
  543TIP3   OH2 1634   1.811   2.904   4.450 -0.2890  0.3723 -0.2272
  543TIP3    H1 1635   1.857   2.839   4.396 -0.3949  0.6360 -0.6433
  543TIP3    H2 1636   1.859   2.986   4.435  0.1824  0.2901  0.7257
  544TIP3   OH2 1637   6.115   1.864   0.628 -0.0516  0.2107  0.0077
  544TIP3    H1 1638   6.048   1.864   0.696 -1.3362 -1.4222 -1.1743
  544TIP3    H2 1639   6.066   1.860   0.546  1.4766 -0.5778 -0.9126
  545TIP3   OH2 1640   1.236   1.665   4.781  0.9320  0.1289  0.0843
  545TIP3    H1 1641   1.183   1.586   4.771  2.1352 -0.6317 -0.4973
  545TIP3    H2 1642   1.228   1.688   4.874  0.4029 -0.5441  0.2095
  546TIP3   OH2 1643   5.005   1.944   4.213  0.0790  0.0204 -0.5775
  546TIP3    H1 1644   4.984   2.017   4.271 -0.1574 -1.9428  1.9310
  546TIP3    H2 1645   5.048   1.985   4.138 -2.3424  2.9850 -0.5293
  547TIP3   OH2 1646   4.025   2.639   2.541 -0.5031  0.0318 -0.1634
  547TIP3    H1 1647   3.972   2.628   2.462 -1.6582  0.2657  0.5488
  547TIP3    H2 1648   4.106   2.679   2.510 -0.6998 -0.3955 -1.3002
  548TIP3   OH2 1649   1.551   1.564   1.303 -0.2809  0.6367  0.2969
  548TIP3    H1 1650   1.495   1.591   1.231 -2.3789  0.5061  1.7957
  548TIP3    H2 1651   1.531   1.625   1.374  0.6247 -0.1334  1.2507
  549TIP3   OH2 1652   5.599   3.449   2.827  0.2506 -0.4203 -0.1331
  549TIP3    H1 1653   5.621   3.399   2.749 -0.5879  1.7389 -1.8491
  549TIP3    H2 1654   5.504   3.451   2.829  0.2686 -0.0310  0.6669
  550TIP3   OH2 1655   5.160   5.174   4.810  0.5460 -0.2252  0.6055
  550TIP3    H1 1656   5.196   5.206   4.728 -1.5207 -0.2415 -0.3674
  550TIP3    H2 1657   5.131   5.253   4.857 -0.7992 -0.3610  0.0449
  551TIP3   OH2 1658   1.520   1.110   3.446 -0.2072  0.1894 -0.0481
  551TIP3    H1 1659   1.562   1.063   3.374 -0.1909  0.7725 -0.4200
  551TIP3    H2 1660   1.429   1.120   3.418 -0.1129  0.7548 -0.1564
  552TIP3   OH2 1661   0.318   5.246   1.001 -0.2329 -0.3593 -0.3482
  552TIP3    H1 1662   0.330   5.169   1.056 -0.1289  0.3129  0.5911
  552TIP3    H2 1663   0.407   5.278   0.984 -0.3350  1.4158  1.9976
  553TIP3   OH2 1664   1.773   5.016   2.534  0.1037  0.1480 -0.0985
  553TIP3    H1 1665   1.857   5.001   2.491  0.3411  3.0398 -0.8074
  553TIP3    H2 1666   1.790   5.084   2.599 -1.3051 -0.6120  1.1288
  554TIP3   OH2 1667   0.923   3.650   1.337 -0.4698  0.6208  0.2399
  554TIP3    H1 1668   0.909   3.562   1.373  0.5170  0.7221  0.9256
  554TIP3    H2 1669   0.839   3.675   1.299 -0.6085 -0.8553 -0.4889
  555TIP3   OH2 1670   4.959   0.898   5.158  0.1042 -0.3363  0.7752
  555TIP3    H1 1671   5.011   0.909   5.238  2.2133 -0.0223 -0.5520
  555TIP3    H2 1672   5.022   0.870   5.092 -0.8687  2.4917 -1.5828
  556TIP3   OH2 1673   1.230   1.221   4.224  0.1140  0.3298 -0.0045
  556TIP3    H1 1674   1.153   1.274   4.247 -0.2638 -0.3000  0.1956
  556TIP3    H2 1675   1.197   1.131   4.220  0.7630  0.0999 -0.2900
  557TIP3   OH2 1676   5.880   1.502   2.138 -0.3999  0.0936 -0.5628
  557TIP3    H1 1677   5.902   1.420   2.184  0.6255  0.3287 -0.6156
  557TIP3    H2 1678   5.801   1.481   2.089 -2.1268  0.0853  2.0069
  558TIP3   OH2 1679   5.655   1.799   3.914  0.0284  0.1840  0.1833
  558TIP3    H1 1680   5.718   1.815   3.844 -1.2120 -1.1499 -1.2914
  558TIP3    H2 1681   5.600   1.877   3.915  0.6148  0.6069  0.3200
  559TIP3   OH2 1682   2.792   5.763   0.112  0.2191 -1.1102 -0.2501
  559TIP3    H1 1683   2.804   5.731   0.201 -2.4656  0.8370  0.9452
  559TIP3    H2 1684   2.826   5.852   0.113 -0.7737 -0.6990 -0.8304
  560TIP3   OH2 1685   1.395   2.445   4.597  0.3996  0.0812 -0.3178
  560TIP3    H1 1686   1.456   2.372   4.606 -1.8901 -1.7990  0.8112
  560TIP3    H2 1687   1.406   2.495   4.677  0.1579 -0.4932  0.0762
  561TIP3   OH2 1688   0.817   5.270   2.069 -0.3521 -0.1157  0.3588
  561TIP3    H1 1689   0.892   5.212   2.056  0.0314  0.5259 -0.4306
  561TIP3    H2 1690   0.746   5.229   2.020 -0.2986 -0.3346  0.4670
  562TIP3   OH2 1691   0.084   5.159   2.900 -0.6250 -0.3240 -0.2144
  562TIP3    H1 1692   0.072   5.072   2.937 -1.0390 -0.5930 -0.9741
  562TIP3    H2 1693   0.154   5.198   2.953 -1.9590 -0.2605  1.5883
  563TIP3   OH2 1694   4.462   3.262   1.957 -0.2599 -0.2274 -0.0092
  563TIP3    H1 1695   4.490   3.352   1.942  0.3541 -0.3463  0.3946
  563TIP3    H2 1696   4.529   3.208   1.916  0.0559 -0.5106  0.8492
  564TIP3   OH2 1697   1.480   2.643   4.403  0.2517  0.1643  0.1555
  564TIP3    H1 1698   1.456   2.572   4.463  1.5839 -0.0762  0.4311
  564TIP3    H2 1699   1.512   2.713   4.460  1.7550 -0.1577 -0.2559
  565TIP3   OH2 1700   4.523   1.938   1.851 -0.2704 -0.2973 -0.0948
  565TIP3    H1 1701   4.497   1.865   1.908 -0.8305  0.8468  1.1465
  565TIP3    H2 1702   4.442   1.961   1.805 -0.5088  0.6340  0.7740
  566TIP3   OH2 1703   1.486   2.955   1.083  0.7642  0.1084 -0.0377
  566TIP3    H1 1704   1.448   3.030   1.037  0.8898  0.7507  0.8807
  566TIP3    H2 1705   1.563   2.932   1.031  0.7235  0.6174 -0.3317
  567TIP3   OH2 1706   6.152   4.759   3.461 -0.5321 -0.1215  0.3043
  567TIP3    H1 1707   6.165   4.686   3.400  3.3176  1.9623 -1.7621
  567TIP3    H2 1708   6.068   4.796   3.436 -1.3548 -2.2337 -0.3175
  568TIP3   OH2 1709   1.363   2.205   4.384  0.7532  0.1032  0.4010
  568TIP3    H1 1710   1.445   2.244   4.415 -0.3667  0.6772  2.9107
  568TIP3    H2 1711   1.357   2.121   4.430  1.4336 -1.5130 -2.2729
  569TIP3   OH2 1712   3.852   1.108   0.843 -0.4058 -0.4557 -0.4107
  569TIP3    H1 1713   3.811   1.036   0.795 -1.2752  0.1603 -0.6255
  569TIP3    H2 1714   3.796   1.184   0.824  0.4112  0.2445 -0.0820
  570TIP3   OH2 1715   6.146   0.977   3.317  0.3542  0.2182 -0.1172
  570TIP3    H1 1716   6.067   0.928   3.294  1.3314 -0.3407 -2.5511
  570TIP3    H2 1717   6.210   0.909   3.341  0.3166  0.6322  1.2396
  571TIP3   OH2 1718   1.852   3.185   3.163  0.1036  0.2453 -0.4253
  571TIP3    H1 1719   1.944   3.174   3.187  0.3872 -1.6207 -2.1033
  571TIP3    H2 1720   1.807   3.111   3.205 -0.4020  0.4102 -0.6610
  572TIP3   OH2 1721   3.982   1.544   1.124 -0.0416  0.0012  0.4769
  572TIP3    H1 1722   3.900   1.508   1.158 -0.3542 -0.5488 -0.7911
  572TIP3    H2 1723   3.994   1.501   1.039  1.3577  0.3720  0.4530
  573TIP3   OH2 1724   5.460   5.891   1.454  0.3538 -0.2741  0.0208
  573TIP3    H1 1725   5.519   5.964   1.434 -1.8497  1.6353  0.0502
  573TIP3    H2 1726   5.397   5.890   1.381 -0.7795 -0.9020  0.9722
  574TIP3   OH2 1727   1.994   3.979   4.512  0.3544 -0.3933 -0.1482
  574TIP3    H1 1728   2.078   3.933   4.510  0.3567 -0.4105  0.2520
  574TIP3    H2 1729   1.929   3.911   4.527  0.2050 -0.4560 -1.0061
  575TIP3   OH2 1730   1.869   1.413   2.366  0.1685 -0.4518 -0.2084
  575TIP3    H1 1731   1.844   1.358   2.291  1.1450 -0.2876 -0.6765
  575TIP3    H2 1732   1.817   1.493   2.355  0.9322 -0.0629 -1.2361
  576TIP3   OH2 1733   4.265   4.777   0.199  0.3971  0.5302  0.3668
  576TIP3    H1 1734   4.338   4.771   0.262 -0.2283  0.9846  1.1591
  576TIP3    H2 1735   4.200   4.716   0.234  0.6170 -0.3208 -0.6673
  577TIP3   OH2 1736   0.965   1.050   0.346  0.0062 -0.1908  0.1171
  577TIP3    H1 1737   1.019   1.028   0.422 -1.8211 -0.5095  1.4006
  577TIP3    H2 1738   0.959   0.968   0.297 -0.6479 -0.5901  0.8540
  578TIP3   OH2 1739   4.620   1.241   0.877  0.9303 -0.0076  0.2598
  578TIP3    H1 1740   4.644   1.188   0.952  0.0162 -0.6088  0.1443
  578TIP3    H2 1741   4.674   1.207   0.805 -0.9015 -2.0544 -0.2515
  579TIP3   OH2 1742   5.291   4.719   2.221 -0.1230  0.3647  0.2378
  579TIP3    H1 1743   5.299   4.689   2.130  3.2911 -1.7181  1.0252
  579TIP3    H2 1744   5.317   4.811   2.219  1.3698 -0.0453 -0.7482
  580TIP3   OH2 1745   2.801   1.153   4.012 -0.1894  0.3368 -0.1215
  580TIP3    H1 1746   2.881   1.146   4.065 -1.2826  0.6994  1.6632
  580TIP3    H2 1747   2.739   1.095   4.055 -1.1167  0.6071 -1.0600
  581TIP3   OH2 1748   1.041   1.018   4.519 -0.6941  0.8066  0.4818
  581TIP3    H1 1749   1.071   1.106   4.540 -0.3551  1.1519 -1.2640
  581TIP3    H2 1750   1.116   0.962   4.538  0.0084  1.2589 -0.8311
  582TIP3   OH2 1751   5.438   1.029   4.341  0.2490  0.3586 -0.2120
  582TIP3    H1 1752   5.417   1.095   4.407 -0.7623  0.7232 -0.8791
  582TIP3    H2 1753   5.388   0.952   4.366 -0.1905  0.5193 -0.5725
  583TIP3   OH2 1754   5.866   3.638   2.295  0.4847  0.4171 -1.0992
  583TIP3    H1 1755   5.825   3.552   2.290  2.0384 -0.4253 -0.1853
  583TIP3    H2 1756   5.793   3.700   2.288 -1.1295 -1.0019  1.4483
  584TIP3   OH2 1757   5.440   1.542   1.243  0.0229 -0.4795  0.1688
  584TIP3    H1 1758   5.517   1.492   1.218  0.9912 -0.0522  2.1157
  584TIP3    H2 1759   5.373   1.476   1.259 -0.0499 -0.8571 -1.4759
  585TIP3   OH2 1760   2.407   3.418   3.356 -0.3454  0.0946 -0.0921
  585TIP3    H1 1761   2.394   3.472   3.433  0.1526 -1.1374  0.8858
  585TIP3    H2 1762   2.381   3.474   3.283  1.3984  2.1185  0.7406
  586TIP3   OH2 1763   5.179   1.264   2.686  0.1765 -0.0112  0.0173
  586TIP3    H1 1764   5.253   1.249   2.628  1.3799  1.3705  1.1220
  586TIP3    H2 1765   5.190   1.354   2.717 -0.2759 -0.7337  2.5138
  587TIP3   OH2 1766   0.189   4.795   0.830  0.1387 -0.1082 -0.0138
  587TIP3    H1 1767   0.130   4.726   0.800 -1.5955  0.7928  1.1400
  587TIP3    H2 1768   0.167   4.807   0.922  2.2009  0.2357  0.4754
  588TIP3   OH2 1769   4.701   5.927   1.418 -0.0705 -0.0250 -0.1182
  588TIP3    H1 1770   4.664   6.001   1.466  1.8215  0.3539  0.8568
  588TIP3    H2 1771   4.752   5.967   1.348 -0.4105 -0.4886 -0.6427
  589TIP3   OH2 1772   0.516   3.659   2.050 -0.5213  0.6333  0.2259
  589TIP3    H1 1773   0.430   3.684   2.084 -0.5328 -1.1231  1.6264
  589TIP3    H2 1774   0.497   3.603   1.975 -0.5491  1.1646 -0.1758
  590TIP3   OH2 1775   4.346   3.498   4.822 -0.1990 -0.0840  0.3149
  590TIP3    H1 1776   4.363   3.404   4.831 -0.4780 -0.1703 -0.0755
  590TIP3    H2 1777   4.280   3.516   4.889  2.6250  0.6178  3.2035
  591TIP3   OH2 1778   2.448   3.128   3.405  0.1502 -0.0180 -0.0406
  591TIP3    H1 1779   2.543   3.114   3.407  0.0149 -1.0070  1.4119
  591TIP3    H2 1780   2.436   3.219   3.429  0.7847  0.8040 -2.5080
  592TIP3   OH2 1781   3.150   3.310   4.517  0.0554 -0.0579 -0.2166
  592TIP3    H1 1782   3.230   3.362   4.511 -0.7829  1.3172  0.1555
  592TIP3    H2 1783   3.113   3.333   4.602  0.2476 -2.1813  0.5039
  593TIP3   OH2 1784   5.900   3.982   1.931  0.1661  0.6610  0.0944
  593TIP3    H1 1785   5.842   4.058   1.932  1.5359  1.7622  1.8893
  593TIP3    H2 1786   5.916   3.963   2.023  1.1026 -0.8437 -0.3396
  594TIP3   OH2 1787   4.661   4.719   3.974  0.4677 -0.0266  0.3839
  594TIP3    H1 1788   4.643   4.794   4.031  0.3223 -1.1974  1.9254
  594TIP3    H2 1789   4.587   4.661   3.986  0.4559 -0.3297 -0.9983
  595TIP3   OH2 1790   2.162   5.323   2.211 -0.6749 -0.0711  0.0526
  595TIP3    H1 1791   2.102   5.376   2.265 -0.9029 -0.7171  0.4413
  595TIP3    H2 1792   2.116   5.240   2.199 -0.4651 -0.0695 -0.8435
  596TIP3   OH2 1793   4.498   1.603   3.797  0.3344  0.0185  0.0363
  596TIP3    H1 1794   4.489   1.577   3.888 -0.0132  1.2612  0.3728
  596TIP3    H2 1795   4.566   1.544   3.762  1.1941  0.1885  1.3509
  597TIP3   OH2 1796   0.820   3.866   4.627 -0.3610 -0.6227 -0.2594
  597TIP3    H1 1797   0.783   3.865   4.715  0.9988  0.1489  0.3688
  597TIP3    H2 1798   0.816   3.775   4.598 -1.2278 -0.8168  0.4183
  598TIP3   OH2 1799   1.174   5.912   1.866 -0.0975  0.0727 -0.0615
  598TIP3    H1 1800   1.113   5.965   1.815  0.1791 -0.2610 -0.7478
  598TIP3    H2 1801   1.161   5.941   1.956  0.8429  2.1332 -0.5251
  599TIP3   OH2 1802   1.968   2.140   0.086  0.3986  0.2708  0.3225
  599TIP3    H1 1803   1.920   2.194   0.148 -1.5418 -0.4183 -0.5135
  599TIP3    H2 1804   1.929   2.159   0.001  0.4335 -1.5775 -0.1601
  600TIP3   OH2 1805   5.164   2.448   2.012  0.2783  0.0034  0.4455
  600TIP3    H1 1806   5.133   2.395   1.938 -0.7018  3.3916 -1.7886
  600TIP3    H2 1807   5.252   2.415   2.029  0.3985 -1.1812 -2.0067
  601TIP3   OH2 1808   4.237   5.887   3.159 -0.4399  0.5524 -0.4256
  601TIP3    H1 1809   4.149   5.901   3.193  0.0774  0.6061  0.9680
  601TIP3    H2 1810   4.294   5.895   3.236  0.7593  0.3040 -1.2568
  602TIP3   OH2 1811   4.135   3.173   3.943  0.4150 -0.3006 -0.0264
  602TIP3    H1 1812   4.114   3.131   3.860  1.4979  0.9927 -0.9920
  602TIP3    H2 1813   4.051   3.181   3.988 -0.4562  0.4212 -1.7055
  603TIP3   OH2 1814   6.364   5.667   2.954 -0.1388  0.1821 -0.3719
  603TIP3    H1 1815   6.282   5.623   2.979  0.6900 -0.6070  1.0819
  603TIP3    H2 1816   6.382   5.726   3.026 -0.1234  1.4066 -1.3445
  604TIP3   OH2 1817   5.430   1.573   2.826 -0.4688 -0.1951  0.0664
  604TIP3    H1 1818   5.436   1.645   2.889  0.3519 -0.3015  0.1188
  604TIP3    H2 1819   5.392   1.613   2.747  0.4375  0.4219 -0.0735
  605TIP3   OH2 1820   0.723   4.668   4.120 -0.2313  0.2900  0.2364
  605TIP3    H1 1821   0.702   4.709   4.036  1.5024  2.6856  0.8627
  605TIP3    H2 1822   0.779   4.594   4.098  0.6035  1.1851 -0.7375
  606TIP3   OH2 1823   4.397   3.502   2.949 -0.1214 -0.0820  0.3475
  606TIP3    H1 1824   4.348   3.566   3.000 -0.6957 -0.3174  0.1067
  606TIP3    H2 1825   4.337   3.476   2.880  0.5656  0.0641 -0.3160
  607TIP3   OH2 1826   1.085   0.712   1.144 -0.2414 -0.5479  0.6048
  607TIP3    H1 1827   1.125   0.735   1.059  0.5975  0.6520  1.2915
  607TIP3    H2 1828   1.025   0.641   1.123 -0.7770  0.3437 -1.1847
  608TIP3   OH2 1829   2.761   1.820   2.441 -0.4665 -0.5146  0.4241
  608TIP3    H1 1830   2.729   1.879   2.509 -1.1693 -1.2474  0.7397
  608TIP3    H2 1831   2.742   1.865   2.359  0.0552  0.2107  0.6882
  609TIP3   OH2 1832   5.019   4.663   4.762  0.1829  0.0944 -0.7558
  609TIP3    H1 1833   5.079   4.727   4.801  0.5050  0.4054 -1.7307
  609TIP3    H2 1834   4.999   4.603   4.834  1.5896  0.0388 -0.3734
  610TIP3   OH2 1835   3.022   1.102   2.395 -0.8417 -0.1150  0.2218
  610TIP3    H1 1836   2.944   1.069   2.351 -0.4950 -0.2870 -0.2702
  610TIP3    H2 1837   3.038   1.040   2.465  0.7817 -2.0204 -1.6948
  611TIP3   OH2 1838   0.312   2.966   2.163 -0.5255  0.3339 -0.4930
  611TIP3    H1 1839   0.394   2.953   2.114 -0.6536 -1.0501 -0.3745
  611TIP3    H2 1840   0.297   2.883   2.206 -1.6041  0.8326  0.1168
  612TIP3   OH2 1841   6.186   3.393   2.754 -0.0624 -0.2682 -0.4360
  612TIP3    H1 1842   6.106   3.445   2.749  1.9219  3.1292 -0.2241
  612TIP3    H2 1843   6.205   3.368   2.664 -0.9946 -0.5832 -0.5580
  613TIP3   OH2 1844   1.900   4.348   1.284 -0.2796  0.4207 -0.3471
  613TIP3    H1 1845   1.959   4.327   1.357 -1.3880  0.7598  0.6763
  613TIP3    H2 1846   1.854   4.427   1.314 -0.3621  0.8864 -1.6604
  614TIP3   OH2 1847   4.453   4.132   4.796  0.0509 -0.0203 -0.0154
  614TIP3    H1 1848   4.490   4.058   4.846  0.4436 -0.5855 -1.1090
  614TIP3    H2 1849   4.450   4.204   4.859  2.2931 -0.1785  0.3726
  615TIP3   OH2 1850   4.051   2.414   0.908 -0.0488  0.9024  0.5402
  615TIP3    H1 1851   4.131   2.450   0.869 -0.0917  0.6735  0.2391
  615TIP3    H2 1852   4.005   2.373   0.834 -0.8131  1.7001  0.5605
  616TIP3   OH2 1853   5.824   3.082   3.563  0.3334  0.4888  0.5722
  616TIP3    H1 1854   5.874   3.119   3.490  0.1739  1.8075  1.0862
  616TIP3    H2 1855   5.835   2.988   3.555 -1.3837  0.4216 -2.3640
  617TIP3   OH2 1856   0.046   5.894   2.494 -0.5518  0.4152 -0.1857
  617TIP3    H1 1857   0.038   5.978   2.450 -1.0240  0.1523 -0.6012
  617TIP3    H2 1858   0.135   5.864   2.473 -0.4344  0.7364 -0.1544
  618TIP3   OH2 1859   0.765   0.404   4.460 -0.1550 -0.3177 -0.3347
  618TIP3    H1 1860   0.773   0.368   4.548  1.2392 -0.9017 -0.6745
  618TIP3    H2 1861   0.815   0.344   4.405  0.4417  0.9798 -1.2536
  619TIP3   OH2 1862   3.803   0.964   3.915  0.0278 -0.2152 -0.5263
  619TIP3    H1 1863   3.714   0.930   3.904 -0.2609  0.3358  0.0754
  619TIP3    H2 1864   3.828   0.994   3.827 -0.1154 -0.9821 -0.8431
  620TIP3   OH2 1865   0.372   2.459   4.471 -0.2131  0.3338  0.5979
  620TIP3    H1 1866   0.386   2.544   4.431  1.7735 -0.9921 -1.7757
  620TIP3    H2 1867   0.281   2.437   4.450 -0.6374  1.6757  0.9373
  621TIP3   OH2 1868   4.525   1.591   2.412  0.1445  0.1016  0.9927
  621TIP3    H1 1869   4.574   1.607   2.493  0.8486  0.1409  0.5672
  621TIP3    H2 1870   4.536   1.671   2.361 -0.4390  0.1433  0.9313
  622TIP3   OH2 1871   2.574   5.403   0.057 -0.3518  0.1252 -0.2449
  622TIP3    H1 1872   2.607   5.331   0.004 -0.4646 -0.8595  0.9949
  622TIP3    H2 1873   2.488   5.423   0.020 -0.4024 -0.5039 -0.4691
  623TIP3   OH2 1874   6.246   4.904   4.199  0.6296  0.6002  0.4606
  623TIP3    H1 1875   6.206   4.925   4.114 -1.8466 -1.9033  0.8564
  623TIP3    H2 1876   6.198   4.959   4.262 -0.7393 -0.7722  0.6747
  624TIP3   OH2 1877   4.967   2.910   1.764 -0.0187  0.1079 -0.5630
  624TIP3    H1 1878   5.059   2.894   1.744  0.1389  0.7414 -0.3667
  624TIP3    H2 1879   4.968   2.973   1.835 -0.6112  0.9120 -1.2429
  625TIP3   OH2 1880   4.509   3.835   4.443  0.2974 -0.6917 -0.0039
  625TIP3    H1 1881   4.597   3.860   4.471 -1.0989  1.8947  2.6508
  625TIP3    H2 1882   4.503   3.866   4.352  2.6643 -2.7424 -0.9685
  626TIP3   OH2 1883   5.380   5.246   1.040  0.0875 -0.2073 -0.3109
  626TIP3    H1 1884   5.394   5.299   0.961 -1.5483 -0.5726 -0.8736
  626TIP3    H2 1885   5.468   5.223   1.069  0.7295  0.0962 -1.9222
  627TIP3   OH2 1886   0.144   1.739   4.427  0.5147  0.3844 -0.2432
  627TIP3    H1 1887   0.049   1.726   4.437  0.1969  2.0742 -0.8071
  627TIP3    H2 1888   0.176   1.655   4.394 -0.7791 -0.2169 -0.0506
  628TIP3   OH2 1889   2.151   2.324   1.664 -0.1635 -0.2408  0.4019
  628TIP3    H1 1890   2.080   2.367   1.617 -0.0703  0.2411  0.6909
  628TIP3    H2 1891   2.161   2.375   1.745 -0.0094 -0.7722  0.7251
  629TIP3   OH2 1892   3.181   5.247   1.509  0.0227  0.0922 -0.5772
  629TIP3    H1 1893   3.152   5.163   1.545  0.4586  0.3895  0.5185
  629TIP3    H2 1894   3.229   5.224   1.429 -0.7572 -0.6129 -0.8546
  630TIP3   OH2 1895   0.071   4.219   4.879  0.8713 -0.4594  0.0464
  630TIP3    H1 1896   0.020   4.246   4.802  1.0862  1.1683  0.4485
  630TIP3    H2 1897   0.161   4.242   4.857  0.9489 -0.0886  0.7243
  631TIP3   OH2 1898   4.351   1.391   2.725  0.1121 -0.4858 -0.1529
  631TIP3    H1 1899   4.334   1.398   2.631 -0.0160 -2.3141 -0.3080
  631TIP3    H2 1900   4.440   1.423   2.736 -0.6835  2.1284 -0.4637
  632TIP3   OH2 1901   2.646   3.339   3.245  0.4791  0.3428  0.2485
  632TIP3    H1 1902   2.557   3.335   3.280  0.4485  1.7992  0.4086
  632TIP3    H2 1903   2.634   3.347   3.150  0.4392  0.6818  0.2829
  633TIP3   OH2 1904   4.000   0.254   3.184  0.2915  0.8114  0.6774
  633TIP3    H1 1905   3.972   0.231   3.095 -0.1221 -1.2808  1.2927
  633TIP3    H2 1906   3.925   0.299   3.222  0.3264  1.3668  0.1127
  634TIP3   OH2 1907   4.658   5.349   0.628  0.7935 -0.1236  0.0828
  634TIP3    H1 1908   4.645   5.259   0.657  0.7875 -0.0162  0.4290
  634TIP3    H2 1909   4.720   5.343   0.556  0.2423 -0.4695 -0.3643
  635TIP3   OH2 1910   4.681   2.842   2.578  0.0901  0.0739  0.0136
  635TIP3    H1 1911   4.673   2.805   2.667  2.4632 -3.2831 -0.9463
  635TIP3    H2 1912   4.657   2.934   2.588  0.1131 -0.1637  4.1197
  636TIP3   OH2 1913   0.642   3.268   0.421  0.0201  0.2955  0.2656
  636TIP3    H1 1914   0.666   3.308   0.337  3.2153  0.6927  1.2155
  636TIP3    H2 1915   0.652   3.340   0.485 -1.4070 -0.2327  1.1212
  637TIP3   OH2 1916   4.595   1.465   3.103  0.3551 -0.0006  0.2969
  637TIP3    H1 1917   4.534   1.475   3.176  0.4515 -2.6256  0.8392
  637TIP3    H2 1918   4.545   1.491   3.025  0.1834  2.6306  1.1844
  638TIP3   OH2 1919   0.896   2.584   1.420 -0.0393  0.3020  0.4889
  638TIP3    H1 1920   0.926   2.668   1.453  0.3763 -0.8424  3.3194
  638TIP3    H2 1921   0.934   2.577   1.332  2.9793  1.5075  1.5681
  639TIP3   OH2 1922   4.054   5.768   1.430 -0.1614  0.5423 -0.1358
  639TIP3    H1 1923   4.141   5.741   1.402  0.2695  1.7842 -0.0829
  639TIP3    H2 1924   4.011   5.797   1.350 -0.0684  1.1027  0.0119
  640TIP3   OH2 1925   5.764   2.541   5.143  0.3551  0.7417  0.3615
  640TIP3    H1 1926   5.769   2.634   5.165  2.6807  0.8510 -0.4527
  640TIP3    H2 1927   5.827   2.529   5.072 -0.3694 -1.3478  0.0065
  641TIP3   OH2 1928   6.113   1.939   1.456 -0.0924  0.2201  0.0756
  641TIP3    H1 1929   6.060   2.019   1.451  1.1287  1.1007  0.7808
  641TIP3    H2 1930   6.189   1.963   1.508  0.0620 -1.5602  0.7471
  642TIP3   OH2 1931   0.876   5.262   0.909 -0.0575  0.5389 -0.3384
  642TIP3    H1 1932   0.902   5.180   0.868  3.3564  1.2712  0.0076
  642TIP3    H2 1933   0.847   5.317   0.836 -2.3451 -0.8793 -0.5672
  643TIP3   OH2 1934   1.965   4.300   1.000 -0.9060  0.1456 -0.0729
  643TIP3    H1 1935   2.029   4.232   0.976 -0.4513  0.6637 -0.3450
  643TIP3    H2 1936   1.941   4.279   1.090  0.9552  0.9246  0.6558
  644TIP3   OH2 1937   5.119   0.748   1.182 -0.4596 -0.1669 -0.4479
  644TIP3    H1 1938   5.076   0.663   1.172 -0.7270 -0.0510 -0.3054
  644TIP3    H2 1939   5.200   0.740   1.133 -1.3324  0.1106 -2.0135
  645TIP3   OH2 1940   0.357   0.595   0.423 -1.0296  0.5339 -0.1898
  645TIP3    H1 1941   0.339   0.643   0.504 -1.6486  0.5501 -0.3294
  645TIP3    H2 1942   0.277   0.546   0.406 -0.3138 -0.7941  0.1063
  646TIP3   OH2 1943   5.865   0.451   0.947  0.1262  0.2395 -0.0096
  646TIP3    H1 1944   5.923   0.515   0.988  0.8395 -0.1697 -0.3446
  646TIP3    H2 1945   5.919   0.411   0.878 -1.1116  1.1135 -1.5511
  647TIP3   OH2 1946   2.006   1.438   1.103 -0.4359 -0.0189  0.1297
  647TIP3    H1 1947   2.091   1.412   1.068 -0.9388 -1.0488 -0.3664
  647TIP3    H2 1948   1.959   1.475   1.028 -0.0586  1.5528  0.6339
  648TIP3   OH2 1949   3.662   2.909   0.539 -0.8307 -0.3422 -0.5617
  648TIP3    H1 1950   3.619   2.846   0.482  0.2369 -1.7699  0.1557
  648TIP3    H2 1951   3.617   2.992   0.521 -0.9247 -0.8488 -3.0142
  649TIP3   OH2 1952   2.035   5.457   4.110 -0.5743  0.1788  0.4218
  649TIP3    H1 1953   2.103   5.489   4.050  1.5499 -1.5527  1.7633
  649TIP3    H2 1954   2.015   5.533   4.165 -0.1137  0.8646 -0.3324
  650TIP3   OH2 1955   5.301   3.571   2.750  0.2084  0.1252  0.4964
  650TIP3    H1 1956   5.324   3.585   2.842  1.8370 -1.6213  0.4147
  650TIP3    H2 1957   5.383   3.582   2.702 -0.2208 -0.8288 -0.5198
  651TIP3   OH2 1958   2.752   5.902   4.258  0.3304  0.4964  0.5142
  651TIP3    H1 1959   2.776   5.857   4.339  2.4907  1.4355  0.4674
  651TIP3    H2 1960   2.704   5.980   4.287  1.8742  1.3055  0.9850
  652TIP3   OH2 1961   4.842   4.511   3.378 -0.1400  0.0564 -0.2863
  652TIP3    H1 1962   4.771   4.538   3.320 -0.2926  0.0725 -0.0917
  652TIP3    H2 1963   4.801   4.450   3.439 -0.0197  0.1767 -0.0831
  653TIP3   OH2 1964   2.474   5.756   4.460 -0.5818 -0.1017 -0.3146
  653TIP3    H1 1965   2.563   5.788   4.475 -1.4096  4.0190 -2.6729
  653TIP3    H2 1966   2.486   5.669   4.420  2.1316 -0.9158  1.9804
  654TIP3   OH2 1967   1.108   5.191   3.516  0.2285  0.0081  0.3996
  654TIP3    H1 1968   1.073   5.102   3.522 -0.1769 -0.0071 -1.3482
  654TIP3    H2 1969   1.036   5.242   3.477  1.3781  0.4432 -1.2805
  655TIP3   OH2 1970   5.353   4.424   0.619  0.3667  0.0988  0.6141
  655TIP3    H1 1971   5.307   4.484   0.560  0.4994  1.4875  1.8614
  655TIP3    H2 1972   5.323   4.337   0.593  1.3244  0.5032 -2.3096
  656TIP3   OH2 1973   1.786   2.252   0.554  0.1619  0.1195 -0.2132
  656TIP3    H1 1974   1.741   2.168   0.550  1.0096 -0.5987  2.9498
  656TIP3    H2 1975   1.846   2.245   0.628  1.4981  2.9585 -0.8507
  657TIP3   OH2 1976   5.329   2.676   1.998  0.0864 -0.2812  0.0745
  657TIP3    H1 1977   5.273   2.609   2.037  0.0918 -0.2040  0.2175
  657TIP3    H2 1978   5.334   2.653   1.906 -0.0453 -0.3840  0.0932
  658TIP3   OH2 1979   1.824   5.673   4.832 -0.4264 -0.2825  0.2180
  658TIP3    H1 1980   1.848   5.685   4.924 -0.9621 -0.5915  0.4003
  658TIP3    H2 1981   1.754   5.607   4.833 -1.1183  0.4204 -0.3186
  659TIP3   OH2 1982   3.654   0.704   2.852 -0.4177  0.3302 -0.3143
  659TIP3    H1 1983   3.628   0.612   2.858  1.3042 -0.1425  0.3593
  659TIP3    H2 1984   3.613   0.735   2.771 -0.4502 -1.2112 -0.9293
  660TIP3   OH2 1985   5.912   1.573   4.756 -0.3231 -0.1594  0.1458
  660TIP3    H1 1986   5.940   1.575   4.665  0.5470 -0.2285  0.3988
  660TIP3    H2 1987   5.952   1.650   4.796 -0.2217 -0.4376  0.5973
  661TIP3   OH2 1988   1.382   0.294   4.804  0.2009 -0.3384 -0.2487
  661TIP3    H1 1989   1.421   0.265   4.722  0.1829  0.2789 -0.4865
  661TIP3    H2 1990   1.390   0.219   4.863 -1.5841 -1.5149 -1.4034
  662TIP3   OH2 1991   5.134   4.364   0.319 -0.1622  0.1098  0.9614
  662TIP3    H1 1992   5.157   4.436   0.261  0.1020 -0.4637  0.3382
  662TIP3    H2 1993   5.076   4.403   0.384 -1.3562  0.5397 -0.3200
  663TIP3   OH2 1994   3.667   2.317   4.128  0.2226 -0.3198  0.2845
  663TIP3    H1 1995   3.630   2.385   4.184 -1.4034 -0.0817 -1.0150
  663TIP3    H2 1996   3.762   2.330   4.134  0.0116  0.8989  1.4527
  664TIP3   OH2 1997   3.052   3.599   2.515 -0.3965 -0.0096 -0.6046
  664TIP3    H1 1998   3.055   3.529   2.580 -0.6107  0.2423 -0.3140
  664TIP3    H2 1999   2.962   3.631   2.519 -0.2553  0.3988 -0.6027
  665TIP3   OH2 2000   2.444   3.536   1.756  0.4375 -0.0450 -0.3721
  665TIP3    H1 2001   2.360   3.533   1.711  0.1126  2.1110 -0.0302
  665TIP3    H2 2002   2.481   3.621   1.732  2.3075 -0.7293 -0.1141
  666TIP3   OH2 2003   5.226   5.895   1.328  0.0286  0.3902 -0.1139
  666TIP3    H1 2004   5.233   5.886   1.233 -2.1660 -1.1719 -0.2035
  666TIP3    H2 2005   5.133   5.879   1.346  0.7956 -1.7624  2.5015
  667TIP3   OH2 2006   0.026   1.444   3.502 -0.6995 -0.4821  0.0654
  667TIP3    H1 2007  -0.006   1.410   3.586  0.6964  0.7032  1.1401
  667TIP3    H2 2008   0.090   1.378   3.473 -1.1284 -0.8574 -0.0429
  668TIP3   OH2 2009   2.919   3.572   1.785  0.4460  0.5887 -0.1848
  668TIP3    H1 2010   2.967   3.490   1.771 -0.2913  0.5114 -2.6986
  668TIP3    H2 2011   2.887   3.565   1.875 -1.2479 -2.8230 -0.8796
  669TIP3   OH2 2012   3.633   3.179   1.873  0.2127 -0.5497  0.3801
  669TIP3    H1 2013   3.684   3.213   1.947 -0.3392  3.1174 -0.6940
  669TIP3    H2 2014   3.542   3.195   1.897  0.0264  0.7502 -1.0356
  670TIP3   OH2 2015   5.374   3.051   1.204  0.1605  0.4422 -0.0736
  670TIP3    H1 2016   5.346   2.960   1.197 -1.0153  0.4615  2.7628
  670TIP3    H2 2017   5.355   3.074   1.295  1.1680  3.2945 -0.4941
  671TIP3   OH2 2018   1.851   2.734   1.088  0.0433  0.0258  0.2841
  671TIP3    H1 2019   1.884   2.646   1.070 -0.1317 -0.1311  0.7197
  671TIP3    H2 2020   1.826   2.732   1.180  1.2184  0.8988  0.6558
  672TIP3   OH2 2021   2.006   0.873   4.375  0.6725  0.0016  0.2112
  672TIP3    H1 2022   1.991   0.907   4.463 -0.4176 -0.1059  0.0834
  672TIP3    H2 2023   1.936   0.808   4.362  0.2124  0.7074 -1.0710
  673TIP3   OH2 2024   0.081   3.286   4.243  0.1474  0.0085  0.5583
  673TIP3    H1 2025   0.082   3.191   4.256  5.8099 -0.2888  0.2535
  673TIP3    H2 2026   0.069   3.297   4.149 -0.7343 -0.3524  0.6183
  674TIP3   OH2 2027   0.325   0.233   1.314 -0.2025 -0.0321  0.1012
  674TIP3    H1 2028   0.247   0.188   1.281 -0.9882  0.5878  1.0527
  674TIP3    H2 2029   0.314   0.235   1.409  0.2158  1.4166  0.1446
  675TIP3   OH2 2030   5.489   5.054   2.683 -0.1262  0.0478  0.4217
  675TIP3    H1 2031   5.492   5.138   2.731 -1.6805  0.5924 -0.3819
  675TIP3    H2 2032   5.412   5.061   2.628  0.2628 -1.5654 -0.3670
  676TIP3   OH2 2033   5.954   2.154   0.557  0.1013 -0.1205 -0.4987
  676TIP3    H1 2034   5.971   2.077   0.503  2.2777  0.0411 -0.1406
  676TIP3    H2 2035   5.980   2.229   0.503 -1.4349  0.3740 -0.6244
  677TIP3   OH2 2036   2.999   4.324   3.091 -0.0059 -0.1478  0.4919
  677TIP3    H1 2037   2.904   4.313   3.097  0.1025 -0.9721  0.8011
  677TIP3    H2 2038   3.028   4.332   3.182  0.1752  0.5159  0.3765
  678TIP3   OH2 2039   1.863   5.783   5.086  0.2860 -0.2269 -0.1947
  678TIP3    H1 2040   1.863   5.868   5.041 -2.4190 -0.4866 -0.8896
  678TIP3    H2 2041   1.771   5.769   5.110  0.3803 -3.5396 -1.2608
  679TIP3   OH2 2042   5.173   4.617   0.205  0.4541  0.1645 -0.1205
  679TIP3    H1 2043   5.231   4.671   0.258 -0.1568 -0.8962  1.7357
  679TIP3    H2 2044   5.087   4.658   0.216  0.0878 -0.8179  0.8526
  680TIP3   OH2 2045   5.481   2.092   3.804 -0.1495 -0.4554 -0.7143
  680TIP3    H1 2046   5.546   2.139   3.752 -0.0750  0.3343  0.0641
  680TIP3    H2 2047   5.420   2.160   3.833 -0.9649 -1.0888 -0.8937
  681TIP3   OH2 2048   0.201   2.400   1.770 -0.4085 -0.2360 -0.1614
  681TIP3    H1 2049   0.217   2.340   1.697  0.0997 -1.1938  0.7037
  681TIP3    H2 2050   0.255   2.365   1.841 -0.9350  0.6426  0.6890
  682TIP3   OH2 2051   0.932   1.210   3.890  0.3490  0.1803  0.0351
  682TIP3    H1 2052   0.971   1.279   3.836 -1.5141  0.2769 -1.2936
  682TIP3    H2 2053   0.993   1.137   3.883  1.8415  1.3160  0.6135
  683TIP3   OH2 2054   3.324   0.854   0.711 -0.1264 -0.1613  0.3022
  683TIP3    H1 2055   3.376   0.925   0.673 -0.5293  0.3285  0.6606
  683TIP3    H2 2056   3.309   0.794   0.638  0.4709 -0.0373  0.0672
  684TIP3   OH2 2057   1.964   3.497   0.125 -1.1183 -0.3675  0.1555
  684TIP3    H1 2058   1.868   3.501   0.121 -1.1086  0.4715  0.5523
  684TIP3    H2 2059   1.988   3.442   0.051 -1.9220 -0.7829  0.1906
  685TIP3   OH2 2060   4.166   3.725   2.986  0.6578  0.2358 -0.7276
  685TIP3    H1 2061   4.096   3.689   2.932  0.8749 -1.0910 -0.1693
  685TIP3    H2 2062   4.138   3.709   3.076  1.0864  0.8768 -0.4675
  686TIP3   OH2 2063   0.931   3.206   3.456 -0.6365 -0.0419  0.3317
  686TIP3    H1 2064   0.971   3.142   3.514 -0.4247  0.9954  1.3557
  686TIP3    H2 2065   0.848   3.228   3.498 -1.5810 -0.9854 -0.9587
  687TIP3   OH2 2066   0.033   4.747   2.782 -0.0657 -0.4867 -0.1735
  687TIP3    H1 2067   0.040   4.773   2.691 -2.1188  1.9048  0.2507
  687TIP3    H2 2068  -0.044   4.689   2.784 -1.0649  0.8070  0.2312
  688TIP3   OH2 2069   3.115   0.694   0.899 -0.1801 -0.6601 -0.0064
  688TIP3    H1 2070   3.123   0.789   0.892 -1.3448 -0.4266  1.2325
  688TIP3    H2 2071   3.139   0.675   0.990 -1.1214 -1.3846  0.1107
  689TIP3   OH2 2072   4.332   2.530   1.730  0.4885 -0.6596 -0.4885
  689TIP3    H1 2073   4.274   2.457   1.754 -0.1786 -0.3726 -1.1711
  689TIP3    H2 2074   4.301   2.557   1.643 -0.7373  1.8431  0.6223
  690TIP3   OH2 2075   1.866   5.157   1.633  0.0591 -0.0224 -0.0598
  690TIP3    H1 2076   1.903   5.087   1.687  0.2260 -0.4278 -0.6843
  690TIP3    H2 2077   1.773   5.138   1.630  0.2869 -1.0610 -1.3978
  691TIP3   OH2 2078   4.813   1.070   2.493 -0.2832 -0.3469 -0.0632
  691TIP3    H1 2079   4.869   1.139   2.456  0.4135 -0.9644 -0.1905
  691TIP3    H2 2080   4.724   1.094   2.467  0.1250 -0.4500 -1.6648
  692TIP3   OH2 2081   2.327   3.498   3.594  0.2873 -0.5412  0.7511
  692TIP3    H1 2082   2.314   3.562   3.664 -0.6676  1.2211 -0.9543
  692TIP3    H2 2083   2.260   3.432   3.609 -0.8314  0.5548  0.7415
  693TIP3   OH2 2084   3.797   4.186   3.365 -0.1515  0.1831  0.1225
  693TIP3    H1 2085   3.718   4.161   3.413 -0.7731  1.2815 -0.3006
  693TIP3    H2 2086   3.835   4.103   3.337 -2.1840 -0.3523 -1.2840
  694TIP3   OH2 2087   4.585   4.541   3.547  0.3428 -0.4474  0.3976
  694TIP3    H1 2088   4.632   4.467   3.587 -0.9838 -0.8003  1.3717
  694TIP3    H2 2089   4.518   4.501   3.493 -0.7387  0.0182  1.3590
  695TIP3   OH2 2090   3.336   3.012   1.676  0.0517  0.0825 -0.0198
  695TIP3    H1 2091   3.296   3.014   1.589 -0.2200  2.4319  0.0924
  695TIP3    H2 2092   3.407   2.949   1.669 -0.2703 -0.1213 -1.8131
  696TIP3   OH2 2093   0.934   5.395   4.292  0.5343 -0.3170  0.1563
  696TIP3    H1 2094   0.981   5.330   4.241  1.6824 -0.8978  1.8550
  696TIP3    H2 2095   0.905   5.460   4.228  2.6236 -0.5569 -1.1240
  697TIP3   OH2 2096   3.556   2.199   2.407 -0.0086 -0.1936 -0.7629
  697TIP3    H1 2097   3.506   2.259   2.351  0.8356  2.4773  1.1592
  697TIP3    H2 2098   3.506   2.117   2.405 -2.7447  1.3637 -1.4098
  698TIP3   OH2 2099   2.837   0.244   0.645  0.4664  0.1492 -0.4606
  698TIP3    H1 2100   2.932   0.239   0.653  0.6181 -1.5526 -2.3186
  698TIP3    H2 2101   2.816   0.335   0.666  2.3032  0.2333  1.3613
  699TIP3   OH2 2102   2.883   3.900   1.075 -0.3116  0.1808  0.2766
  699TIP3    H1 2103   2.953   3.844   1.042 -0.4677 -0.1632  0.5194
  699TIP3    H2 2104   2.868   3.870   1.165 -1.0321 -0.0068  0.1015
  700TIP3   OH2 2105   4.027   4.010   4.881 -0.5481  0.6778  0.8520
  700TIP3    H1 2106   4.022   3.951   4.956 -0.1151  0.2063  0.5193
  700TIP3    H2 2107   4.070   4.088   4.915  0.8588 -0.0431  0.8027
  701TIP3   OH2 2108   1.400   1.641   4.571 -0.2512 -0.0066 -0.5083
  701TIP3    H1 2109   1.478   1.684   4.606 -0.8968  0.7238  0.0791
  701TIP3    H2 2110   1.342   1.630   4.647 -0.0988 -1.9805 -0.6352
  702TIP3   OH2 2111   3.472   0.744   5.050 -0.2653 -0.3732  0.0059
  702TIP3    H1 2112   3.432   0.738   4.963  1.7219  1.0182 -1.0767
  702TIP3    H2 2113   3.553   0.695   5.043  1.4107  2.2169  0.0882
  703TIP3   OH2 2114   6.179   0.711   3.522 -0.2179  0.1202  0.3185
  703TIP3    H1 2115   6.245   0.744   3.462 -1.0728  2.2167  0.4432
  703TIP3    H2 2116   6.096   0.748   3.490 -0.9722 -0.3539  1.6202
  704TIP3   OH2 2117   0.913   2.626   3.975  0.1596  0.0345 -0.2269
  704TIP3    H1 2118   0.936   2.608   4.066  3.1011 -2.7502 -1.3177
  704TIP3    H2 2119   0.969   2.699   3.950 -1.0983  1.2200  0.2653
  705TIP3   OH2 2120   4.690   0.316   3.431 -0.1555 -0.4108 -0.0624
  705TIP3    H1 2121   4.743   0.271   3.365  0.6977 -0.5302  0.6688
  705TIP3    H2 2122   4.696   0.259   3.508 -1.2425 -0.3472  0.0791
  706TIP3   OH2 2123   0.972   4.074   3.691  0.1791  0.1524  0.5556
  706TIP3    H1 2124   0.894   4.055   3.743  0.1996 -1.3287  0.0887
  706TIP3    H2 2125   1.044   4.035   3.740  0.3430 -0.2996 -0.0299
  707TIP3   OH2 2126   1.195   2.660   4.597  0.0783 -0.0790  0.0756
  707TIP3    H1 2127   1.240   2.584   4.561  0.4328 -0.1630  0.6901
  707TIP3    H2 2128   1.171   2.635   4.686  0.0491  0.4669  0.2291
  708TIP3   OH2 2129   1.014   0.665   3.567  0.2944  0.2675  0.1561
  708TIP3    H1 2130   1.081   0.677   3.499  1.4541 -2.4728  0.6496
  708TIP3    H2 2131   1.053   0.600   3.626 -1.2712  1.4706  2.6568
  709TIP3   OH2 2132   1.412   4.009   4.345 -0.1671 -0.5081 -0.2518
  709TIP3    H1 2133   1.366   4.037   4.424  0.0487 -0.5216 -0.1217
  709TIP3    H2 2134   1.376   3.922   4.326  0.7352 -1.0799  0.5877
  710TIP3   OH2 2135   0.895   4.601   1.962 -0.1378  0.2668  0.1683
  710TIP3    H1 2136   0.842   4.610   2.041  0.4614 -2.0417  0.9249
  710TIP3    H2 2137   0.836   4.563   1.897 -0.2173  0.6280  0.0314
  711TIP3   OH2 2138   5.311   3.038   0.672  0.0214  0.8399 -0.2139
  711TIP3    H1 2139   5.358   2.984   0.736 -2.1556 -0.8411  0.0655
  711TIP3    H2 2140   5.254   3.094   0.724  0.3852  1.6104 -0.6196
  712TIP3   OH2 2141   3.265   2.482   0.871  0.3908 -0.0365  0.0429
  712TIP3    H1 2142   3.318   2.561   0.860  0.2498  0.3411  1.7982
  712TIP3    H2 2143   3.204   2.504   0.942 -0.9566 -1.0708 -0.7382
  713TIP3   OH2 2144   1.931   1.581   3.338 -0.8965 -0.5860 -0.2448
  713TIP3    H1 2145   1.851   1.541   3.302 -0.2242 -0.8079 -1.5659
  713TIP3    H2 2146   1.918   1.675   3.327 -0.5110 -0.6622 -1.5718
  714TIP3   OH2 2147   0.022   3.614   3.654  0.2510  0.5577 -0.4983
  714TIP3    H1 2148   0.044   3.556   3.581 -0.3406  2.0296 -1.8997
  714TIP3    H2 2149  -0.061   3.655   3.628 -0.1765  0.8501  1.1809
  715TIP3   OH2 2150   1.330   3.688   4.593 -0.3423  0.2719 -0.5593
  715TIP3    H1 2151   1.244   3.728   4.607 -0.1977  0.2966  0.3547
  715TIP3    H2 2152   1.312   3.594   4.588 -0.1800 -0.0316  2.5072
  716TIP3   OH2 2153   5.532   2.684   4.937 -0.5042 -0.3996 -0.2271
  716TIP3    H1 2154   5.623   2.697   4.910 -0.5984 -0.2024 -0.4610
  716TIP3    H2 2155   5.537   2.659   5.029 -0.2006 -0.6014 -0.2974
  717TIP3   OH2 2156   0.336   5.198   4.346 -0.2174 -0.6860  0.4299
  717TIP3    H1 2157   0.339   5.103   4.341 -0.0254 -0.6282 -1.3091
  717TIP3    H2 2158   0.321   5.226   4.256  1.7012  0.9998  0.5656
  718TIP3   OH2 2159   3.629   1.515   4.665  0.2888 -0.2499 -0.3350
  718TIP3    H1 2160   3.684   1.592   4.647 -0.6496  0.2571 -1.1469
  718TIP3    H2 2161   3.614   1.476   4.579  0.5296 -1.1936  0.0461
  719TIP3   OH2 2162   2.438   3.002   4.408 -0.0866  0.1695 -0.1253
  719TIP3    H1 2163   2.449   2.909   4.388 -0.1724 -0.4831  2.4176
  719TIP3    H2 2164   2.527   3.036   4.414  0.1543 -0.6320  2.1761
  720TIP3   OH2 2165   1.162   5.327   3.788  0.2606  0.1224 -0.3666
  720TIP3    H1 2166   1.122   5.250   3.746  0.0317  0.0304  0.0170
  720TIP3    H2 2167   1.236   5.292   3.837 -0.4010  0.0087  0.5746
  721TIP3   OH2 2168   4.921   1.282   0.387  0.6363  0.5982  0.3627
  721TIP3    H1 2169   4.985   1.226   0.342  0.8458  0.7703  0.4437
  721TIP3    H2 2170   4.898   1.348   0.322  1.4126  1.2205  0.7035
  722TIP3   OH2 2171   3.979   1.903   3.323 -0.0654  0.3105  0.1322
  722TIP3    H1 2172   3.894   1.908   3.367 -0.3340  2.2223 -0.4877
  722TIP3    H2 2173   3.977   1.975   3.259 -0.1436 -2.8974 -3.8586
  723TIP3   OH2 2174   5.278   0.473   3.738  0.5099 -0.7481 -0.0601
  723TIP3    H1 2175   5.346   0.406   3.734  1.5087  0.2839 -1.0709
  723TIP3    H2 2176   5.267   0.502   3.648 -0.5755 -0.1974  0.2267
  724TIP3   OH2 2177   3.644   4.360   3.707  0.3520  0.0888 -0.0988
  724TIP3    H1 2178   3.681   4.374   3.794 -0.3244  0.5073  0.1266
  724TIP3    H2 2179   3.697   4.415   3.649  1.0106 -0.4401 -0.0102
  725TIP3   OH2 2180   0.950   4.359   3.728 -0.2316 -0.4010  0.4008
  725TIP3    H1 2181   0.870   4.396   3.690 -0.7986  0.5476  2.3669
  725TIP3    H2 2182   0.938   4.264   3.722 -1.8575 -0.2872  1.2940
  726TIP3   OH2 2183   1.243   4.831   4.040  0.1514 -0.2783  0.3305
  726TIP3    H1 2184   1.153   4.851   4.064 -0.3132  0.0827 -1.5432
  726TIP3    H2 2185   1.237   4.791   3.953  1.9225  2.2383 -1.0888
  727TIP3   OH2 2186   1.709   5.767   3.414 -0.3628 -0.0707  0.1140
  727TIP3    H1 2187   1.673   5.692   3.462 -0.5429 -1.1497 -1.6005
  727TIP3    H2 2188   1.670   5.844   3.455  0.7164 -0.7959  2.6873
  728TIP3   OH2 2189   5.864   5.363   5.025  0.0561  0.1080 -0.3048
  728TIP3    H1 2190   5.783   5.371   5.076 -0.2577  0.6181 -0.8709
  728TIP3    H2 2191   5.903   5.281   5.054  0.5082  0.9613  1.6682
  729TIP3   OH2 2192   1.783   2.164   4.704  0.1481 -0.9155  0.2295
  729TIP3    H1 2193   1.782   2.226   4.632  0.5952 -0.6369  0.4571
  729TIP3    H2 2194   1.826   2.211   4.776 -0.8629 -0.9584  0.8839
  730TIP3   OH2 2195   6.240   5.351   2.242  0.1618 -0.1870 -0.2120
  730TIP3    H1 2196   6.216   5.269   2.199 -1.4888  0.2709 -0.2157
  730TIP3    H2 2197   6.321   5.330   2.289  1.3308 -1.0314 -2.4764
  731TIP3   OH2 2198   2.631   2.593   4.714  0.0304 -0.4391 -0.0780
  731TIP3    H1 2199   2.622   2.534   4.639 -0.2166  2.8164 -2.8354
  731TIP3    H2 2200   2.600   2.677   4.682  0.3275  1.2605  3.6327
  732TIP3   OH2 2201   0.293   0.709   3.119 -0.2684  0.1195 -1.3264
  732TIP3    H1 2202   0.203   0.684   3.099 -0.7980  0.8722 -0.0130
  732TIP3    H2 2203   0.313   0.662   3.200  0.1804  0.6782 -1.1082
  733TIP3   OH2 2204   0.606   2.081   1.295 -0.0634  0.9205  0.1645
  733TIP3    H1 2205   0.542   2.143   1.329 -1.6428 -0.8033  0.4877
  733TIP3    H2 2206   0.607   2.097   1.200 -0.8284  1.1055  0.1804
  734TIP3   OH2 2207   4.583   2.599   2.404 -0.0022  0.3570 -0.0190
  734TIP3    H1 2208   4.568   2.543   2.480 -1.5882  2.2443  1.1626
  734TIP3    H2 2209   4.617   2.681   2.442  2.0891  0.3028 -1.6554
  735TIP3   OH2 2210   3.463   5.357   2.510 -0.2070  0.3857 -0.0905
  735TIP3    H1 2211   3.463   5.309   2.427 -1.4452 -2.3714  1.3806
  735TIP3    H2 2212   3.376   5.397   2.514 -0.3452  0.0668  0.1105
  736TIP3   OH2 2213   4.121   5.249   4.599  0.3386  0.0673  0.3040
  736TIP3    H1 2214   4.214   5.262   4.583  0.0110  2.9967  0.2338
  736TIP3    H2 2215   4.078   5.288   4.523 -0.9398 -0.2093  0.8604
  737TIP3   OH2 2216   0.045   5.550   0.917 -0.1767 -0.2985 -0.2645
  737TIP3    H1 2217   0.024   5.473   0.970  0.9891  0.3652  1.2379
  737TIP3    H2 2218   0.139   5.564   0.931 -0.4759  1.7386 -0.0208
  738TIP3   OH2 2219   2.924   2.729   1.623 -0.5648 -0.4626 -0.3804
  738TIP3    H1 2220   2.832   2.701   1.631  0.0695 -2.9941 -1.1095
  738TIP3    H2 2221   2.958   2.725   1.713 -0.7538 -1.1481 -0.3332
  739TIP3   OH2 2222   4.227   1.893   0.530  0.0829  0.0401  0.0341
  739TIP3    H1 2223   4.247   1.980   0.565  0.0868  0.0904 -0.0923
  739TIP3    H2 2224   4.284   1.833   0.578  0.7459  0.2121 -0.5229
  740TIP3   OH2 2225   2.949   4.169   3.987  0.3364  0.6464 -0.2855
  740TIP3    H1 2226   2.972   4.234   3.921 -3.4836  2.1505 -0.3388
  740TIP3    H2 2227   2.866   4.199   4.024 -1.1031 -3.5898  0.5220
  741TIP3   OH2 2228   4.150   0.610   1.880  0.1120 -0.2630 -0.0436
  741TIP3    H1 2229   4.200   0.688   1.856  1.1864 -0.7554  0.5421
  741TIP3    H2 2230   4.160   0.552   1.804 -0.8423  0.2268 -0.5575
  742TIP3   OH2 2231   5.885   3.057   4.813 -0.2296 -0.4151  0.5935
  742TIP3    H1 2232   5.895   3.140   4.767 -0.6060 -1.2330 -1.0577
  742TIP3    H2 2233   5.877   3.081   4.905  1.1881  1.2557  0.3234
  743TIP3   OH2 2234   2.580   0.587   2.331  0.8188  0.2077  0.2912
  743TIP3    H1 2235   2.601   0.652   2.265 -1.7282 -0.1782 -0.9886
  743TIP3    H2 2236   2.592   0.503   2.287  1.5235 -0.1450  1.1200
  744TIP3   OH2 2237   3.133   0.991   0.857  0.3208  0.3416  0.1320
  744TIP3    H1 2238   3.067   1.003   0.788  1.0226  2.5256 -0.2436
  744TIP3    H2 2239   3.202   0.940   0.814 -1.2781 -2.5103  0.7082
  745TIP3   OH2 2240   0.113   0.691   3.680  0.1572 -0.5567 -0.4803
  745TIP3    H1 2241   0.100   0.609   3.631  0.3937 -0.3756 -0.8517
  745TIP3    H2 2242   0.204   0.686   3.710 -0.0370 -0.7463  0.0987
  746TIP3   OH2 2243   5.480   0.476   0.276  0.4159 -0.3991  0.4137
  746TIP3    H1 2244   5.573   0.466   0.296  0.6243 -1.8574 -1.0748
  746TIP3    H2 2245   5.479   0.529   0.196  0.0970 -1.8865 -0.6014
  747TIP3   OH2 2246   1.806   0.794   1.449  0.4786  0.5930  0.1517
  747TIP3    H1 2247   1.735   0.820   1.508  0.3013 -1.2330  0.8117
  747TIP3    H2 2248   1.766   0.796   1.362 -0.6767 -1.1649  0.5881
  748TIP3   OH2 2249   5.516   0.717   4.119 -0.8074 -0.3341  0.6382
  748TIP3    H1 2250   5.428   0.703   4.083 -0.3487 -0.5602 -0.4419
  748TIP3    H2 2251   5.527   0.812   4.116 -0.5815 -0.3754 -0.3569
  749TIP3   OH2 2252   3.222   5.306   4.645  0.4197 -0.2535  0.0015
  749TIP3    H1 2253   3.309   5.346   4.641  1.9743 -3.3057 -0.2746
  749TIP3    H2 2254   3.206   5.274   4.556 -0.6909 -0.3050  0.2071
  750TIP3   OH2 2255   6.302   4.673   1.886  0.0663  0.2469 -0.2610
  750TIP3    H1 2256   6.290   4.601   1.825 -0.8628 -0.0813  0.2976
  750TIP3    H2 2257   6.377   4.646   1.940  2.0236  1.2965 -2.2922
  751TIP3   OH2 2258   5.103   0.847   2.912  0.2283  0.0058 -0.2093
  751TIP3    H1 2259   5.039   0.823   2.979  0.5772 -0.2400  0.0430
  751TIP3    H2 2260   5.051   0.861   2.833 -0.0326 -1.2206 -0.2734
  752TIP3   OH2 2261   2.426  -0.017   2.341 -0.0010  0.1574  0.3134
  752TIP3    H1 2262   2.403   0.076   2.337 -1.1462 -0.1103  0.0513
  752TIP3    H2 2263   2.494  -0.023   2.407  0.7496  1.3097 -0.3216
  753TIP3   OH2 2264   0.170   5.330   2.144 -0.2207  0.7374 -0.5265
  753TIP3    H1 2265   0.232   5.393   2.107  1.0817 -0.6181 -0.7550
  753TIP3    H2 2266   0.177   5.343   2.239  0.2242  0.7752 -0.5587
  754TIP3   OH2 2267   5.788   5.339   0.006 -0.6381  0.3807  0.3444
  754TIP3    H1 2268   5.797   5.434   0.017  1.2463  0.4392 -1.2824
  754TIP3    H2 2269   5.876   5.305   0.021 -1.4605 -1.2646  1.8106
  755TIP3   OH2 2270   4.307   2.794   0.228  0.0088  0.0407 -0.0462
  755TIP3    H1 2271   4.272   2.805   0.317  0.0048  0.4551 -0.0961
  755TIP3    H2 2272   4.238   2.829   0.171 -0.2011 -0.6805 -0.2438
  756TIP3   OH2 2273   3.978   5.922   3.258 -1.0563 -0.0113 -0.5342
  756TIP3    H1 2274   3.929   5.883   3.330  0.6833  0.4523  0.9598
  756TIP3    H2 2275   4.015   6.002   3.294 -1.2177  0.9570 -2.3577
  757TIP3   OH2 2276   5.400   2.947   1.919  0.5926  0.5269 -0.5470
  757TIP3    H1 2277   5.337   3.009   1.955 -0.9416 -1.6574  0.7064
  757TIP3    H2 2278   5.403   2.875   1.982  1.4249 -1.2317 -2.4628
  758TIP3   OH2 2279   3.822   1.491   2.625 -0.4219  0.0545  0.3615
  758TIP3    H1 2280   3.808   1.541   2.544  0.4772  0.8439  0.6824
  758TIP3    H2 2281   3.913   1.464   2.620 -0.8897 -1.5771  0.2007
  759TIP3   OH2 2282   5.968   5.799   0.100  0.4694 -0.0276  0.0504
  759TIP3    H1 2283   6.059   5.829   0.096  0.9228 -1.1246  1.2899
  759TIP3    H2 2284   5.948   5.796   0.193 -1.3312  1.5254 -0.2376
  760TIP3   OH2 2285   0.881   4.919   5.041  0.0627 -0.0006  0.1956
  760TIP3    H1 2286   0.898   4.861   5.115  0.8771  0.8509  0.6942
  760TIP3    H2 2287   0.841   4.997   5.079  0.7427  0.5598 -0.2040
  761TIP3   OH2 2288   5.064   3.842   2.439  0.2859 -0.3071  0.2820
  761TIP3    H1 2289   5.104   3.771   2.490 -0.6233 -0.7461  0.3998
  761TIP3    H2 2290   4.978   3.855   2.479 -0.7629 -1.1480 -1.5874
  762TIP3   OH2 2291   0.517   0.048   0.481  0.1832 -0.1417 -0.3802
  762TIP3    H1 2292   0.495   0.071   0.391 -0.7273  0.5959  0.0071
  762TIP3    H2 2293   0.453  -0.019   0.504  1.0145 -1.0174 -0.5759
  763TIP3   OH2 2294   1.466   1.535   4.297  0.6114 -0.3299  0.2186
  763TIP3    H1 2295   1.442   1.627   4.306  1.9690 -0.0292  0.9882
  763TIP3    H2 2296   1.520   1.532   4.218  0.3023 -0.5326  0.0112
  764TIP3   OH2 2297   0.320   5.449   1.956 -0.6121 -0.0248  0.5319
  764TIP3    H1 2298   0.245   5.447   1.897 -0.9291  2.8513  0.6852
  764TIP3    H2 2299   0.388   5.400   1.909 -1.1016  1.4325 -1.8946
  765TIP3   OH2 2300   4.395   4.724   3.469  0.4088 -0.4758  0.7671
  765TIP3    H1 2301   4.359   4.677   3.394  1.3240 -0.2407  0.1665
  765TIP3    H2 2302   4.319   4.741   3.525 -0.2433 -0.8882  0.0286
  766TIP3   OH2 2303   5.921   0.489   1.927 -0.0830 -0.4101  0.1305
  766TIP3    H1 2304   5.980   0.562   1.946 -1.2222  0.1123  1.9596
  766TIP3    H2 2305   5.969   0.435   1.864  1.1069  1.4934 -0.6905
  767TIP3   OH2 2306   0.933   2.939   1.129 -0.9091  0.2280 -0.9161
  767TIP3    H1 2307   0.882   2.858   1.132 -1.8301  0.6546 -3.1448
  767TIP3    H2 2308   1.023   2.910   1.116 -0.9217 -0.4642  0.3796
  768TIP3   OH2 2309   2.435   3.065   4.121  0.0833  0.1048 -0.3635
  768TIP3    H1 2310   2.431   3.157   4.148 -0.3862 -0.0860  0.2464
  768TIP3    H2 2311   2.472   3.020   4.197 -0.9645 -0.3988 -0.1320
  769TIP3   OH2 2312   4.106   5.852   4.832  0.4925  0.1872  0.1357
  769TIP3    H1 2313   4.086   5.946   4.828 -2.1723 -0.3323 -1.2991
  769TIP3    H2 2314   4.183   5.842   4.776 -0.8578  1.2221 -2.0468
  770TIP3   OH2 2315   4.573   0.119   1.499 -0.2288 -0.8505  0.0940
  770TIP3    H1 2316   4.565   0.210   1.469  0.9638 -1.1426 -1.2364
  770TIP3    H2 2317   4.608   0.127   1.588 -0.1460 -0.0035 -0.0037
  771TIP3   OH2 2318   3.413   1.963   2.374  1.2052 -0.1662  0.7514
  771TIP3    H1 2319   3.428   1.932   2.285 -1.9854  1.4739 -0.5082
  771TIP3    H2 2320   3.412   1.883   2.427  1.9390 -1.2991 -0.8532
  772TIP3   OH2 2321   1.982   1.416   0.639  0.5679  0.5989  0.5676
  772TIP3    H1 2322   1.936   1.390   0.560  2.3305 -3.0882  0.5258
  772TIP3    H2 2323   2.052   1.474   0.608 -0.5156  1.5892 -0.1030
  773TIP3   OH2 2324   2.457   4.415   2.392 -0.1946 -0.0538 -0.0737
  773TIP3    H1 2325   2.511   4.383   2.464 -1.0736  2.0077  1.6076
  773TIP3    H2 2326   2.519   4.449   2.328  0.5711  0.7039  1.0403
  774TIP3   OH2 2327   3.550   3.491   2.851 -0.5577  0.2282  0.5534
  774TIP3    H1 2328   3.493   3.483   2.775 -2.5672 -0.1910  2.0129
  774TIP3    H2 2329   3.550   3.584   2.871  2.6789  0.9061 -1.7952
  775TIP3   OH2 2330   3.650   0.888   3.414  0.1527  0.1481  0.0874
  775TIP3    H1 2331   3.632   0.970   3.459 -1.5201 -0.1627  0.0502
  775TIP3    H2 2332   3.590   0.887   3.340 -0.2953 -1.3554  0.4228
  776TIP3   OH2 2333   2.169   4.368   0.183  0.5363 -0.7363 -0.1340
  776TIP3    H1 2334   2.080   4.353   0.151  0.9729  0.0349 -1.8363
  776TIP3    H2 2335   2.218   4.292   0.155  0.6880 -0.5659 -0.3326
  777TIP3   OH2 2336   5.776   2.781   4.845  0.0539  0.5712 -0.1071
  777TIP3    H1 2337   5.856   2.734   4.869 -0.6523 -0.7184 -0.1688
  777TIP3    H2 2338   5.783   2.865   4.889  1.5586  0.5878 -0.3190
  778TIP3   OH2 2339   1.382   0.134   5.038 -0.0152  0.1893 -0.2833
  778TIP3    H1 2340   1.353   0.200   5.101 -0.5585 -0.0850 -0.2366
  778TIP3    H2 2341   1.458   0.093   5.079  2.4407  2.9483 -1.6919
  779TIP3   OH2 2342   3.712   3.073   3.365 -0.4407 -0.0842  0.4343
  779TIP3    H1 2343   3.765   3.125   3.425 -1.1021  0.1632  0.8192
  779TIP3    H2 2344   3.767   3.061   3.288  0.2640 -0.0427  0.9199
  780TIP3   OH2 2345   1.975   4.594   0.721  0.0758  0.8129 -0.0209
  780TIP3    H1 2346   1.958   4.560   0.633 -1.5908  1.0593  0.1885
  780TIP3    H2 2347   2.067   4.573   0.736  0.8599  2.0745 -2.4079
  781TIP3   OH2 2348   4.799   3.368   4.983 -0.1064  0.1990  0.2358
  781TIP3    H1 2349   4.717   3.413   5.001 -1.2687 -1.1386 -1.4502
  781TIP3    H2 2350   4.828   3.336   5.069 -0.9021  1.3544  0.9654
  782TIP3   OH2 2351   5.593   4.107   0.641  0.0819 -0.6165  0.3860
  782TIP3    H1 2352   5.670   4.132   0.589 -0.4750  0.7828  0.2045
  782TIP3    H2 2353   5.563   4.189   0.680 -0.5836 -1.3563  1.4712
  783TIP3   OH2 2354   4.902   1.556   2.285 -1.2639 -0.2227 -0.2458
  783TIP3    H1 2355   4.988   1.599   2.289 -1.0302 -0.5976 -1.0014
  783TIP3    H2 2356   4.846   1.608   2.343 -0.6195  0.2417 -0.0306
  784TIP3   OH2 2357   0.258   0.383   0.083  0.0372  1.1491 -1.1359
  784TIP3    H1 2358   0.268   0.316   0.015  1.1025 -0.8349  0.8560
  784TIP3    H2 2359   0.347   0.419   0.093 -0.0255  1.1271 -0.4984
  785TIP3   OH2 2360   4.571   2.205   4.272 -0.4837  0.6326 -0.1047
  785TIP3    H1 2361   4.636   2.274   4.256 -0.1535  0.0670 -1.3101
  785TIP3    H2 2362   4.583   2.144   4.199  0.3088 -1.5365  1.7556
  786TIP3   OH2 2363   1.699   0.149   3.887 -0.0430 -0.0449  0.3936
  786TIP3    H1 2364   1.621   0.103   3.857  0.0959  0.5070 -0.8713
  786TIP3    H2 2365   1.759   0.080   3.915 -0.4455 -0.5472  0.0334
  787TIP3   OH2 2366   1.385   5.942   0.403  0.3705 -0.1548 -0.8168
  787TIP3    H1 2367   1.470   5.985   0.395 -0.2596  1.4988  0.6845
  787TIP3    H2 2368   1.378   5.887   0.325  3.0165 -0.7662 -0.7306
  788TIP3   OH2 2369   3.421   1.041   1.791  0.5104 -0.1166 -0.0412
  788TIP3    H1 2370   3.489   1.004   1.734  1.3114 -0.3944  1.0604
  788TIP3    H2 2371   3.459   1.038   1.879  0.1031  2.1723  0.2722
  789TIP3   OH2 2372   2.290   2.251   0.554 -0.0066 -0.6698 -0.1038
  789TIP3    H1 2373   2.252   2.196   0.623  1.0844 -1.3838 -0.0398
  789TIP3    H2 2374   2.351   2.194   0.508  0.1643  0.1287 -0.9096
  790TIP3   OH2 2375   2.147   5.704   0.950  0.1251  0.3357 -0.0591
  790TIP3    H1 2376   2.115   5.689   1.039 -0.9413 -3.1287 -0.8897
  790TIP3    H2 2377   2.232   5.660   0.947 -0.6294 -1.1180 -1.1696
  791TIP3   OH2 2378   2.790   3.196   4.134 -0.2358 -0.0392  0.1723
  791TIP3    H1 2379   2.829   3.237   4.211 -3.3179  0.4838  1.6120
  791TIP3    H2 2380   2.816   3.104   4.140 -0.7349 -0.0975  2.1298
  792TIP3   OH2 2381   4.335   1.479   5.168  0.3922  0.7024  0.0628
  792TIP3    H1 2382   4.367   1.522   5.247  2.7796  1.3157 -1.1294
  792TIP3    H2 2383   4.302   1.550   5.114 -1.5045  0.2544  0.5661
  793TIP3   OH2 2384   1.770   3.588   1.275 -0.1449 -0.6472 -0.1056
  793TIP3    H1 2385   1.795   3.516   1.218 -1.2285 -1.7142  0.7165
  793TIP3    H2 2386   1.707   3.639   1.225  0.4294 -0.4105 -0.5943
  794TIP3   OH2 2387   4.740   1.850   2.100  0.5603 -0.3863 -0.2188
  794TIP3    H1 2388   4.729   1.944   2.111  0.7073 -0.1269 -1.9445
  794TIP3    H2 2389   4.651   1.816   2.092  0.4528  0.2877 -3.9278
  795TIP3   OH2 2390   2.437   1.775   4.967 -0.9145  0.1662  0.1038
  795TIP3    H1 2391   2.429   1.713   5.039 -0.9071  0.0500  0.0052
  795TIP3    H2 2392   2.460   1.721   4.891 -1.7232  0.1760 -0.1627
  796TIP3   OH2 2393   2.397   2.029   0.903 -0.9116  0.5593  0.0939
  796TIP3    H1 2394   2.474   1.996   0.856 -1.2305 -0.0364 -0.0058
  796TIP3    H2 2395   2.425   2.115   0.935  0.8674 -0.8485  2.6590
  797TIP3   OH2 2396   0.667   0.744   4.998 -0.3898  0.2340  0.0222
  797TIP3    H1 2397   0.703   0.791   4.924  1.2787  0.8920  1.1873
  797TIP3    H2 2398   0.715   0.661   5.000 -1.8284 -0.6518 -0.7712
  798TIP3   OH2 2399   1.066   0.515   2.087 -0.4425  0.2952 -0.2768
  798TIP3    H1 2400   1.012   0.489   2.162  0.8194  0.5990  0.7925
  798TIP3    H2 2401   1.134   0.447   2.083  0.8715  1.5170  0.3716
  799TIP3   OH2 2402   1.398   5.262   3.538  0.4006 -0.0597 -0.5732
  799TIP3    H1 2403   1.303   5.261   3.540  0.3852 -0.3205 -1.1842
  799TIP3    H2 2404   1.422   5.338   3.591 -0.1278 -0.2456 -0.0587
  800TIP3   OH2 2405   5.251   3.249   1.995 -0.1389 -0.3395  0.3190
  800TIP3    H1 2406   5.174   3.306   2.002 -0.1560 -0.5180  1.8020
  800TIP3    H2 2407   5.263   3.237   1.900 -1.7875 -0.1225  0.0477
  801TIP3   OH2 2408   5.998   1.898   4.055  0.5409  0.8285 -0.0962
  801TIP3    H1 2409   5.905   1.884   4.075  0.6399  0.9412  0.4606
  801TIP3    H2 2410   6.042   1.823   4.094  0.7523  1.1244  0.2394
  802TIP3   OH2 2411   0.161   4.469   3.809  0.5705  0.3297 -0.3149
  802TIP3    H1 2412   0.220   4.545   3.804  1.5742 -0.2612  1.4046
  802TIP3    H2 2413   0.076   4.502   3.779  0.7118  2.4699  1.3693
  803TIP3   OH2 2414   0.691   3.744   1.227 -0.2959  0.1644 -0.3942
  803TIP3    H1 2415   0.631   3.809   1.263  0.4892  0.6532  0.0553
  803TIP3    H2 2416   0.645   3.708   1.150 -1.8690 -0.6892  0.8891
  804TIP3   OH2 2417   6.187   3.507   2.181  0.1432  0.2806 -0.1140
  804TIP3    H1 2418   6.109   3.455   2.164  0.7447 -1.1987  1.3371
  804TIP3    H2 2419   6.260   3.447   2.164  0.8973  0.9806  0.5505
  805TIP3   OH2 2420   1.766   2.795   4.036  0.2413 -0.6829  0.1851
  805TIP3    H1 2421   1.721   2.731   4.090  0.6939 -1.3600 -0.2269
  805TIP3    H2 2422   1.769   2.756   3.949 -0.4919  0.4023 -0.3447
  806TIP3   OH2 2423   0.715   4.896   3.323  0.5093 -0.2637 -0.2660
  806TIP3    H1 2424   0.768   4.818   3.310 -1.3283 -1.5469 -0.5021
  806TIP3    H2 2425   0.674   4.912   3.238 -0.1749  0.1433  0.1317
  807TIP3   OH2 2426   1.472   3.504   5.019 -0.5951  0.2804 -0.5408
  807TIP3    H1 2427   1.378   3.504   5.039 -0.7523 -1.0224 -1.2044
  807TIP3    H2 2428   1.487   3.421   4.974  0.8288  0.6078 -0.7057
  808TIP3   OH2 2429   2.794   1.275   0.299 -0.5033  0.5454  0.0867
  808TIP3    H1 2430   2.874   1.232   0.269 -1.4213 -1.6994  0.7100
  808TIP3    H2 2431   2.749   1.209   0.353 -1.9684  2.3057  1.1511
  809TIP3   OH2 2432   2.497   4.983   3.677  0.4274  0.6347 -0.9656
  809TIP3    H1 2433   2.418   5.035   3.693  0.2331 -0.2583  1.3574
  809TIP3    H2 2434   2.569   5.037   3.709  0.7730  1.2732 -2.6985
  810TIP3   OH2 2435   5.724   1.788   4.180 -0.4286 -0.2754 -0.1771
  810TIP3    H1 2436   5.731   1.883   4.186  0.0422 -0.3316  0.2352
  810TIP3    H2 2437   5.693   1.772   4.091 -2.5275  0.3392  0.4004
  811TIP3   OH2 2438   2.974   5.250   2.512 -0.3256  0.0932 -0.8629
  811TIP3    H1 2439   3.043   5.195   2.475 -0.1720  0.3294 -0.9266
  811TIP3    H2 2440   2.972   5.327   2.455 -0.7396  0.0206 -0.9470
  812TIP3   OH2 2441   3.413   3.297   4.896 -0.4276 -0.0003  0.1253
  812TIP3    H1 2442   3.420   3.207   4.928  0.3338 -0.3767 -0.9900
  812TIP3    H2 2443   3.489   3.342   4.933 -1.9230  0.8072  2.4030
  813TIP3   OH2 2444   2.013   3.372   3.411  0.0339 -0.2027  0.1477
  813TIP3    H1 2445   2.008   3.283   3.375  0.2886 -0.8755  1.6939
  813TIP3    H2 2446   1.955   3.371   3.487 -0.9662  1.3549 -0.5554
  814TIP3   OH2 2447   4.381   3.477   3.386  0.1118  0.2622  0.3043
  814TIP3    H1 2448   4.325   3.426   3.328  1.2620 -0.8069  0.0760
  814TIP3    H2 2449   4.459   3.497   3.334  0.0241  1.6165  0.6450
  815TIP3   OH2 2450   6.092   3.703   4.662  0.0106 -0.0856 -0.2955
  815TIP3    H1 2451   6.136   3.738   4.739 -1.7555  1.1367  0.2408
  815TIP3    H2 2452   6.009   3.668   4.696  0.2872 -1.8673 -1.3143
  816TIP3   OH2 2453   3.636   2.182   2.719  0.0240  0.5306 -0.1058
  816TIP3    H1 2454   3.703   2.135   2.670 -0.4740  0.1900 -0.4621
  816TIP3    H2 2455   3.626   2.132   2.800 -0.0235  0.4143 -0.1852
  817TIP3   OH2 2456   5.939   4.510   3.571 -0.0476 -0.0775  0.2506
  817TIP3    H1 2457   6.027   4.474   3.582 -0.1504 -0.7780 -0.9941
  817TIP3    H2 2458   5.941   4.593   3.619  1.1810 -0.2378  0.5265
  818TIP3   OH2 2459   2.357   5.398   4.289  0.0099 -0.1741  0.8314
  818TIP3    H1 2460   2.322   5.483   4.264  1.8135  0.7029  1.1967
  818TIP3    H2 2461   2.442   5.416   4.327 -0.5659 -1.9238  3.1986
  819TIP3   OH2 2462   2.885   0.285   1.220  0.3649  0.1025 -0.3578
  819TIP3    H1 2463   2.946   0.359   1.226  0.7047 -0.2303  0.4925
  819TIP3    H2 2464   2.798   0.324   1.225  0.5463  0.4010  1.0401
  820TIP3   OH2 2465   3.472   0.386   3.138  0.3263  0.0247  0.7644
  820TIP3    H1 2466   3.551   0.376   3.192 -1.0565 -0.0026  2.8892
  820TIP3    H2 2467   3.404   0.340   3.186 -1.1497  0.5474 -0.7253
  821TIP3   OH2 2468   3.110   3.785   0.416 -0.1848  0.1650  0.1987
  821TIP3    H1 2469   3.021   3.793   0.383 -0.3091 -1.3131  0.1314
  821TIP3    H2 2470   3.149   3.714   0.364 -0.0200 -1.4572  2.4234
  822TIP3   OH2 2471   1.086   1.779   3.643  0.4874 -0.4062 -0.4368
  822TIP3    H1 2472   1.095   1.873   3.656 -0.1149 -0.4681  0.5743
  822TIP3    H2 2473   1.080   1.768   3.548 -2.0187  0.8700 -0.5133
  823TIP3   OH2 2474   0.229   5.831   1.751  0.3874 -0.0721  0.1901
  823TIP3    H1 2475   0.141   5.823   1.713  0.2164  1.3003  0.2650
  823TIP3    H2 2476   0.287   5.796   1.684 -0.2360 -1.3950  0.3096
  824TIP3   OH2 2477   2.067   1.207   0.789  0.4486 -0.0179 -0.2563
  824TIP3    H1 2478   2.044   1.278   0.728 -1.4409  0.1080  0.5392
  824TIP3    H2 2479   2.025   1.129   0.752  0.7692 -0.3024 -0.0272
  825TIP3   OH2 2480   2.939   3.058   1.619  0.0417  0.9148  0.3184
  825TIP3    H1 2481   2.960   3.068   1.526  0.7437 -1.5452  0.1468
  825TIP3    H2 2482   2.994   2.985   1.648 -0.0480  1.7245  2.7262
  826TIP3   OH2 2483   2.825   4.987   2.039 -0.0626  0.3421 -0.6373
  826TIP3    H1 2484   2.824   5.025   1.951  2.5821  0.6582 -0.6221
  826TIP3    H2 2485   2.877   4.907   2.031 -1.0643 -0.4514  0.3761
  827TIP3   OH2 2486   4.992   5.505   3.735 -0.4694  0.1290  0.3257
  827TIP3    H1 2487   5.006   5.577   3.674 -1.5550 -0.3004 -0.4572
  827TIP3    H2 2488   4.906   5.471   3.712 -0.4407 -0.7155  1.4160
  828TIP3   OH2 2489   4.231   3.713   0.171  0.1003  0.1970 -0.2321
  828TIP3    H1 2490   4.189   3.700   0.257  0.4177  0.1221 -0.0865
  828TIP3    H2 2491   4.186   3.789   0.134  0.1892  0.4385  0.1442
  829TIP3   OH2 2492   2.113   2.767   2.224  0.4921 -0.3992 -0.2937
  829TIP3    H1 2493   2.088   2.851   2.185  1.5740  0.1474  0.1521
  829TIP3    H2 2494   2.198   2.747   2.184  0.2796 -1.2481 -0.3359
  830TIP3   OH2 2495   4.308   0.762   2.912 -0.2012 -0.6188  0.5820
  830TIP3    H1 2496   4.213   0.751   2.904 -0.2172 -1.1762  1.3868
  830TIP3    H2 2497   4.323   0.855   2.895 -0.7741 -0.6932 -0.4740
  831TIP3   OH2 2498   0.712   1.966   4.571  0.2729 -0.6664 -0.3192
  831TIP3    H1 2499   0.716   2.044   4.516 -0.3368 -1.3147 -1.3138
  831TIP3    H2 2500   0.725   1.998   4.660 -0.5277  0.6290 -0.6562
  832TIP3   OH2 2501   0.137   4.421   2.350 -0.2505  0.2122  0.0972
  832TIP3    H1 2502   0.185   4.463   2.279 -1.3334  0.7098 -0.3638
  832TIP3    H2 2503   0.139   4.328   2.328  0.7006  0.1936  0.2212
  833TIP3   OH2 2504   0.385   5.039   1.720  0.4508  0.3371 -0.1688
  833TIP3    H1 2505   0.326   4.969   1.692  1.0849 -0.3100  0.0982
  833TIP3    H2 2506   0.362   5.055   1.811  0.5232  0.2606 -0.1376
  834TIP3   OH2 2507   1.400   5.572   1.569 -0.4996  0.0037  0.4375
  834TIP3    H1 2508   1.321   5.553   1.519  0.4174 -1.8281 -0.4050
  834TIP3    H2 2509   1.470   5.575   1.504  0.1472  1.6906  1.1504
  835TIP3   OH2 2510   5.186   2.141   3.069 -0.0718  0.5108 -0.2140
  835TIP3    H1 2511   5.242   2.217   3.054 -0.0879  0.5723  0.0280
  835TIP3    H2 2512   5.235   2.087   3.130 -0.2673  0.5566 -0.0138
  836TIP3   OH2 2513   3.427   2.583   1.944  0.2630  0.3202  0.0471
  836TIP3    H1 2514   3.513   2.601   1.906  0.0328 -0.8913 -1.0760
  836TIP3    H2 2515   3.434   2.616   2.034  2.5101 -1.3100  0.5615
  837TIP3   OH2 2516   0.317   2.735   1.795 -0.1360  0.0080 -0.1395
  837TIP3    H1 2517   0.367   2.788   1.732 -1.7036  0.2268 -1.2476
  837TIP3    H2 2518   0.383   2.680   1.837  1.5901  2.8124  1.1050
  838TIP3   OH2 2519   4.696   5.394   4.980 -0.3840  0.0317 -0.4446
  838TIP3    H1 2520   4.700   5.365   5.072 -0.5613  0.1381 -0.4022
  838TIP3    H2 2521   4.605   5.421   4.968  0.0249  1.6127 -0.1663
  839TIP3   OH2 2522   6.188   1.836   0.951 -0.1262  0.0113  0.0392
  839TIP3    H1 2523   6.225   1.778   1.018  0.3115  0.5458  0.2699
  839TIP3    H2 2524   6.206   1.791   0.868  0.3097 -0.1322  0.2076
  840TIP3   OH2 2525   4.801   2.555   1.014 -0.2714 -0.0734 -0.5399
  840TIP3    H1 2526   4.768   2.506   1.089  0.3856  1.6675  0.9738
  840TIP3    H2 2527   4.731   2.617   0.993 -1.0483 -1.4797 -2.3536
  841TIP3   OH2 2528   1.450   2.841   5.000 -0.0805 -0.2420 -0.2376
  841TIP3    H1 2529   1.433   2.935   5.006  1.2038  0.1764 -2.2378
  841TIP3    H2 2530   1.545   2.833   5.007  0.3827 -0.8262 -4.4155
  842TIP3   OH2 2531   2.622   3.496   2.229 -0.4573  0.2779  0.2191
  842TIP3    H1 2532   2.564   3.464   2.298  0.2160  0.8145  1.0508
  842TIP3    H2 2533   2.600   3.442   2.152 -0.7889 -0.7383  1.0049
  843TIP3   OH2 2534   1.280   2.863   0.037  0.2986  0.0871 -0.2568
  843TIP3    H1 2535   1.343   2.836  -0.030  3.1087 -1.9114  2.8758
  843TIP3    H2 2536   1.224   2.787   0.050 -0.0066  0.3380 -0.0779
  844TIP3   OH2 2537   2.676   3.013   3.385  0.0864  0.1778 -0.0221
  844TIP3    H1 2538   2.768   3.037   3.394  0.7627 -1.9072 -0.6671
  844TIP3    H2 2539   2.677   2.917   3.381 -2.1907  0.0639  0.7292
  845TIP3   OH2 2540   3.330   1.940   0.588 -0.0973  0.0490  0.0291
  845TIP3    H1 2541   3.254   1.983   0.549  0.1369  0.9562  0.5568
  845TIP3    H2 2542   3.358   1.999   0.657  2.0920  0.5439 -1.1859
  846TIP3   OH2 2543   4.262   5.989   1.569 -0.1363 -0.2353 -0.7703
  846TIP3    H1 2544   4.217   5.963   1.650 -0.7808  0.0198 -1.0356
  846TIP3    H2 2545   4.298   5.908   1.534 -1.6951 -0.7305 -1.3347
  847TIP3   OH2 2546   3.627   3.606   3.135  0.5308  0.6503  0.1901
  847TIP3    H1 2547   3.587   3.663   3.069  1.9469  2.0886  0.5164
  847TIP3    H2 2548   3.691   3.554   3.087  1.3642  1.4981  0.3681
  848TIP3   OH2 2549   5.956   1.788   1.714 -0.3613 -0.2937 -0.3560
  848TIP3    H1 2550   5.974   1.735   1.791  2.8888  2.5517  1.1235
  848TIP3    H2 2551   5.877   1.837   1.736 -1.1275 -1.5777 -0.1321
  849TIP3   OH2 2552   0.240   3.217   2.101  0.2935 -0.1548  0.1731
  849TIP3    H1 2553   0.249   3.131   2.142  0.0540 -0.0594  0.4255
  849TIP3    H2 2554   0.296   3.212   2.023  2.2736  0.3079  1.5005
  850TIP3   OH2 2555   3.721   5.433   4.467 -0.7737 -0.0234 -0.4829
  850TIP3    H1 2556   3.642   5.483   4.449  0.6898  1.8431 -2.1831
  850TIP3    H2 2557   3.748   5.461   4.554 -3.4916 -2.9860  1.5596
  851TIP3   OH2 2558   4.698   4.519   0.408  0.5620  0.5022 -0.6772
  851TIP3    H1 2559   4.610   4.525   0.445  0.5934 -0.2117 -0.4761
  851TIP3    H2 2560   4.689   4.458   0.334  1.3276 -1.4801  0.7807
  852TIP3   OH2 2561   3.344   2.562   4.461  0.3767  0.0379 -0.0165
  852TIP3    H1 2562   3.267   2.506   4.474  1.0095 -0.5916  1.1156
  852TIP3    H2 2563   3.416   2.501   4.449  0.5085  0.5793 -2.7958
  853TIP3   OH2 2564   5.576   5.833   4.573  0.4623  0.2098  0.4517
  853TIP3    H1 2565   5.654   5.794   4.614 -0.6955 -1.8147  0.8740
  853TIP3    H2 2566   5.513   5.841   4.644 -0.7189 -1.0203 -0.4104
  854TIP3   OH2 2567   0.874   4.838   3.638  0.1053  0.5557 -0.3755
  854TIP3    H1 2568   0.908   4.854   3.550  1.7076 -3.6685 -0.7391
  854TIP3    H2 2569   0.846   4.747   3.637 -0.1092  0.4054  3.4416
  855TIP3   OH2 2570   6.080   1.184   2.861  0.1678  0.0771 -0.3905
  855TIP3    H1 2571   6.006   1.244   2.848 -1.1729 -1.1267  1.1667
  855TIP3    H2 2572   6.149   1.239   2.899  0.0317  1.1763 -1.6405
  856TIP3   OH2 2573   3.215   4.381   2.348 -0.3939  0.1669  0.0436
  856TIP3    H1 2574   3.124   4.406   2.331 -0.2282  0.0892 -1.0109
  856TIP3    H2 2575   3.248   4.353   2.263 -0.1838 -2.4646  0.8928
  857TIP3   OH2 2576   5.826   0.475   1.450  0.8431  0.1943  0.4222
  857TIP3    H1 2577   5.895   0.423   1.409  1.7405  1.0470  0.8060
  857TIP3    H2 2578   5.802   0.540   1.384 -0.5787 -0.9120 -0.2185
  858TIP3   OH2 2579   5.660   5.518   1.076  0.3207  0.1911  0.1568
  858TIP3    H1 2580   5.600   5.522   1.150 -0.8159  0.6172 -0.7520
  858TIP3    H2 2581   5.707   5.435   1.087 -0.8475 -0.4329  0.5910
  859TIP3   OH2 2582   4.971   0.670   4.369 -0.2970 -0.6747 -0.4471
  859TIP3    H1 2583   5.039   0.613   4.332  0.3283  0.0529 -0.4353
  859TIP3    H2 2584   4.909   0.610   4.410  0.1416 -1.3695 -0.7891
  860TIP3   OH2 2585   2.388   0.939   2.804 -0.4728 -0.0115  0.5410
  860TIP3    H1 2586   2.358   0.927   2.714  0.1643  1.8196  0.0398
  860TIP3    H2 2587   2.328   0.886   2.856 -0.9061 -1.0527 -0.9388
  861TIP3   OH2 2588   5.669   0.401   3.092 -0.7187 -0.2591  0.5675
  861TIP3    H1 2589   5.726   0.357   3.029 -1.3051 -0.9954  0.5303
  861TIP3    H2 2590   5.597   0.437   3.040 -0.3835  0.5218  0.6330
  862TIP3   OH2 2591   3.192   2.350   4.542  0.0843  0.0727 -0.4497
  862TIP3    H1 2592   3.147   2.313   4.618 -0.5951 -0.6192 -1.1717
  862TIP3    H2 2593   3.243   2.277   4.506  0.9370  0.5665 -0.2845
  863TIP3   OH2 2594   3.845   3.544   4.487  0.3861 -0.2768 -0.2571
  863TIP3    H1 2595   3.879   3.605   4.422  2.0768 -2.1340 -1.2464
  863TIP3    H2 2596   3.864   3.585   4.571 -0.4600  1.4748 -0.8814
  864TIP3   OH2 2597   4.105   5.682   4.178  0.1664  0.2568 -0.2479
  864TIP3    H1 2598   4.064   5.705   4.261  1.3904  2.1767 -0.1304
  864TIP3    H2 2599   4.197   5.668   4.199  0.0801 -1.6886 -0.9001
  865TIP3   OH2 2600   3.732   2.916   4.031  0.5485  0.1239 -0.0014
  865TIP3    H1 2601   3.726   2.821   4.039 -1.1698  0.3171  1.7646
  865TIP3    H2 2602   3.678   2.949   4.102  1.0516  2.4427 -0.6257
  866TIP3   OH2 2603   4.965   5.183   4.166  0.3243  0.0208  0.2021
  866TIP3    H1 2604   5.028   5.178   4.238 -0.0585 -0.6865  0.4982
  866TIP3    H2 2605   4.989   5.263   4.119  0.0370  0.9996  1.6237
  867TIP3   OH2 2606   4.110   5.249   1.550 -0.4895  0.0407  0.8297
  867TIP3    H1 2607   4.162   5.225   1.474 -1.3687  0.0313  0.2163
  867TIP3    H2 2608   4.050   5.316   1.518 -0.8490  0.0659  1.5271
  868TIP3   OH2 2609   5.996   2.153   0.812  0.2155 -0.0362 -0.6930
  868TIP3    H1 2610   6.077   2.191   0.848  0.0517 -0.3562  0.0357
  868TIP3    H2 2611   5.999   2.174   0.719  0.4809  1.1315 -0.4404
  869TIP3   OH2 2612   0.810   0.959   1.479  0.0431  0.4455 -0.0431
  869TIP3    H1 2613   0.876   0.929   1.416  0.4138  1.0179  0.0637
  869TIP3    H2 2614   0.762   1.027   1.432 -0.0424  0.4892  0.1099
  870TIP3   OH2 2615   2.014   2.538   0.740 -0.4741 -0.2667  0.1186
  870TIP3    H1 2616   2.060   2.487   0.673  0.5875 -0.2830  0.8352
  870TIP3    H2 2617   1.932   2.564   0.698 -0.3548 -1.2685 -0.7805
  871TIP3   OH2 2618   4.705   5.113   4.257  0.5066  0.0061  0.0188
  871TIP3    H1 2619   4.644   5.181   4.229  1.7998  1.3930  0.4299
  871TIP3    H2 2620   4.792   5.148   4.236  1.3021 -0.7491  1.8557
  872TIP3   OH2 2621   5.948   0.453   3.538  0.0303 -0.5367  0.1603
  872TIP3    H1 2622   5.946   0.539   3.580  2.2689 -0.7792  0.8884
  872TIP3    H2 2623   5.950   0.473   3.445 -1.0471  0.1166  0.2458
  873TIP3   OH2 2624   2.957   4.916   2.429  0.0679 -0.7440  0.0073
  873TIP3    H1 2625   3.032   4.858   2.422  0.6073 -0.2545  1.4133
  873TIP3    H2 2626   2.990   5.002   2.402  0.0722 -0.4992  0.7618
  874TIP3   OH2 2627   0.942   4.855   0.129  0.1261  0.0601 -0.7137
  874TIP3    H1 2628   0.956   4.765   0.099  1.8602  0.3567 -0.9043
  874TIP3    H2 2629   0.975   4.909   0.058  1.5799  0.8083  0.4843
  875TIP3   OH2 2630   1.331   5.403   2.992  0.1347  0.1409  0.3809
  875TIP3    H1 2631   1.322   5.493   2.962  0.2464 -0.1711 -0.6080
  875TIP3    H2 2632   1.241   5.373   3.006  0.1273  0.6873  1.6007
  876TIP3   OH2 2633   1.621   2.297   0.878 -0.1394 -0.2059  0.1756
  876TIP3    H1 2634   1.708   2.261   0.862 -0.1098 -0.4461  0.8416
  876TIP3    H2 2635   1.613   2.369   0.815  0.3545 -0.4762 -0.2068
  877TIP3   OH2 2636   2.006   5.899   1.403 -0.6061  0.4752  0.2730
  877TIP3    H1 2637   2.019   5.870   1.493  0.0195 -0.0460  0.0253
  877TIP3    H2 2638   2.094   5.919   1.371 -0.7649  0.1814 -0.3715
  878TIP3   OH2 2639   0.553   5.221   2.293 -0.2517 -0.2514 -0.0434
  878TIP3    H1 2640   0.495   5.295   2.314 -2.6839 -1.6042 -1.5560
  878TIP3    H2 2641   0.539   5.206   2.199 -0.0961 -2.8358  0.2845
  879TIP3   OH2 2642   5.246   0.537   2.362  0.4243  0.2889 -0.3259
  879TIP3    H1 2643   5.306   0.558   2.433  0.1537  0.2334 -0.0755
  879TIP3    H2 2644   5.253   0.442   2.353 -2.1851 -0.2879  2.1071
  880TIP3   OH2 2645   1.137   3.529   1.562 -0.2447 -0.1700  0.6252
  880TIP3    H1 2646   1.079   3.454   1.575 -1.4750  0.8339  1.0889
  880TIP3    H2 2647   1.186   3.507   1.483 -0.3893 -1.5730  0.8924
  881TIP3   OH2 2648   5.599   0.311   5.087 -0.0956 -0.4592 -0.3739
  881TIP3    H1 2649   5.543   0.259   5.029 -1.7799  0.8340  0.0122
  881TIP3    H2 2650   5.545   0.327   5.164  0.7814  0.9209 -0.0100
  882TIP3   OH2 2651   1.930   3.281   2.377  0.2821  0.7453  0.5118
  882TIP3    H1 2652   1.892   3.277   2.289  4.2538  2.1352 -1.5260
  882TIP3    H2 2653   1.966   3.194   2.392 -0.2048  0.5707  0.6724
  883TIP3   OH2 2654   5.538   2.563   2.672 -0.5716 -0.4969  0.2173
  883TIP3    H1 2655   5.556   2.630   2.606  0.8037 -1.0416  0.0060
  883TIP3    H2 2656   5.623   2.548   2.714 -1.3443 -0.4424  1.8623
  884TIP3   OH2 2657   6.108   2.693   3.471  0.0128 -0.0991 -0.0943
  884TIP3    H1 2658   6.161   2.731   3.542 -0.1982  1.7716 -0.8780
  884TIP3    H2 2659   6.146   2.606   3.457 -0.2533 -0.7380  2.6144
  885TIP3   OH2 2660   2.728   2.580   0.113 -0.1614 -0.2023 -0.1276
  885TIP3    H1 2661   2.791   2.541   0.174 -1.2941 -0.5226  0.8813
  885TIP3    H2 2662   2.779   2.600   0.035  0.9723 -1.4088  0.2726
  886TIP3   OH2 2663   3.156   4.427   0.990 -0.3679  0.0470 -0.3116
  886TIP3    H1 2664   3.210   4.405   0.914  0.6027 -0.1986  0.4273
  886TIP3    H2 2665   3.198   4.505   1.027 -0.8613  0.1885 -0.0419
  887TIP3   OH2 2666   3.021   3.497   1.455 -0.3003  0.3377  0.2271
  887TIP3    H1 2667   2.948   3.545   1.494  0.4093  1.6539  0.0241
  887TIP3    H2 2668   2.982   3.420   1.415 -1.3253  0.0788  1.6680
  888TIP3   OH2 2669   1.394   5.740   0.216 -0.6980 -0.0545  0.9058
  888TIP3    H1 2670   1.467   5.709   0.269 -0.4086 -1.2267 -0.1301
  888TIP3    H2 2671   1.435   5.776   0.137 -1.2235 -1.9356 -0.3024
  889TIP3   OH2 2672   5.875   3.592   4.292  0.0673  0.3470  0.0690
  889TIP3    H1 2673   5.785   3.558   4.293  0.2105 -0.0594 -0.5450
  889TIP3    H2 2674   5.865   3.687   4.303 -0.4958  0.4045 -0.8229
  890TIP3   OH2 2675   5.792   5.728   3.027 -0.4504 -0.3038 -0.1952
  890TIP3    H1 2676   5.827   5.639   3.036  1.5419  0.4981  0.6419
  890TIP3    H2 2677   5.705   5.724   3.066 -0.8405 -2.1045 -1.1307
  891TIP3   OH2 2678   3.802   5.391   3.812  0.0631  0.1183  0.4947
  891TIP3    H1 2679   3.725   5.445   3.797  1.3357  2.1999  0.9884
  891TIP3    H2 2680   3.788   5.313   3.758 -0.7534  2.0711 -2.3609
  892TIP3   OH2 2681   5.255   4.599   4.067  0.4618 -0.3423 -0.1104
  892TIP3    H1 2682   5.258   4.695   4.059  0.0786 -0.2123  1.0675
  892TIP3    H2 2683   5.247   4.568   3.977 -1.3409  0.8267 -0.4228
  893TIP3   OH2 2684   1.453   0.837   3.248  0.7739  0.5169  0.0531
  893TIP3    H1 2685   1.503   0.917   3.232  1.1932  0.2711  0.1226
  893TIP3    H2 2686   1.514   0.779   3.294  0.4462  0.1899  0.0824
  894TIP3   OH2 2687   2.941   2.892   0.051 -0.6482 -0.1304  0.2797
  894TIP3    H1 2688   2.943   2.812  -0.001 -1.9744  0.8337 -1.3335
  894TIP3    H2 2689   2.901   2.866   0.134 -2.3207 -0.8989 -0.7236
  895TIP3   OH2 2690   5.555   4.808   4.006  0.0195  0.5638  0.4644
  895TIP3    H1 2691   5.583   4.726   3.966 -0.4352 -0.1365  1.5403
  895TIP3    H2 2692   5.546   4.788   4.099 -0.7456  1.6583  0.6480
  896TIP3   OH2 2693   5.101   2.305   2.702  0.5377  0.3181 -0.0158
  896TIP3    H1 2694   5.194   2.325   2.713  0.5025 -0.2480  1.5473
  896TIP3    H2 2695   5.073   2.272   2.787 -0.7095 -1.1530 -0.9433
  897TIP3   OH2 2696   5.661   4.404   0.123  0.2178 -0.9755  0.0110
  897TIP3    H1 2697   5.734   4.364   0.170  0.6523 -0.5744 -0.3138
  897TIP3    H2 2698   5.588   4.402   0.186  0.2890 -2.0479  0.0794
  898TIP3   OH2 2699   0.112   2.906   4.661  0.3384  0.3141  0.4984
  898TIP3    H1 2700   0.201   2.873   4.648  1.0207  1.1415  2.6757
  898TIP3    H2 2701   0.057   2.828   4.655  1.2953 -0.3474  0.0104
  899TIP3   OH2 2702   3.994   5.273   3.963  0.2638 -0.3442 -0.3061
  899TIP3    H1 2703   3.922   5.328   3.931 -0.2255 -0.3658  0.7358
  899TIP3    H2 2704   4.000   5.202   3.899 -0.7846 -0.4581 -0.2943
  900TIP3   OH2 2705   0.391   1.511   3.664  0.1505 -0.1509  0.1181
  900TIP3    H1 2706   0.401   1.499   3.759 -3.0945 -2.1589  0.3317
  900TIP3    H2 2707   0.381   1.423   3.630 -3.5168  0.6912 -1.3820
  901TIP3   OH2 2708   1.844   0.125   3.263  0.1359 -0.0595  0.6319
  901TIP3    H1 2709   1.889   0.119   3.179  0.4682 -1.0133  0.8713
  901TIP3    H2 2710   1.809   0.037   3.279  0.5903 -0.0524  1.7639
  902TIP3   OH2 2711   4.161   5.493   0.086  0.0311 -0.3053  0.3667
  902TIP3    H1 2712   4.252   5.521   0.073  0.5940 -2.2358 -0.0978
  902TIP3    H2 2713   4.116   5.525   0.007  0.4723 -0.0404  0.2135
  903TIP3   OH2 2714   0.495   2.270   4.755  0.3268  0.0538  0.1481
  903TIP3    H1 2715   0.544   2.352   4.758 -2.5317  2.0079 -1.4239
  903TIP3    H2 2716   0.481   2.254   4.662  1.7402 -2.9326  0.3544
  904TIP3   OH2 2717   4.498   3.115   3.341 -0.8412  0.4090  0.1750
  904TIP3    H1 2718   4.473   3.163   3.263  0.0321 -0.3232 -0.5691
  904TIP3    H2 2719   4.443   3.152   3.411 -2.9079 -0.1143 -1.0906
  905TIP3   OH2 2720   5.298   0.198   0.455 -0.5331  0.4266 -0.0291
  905TIP3    H1 2721   5.354   0.255   0.402 -0.2089 -0.0661 -0.2289
  905TIP3    H2 2722   5.351   0.178   0.532 -0.6576  0.4290  0.0565
  906TIP3   OH2 2723   0.784   2.432   0.094 -0.2409 -0.1459 -0.0670
  906TIP3    H1 2724   0.804   2.477   0.012  2.9647 -3.4469 -1.3966
  906TIP3    H2 2725   0.711   2.375   0.072 -1.6629  1.4067  0.4668
  907TIP3   OH2 2726   3.766   1.704   0.506  0.8874  0.2914 -0.2053
  907TIP3    H1 2727   3.829   1.775   0.497  1.0763  0.0293 -1.1253
  907TIP3    H2 2728   3.718   1.704   0.423  0.5939 -0.3698 -0.0431
  908TIP3   OH2 2729   5.888   1.282   0.047 -0.4896 -0.3070 -0.6991
  908TIP3    H1 2730   5.955   1.326  -0.005  0.5590 -0.2880  0.6041
  908TIP3    H2 2731   5.814   1.342   0.046  0.1029  0.4436 -0.8454
  909TIP3   OH2 2732   1.932   2.749   1.977 -0.1156  0.2693  0.0974
  909TIP3    H1 2733   1.964   2.729   1.889  1.4486 -0.7213  0.8389
  909TIP3    H2 2734   1.959   2.839   1.993 -0.5500  0.5079 -0.4842
  910TIP3   OH2 2735   2.430   1.941   4.257  0.0361  0.5926 -0.3819
  910TIP3    H1 2736   2.379   1.875   4.305  2.6159 -1.0123  0.3691
  910TIP3    H2 2737   2.370   1.974   4.190 -1.5606 -2.1349 -0.4381
  911TIP3   OH2 2738   4.072   4.666   4.289 -0.2305 -0.6424 -0.4033
  911TIP3    H1 2739   4.058   4.574   4.266  0.2316 -0.7180 -0.3863
  911TIP3    H2 2740   4.141   4.664   4.355  0.3753 -0.2314 -1.0094
  912TIP3   OH2 2741   0.066   0.849   5.154 -0.0724 -0.4893  0.1682
  912TIP3    H1 2742   0.148   0.850   5.203  0.4650  0.4840 -0.7127
  912TIP3    H2 2743   0.076   0.777   5.093  1.3904  1.3355 -1.9131
  913TIP3   OH2 2744   1.476   0.389   0.580  0.0461 -0.5621  0.2159
  913TIP3    H1 2745   1.527   0.437   0.515  0.0409  1.8930  1.8687
  913TIP3    H2 2746   1.470   0.300   0.546 -0.1489  0.6234 -3.1843
  914TIP3   OH2 2747   0.161   0.210   0.757 -0.1670  0.7351 -0.1115
  914TIP3    H1 2748   0.250   0.205   0.723  0.8457  1.4539  2.2070
  914TIP3    H2 2749   0.147   0.126   0.800  0.6636  1.6645  2.1791
  915TIP3   OH2 2750   5.779   5.618   3.392  0.2765  0.0774  0.5350
  915TIP3    H1 2751   5.744   5.576   3.470  0.3642  1.3897  1.3206
  915TIP3    H2 2752   5.703   5.658   3.350  0.4391  0.7274  0.8375
  916TIP3   OH2 2753   0.894   2.364   1.562 -0.1222  0.0367  0.2041
  916TIP3    H1 2754   0.902   2.449   1.519  0.6606  0.1948  0.6427
  916TIP3    H2 2755   0.918   2.301   1.494 -0.9386  0.1372 -0.1942
  917TIP3   OH2 2756   3.100   3.901   3.339  0.2747  0.0179  0.2212
  917TIP3    H1 2757   3.164   3.913   3.409  0.9618 -0.2479 -0.3522
  917TIP3    H2 2758   3.124   3.817   3.298 -0.8478 -0.4264  0.4250
  918TIP3   OH2 2759   5.564   5.909   4.049  0.3375 -0.5033 -0.1265
  918TIP3    H1 2760   5.518   5.888   4.130 -0.4144 -0.8265 -0.6309
  918TIP3    H2 2761   5.504   5.964   4.000  0.5987 -0.6925 -0.6708
  919TIP3   OH2 2762   4.354   0.631   0.051  0.3864  0.1028  0.3235
  919TIP3    H1 2763   4.339   0.556  -0.006  0.7799  0.3881 -0.1527
  919TIP3    H2 2764   4.388   0.593   0.132 -2.1642 -0.5209  1.2033
  920TIP3   OH2 2765   2.452   3.237   2.646  0.3595 -0.0542  0.1941
  920TIP3    H1 2766   2.447   3.236   2.742 -1.5185 -0.2271  0.1225
  920TIP3    H2 2767   2.369   3.199   2.617 -0.1412  2.1555 -1.5254
  921TIP3   OH2 2768   0.378   1.499   0.090  0.0175  0.8767  0.0784
  921TIP3    H1 2769   0.355   1.586   0.125 -0.7248  0.3373  0.9635
  921TIP3    H2 2770   0.390   1.514  -0.004 -2.7564  1.4482 -0.2704
  922TIP3   OH2 2771   3.447   0.997   5.107 -0.5037 -0.4377 -0.1597
  922TIP3    H1 2772   3.439   0.907   5.074  0.8291 -0.3380 -0.8262
  922TIP3    H2 2773   3.380   1.004   5.175 -0.7336 -1.8807 -0.2117
  923TIP3   OH2 2774   2.104   2.454   2.167  0.3101  0.1255 -0.2483
  923TIP3    H1 2775   2.054   2.431   2.246 -1.8735 -1.0486 -1.8763
  923TIP3    H2 2776   2.121   2.548   2.177 -1.3586  0.3666  0.8780
  924TIP3   OH2 2777   1.697   2.377   1.135 -0.5718 -0.3254  0.4983
  924TIP3    H1 2778   1.789   2.395   1.115 -0.4048  0.1384  1.5939
  924TIP3    H2 2779   1.659   2.351   1.052  0.8859 -1.9740  0.3063
  925TIP3   OH2 2780   5.090   5.862   3.931  0.0296 -0.0430 -0.4824
  925TIP3    H1 2781   5.040   5.936   3.897  0.4445  0.3440 -0.2510
  925TIP3    H2 2782   5.033   5.823   3.997  0.3571  0.8822  0.3549
  926TIP3   OH2 2783   5.561   3.727   4.559 -0.5965 -1.3085 -0.0810
  926TIP3    H1 2784   5.603   3.801   4.602 -0.4650 -0.5630 -1.4226
  926TIP3    H2 2785   5.631   3.664   4.546  0.7719  0.6245 -3.8916
  927TIP3   OH2 2786   0.543   3.208   4.777  0.1697  0.3646 -0.4388
  927TIP3    H1 2787   0.514   3.117   4.788  2.2038 -0.2170  0.5429
  927TIP3    H2 2788   0.462   3.259   4.783 -0.7618 -1.1847  1.6121
  928TIP3   OH2 2789   2.513   4.227   2.651  0.1084 -0.4040 -0.8095
  928TIP3    H1 2790   2.605   4.234   2.676 -0.5720 -2.2123  2.9104
  928TIP3    H2 2791   2.500   4.135   2.631 -1.0763 -0.4016 -0.1914
  929TIP3   OH2 2792   4.375   3.522   1.067  0.7847 -0.1424 -0.1769
  929TIP3    H1 2793   4.345   3.445   1.116 -1.7236  1.0222  0.2605
  929TIP3    H2 2794   4.418   3.486   0.990 -1.2291 -2.0103 -0.5117
  930TIP3   OH2 2795   1.257   4.676   1.804 -0.3040  0.3360 -0.2326
  930TIP3    H1 2796   1.215   4.715   1.728 -0.8554  0.1192 -0.0457
  930TIP3    H2 2797   1.311   4.606   1.768  0.3710  0.9996 -0.5310
  931TIP3   OH2 2798   2.189   3.146   3.063 -0.2599 -0.1277  0.0135
  931TIP3    H1 2799   2.115   3.101   3.023 -0.3938 -0.2201  0.3644
  931TIP3    H2 2800   2.150   3.216   3.114  0.0373  2.1760 -2.6712
  932TIP3   OH2 2801   1.855   0.589   2.781  0.0169  0.0347  1.0387
  932TIP3    H1 2802   1.891   0.503   2.806 -0.3766 -0.5475 -0.3260
  932TIP3    H2 2803   1.912   0.618   2.710 -1.5196 -0.4116 -0.4264
  933TIP3   OH2 2804   4.835   2.455   0.437 -0.6274 -0.5891  0.4524
  933TIP3    H1 2805   4.755   2.486   0.394 -1.5363 -0.9713  1.7817
  933TIP3    H2 2806   4.878   2.536   0.467 -0.7567 -0.3981  0.1252
  934TIP3   OH2 2807   0.623   2.401   2.441 -0.6340  0.0303  0.5102
  934TIP3    H1 2808   0.625   2.330   2.377  0.1942  1.0370 -0.6201
  934TIP3    H2 2809   0.631   2.357   2.526  0.0395 -1.2136 -0.1687
  935TIP3   OH2 2810   5.335   1.355   0.489  0.1933 -0.1448  0.6670
  935TIP3    H1 2811   5.294   1.438   0.467 -0.5793  0.3095  3.4897
  935TIP3    H2 2812   5.413   1.378   0.540  0.4760 -1.1330  0.7118
  936TIP3   OH2 2813   2.510   5.899   4.785  0.6952 -0.1842  0.6263
  936TIP3    H1 2814   2.474   5.903   4.874 -0.7344  0.9401  0.0425
  936TIP3    H2 2815   2.450   5.841   4.739  0.4165  0.6041 -0.0201
  937TIP3   OH2 2816   0.315   2.764   3.172  0.0742 -0.3290 -0.0725
  937TIP3    H1 2817   0.395   2.730   3.132  0.0471  0.4243 -0.7937
  937TIP3    H2 2818   0.317   2.731   3.261  1.4227  0.0382  0.0541
  938TIP3   OH2 2819   3.231   5.665   1.314  0.6468 -0.4436 -0.1049
  938TIP3    H1 2820   3.235   5.761   1.304  0.3619 -0.2771  1.1349
  938TIP3    H2 2821   3.277   5.648   1.396  1.6020 -1.4945 -0.8360
  939TIP3   OH2 2822   6.178   1.922   3.236 -0.1739 -0.2489  0.1871
  939TIP3    H1 2823   6.251   1.928   3.297  0.5396  0.4248 -0.7078
  939TIP3    H2 2824   6.215   1.945   3.151 -1.8660  2.3366  0.0301
  940TIP3   OH2 2825   4.241   1.664   4.018 -0.4222 -0.0004  0.6839
  940TIP3    H1 2826   4.206   1.585   4.060 -3.0166  0.9007  0.4000
  940TIP3    H2 2827   4.217   1.655   3.926 -0.7498  1.1047  0.6467
  941TIP3   OH2 2828   3.516   5.915   2.804 -0.0143 -1.1032  0.2747
  941TIP3    H1 2829   3.455   5.943   2.735 -1.0133 -1.1911  1.1090
  941TIP3    H2 2830   3.552   5.832   2.772 -1.0925 -1.5616  0.2344
  942TIP3   OH2 2831   5.506   0.604   2.124 -0.5321  0.0970 -0.3187
  942TIP3    H1 2832   5.512   0.516   2.160 -0.7083 -0.1862 -0.9637
  942TIP3    H2 2833   5.587   0.647   2.151 -0.2690 -0.3869 -0.3200
  943TIP3   OH2 2834   0.699   4.096   1.256  0.6951 -0.0777  0.2116
  943TIP3    H1 2835   0.681   4.188   1.234  1.3722 -0.1191 -0.5250
  943TIP3    H2 2836   0.621   4.068   1.305 -0.1339  0.4762 -0.7607
  944TIP3   OH2 2837   4.682   1.449   3.653 -0.0643 -0.3928  0.0473
  944TIP3    H1 2838   4.755   1.387   3.651  0.3392 -0.0039  1.5415
  944TIP3    H2 2839   4.709   1.520   3.595  1.4249  0.4338  1.6544
  945TIP3   OH2 2840   1.630   5.650   3.114 -0.0286  0.2884  0.1538
  945TIP3    H1 2841   1.663   5.713   3.178  0.9981 -0.6645  0.5968
  945TIP3    H2 2842   1.696   5.646   3.046 -0.1833 -0.1515  0.0237
  946TIP3   OH2 2843   4.746   4.466   1.942  0.4563 -0.7666 -0.2748
  946TIP3    H1 2844   4.837   4.459   1.972 -0.1271  1.9487  2.7272
  946TIP3    H2 2845   4.694   4.431   2.015 -0.9239  1.0105 -0.3265
  947TIP3   OH2 2846   1.114   4.294   1.691  0.0114 -0.5671 -0.1373
  947TIP3    H1 2847   1.040   4.309   1.632 -0.3754  1.4784  0.7776
  947TIP3    H2 2848   1.079   4.308   1.779  1.5305  0.9108  0.2923
  948TIP3   OH2 2849   5.349   3.236   4.424 -0.1791 -0.2290 -0.0626
  948TIP3    H1 2850   5.300   3.297   4.369  0.5182  1.1946  0.8506
  948TIP3    H2 2851   5.291   3.220   4.498 -0.2088 -0.3977 -0.1212
  949TIP3   OH2 2852   1.490   2.819   1.595  0.1907  0.6262 -0.4674
  949TIP3    H1 2853   1.561   2.852   1.541 -0.0199  0.4641 -0.8448
  949TIP3    H2 2854   1.531   2.801   1.680  0.4480  1.1917 -0.4711
  950TIP3   OH2 2855   0.699   2.227   5.139  0.6248  0.0051  0.3902
  950TIP3    H1 2856   0.786   2.250   5.106  0.6764 -0.0405  0.4940
  950TIP3    H2 2857   0.715   2.160   5.206  0.5033 -0.0650  0.3498
  951TIP3   OH2 2858   0.236   4.332   1.849  0.3424  0.3155  0.4550
  951TIP3    H1 2859   0.183   4.269   1.898 -0.1932  1.1663  1.0072
  951TIP3    H2 2860   0.281   4.382   1.917 -0.1056  1.2589  0.0755
  952TIP3   OH2 2861   2.838   4.965   0.117 -0.3389  0.0363 -0.3275
  952TIP3    H1 2862   2.848   4.915   0.198  1.9891 -0.1473 -0.6617
  952TIP3    H2 2863   2.844   4.899   0.048  0.1367  0.4592 -0.7002
  953TIP3   OH2 2864   5.326   2.103   0.484  0.3669 -0.2239 -0.2057
  953TIP3    H1 2865   5.405   2.067   0.444  2.8904  2.0733  2.2990
  953TIP3    H2 2866   5.314   2.052   0.564  0.4880  0.6519  0.3831
  954TIP3   OH2 2867   5.669   2.121   2.347 -0.4124 -0.2528  0.0142
  954TIP3    H1 2868   5.576   2.140   2.335 -0.7572 -0.9639  1.3352
  954TIP3    H2 2869   5.672   2.065   2.425  1.0374 -1.0435 -0.5684
  955TIP3   OH2 2870   3.932   1.485   4.140  0.3338  0.2616 -0.1715
  955TIP3    H1 2871   3.970   1.399   4.125  0.8014 -0.0813  2.5617
  955TIP3    H2 2872   3.872   1.498   4.066  0.0864 -2.4737 -0.5306
  956TIP3   OH2 2873   3.926   2.661   2.245  0.3766 -0.8358 -0.0616
  956TIP3    H1 2874   3.845   2.615   2.223 -0.5386  1.2716 -1.5424
  956TIP3    H2 2875   3.965   2.681   2.160  2.0577 -1.0972  0.6153
  957TIP3   OH2 2876   3.595   4.140   3.040  0.1758  0.0547 -0.1938
  957TIP3    H1 2877   3.510   4.142   3.083  0.5149 -1.2824  0.5953
  957TIP3    H2 2878   3.580   4.090   2.960  0.3728 -0.8765  0.3401
  958TIP3   OH2 2879   4.798   1.447   4.185 -0.2532 -0.3774 -0.5365
  958TIP3    H1 2880   4.849   1.524   4.160 -3.4199  1.0995 -3.0924
  958TIP3    H2 2881   4.821   1.432   4.276  1.7417  2.5603 -0.4192
  959TIP3   OH2 2882   1.491   0.725   4.851 -0.8766 -0.2300  0.2613
  959TIP3    H1 2883   1.507   0.641   4.895  1.2688 -1.3709 -2.3453
  959TIP3    H2 2884   1.487   0.702   4.758 -0.1411  2.5469 -0.5501
  960TIP3   OH2 2885   3.385   3.431   4.452 -0.1087 -0.2598  0.3876
  960TIP3    H1 2886   3.452   3.474   4.505  0.1418  0.5674 -0.5723
  960TIP3    H2 2887   3.402   3.460   4.362 -0.4676 -1.6888 -0.1782
  961TIP3   OH2 2888   4.789   2.749   1.625 -0.2455  0.2997  0.1726
  961TIP3    H1 2889   4.820   2.672   1.672  1.0491 -0.1578 -1.3134
  961TIP3    H2 2890   4.796   2.820   1.688 -1.9979 -0.8433  1.7453
  962TIP3   OH2 2891   5.829   4.230   0.256  0.1795 -0.6414  0.3815
  962TIP3    H1 2892   5.830   4.137   0.233  1.2703 -1.0000  1.7801
  962TIP3    H2 2893   5.907   4.265   0.213 -0.4882 -0.2401 -0.5438
  963TIP3   OH2 2894   1.157   1.038   3.920 -0.2536  0.2449 -0.0132
  963TIP3    H1 2895   1.232   0.980   3.909 -0.3328  0.1827 -0.2352
  963TIP3    H2 2896   1.158   1.062   4.012  0.7195  1.1803 -0.2561
  964TIP3   OH2 2897   2.578   4.704   1.094 -0.9577 -0.1857  0.0570
  964TIP3    H1 2898   2.631   4.645   1.148 -0.0202  0.7598  0.1994
  964TIP3    H2 2899   2.488   4.676   1.109 -0.6013 -0.9078  0.9245
  965TIP3   OH2 2900   2.360   3.664   0.509 -0.9381  0.0241  0.0133
  965TIP3    H1 2901   2.349   3.603   0.436 -1.7503  0.7703 -0.5061
  965TIP3    H2 2902   2.271   3.678   0.543 -0.6668  0.3073  0.6344
  966TIP3   OH2 2903   2.483   1.177   0.512  0.0646  0.4379 -0.0379
  966TIP3    H1 2904   2.423   1.249   0.489 -2.5073 -0.9716  1.7062
  966TIP3    H2 2905   2.563   1.221   0.540 -1.2569  2.6247  0.5767
  967TIP3   OH2 2906   6.184   4.962   5.019  0.1224 -0.5847  0.7662
  967TIP3    H1 2907   6.128   4.885   5.026  0.1773 -0.6115  0.9112
  967TIP3    H2 2908   6.265   4.938   5.064 -0.7628  0.4020  3.0623
  968TIP3   OH2 2909   3.545   2.986   4.242 -0.5445  0.0641 -0.4190
  968TIP3    H1 2910   3.460   2.950   4.215 -1.8874  1.3881  1.7994
  968TIP3    H2 2911   3.542   2.985   4.337  1.9015  0.3260 -0.2879
  969TIP3   OH2 2912   3.315   2.032   5.022 -0.2723  0.5627 -0.2413
  969TIP3    H1 2913   3.393   2.008   4.973  0.4926 -0.7476  1.5293
  969TIP3    H2 2914   3.341   2.108   5.074 -0.2545  0.3184  0.1133
  970TIP3   OH2 2915   5.146   5.098   1.355  0.5379 -0.3271  0.2363
  970TIP3    H1 2916   5.159   5.026   1.417  0.5752  1.3115  2.2476
  970TIP3    H2 2917   5.234   5.121   1.327  0.6515 -0.0908  0.7756
  971TIP3   OH2 2918   4.745   4.370   4.796 -0.0102 -0.1824  0.2968
  971TIP3    H1 2919   4.804   4.300   4.767 -0.9182 -0.4085 -1.0920
  971TIP3    H2 2920   4.700   4.332   4.872  0.8758 -0.3833  0.7385
  972TIP3   OH2 2921   3.935   1.989   3.008 -0.9031  0.1443  0.6028
  972TIP3    H1 2922   4.019   1.998   2.962 -1.9170  0.0275 -1.3991
  972TIP3    H2 2923   3.930   2.066   3.064  0.0573  0.7494 -0.0990
  973TIP3   OH2 2924   6.208   5.044   4.736 -0.0792  0.3432  0.4362
  973TIP3    H1 2925   6.194   4.983   4.808  0.1148  1.9348  1.8834
  973TIP3    H2 2926   6.226   4.988   4.661 -0.4386 -1.3820  1.5759
  974TIP3   OH2 2927   1.907   5.735   1.123  0.5616 -0.1875  0.2731
  974TIP3    H1 2928   1.913   5.802   1.191  1.1514  0.3020 -0.2480
  974TIP3    H2 2929   1.912   5.652   1.170  1.9109  0.1487  0.7703
  975TIP3   OH2 2930   2.586   3.356   4.412 -0.0984 -0.2948 -0.2905
  975TIP3    H1 2931   2.574   3.339   4.318  1.0490 -2.9899 -0.0335
  975TIP3    H2 2932   2.619   3.273   4.447 -1.8013  0.1845  2.7631
  976TIP3   OH2 2933   5.618   0.857   1.326  0.1008 -0.1254 -0.2838
  976TIP3    H1 2934   5.576   0.909   1.395 -0.5933 -0.1971 -0.6446
  976TIP3    H2 2935   5.595   0.902   1.245 -1.3284 -1.5025 -0.6902
  977TIP3   OH2 2936   1.580   2.416   4.913 -0.0770  0.5554  0.0087
  977TIP3    H1 2937   1.578   2.498   4.864 -0.3294  0.1700 -0.6386
  977TIP3    H2 2938   1.657   2.423   4.969 -0.2888  1.3759  0.2148
  978TIP3   OH2 2939   0.193   5.618   0.260  0.0857 -0.3507  0.3181
  978TIP3    H1 2940   0.196   5.537   0.311  1.2604  0.9017  2.3607
  978TIP3    H2 2941   0.207   5.687   0.324  3.1850  1.2558 -1.8841
  979TIP3   OH2 2942   1.117   2.563   5.116 -0.0500  0.3801  0.2721
  979TIP3    H1 2943   1.071   2.609   5.046  0.5082  2.7628  1.3580
  979TIP3    H2 2944   1.108   2.470   5.094 -0.8946  0.9816 -2.2883
  980TIP3   OH2 2945   6.099   2.504   4.686  0.1899 -0.0493 -0.0149
  980TIP3    H1 2946   6.107   2.434   4.621 -0.5900 -0.4415  0.2935
  980TIP3    H2 2947   6.179   2.556   4.676  0.4778 -0.6077 -0.6904
  981TIP3   OH2 2948   2.236   1.353   2.282  0.0094  0.5722 -0.6176
  981TIP3    H1 2949   2.311   1.311   2.325 -0.0647  0.0922 -0.9567
  981TIP3    H2 2950   2.224   1.435   2.330 -0.1468 -0.0082  0.3638
  982TIP3   OH2 2951   0.422   2.879   3.718  0.2266  0.3269  0.1535
  982TIP3    H1 2952   0.413   2.964   3.762 -2.8115 -0.5861  1.5333
  982TIP3    H2 2953   0.424   2.901   3.625  1.1895  1.9843  0.5223
  983TIP3   OH2 2954   4.003   2.848   0.119  0.1051  0.0051 -0.2389
  983TIP3    H1 2955   3.982   2.863   0.027  0.3767  0.9156 -0.1686
  983TIP3    H2 2956   3.936   2.788   0.150  0.3265 -0.7398 -1.1643
  984TIP3   OH2 2957   5.376   0.735   1.079  0.4814 -0.3032  0.2262
  984TIP3    H1 2958   5.371   0.719   0.985 -0.3466 -1.6061  0.4630
  984TIP3    H2 2959   5.423   0.658   1.114 -1.6914 -1.2996  1.1761
  985TIP3   OH2 2960   5.823   2.224   4.426 -0.4896 -0.3357 -0.1002
  985TIP3    H1 2961   5.744   2.278   4.428  0.7487  1.5221  0.5328
  985TIP3    H2 2962   5.880   2.265   4.362  0.6233 -0.6840  0.6290
  986TIP3   OH2 2963   2.404   0.097   4.478 -0.0984 -0.1452  0.2698
  986TIP3    H1 2964   2.489   0.080   4.438  0.2657  1.1827  0.4141
  986TIP3    H2 2965   2.404   0.192   4.494 -0.4896 -0.4943  2.7531
  987TIP3   OH2 2966   2.859   3.903   1.578 -0.3552 -0.1410  0.5592
  987TIP3    H1 2967   2.835   3.995   1.585  1.7099  0.4647  0.4879
  987TIP3    H2 2968   2.934   3.894   1.637 -1.1528 -2.0353  1.3522
  988TIP3   OH2 2969   2.041   1.310   3.333 -0.1423  0.3280 -0.0555
  988TIP3    H1 2970   2.125   1.312   3.286  0.3836  0.0889  0.8466
  988TIP3    H2 2971   2.002   1.396   3.316  0.9898  1.0363  0.7359
  989TIP3   OH2 2972   6.321   3.838   4.038 -0.1684  0.0825  0.0863
  989TIP3    H1 2973   6.378   3.845   3.962 -1.3488  0.5258 -0.7743
  989TIP3    H2 2974   6.233   3.853   4.005 -0.7651 -0.1819  1.4592
  990TIP3   OH2 2975   0.099   4.735   3.101 -0.0269 -0.5910  0.0781
  990TIP3    H1 2976   0.152   4.815   3.099 -1.1585  0.2236  1.1607
  990TIP3    H2 2977   0.048   4.738   3.020  2.5518 -2.1436 -1.7425
  991TIP3   OH2 2978   0.905   3.893   0.187  0.5964  0.6320  0.2566
  991TIP3    H1 2979   0.987   3.915   0.142  0.3349 -0.5134 -0.8400
  991TIP3    H2 2980   0.915   3.931   0.275  2.2270  0.6679  0.0895
  992TIP3   OH2 2981   2.221   0.033   1.087  0.6324 -0.6664  0.1696
  992TIP3    H1 2982   2.165   0.088   1.142 -0.0903 -1.9531  0.7530
  992TIP3    H2 2983   2.188   0.048   0.998  1.2053  0.7175  0.1736
  993TIP3   OH2 2984   1.959   1.055   3.340 -0.5720  0.2424  0.0960
  993TIP3    H1 2985   1.967   1.098   3.425  1.7133  0.8090 -0.3394
  993TIP3    H2 2986   1.979   1.124   3.277  0.5009 -0.7827 -0.7396
  994TIP3   OH2 2987   2.410   2.786   2.179  0.3305  0.3285  0.2277
  994TIP3    H1 2988   2.436   2.751   2.094  2.1851 -0.0218  0.8913
  994TIP3    H2 2989   2.393   2.879   2.163  0.1170  0.1496 -0.6190
  995TIP3   OH2 2990   2.441   2.077   0.388  0.2691 -0.2290 -0.1751
  995TIP3    H1 2991   2.512   2.015   0.399  0.6401 -0.0880 -1.6493
  995TIP3    H2 2992   2.377   2.032   0.333 -0.4309 -0.0658  0.4825
  996TIP3   OH2 2993   0.580   3.173   4.327  0.1734  0.0954 -0.4053
  996TIP3    H1 2994   0.654   3.112   4.331  0.4264  0.4334  0.0369
  996TIP3    H2 2995   0.619   3.259   4.342 -0.5974  0.0761  2.1566
  997TIP3   OH2 2996   4.305   2.817   3.998  0.1805  0.2763  0.2844
  997TIP3    H1 2997   4.222   2.790   3.959  0.6245  0.0748 -0.5387
  997TIP3    H2 2998   4.372   2.778   3.942  0.8404  0.1268  1.1553
  998TIP3   OH2 2999   4.325   4.146   0.678 -0.1523  0.4845 -0.3494
  998TIP3    H1 3000   4.306   4.230   0.719 -1.8876  0.3482 -0.8093
  998TIP3    H2 3001   4.334   4.165   0.585 -0.1481  0.2107 -0.4066
  999TIP3   OH2 3002   0.040   2.231   2.068  0.2963 -0.1995 -0.7031
  999TIP3    H1 3003  -0.041   2.200   2.109  0.7733 -0.9156 -0.2732
  999TIP3    H2 3004   0.074   2.154   2.021  0.6538  0.1324 -0.9985
 1000TIP3   OH2 3005   4.948   2.910   4.977  0.2299 -0.0095  0.1547
 1000TIP3    H1 3006   4.944   2.959   5.059  0.5986  0.3035 -0.0147
 1000TIP3    H2 3007   4.877   2.947   4.924  0.4182  0.2479  0.0801
 1001TIP3   OH2 3008   1.689   2.350   1.415  0.2197  0.0139 -0.2628
 1001TIP3    H1 3009   1.659   2.263   1.440 -1.5284  0.9265  0.9932
 1001TIP3    H2 3010   1.681   2.352   1.319 -2.5865 -0.2825 -0.1283
 1002TIP3   OH2 3011   5.946   4.966   3.445  0.2519 -0.0675  0.1506
 1002TIP3    H1 3012   5.909   5.053   3.437  0.1388 -0.0605  0.7201
 1002TIP3    H2 3013   6.021   4.966   3.384  0.1957  0.3905  0.0803
 1003TIP3   OH2 3014   3.644   0.648   4.782  0.7824  0.1663  0.0719
 1003TIP3    H1 3015   3.667   0.595   4.858  2.8490  2.6285  1.3207
 1003TIP3    H2 3016   3.647   0.587   4.708  3.5245 -1.4042  1.3367
 1004TIP3   OH2 3017   0.009   3.914   4.281 -0.0940  0.2218  0.5220
 1004TIP3    H1 3018   0.002   3.869   4.197 -0.7645  0.3557  0.5063
 1004TIP3    H2 3019   0.055   3.996   4.262  0.1560  0.0443  0.3656
 1005TIP3   OH2 3020   0.427   4.798   3.160 -0.2168  0.5450  0.6568
 1005TIP3    H1 3021   0.507   4.835   3.123 -0.4912  0.8444  0.3534
 1005TIP3    H2 3022   0.430   4.706   3.136 -1.2897  1.0533 -1.8096
 1006TIP3   OH2 3023   6.320   0.584   4.793 -0.3775  0.1863 -0.6470
 1006TIP3    H1 3024   6.237   0.565   4.837 -1.2359  3.6911 -0.3841
 1006TIP3    H2 3025   6.386   0.571   4.861 -0.9362 -0.7467 -0.2667
 1007TIP3   OH2 3026   4.465   0.453   3.477 -0.0958 -0.0749  0.2856
 1007TIP3    H1 3027   4.553   0.417   3.468 -0.4089 -0.5271 -1.2450
 1007TIP3    H2 3028   4.449   0.455   3.572  1.9854  1.1030  0.6793
 1008TIP3   OH2 3029   2.241   4.831   0.754 -0.1869  0.7033 -0.0427
 1008TIP3    H1 3030   2.285   4.866   0.677 -0.3785  0.3019 -0.3371
 1008TIP3    H2 3031   2.310   4.788   0.804 -0.3319 -0.5242 -0.8402
 1009TIP3   OH2 3032   0.675   1.326   0.185 -0.1398 -0.7830 -0.1757
 1009TIP3    H1 3033   0.652   1.418   0.194  0.4126 -0.6810  0.2633
 1009TIP3    H2 3034   0.597   1.278   0.213 -1.1170 -0.4679 -2.1926
 1010TIP3   OH2 3035   0.870   0.311   2.107 -0.5159 -0.8285 -0.4030
 1010TIP3    H1 3036   0.790   0.290   2.058 -2.8098  3.1673  1.1398
 1010TIP3    H2 3037   0.845   0.299   2.198 -0.0483  2.0856  0.2010
 1011TIP3   OH2 3038   0.556   0.172   4.481  0.3805  0.5629 -0.3218
 1011TIP3    H1 3039   0.586   0.106   4.543  1.5897  1.3924  0.0305
 1011TIP3    H2 3040   0.613   0.248   4.498  0.5092  0.9439 -2.1882
 1012TIP3   OH2 3041   4.563   2.592   4.708 -0.2069 -0.2766 -0.0871
 1012TIP3    H1 3042   4.531   2.625   4.624  1.7574  1.2947 -0.2925
 1012TIP3    H2 3043   4.491   2.607   4.769 -0.9198  0.4890 -1.0794
 1013TIP3   OH2 3044   2.004   4.630   0.025 -0.3748 -0.0404  0.4291
 1013TIP3    H1 3045   1.941   4.693   0.058  0.5574  1.6069 -0.7471
 1013TIP3    H2 3046   1.956   4.579  -0.040 -0.9645 -0.0964  0.9017
 1014TIP3   OH2 3047   3.664   2.090   1.245  0.2267  0.0778  0.0525
 1014TIP3    H1 3048   3.592   2.153   1.253  0.1039  0.1706 -1.5306
 1014TIP3    H2 3049   3.626   2.008   1.277 -1.0800 -0.1922 -1.9660
 1015TIP3   OH2 3050   1.048   3.989   1.726  0.0449 -0.1470  0.0856
 1015TIP3    H1 3051   1.030   4.079   1.699 -0.4794  0.6071  2.7504
 1015TIP3    H2 3052   1.109   3.957   1.659  0.4656  2.2388 -0.8007
 1016TIP3   OH2 3053   1.843   0.927   4.136 -0.1216  0.0478 -0.3938
 1016TIP3    H1 3054   1.898   0.956   4.063 -0.6589  1.3025 -0.3168
 1016TIP3    H2 3055   1.895   0.945   4.214 -0.1000 -0.0295 -0.3900
 1017TIP3   OH2 3056   2.147   0.170   0.049 -0.2690 -0.2069 -0.7232
 1017TIP3    H1 3057   2.196   0.104   0.098  0.4390  0.2911 -0.7468
 1017TIP3    H2 3058   2.132   0.240   0.112 -1.1539 -0.4474 -0.6562
 1018TIP3   OH2 3059   0.157   4.675   2.067  0.3080  0.4903  0.5682
 1018TIP3    H1 3060   0.153   4.707   2.157  1.9878  0.5636  0.6520
 1018TIP3    H2 3061   0.192   4.586   2.075  0.8417  0.6392 -0.0230
 1019TIP3   OH2 3062   3.567   3.239   4.126 -0.5039 -0.5883 -0.3955
 1019TIP3    H1 3063   3.550   3.160   4.177 -1.4638 -1.1039 -1.4620
 1019TIP3    H2 3064   3.638   3.215   4.066 -1.1947 -0.8537 -1.1273
 1020TIP3   OH2 3065   5.039   0.161   2.230 -0.1728  0.7625 -0.0739
 1020TIP3    H1 3066   5.043   0.067   2.214 -2.7270  0.2155  1.8277
 1020TIP3    H2 3067   5.019   0.199   2.144 -1.2636 -0.6779 -0.4989
 1021TIP3   OH2 3068   3.529   2.923   3.239  0.2798  0.1879  0.2361
 1021TIP3    H1 3069   3.519   3.012   3.203  1.0791  0.7121  1.2530
 1021TIP3    H2 3070   3.557   2.937   3.329 -0.0990 -1.1090  0.5683
 1022TIP3   OH2 3071   2.871   4.231   4.844 -0.7492 -0.6841  0.1023
 1022TIP3    H1 3072   2.855   4.138   4.833 -2.8218 -0.5559  1.5747
 1022TIP3    H2 3073   2.865   4.247   4.938  1.2122  0.6900  0.0558
 1023TIP3   OH2 3074   5.008   4.210   1.785 -0.3058 -1.0678  0.1760
 1023TIP3    H1 3075   5.027   4.121   1.754  2.8095 -0.9391  1.3058
 1023TIP3    H2 3076   5.020   4.205   1.880 -0.8299  0.4132  0.3450
 1024TIP3   OH2 3077   3.318   3.398   1.433  0.2484 -0.4490 -0.2609
 1024TIP3    H1 3078   3.228   3.427   1.452  0.5045  0.4673 -0.3629
 1024TIP3    H2 3079   3.344   3.347   1.509  0.5809  1.5456  1.0412
 1025TIP3   OH2 3080   5.983   5.355   4.357  0.0856 -0.0389  0.3690
 1025TIP3    H1 3081   5.917   5.413   4.319 -1.7187 -2.4157 -0.3488
 1025TIP3    H2 3082   6.064   5.404   4.351 -1.3608  2.4825  0.0222
 1026TIP3   OH2 3083   5.890   0.472   3.267  0.3696  0.4320  0.2802
 1026TIP3    H1 3084   5.825   0.444   3.202 -0.8292  2.7681  0.3730
 1026TIP3    H2 3085   5.969   0.487   3.216 -0.5536  2.2245 -0.7254
 1027TIP3   OH2 3086   3.313   3.505   1.133 -0.9998  0.3125 -0.5350
 1027TIP3    H1 3087   3.364   3.556   1.197 -0.8546 -0.5321  0.0370
 1027TIP3    H2 3088   3.280   3.431   1.183 -1.4119 -0.0287 -1.3041
 1028TIP3   OH2 3089   4.901   3.422   0.271 -0.2173  0.4958  0.3349
 1028TIP3    H1 3090   4.914   3.329   0.253 -0.9202  0.6997 -1.3594
 1028TIP3    H2 3091   4.812   3.428   0.305  0.1164  0.4799  1.2656
 1029TIP3   OH2 3092   0.071   1.839   3.392  0.0050  0.4346  0.7406
 1029TIP3    H1 3093   0.014   1.764   3.378 -0.1542  0.7740 -0.4554
 1029TIP3    H2 3094   0.092   1.835   3.486 -2.6753  0.8140  1.4238
 1030TIP3   OH2 3095   1.687   5.429   4.271  0.1242  0.8236  0.0492
 1030TIP3    H1 3096   1.599   5.418   4.234  0.9781  1.4332 -2.3779
 1030TIP3    H2 3097   1.684   5.513   4.316 -0.6225  0.6595  0.3233
 1031TIP3   OH2 3098   5.080   1.919   4.972  0.4270 -0.5700 -0.5230
 1031TIP3    H1 3099   5.146   1.866   4.927  1.4323 -0.9648  1.3063
 1031TIP3    H2 3100   5.122   2.004   4.985 -0.5496  0.1545 -1.9375
 1032TIP3   OH2 3101   3.771   4.913   1.012 -0.1362  0.4436  0.4153
 1032TIP3    H1 3102   3.747   4.996   1.054 -0.3911 -0.3372  1.8908
 1032TIP3    H2 3103   3.727   4.916   0.927  0.7728  2.2882 -0.0483
 1033TIP3   OH2 3104   4.566   1.991   0.644  0.0711  0.2127  0.1577
 1033TIP3    H1 3105   4.643   2.045   0.661  0.6134 -0.2319 -0.7655
 1033TIP3    H2 3106   4.509   2.005   0.719  0.3766  1.7426  0.1421
 1034TIP3   OH2 3107   2.180   3.672   4.663 -0.2982 -0.0989  0.1565
 1034TIP3    H1 3108   2.261   3.627   4.685  0.3020  0.8882  0.0245
 1034TIP3    H2 3109   2.116   3.640   4.727  0.1199 -1.0819  0.0943
 1035TIP3   OH2 3110   2.916   0.731   4.246 -0.2339  0.1809 -0.7084
 1035TIP3    H1 3111   2.978   0.738   4.174 -0.9265  3.4391 -1.1530
 1035TIP3    H2 3112   2.923   0.815   4.293  0.1837 -1.7721  3.1010
 1036TIP3   OH2 3113   6.141   1.929   1.862 -0.2534 -0.0444  0.0799
 1036TIP3    H1 3114   6.089   1.966   1.790 -0.4792 -0.1552  0.1851
 1036TIP3    H2 3115   6.080   1.872   1.908  0.1335 -0.6753 -0.1718
 1037TIP3   OH2 3116   4.397   1.140   0.175 -0.9803 -0.3390  0.1842
 1037TIP3    H1 3117   4.360   1.113   0.260 -1.8022 -0.4636 -0.1976
 1037TIP3    H2 3118   4.478   1.185   0.197  0.0466 -2.4236  0.9142
 1038TIP3   OH2 3119   5.922   5.660   0.665  0.5446  0.6281 -0.0367
 1038TIP3    H1 3120   5.849   5.721   0.652  0.4233  0.4179 -0.3511
 1038TIP3    H2 3121   5.917   5.601   0.590  2.2010  1.7601 -1.1009
 1039TIP3   OH2 3122   2.212   5.814   0.161 -0.6853  0.2601  0.7314
 1039TIP3    H1 3123   2.285   5.827   0.220  1.5200 -1.6413 -1.3388
 1039TIP3    H2 3124   2.158   5.747   0.203 -0.3599  0.4989  1.5431
 1040TIP3   OH2 3125   1.715   1.232   2.177 -0.3277  0.0970 -0.6030
 1040TIP3    H1 3126   1.636   1.207   2.130 -0.4415 -1.7297  0.4430
 1040TIP3    H2 3127   1.778   1.256   2.109 -1.2448 -0.0641 -1.5252
 1041TIP3   OH2 3128   3.365   5.082   1.913  0.3241 -0.3197 -0.3485
 1041TIP3    H1 3129   3.295   5.130   1.958  1.3489  0.2696  0.6499
 1041TIP3    H2 3130   3.329   4.995   1.900 -0.7255  0.0665 -0.1500
 1042TIP3   OH2 3131   1.627   1.404   4.556 -0.2074  0.2753  0.4618
 1042TIP3    H1 3132   1.592   1.318   4.577 -3.7135  1.0997 -1.1562
 1042TIP3    H2 3133   1.555   1.448   4.510  1.9184  3.5616 -0.0551
 1043TIP3   OH2 3134   3.672   4.314   1.405 -0.2604  0.7457  0.4029
 1043TIP3    H1 3135   3.626   4.356   1.332 -1.0772  0.6862  0.8822
 1043TIP3    H2 3136   3.613   4.246   1.436  1.1328 -0.9631 -0.4989
 1044TIP3   OH2 3137   5.496   3.432   2.560 -0.4507 -0.3944 -0.6138
 1044TIP3    H1 3138   5.435   3.359   2.564  0.2842 -1.0471 -0.9569
 1044TIP3    H2 3139   5.576   3.394   2.524 -0.1555  0.6491 -1.0987
 1045TIP3   OH2 3140   2.400   2.143   4.563  0.7018 -0.9347 -0.4319
 1045TIP3    H1 3141   2.329   2.137   4.499  1.2056 -0.8861 -1.0055
 1045TIP3    H2 3142   2.469   2.085   4.529  1.1921 -0.4900 -0.2252
 1046TIP3   OH2 3143   3.173   3.147   4.822  0.0653  0.2446 -0.1255
 1046TIP3    H1 3144   3.198   3.069   4.773  1.8391  0.5867  0.1806
 1046TIP3    H2 3145   3.252   3.201   4.823 -0.1820  0.6628  2.2979
 1047TIP3   OH2 3146   2.360   4.010   1.882  0.2432 -0.3631  0.3200
 1047TIP3    H1 3147   2.434   4.038   1.935  1.5610  0.5410 -1.8777
 1047TIP3    H2 3148   2.309   4.090   1.868 -0.8324 -0.8521  1.2670
 1048TIP3   OH2 3149   2.320   0.807   0.785 -0.2624 -0.4264  0.0210
 1048TIP3    H1 3150   2.373   0.761   0.849 -0.8844 -1.5616 -0.2342
 1048TIP3    H2 3151   2.352   0.776   0.700  0.0963  0.5293 -0.2024
 1049TIP3   OH2 3152   4.903   2.567   1.932 -0.5358  0.2644 -0.3752
 1049TIP3    H1 3153   4.919   2.473   1.925 -0.5934  0.1086  1.2063
 1049TIP3    H2 3154   4.984   2.607   1.899  0.1673 -0.3826  0.5142
 1050TIP3   OH2 3155   0.353   5.779   3.189 -0.5317 -0.6170 -0.0708
 1050TIP3    H1 3156   0.390   5.833   3.119  1.4716 -2.2562 -0.3748
 1050TIP3    H2 3157   0.400   5.804   3.268 -0.4134 -1.0892  0.0155
 1051TIP3   OH2 3158   6.288   1.094   5.077 -0.1842 -0.1024 -0.4300
 1051TIP3    H1 3159   6.331   1.036   5.140 -0.9108 -0.2577 -0.0605
 1051TIP3    H2 3160   6.302   1.053   4.992  2.3061  0.9816 -0.6416
 1052TIP3   OH2 3161   3.809   1.207   0.035  0.0551 -0.2123 -0.0432
 1052TIP3    H1 3162   3.726   1.168   0.062 -0.6594  0.1939 -1.5706
 1052TIP3    H2 3163   3.869   1.189   0.108 -0.3728 -3.6948 -0.3981
 1053TIP3   OH2 3164   3.558   4.847   0.308  0.2705  0.0880 -0.3834
 1053TIP3    H1 3165   3.505   4.863   0.386  0.5656  1.2151 -0.3869
 1053TIP3    H2 3166   3.624   4.917   0.310  0.4512 -0.0359 -1.4964
 1054TIP3   OH2 3167   4.332   5.012   2.298 -0.1480  0.1135  0.1640
 1054TIP3    H1 3168   4.400   5.024   2.364  0.9172 -0.7793 -0.7288
 1054TIP3    H2 3169   4.342   5.086   2.238  0.6202 -0.4596 -0.4369
 1055TIP3   OH2 3170   0.913   4.807   2.309  0.1705 -0.2442  0.3459
 1055TIP3    H1 3171   0.840   4.798   2.249  0.4085  2.0932 -0.3782
 1055TIP3    H2 3172   0.980   4.747   2.275 -1.4390 -2.7310  1.2525
 1056TIP3   OH2 3173   2.283   4.536   3.907  0.5655 -0.1765 -0.1316
 1056TIP3    H1 3174   2.233   4.617   3.916  0.2802 -0.5291  2.4120
 1056TIP3    H2 3175   2.253   4.497   3.825 -2.5717  0.1860  0.6951
 1057TIP3   OH2 3176   2.348   2.072   2.580 -0.3720  0.2934 -0.2848
 1057TIP3    H1 3177   2.393   2.155   2.567 -0.4631  0.2597 -0.8343
 1057TIP3    H2 3178   2.371   2.020   2.503 -0.3114 -0.1923  0.0568
 1058TIP3   OH2 3179   6.042   0.630   1.108  0.4604  0.3276  0.4612
 1058TIP3    H1 3180   6.118   0.577   1.132 -0.5696 -2.3827 -1.6572
 1058TIP3    H2 3181   6.075   0.692   1.043  1.1540  0.2264  0.7107
 1059TIP3   OH2 3182   3.270   1.126   1.378 -0.2085 -0.0368 -0.0242
 1059TIP3    H1 3183   3.258   1.084   1.463  0.6912  1.2125  0.7418
 1059TIP3    H2 3184   3.184   1.164   1.358 -0.6936 -1.1498 -0.1635
 1060TIP3   OH2 3185   3.057   0.660   3.802  0.0633 -0.2231  0.1040
 1060TIP3    H1 3186   3.059   0.585   3.861  0.6763 -0.4705 -0.2263
 1060TIP3    H2 3187   3.086   0.625   3.717  2.1607  0.7394  0.3634
 1061TIP3   OH2 3188   0.840   5.347   0.445  0.5234  0.2149 -0.2677
 1061TIP3    H1 3189   0.814   5.255   0.454  0.6817  0.0957 -0.9214
 1061TIP3    H2 3190   0.758   5.394   0.431  0.6313 -0.2808 -3.2501
 1062TIP3   OH2 3191   1.466   1.398   1.633 -0.0127  0.3423 -0.2131
 1062TIP3    H1 3192   1.537   1.457   1.606 -1.1797  1.5410 -0.8444
 1062TIP3    H2 3193   1.421   1.446   1.703  0.8800 -1.2277  1.5329
 1063TIP3   OH2 3194   2.823   1.404   4.242 -0.0291 -0.3144 -0.1107
 1063TIP3    H1 3195   2.747   1.347   4.226 -0.6100  0.2993  0.4012
 1063TIP3    H2 3196   2.812   1.476   4.180  0.2274 -0.3133 -0.1532
 1064TIP3   OH2 3197   5.160   5.653   0.450  0.3329 -0.2694 -0.7540
 1064TIP3    H1 3198   5.222   5.705   0.397  1.0623 -1.2279 -0.8582
 1064TIP3    H2 3199   5.214   5.586   0.491 -0.3849 -0.0976  0.4980
 1065TIP3   OH2 3200   1.629   0.959   4.861  0.1966 -0.5490 -0.4874
 1065TIP3    H1 3201   1.578   0.879   4.850 -1.2966  0.2049  0.5328
 1065TIP3    H2 3202   1.707   0.932   4.909 -0.2580 -1.3905 -0.2139
 1066TIP3   OH2 3203   5.881   5.080   2.196  0.1526  0.0925 -1.1107
 1066TIP3    H1 3204   5.845   4.993   2.216 -1.1692  0.4074 -1.9659
 1066TIP3    H2 3205   5.900   5.118   2.282 -0.1861 -0.6667 -0.6825
 1067TIP3   OH2 3206   0.300   1.316   4.542  0.5108 -0.2454  0.2437
 1067TIP3    H1 3207   0.295   1.327   4.636 -0.8172  1.2966  0.0306
 1067TIP3    H2 3208   0.271   1.226   4.526 -1.8128  0.2970  1.1350
 1068TIP3   OH2 3209   0.242   4.512   1.142 -0.2561  0.1270  0.3202
 1068TIP3    H1 3210   0.194   4.508   1.224 -1.4005  0.9579 -0.2795
 1068TIP3    H2 3211   0.200   4.447   1.086 -0.3696  0.5106 -0.0478
 1069TIP3   OH2 3212   4.124   0.840   4.800 -0.6164 -0.0948  0.3868
 1069TIP3    H1 3213   4.077   0.756   4.794 -1.4553  0.3645  0.3472
 1069TIP3    H2 3214   4.213   0.816   4.826 -1.4097 -0.8628  2.6822
 1070TIP3   OH2 3215  -0.022   0.322   5.117  0.5127 -0.1519 -0.1930
 1070TIP3    H1 3216   0.061   0.287   5.151  0.7862 -0.0687 -0.7510
 1070TIP3    H2 3217   0.003   0.364   5.034  0.2041  1.4338  0.4910
 1071TIP3   OH2 3218   5.518   1.420   2.239 -0.7936 -0.2548  0.3838
 1071TIP3    H1 3219   5.511   1.326   2.252 -1.1291  0.0063  2.4616
 1071TIP3    H2 3220   5.427   1.451   2.244 -0.5696  0.3118  1.1986
 1072TIP3   OH2 3221   1.844   5.675   1.472 -0.5051 -0.6329 -0.3147
 1072TIP3    H1 3222   1.880   5.747   1.422  0.3442 -0.5275  0.4207
 1072TIP3    H2 3223   1.796   5.717   1.544  0.7223 -0.7679  0.6245
 1073TIP3   OH2 3224   0.940   0.585   0.830  0.4060  0.5568  0.0683
 1073TIP3    H1 3225   0.891   0.619   0.756  0.1613  0.0849  0.0119
 1073TIP3    H2 3226   1.018   0.641   0.835  0.7363  0.1963 -0.9295
 1074TIP3   OH2 3227   3.732   3.213   0.182 -0.2288  0.2241  0.1130
 1074TIP3    H1 3228   3.822   3.201   0.214 -0.4713  3.2105  2.2173
 1074TIP3    H2 3229   3.741   3.210   0.086  1.8606 -0.7692  0.2671
 1075TIP3   OH2 3230   2.801   4.244   2.621 -0.0757 -0.4673  0.1205
 1075TIP3    H1 3231   2.786   4.239   2.527 -1.2223 -2.5171  0.3599
 1075TIP3    H2 3232   2.833   4.157   2.645 -0.6986 -0.2739  1.7691
 1076TIP3   OH2 3233   1.857   2.516   2.366 -0.6862 -0.2450  0.4376
 1076TIP3    H1 3234   1.923   2.563   2.417  1.1568 -0.8455 -1.2617
 1076TIP3    H2 3235   1.813   2.583   2.316  2.7111 -0.1611 -2.8685
 1077TIP3   OH2 3236   6.134   2.559   0.025  0.9023  0.0585  0.1279
 1077TIP3    H1 3237   6.213   2.512   0.054  1.6698  1.1110 -0.2277
 1077TIP3    H2 3238   6.166   2.627  -0.034 -0.3892 -0.2141 -0.9299
 1078TIP3   OH2 3239   1.278   1.723   0.847 -0.2949  0.0163  0.3526
 1078TIP3    H1 3240   1.216   1.766   0.788 -0.5040 -1.7279 -0.7690
 1078TIP3    H2 3241   1.223   1.680   0.913 -0.1694  0.1540  0.5492
 1079TIP3   OH2 3242   0.041   1.989   1.323 -0.5088 -0.4792  0.3402
 1079TIP3    H1 3243   0.002   2.033   1.398 -1.1790 -2.1322  1.0036
 1079TIP3    H2 3244  -0.029   1.982   1.259 -0.1467  0.2434 -0.1440
 1080TIP3   OH2 3245   6.088   3.248   3.761  0.2512 -0.3236  0.5569
 1080TIP3    H1 3246   6.157   3.189   3.732 -1.3906 -1.3487 -1.6105
 1080TIP3    H2 3247   6.050   3.282   3.680 -0.7274  1.4842  1.7029
 1081TIP3   OH2 3248   4.841   5.431   1.237 -0.8353  0.3159  0.3769
 1081TIP3    H1 3249   4.813   5.513   1.279 -0.6233 -0.2511  1.6655
 1081TIP3    H2 3250   4.909   5.396   1.295 -0.0175 -0.1562 -0.8151
 1082TIP3   OH2 3251   2.070   3.255   0.408 -1.0281 -0.3974 -0.1853
 1082TIP3    H1 3252   2.159   3.220   0.409 -0.8099  0.0984 -0.8298
 1082TIP3    H2 3253   2.022   3.202   0.471 -0.1327 -0.2990  0.6151
 1083TIP3   OH2 3254   1.563   4.169   1.213 -0.1808 -0.5966 -0.4475
 1083TIP3    H1 3255   1.586   4.192   1.303 -1.5457 -0.1902 -0.1766
 1083TIP3    H2 3256   1.531   4.079   1.219 -2.5139  0.1881 -0.0634
 1084TIP3   OH2 3257   4.537   5.241   3.835 -0.4262  0.3850 -0.1481
 1084TIP3    H1 3258   4.484   5.173   3.876 -1.8353  1.6597  0.2138
 1084TIP3    H2 3259   4.586   5.195   3.767  2.3270 -1.9029  3.0642
 1085TIP3   OH2 3260   5.053   4.730   1.078 -0.3724 -0.0916  0.1507
 1085TIP3    H1 3261   5.038   4.738   0.983 -0.1067 -2.6622 -0.1704
 1085TIP3    H2 3262   4.975   4.686   1.111 -0.1279  0.1112  1.0139
 1086TIP3   OH2 3263   2.867   1.642   1.095  0.6416 -0.6317 -0.1270
 1086TIP3    H1 3264   2.843   1.608   1.182  0.5342 -0.5555 -0.1272
 1086TIP3    H2 3265   2.908   1.726   1.113  0.4285 -0.5188 -0.1650
 1087TIP3   OH2 3266   4.756   2.284   5.101  0.0695  0.2526 -0.3598
 1087TIP3    H1 3267   4.662   2.266   5.092 -0.1469  0.3687  1.3753
 1087TIP3    H2 3268   4.793   2.264   5.015 -1.6900  1.1287 -1.3673
 1088TIP3   OH2 3269   2.205   2.474   0.917  0.0678  0.2861  0.5375
 1088TIP3    H1 3270   2.167   2.516   0.840  0.3204  1.4492  1.0260
 1088TIP3    H2 3271   2.294   2.509   0.922  0.3879 -0.5419  0.7983
 1089TIP3   OH2 3272   5.789   5.086   2.819 -0.1095  0.3354  0.8497
 1089TIP3    H1 3273   5.696   5.069   2.835 -0.1122 -1.0009 -0.2984
 1089TIP3    H2 3274   5.791   5.168   2.770 -0.6131  0.8226  1.6385
 1090TIP3   OH2 3275   3.694   4.016   1.613 -0.6107 -0.6625 -0.0720
 1090TIP3    H1 3276   3.625   3.955   1.639 -0.7472 -0.1239  0.8970
 1090TIP3    H2 3277   3.727   4.051   1.696  0.9720 -1.0536 -0.5119
 1091TIP3   OH2 3278   0.232   4.737   0.466  0.0704 -0.6836  0.0442
 1091TIP3    H1 3279   0.316   4.753   0.423  0.0723 -1.1905 -0.1598
 1091TIP3    H2 3280   0.221   4.809   0.527  0.4559 -0.3879 -0.2339
 1092TIP3   OH2 3281   0.438   5.176   0.614 -0.1199  0.1719  0.7815
 1092TIP3    H1 3282   0.402   5.256   0.651 -0.4811 -1.0426  3.2701
 1092TIP3    H2 3283   0.471   5.128   0.690 -0.2245 -2.1948 -0.5874
 1093TIP3   OH2 3284   0.783   2.162   3.040 -0.3876  0.7813 -0.4922
 1093TIP3    H1 3285   0.747   2.074   3.047  0.5816  0.3786 -0.3129
 1093TIP3    H2 3286   0.741   2.212   3.110  0.0454  0.0889  0.2775
 1094TIP3   OH2 3287   4.828   4.689   0.188  0.2882 -0.2036  0.4535
 1094TIP3    H1 3288   4.776   4.654   0.260 -3.4875  0.9763 -1.4646
 1094TIP3    H2 3289   4.836   4.616   0.127  0.4901 -0.2497  0.5336
 1095TIP3   OH2 3290   3.676   3.829   4.199 -0.3571 -0.1136  0.0024
 1095TIP3    H1 3291   3.659   3.921   4.176 -0.0888 -0.1193 -0.2257
 1095TIP3    H2 3292   3.766   3.814   4.172  0.0942 -0.0276  1.3925
 1096TIP3   OH2 3293   0.100   1.682   5.056  0.2075  0.1238  0.0079
 1096TIP3    H1 3294   0.039   1.691   4.983 -0.0436 -1.8321 -0.0713
 1096TIP3    H2 3295   0.049   1.639   5.125  0.8734  0.5387  0.7789
 1097TIP3   OH2 3296   5.713   5.070   2.495 -0.0363  0.4434  0.5580
 1097TIP3    H1 3297   5.643   5.006   2.506  0.5872 -0.3456  0.0504
 1097TIP3    H2 3298   5.794   5.020   2.504  0.5380  1.6164  2.8461
 1098TIP3   OH2 3299   3.427   2.328   2.186 -0.2844 -0.3251 -0.3782
 1098TIP3    H1 3300   3.395   2.418   2.186 -0.6057 -0.4173  1.0164
 1098TIP3    H2 3301   3.413   2.297   2.097 -0.0088  1.0559 -0.9149
 1099TIP3   OH2 3302   5.575   5.879   2.751  0.4020 -0.1462 -0.2702
 1099TIP3    H1 3303   5.663   5.911   2.772  0.2766  0.0937 -0.1000
 1099TIP3    H2 3304   5.528   5.881   2.835  0.5412 -1.2789 -0.1572
 1100TIP3   OH2 3305   5.509   4.777   4.280  0.0655  0.5310  0.1880
 1100TIP3    H1 3306   5.561   4.700   4.304  1.2897  1.0827 -0.5827
 1100TIP3    H2 3307   5.554   4.850   4.322 -0.2583  0.9980 -0.2685
 1101TIP3   OH2 3308   2.605   3.928   2.861  0.0546 -0.0567  0.4063
 1101TIP3    H1 3309   2.619   3.927   2.766  0.3413 -0.8305  0.4466
 1101TIP3    H2 3310   2.520   3.970   2.871  0.9459  1.9759 -0.0348
 1102TIP3   OH2 3311   5.698   5.981   3.820 -0.3553 -0.2819  0.0395
 1102TIP3    H1 3312   5.728   5.910   3.764  0.7773 -0.2681  0.5934
 1102TIP3    H2 3313   5.667   5.938   3.899  0.8987 -0.1603  0.6259
 1103TIP3   OH2 3314   2.883   1.757   3.115  0.2957 -0.5233  0.2045
 1103TIP3    H1 3315   2.830   1.684   3.084 -0.2428 -0.8496  1.7696
 1103TIP3    H2 3316   2.895   1.813   3.039  0.2502 -1.9615 -0.8981
 1104TIP3   OH2 3317   3.490   5.843   3.685 -0.0851  0.3790 -0.4760
 1104TIP3    H1 3318   3.515   5.904   3.754 -0.4150 -0.6134  0.5397
 1104TIP3    H2 3319   3.533   5.877   3.606  3.1906 -0.3228  0.8516
 1105TIP3   OH2 3320   4.065   3.220   1.502  0.0282  0.2216  0.9980
 1105TIP3    H1 3321   3.998   3.181   1.559 -0.7283  1.1400  0.7693
 1105TIP3    H2 3322   4.074   3.159   1.429 -3.5881  1.9153 -1.1191
 1106TIP3   OH2 3323   5.986   0.931   2.960  0.3390  0.2677 -0.3327
 1106TIP3    H1 3324   5.894   0.952   2.973  0.0158  0.8271 -2.9543
 1106TIP3    H2 3325   6.030   1.016   2.958  0.5378  0.1584 -1.2698
 1107TIP3   OH2 3326   4.247   4.830   2.871 -0.2607 -0.8055 -0.2458
 1107TIP3    H1 3327   4.277   4.908   2.822  0.7363  0.8512  2.7503
 1107TIP3    H2 3328   4.171   4.861   2.920 -0.6152 -2.1144  0.0558
 1108TIP3   OH2 3329   5.749   1.381   1.518  0.0988 -0.6504 -0.3678
 1108TIP3    H1 3330   5.787   1.410   1.601  0.3564 -2.8150  0.3095
 1108TIP3    H2 3331   5.711   1.461   1.480  2.6955  1.0256  0.3103
 1109TIP3   OH2 3332   0.552   0.147   1.695  0.2100 -0.4834  0.3799
 1109TIP3    H1 3333   0.460   0.161   1.673  0.2548  0.1379  0.5593
 1109TIP3    H2 3334   0.551   0.075   1.758 -0.2219  0.0021  0.9403
 1110TIP3   OH2 3335   1.737   0.498   0.395  0.1268 -0.3080  0.1060
 1110TIP3    H1 3336   1.756   0.569   0.334 -2.5161 -0.2280 -0.7561
 1110TIP3    H2 3337   1.771   0.420   0.352 -0.7286 -0.0928 -1.0183
 1111TIP3   OH2 3338   5.501   2.717   0.383 -0.4612 -0.5454  0.5203
 1111TIP3    H1 3339   5.510   2.624   0.404  0.0123 -0.4480  0.7547
 1111TIP3    H2 3340   5.590   2.747   0.366 -0.8221 -0.6559 -1.9053
 1112TIP3   OH2 3341   3.845   0.355   1.080 -0.0762  0.5023 -0.4623
 1112TIP3    H1 3342   3.903   0.357   1.156 -2.0206 -0.7291  1.1361
 1112TIP3    H2 3343   3.794   0.436   1.086  1.0840  1.3596 -1.6093
 1113TIP3   OH2 3344   4.996   1.480   1.163  0.6998 -0.2138  0.2036
 1113TIP3    H1 3345   5.056   1.530   1.218 -0.1350 -0.1896  1.1116
 1113TIP3    H2 3346   5.003   1.521   1.077  1.3314  0.3428  0.5096
 1114TIP3   OH2 3347   1.303   3.476   3.690 -0.5951  0.0120  1.0489
 1114TIP3    H1 3348   1.279   3.465   3.782 -1.1116  2.3345  1.2437
 1114TIP3    H2 3349   1.225   3.512   3.649  0.1886  0.6217  0.0604
 1115TIP3   OH2 3350   1.007   1.163   1.335  0.0493  0.0785  0.0714
 1115TIP3    H1 3351   0.913   1.182   1.347 -0.1453 -1.5916  1.6681
 1115TIP3    H2 3352   1.009   1.080   1.288  0.7796  0.8391 -1.2852
 1116TIP3   OH2 3353   3.016   5.361   4.796 -0.5782 -0.2084  0.0576
 1116TIP3    H1 3354   3.102   5.359   4.754 -0.6107  1.7386 -0.1972
 1116TIP3    H2 3355   2.956   5.328   4.730 -0.2369 -0.0014 -0.3587
 1117TIP3   OH2 3356   2.710   0.555   2.696  0.1889  0.1618 -0.0426
 1117TIP3    H1 3357   2.780   0.528   2.754  0.3819  3.6716  1.5866
 1117TIP3    H2 3358   2.629   0.533   2.743  0.1990 -0.8442 -0.4483
 1118TIP3   OH2 3359   0.334   1.310   2.152  0.5892  0.0359  0.2126
 1118TIP3    H1 3360   0.330   1.375   2.222  0.7843  0.2283  0.0464
 1118TIP3    H2 3361   0.349   1.227   2.197  0.4161  0.1171  0.4195
 1119TIP3   OH2 3362   1.346   0.808   4.300 -0.8171 -0.3185  0.4318
 1119TIP3    H1 3363   1.378   0.721   4.276 -0.5891 -0.2419  0.4607
 1119TIP3    H2 3364   1.401   0.868   4.251 -0.7530 -0.1802  0.6704
 1120TIP3   OH2 3365   5.681   4.403   3.409 -0.1054 -0.1951 -0.5085
 1120TIP3    H1 3366   5.657   4.493   3.428  0.4165 -0.0405 -0.5762
 1120TIP3    H2 3367   5.692   4.363   3.496 -2.6366 -0.8449 -0.4069
 1121TIP3   OH2 3368   0.936   0.901   1.245 -0.4244 -0.0802 -0.1444
 1121TIP3    H1 3369   0.882   0.875   1.170 -1.0620  0.4569  0.1182
 1121TIP3    H2 3370   1.020   0.859   1.229 -0.3346  0.5363 -1.4925
 1122TIP3   OH2 3371   3.120   0.244   2.938  0.0082 -0.6507  0.2579
 1122TIP3    H1 3372   3.163   0.234   2.853  0.2120 -0.8333  0.3814
 1122TIP3    H2 3373   3.162   0.321   2.977 -1.7166  0.9055 -0.7880
 1123TIP3   OH2 3374   1.475   3.555   3.994 -0.0784  0.0717 -0.3003
 1123TIP3    H1 3375   1.387   3.567   4.029 -0.5569  0.7432 -1.6640
 1123TIP3    H2 3376   1.515   3.642   3.996 -0.3626  0.2746 -1.9868
 1124TIP3   OH2 3377   4.784   0.212   0.227 -0.3052  0.3678  0.1141
 1124TIP3    H1 3378   4.756   0.129   0.266 -0.6862 -0.4258 -1.7066
 1124TIP3    H2 3379   4.878   0.215   0.240 -0.1430 -0.8413 -0.6029
 1125TIP3   OH2 3380   4.041   5.016   0.841  0.3548  0.1007 -0.5951
 1125TIP3    H1 3381   4.042   5.029   0.936 -0.2040 -0.7392 -0.4606
 1125TIP3    H2 3382   4.132   4.999   0.818  0.4595  0.0723 -0.1730
 1126TIP3   OH2 3383   4.096   2.855   1.741  0.3121  0.5492  0.0776
 1126TIP3    H1 3384   4.159   2.810   1.798 -0.7409 -0.3933  0.5325
 1126TIP3    H2 3385   4.013   2.848   1.787 -0.1405  1.8296 -0.4919
 1127TIP3   OH2 3386   1.749   5.593   3.882  0.2307  0.3110 -0.2124
 1127TIP3    H1 3387   1.687   5.627   3.817 -0.5765  0.3545  0.5702
 1127TIP3    H2 3388   1.778   5.671   3.929  1.8539  0.4578 -1.3774
 1128TIP3   OH2 3389   4.242   2.015   1.777 -0.5873 -0.6329  0.5808
 1128TIP3    H1 3390   4.251   2.030   1.682 -1.9613  1.3707  0.7058
 1128TIP3    H2 3391   4.246   2.102   1.815  0.3721 -1.4521  2.4519
 1129TIP3   OH2 3392   0.317   5.529   2.611 -0.0827 -0.1740  0.1934
 1129TIP3    H1 3393   0.281   5.615   2.633  1.6145  0.8599 -0.8255
 1129TIP3    H2 3394   0.354   5.497   2.694  0.8436  0.9041  0.2196
 1130TIP3   OH2 3395   0.204   1.955   4.120  0.1687 -0.0517 -0.2951
 1130TIP3    H1 3396   0.139   1.911   4.175  0.8210 -2.1427 -1.1256
 1130TIP3    H2 3397   0.283   1.902   4.129  2.0189  2.6564  1.0638
 1131TIP3   OH2 3398   5.037   0.116   0.954 -0.2930 -0.7237  0.1711
 1131TIP3    H1 3399   5.007   0.143   1.041 -0.4374  0.3034 -0.1921
 1131TIP3    H2 3400   5.038   0.020   0.958 -0.5166 -0.6909  1.2292
 1132TIP3   OH2 3401   1.654   5.805   2.625  0.0448  0.1284  0.0710
 1132TIP3    H1 3402   1.655   5.867   2.698  1.9633 -0.2567  0.4275
 1132TIP3    H2 3403   1.743   5.770   2.622 -0.3909 -0.9607 -1.5377
 1133TIP3   OH2 3404   3.421   1.280   2.669 -0.0307 -0.6495  0.6022
 1133TIP3    H1 3405   3.437   1.337   2.744  1.0460  0.1304 -0.1979
 1133TIP3    H2 3406   3.504   1.278   2.622 -0.6190 -1.3320 -0.4475
 1134TIP3   OH2 3407   3.218   5.112   4.371 -0.1002 -0.0888  0.2784
 1134TIP3    H1 3408   3.309   5.127   4.346 -0.5483  0.8440 -0.8272
 1134TIP3    H2 3409   3.184   5.050   4.306 -0.6553  0.6816 -0.1811
 1135TIP3   OH2 3410   1.560   2.969   3.892 -0.2402  0.3010  0.7084
 1135TIP3    H1 3411   1.477   2.969   3.939 -0.1190  1.3415  0.9301
 1135TIP3    H2 3412   1.625   2.945   3.958 -0.0987  1.5449  1.0348
 1136TIP3   OH2 3413   0.483   2.516   2.205  1.0783 -0.0475 -0.1678
 1136TIP3    H1 3414   0.548   2.587   2.207  0.8887  0.1408 -0.5721
 1136TIP3    H2 3415   0.503   2.464   2.283  0.3610  1.2060  0.9082
 1137TIP3   OH2 3416   5.060   4.516   0.763  0.7384  0.3081 -0.2759
 1137TIP3    H1 3417   5.024   4.476   0.684  1.3978 -1.2359  0.1667
 1137TIP3    H2 3418   5.017   4.471   0.836 -0.6111  2.4077  0.2981
 1138TIP3   OH2 3419   3.485   3.233   3.593 -0.1700 -0.2473 -0.6587
 1138TIP3    H1 3420   3.398   3.261   3.619  0.1818 -0.6055  1.0239
 1138TIP3    H2 3421   3.530   3.314   3.567 -0.0021  0.4277  1.5826
 1139TIP3   OH2 3422   3.682   2.330   0.309 -0.4428 -0.1815  0.2304
 1139TIP3    H1 3423   3.749   2.330   0.242  1.1527  1.3841  1.7013
 1139TIP3    H2 3424   3.700   2.252   0.362 -1.4395 -1.1818 -0.8638
 1140TIP3   OH2 3425   4.460   2.027   0.900  0.0866  0.3295  0.4935
 1140TIP3    H1 3426   4.410   2.095   0.946 -1.6424  0.5100 -1.4983
 1140TIP3    H2 3427   4.450   1.950   0.956 -1.1001  0.7853  0.9647
 1141TIP3   OH2 3428   2.655   5.221   0.276  0.5745  0.4534 -0.4448
 1141TIP3    H1 3429   2.613   5.305   0.297  0.5576 -0.0635  1.7969
 1141TIP3    H2 3430   2.682   5.231   0.184 -0.9379  2.2563 -0.7689
 1142TIP3   OH2 3431   0.660   3.168   1.155  0.3309  0.0677  0.0749
 1142TIP3    H1 3432   0.643   3.126   1.071 -1.9281  2.1086 -0.6352
 1142TIP3    H2 3433   0.755   3.174   1.161  0.6836 -3.1369 -0.6779
 1143TIP3   OH2 3434   0.317   5.564   2.966 -0.0759  0.0935 -0.0460
 1143TIP3    H1 3435   0.344   5.587   3.056  1.9327 -1.4211 -0.2074
 1143TIP3    H2 3436   0.224   5.589   2.963 -0.4103 -0.4132  2.6730
 1144TIP3   OH2 3437   1.094   4.962   3.156  0.3386 -0.2732  0.6761
 1144TIP3    H1 3438   1.024   4.985   3.094  0.4233  0.7325  0.9329
 1144TIP3    H2 3439   1.163   4.926   3.101 -0.1417 -0.7088  0.3445
 1145TIP3   OH2 3440   2.353   3.984   3.591  0.4367 -0.0607  0.6755
 1145TIP3    H1 3441   2.325   4.066   3.550 -3.6267 -0.4324  2.3428
 1145TIP3    H2 3442   2.428   4.009   3.645  0.6862  2.0434 -0.5192
 1146TIP3   OH2 3443   0.796   1.641   0.400 -0.4911 -0.0846  0.6918
 1146TIP3    H1 3444   0.777   1.639   0.306  1.2327  0.8859  0.2771
 1146TIP3    H2 3445   0.830   1.553   0.419 -0.1785 -0.0650  0.2392
 1147TIP3   OH2 3446   4.671   0.121   1.741  0.1250  0.0212  0.2083
 1147TIP3    H1 3447   4.699   0.032   1.760 -0.1035 -0.2297 -0.5741
 1147TIP3    H2 3448   4.750   0.174   1.755 -0.1562 -0.0318  2.3307
 1148TIP3   OH2 3449   1.721   1.688   2.369  0.2265  0.0994  0.4168
 1148TIP3    H1 3450   1.670   1.729   2.439  0.0888 -0.5036  0.6754
 1148TIP3    H2 3451   1.658   1.676   2.298 -0.0085 -0.6727  0.7473
 1149TIP3   OH2 3452   5.509   0.305   3.734 -0.2513  0.1809 -0.3228
 1149TIP3    H1 3453   5.569   0.251   3.786  2.3175  2.7662 -0.3309
 1149TIP3    H2 3454   5.562   0.336   3.660 -2.5874  0.0541 -2.1515
 1150TIP3   OH2 3455   0.407   1.318   1.194 -0.6402 -0.4154 -0.3737
 1150TIP3    H1 3456   0.439   1.404   1.223  1.1815 -0.8215 -1.0644
 1150TIP3    H2 3457   0.384   1.272   1.275 -0.4484  0.2726  0.0805
 1151TIP3   OH2 3458   5.021   1.774   1.275 -0.7008  0.3637  0.0620
 1151TIP3    H1 3459   4.938   1.813   1.248 -0.0928  1.4442 -0.3371
 1151TIP3    H2 3460   5.000   1.724   1.354 -2.1495 -1.3058 -1.3287
 1152TIP3   OH2 3461   3.901   0.059   0.108  0.0352  0.3183  0.1700
 1152TIP3    H1 3462   3.995   0.040   0.107 -0.1738 -0.8590  0.5818
 1152TIP3    H2 3463   3.880   0.073   0.200  0.1457  2.6087 -0.1031
 1153TIP3   OH2 3464   3.577   1.993   0.950  0.2720 -0.4033 -0.3265
 1153TIP3    H1 3465   3.625   1.958   0.875 -0.8021  2.1352 -2.3578
 1153TIP3    H2 3466   3.635   2.059   0.987 -0.6826  1.1238 -1.4372
 1154TIP3   OH2 3467   1.715   4.681   2.026  0.0144 -0.2721 -0.2219
 1154TIP3    H1 3468   1.667   4.638   1.955  0.4660 -0.2017 -0.5766
 1154TIP3    H2 3469   1.721   4.615   2.095 -0.3464 -0.3707 -0.2828
 1155TIP3   OH2 3470   5.720   4.254   1.184  0.5811 -0.0229 -0.2942
 1155TIP3    H1 3471   5.683   4.214   1.263 -1.0298 -0.1127 -1.0486
 1155TIP3    H2 3472   5.814   4.260   1.202  0.2799 -0.1811  1.5597
 1156TIP3   OH2 3473   0.986   1.071   3.492  0.1888  0.6300 -0.2938
 1156TIP3    H1 3474   0.936   1.152   3.478 -1.1338 -0.0475  0.3337
 1156TIP3    H2 3475   0.976   1.023   3.409 -1.7656 -0.2914  0.4180
 1157TIP3   OH2 3476   4.511   1.061   2.474  0.9170 -0.3218  0.2733
 1157TIP3    H1 3477   4.465   1.062   2.558  0.8897 -1.0643  0.2783
 1157TIP3    H2 3478   4.479   0.982   2.431  0.9564  0.0353 -0.4259
 1158TIP3   OH2 3479   2.260   4.900   1.022  0.0894 -0.0579  0.5462
 1158TIP3    H1 3480   2.240   4.951   0.943 -3.9918  0.5370  1.7353
 1158TIP3    H2 3481   2.328   4.949   1.067  1.2733  0.4892 -1.7159
 1159TIP3   OH2 3482   0.567   5.080   4.911  0.2341 -0.3597 -0.0581
 1159TIP3    H1 3483   0.567   5.067   5.006 -1.2905  0.1081  0.0460
 1159TIP3    H2 3484   0.618   5.160   4.898 -0.5508  0.2582  0.5166
 1160TIP3   OH2 3485   0.460   2.116   3.085  0.6964  0.1973  0.1111
 1160TIP3    H1 3486   0.502   2.197   3.116  1.8800 -1.1807  2.3588
 1160TIP3    H2 3487   0.381   2.109   3.140  0.1624  0.2149 -0.6442
 1161TIP3   OH2 3488   4.887   2.975   4.535 -0.0305  0.3816  0.2656
 1161TIP3    H1 3489   4.799   2.999   4.563  0.1097  1.7440 -0.3510
 1161TIP3    H2 3490   4.917   2.911   4.599 -1.3367  0.1642  0.6736
 1162TIP3   OH2 3491   2.961   3.474   0.072  0.0222 -0.1841 -0.1802
 1162TIP3    H1 3492   3.009   3.540   0.021 -1.4397  0.3533 -0.8971
 1162TIP3    H2 3493   2.929   3.411   0.007  0.5995 -1.1207  0.4016
 1163TIP3   OH2 3494   4.443   1.268   1.812  0.2110  0.1198 -0.0780
 1163TIP3    H1 3495   4.394   1.224   1.742  1.3088  1.3810 -1.7335
 1163TIP3    H2 3496   4.520   1.213   1.825 -0.3735 -0.5334  0.7429
 1164TIP3   OH2 3497   4.266   3.323   1.214 -0.0747 -0.0360 -0.3648
 1164TIP3    H1 3498   4.298   3.234   1.227 -1.1443 -0.5370 -1.1082
 1164TIP3    H2 3499   4.184   3.313   1.167 -0.3886  1.3302 -0.1484
 1165TIP3   OH2 3500   2.244   5.538   2.427  0.0962  0.0804  0.1030
 1165TIP3    H1 3501   2.183   5.478   2.469  0.9683 -0.0381  1.2452
 1165TIP3    H2 3502   2.307   5.481   2.383  1.0492  0.1208  1.3672
 1166TIP3   OH2 3503   4.824   2.001   3.890  0.1150 -0.1463 -0.0001
 1166TIP3    H1 3504   4.862   1.996   3.803  0.9981  1.1272  0.2784
 1166TIP3    H2 3505   4.854   1.922   3.935 -0.9202 -1.1620 -1.0309
 1167TIP3   OH2 3506   0.894   3.267   5.101  0.5189 -0.0241 -0.0923
 1167TIP3    H1 3507   0.844   3.313   5.034 -0.0803 -0.6150 -0.0660
 1167TIP3    H2 3508   0.916   3.334   5.165  1.2208  0.5751 -0.9430
 1168TIP3   OH2 3509   5.485   0.339   4.090  0.0230  0.4325  0.0360
 1168TIP3    H1 3510   5.569   0.387   4.094  1.1262 -1.3496 -0.5962
 1168TIP3    H2 3511   5.450   0.359   4.003 -1.3176  2.8521  1.0423
 1169TIP3   OH2 3512   0.870   2.914   0.208 -0.1454  0.2889  0.0879
 1169TIP3    H1 3513   0.806   2.976   0.174 -0.4620  0.2490  0.5961
 1169TIP3    H2 3514   0.825   2.829   0.204 -0.5769  0.4161  1.5240
 1170TIP3   OH2 3515   6.009   5.564   5.134  0.1933 -0.5255  0.1610
 1170TIP3    H1 3516   5.958   5.488   5.105 -0.4203 -0.1907  0.3458
 1170TIP3    H2 3517   5.944   5.631   5.150  0.7628  0.1742 -0.3831
 1171TIP3   OH2 3518   1.976   3.883   4.190  0.0872  0.3853  0.1997
 1171TIP3    H1 3519   2.012   3.842   4.269 -0.1080 -1.1364 -0.4557
 1171TIP3    H2 3520   1.970   3.811   4.126  2.6456  2.0093 -2.0931
 1172TIP3   OH2 3521   3.779   4.169   1.824  0.0112  0.1671  0.3599
 1172TIP3    H1 3522   3.805   4.261   1.825  0.8327 -0.0258 -0.8243
 1172TIP3    H2 3523   3.858   4.121   1.847 -0.0870 -0.2867 -0.2214
 1173TIP3   OH2 3524   4.890   4.334   2.627  0.4086  0.2990  0.2948
 1173TIP3    H1 3525   4.916   4.426   2.639 -0.4133  0.5107  0.5588
 1173TIP3    H2 3526   4.964   4.283   2.659  1.6483  0.8554 -1.5294
 1174TIP3   OH2 3527   0.832   3.932   4.326 -0.7256 -0.7053  0.2592
 1174TIP3    H1 3528   0.828   3.920   4.231  0.0879 -1.2498  0.2764
 1174TIP3    H2 3529   0.762   3.877   4.361 -0.5301 -1.1210  0.0093
 1175TIP3   OH2 3530   1.883   0.980   2.545 -0.2833  0.4306 -0.1591
 1175TIP3    H1 3531   1.909   0.946   2.631 -1.5058  0.8739  0.4140
 1175TIP3    H2 3532   1.933   1.061   2.535 -0.5552  0.6745  0.4018
 1176TIP3   OH2 3533   2.411   2.956   0.796  0.9043 -0.4752 -0.1837
 1176TIP3    H1 3534   2.387   3.043   0.828 -0.3820 -0.8085 -0.1955
 1176TIP3    H2 3535   2.328   2.913   0.778  1.5371 -1.1466 -1.7303
 1177TIP3   OH2 3536   3.437   5.814   1.804  0.0060 -0.2157  0.4322
 1177TIP3    H1 3537   3.526   5.810   1.770 -0.4519 -0.5676 -0.7498
 1177TIP3    H2 3538   3.418   5.908   1.811  0.7664 -0.1166  1.5582
 1178TIP3   OH2 3539   3.974   2.089   4.778 -0.4532 -0.8470  0.8010
 1178TIP3    H1 3540   4.053   2.043   4.750  0.0579  0.6263 -0.2965
 1178TIP3    H2 3541   3.921   2.097   4.699 -1.3872 -1.1694  1.3739
 1179TIP3   OH2 3542   0.131   2.410   3.031  0.2936  0.4136  0.0014
 1179TIP3    H1 3543   0.185   2.387   3.106  0.7032  0.1552 -0.3685
 1179TIP3    H2 3544   0.046   2.432   3.069 -0.3843 -2.4084  0.3622
 1180TIP3   OH2 3545   0.601   3.866   2.800  0.3994  0.0910  0.4277
 1180TIP3    H1 3546   0.685   3.909   2.782 -0.3443  1.5648  0.2892
 1180TIP3    H2 3547   0.540   3.939   2.814 -0.9763 -0.9410  0.0084
 1181TIP3   OH2 3548   1.585   4.117   1.514 -0.4670  0.1113 -0.1348
 1181TIP3    H1 3549   1.508   4.162   1.550 -0.8953 -0.1778 -0.6667
 1181TIP3    H2 3550   1.581   4.029   1.551 -0.0564  0.2794  0.3068
 1182TIP3   OH2 3551   6.261   4.220   0.835 -0.1879 -0.2711  0.2319
 1182TIP3    H1 3552   6.211   4.233   0.915 -1.7187 -0.0561 -0.7131
 1182TIP3    H2 3553   6.244   4.128   0.811 -1.4328  0.2240 -0.9062
 1183TIP3   OH2 3554   0.603   2.214   2.646 -0.9113  0.7567 -0.0438
 1183TIP3    H1 3555   0.540   2.207   2.718  0.3153  0.4247  1.0592
 1183TIP3    H2 3556   0.599   2.129   2.602  0.7642 -0.3889  1.8265
 1184TIP3   OH2 3557   2.951   4.825   4.426  0.2647 -0.4480 -0.1998
 1184TIP3    H1 3558   3.022   4.882   4.457 -1.1676  1.7695 -0.7533
 1184TIP3    H2 3559   2.930   4.859   4.339 -1.8066 -0.6861  0.1677
 1185TIP3   OH2 3560   1.419   0.827   0.578 -0.1921  0.5396  0.0123
 1185TIP3    H1 3561   1.479   0.901   0.588 -0.4432  0.9842 -1.5531
 1185TIP3    H2 3562   1.463   0.754   0.623  0.9979  1.1303 -0.1604
 1186TIP3   OH2 3563   4.965   2.039   0.378  0.1290 -0.4907 -0.0379
 1186TIP3    H1 3564   4.940   1.953   0.413  0.7875 -0.7458 -0.1772
 1186TIP3    H2 3565   4.949   2.100   0.450  1.0519 -0.9507  0.5759
 1187TIP3   OH2 3566   0.181   0.932   0.340 -0.0263  0.5171  0.2839
 1187TIP3    H1 3567   0.118   0.967   0.277 -0.5466 -2.9962 -1.3746
 1187TIP3    H2 3568   0.168   0.986   0.419 -2.4613  2.2759 -1.1663
 1188TIP3   OH2 3569   1.084   5.195   2.594  0.3908 -0.4113 -0.0090
 1188TIP3    H1 3570   1.085   5.131   2.524 -0.4105 -0.3455 -0.0934
 1188TIP3    H2 3571   1.126   5.273   2.557  0.4899 -0.5664 -0.2228
 1189TIP3   OH2 3572   1.598   1.107   2.749 -0.1620 -0.3923 -0.5424
 1189TIP3    H1 3573   1.562   1.194   2.730 -1.6269 -0.3090  2.1868
 1189TIP3    H2 3574   1.537   1.046   2.706 -1.1418 -0.1301  0.4455
 1190TIP3   OH2 3575   2.678   0.424   4.478 -0.1145  0.2399 -0.0061
 1190TIP3    H1 3576   2.715   0.375   4.552 -1.5095 -1.0926 -0.1418
 1190TIP3    H2 3577   2.754   0.446   4.424  0.4885 -4.2376 -1.3913
 1191TIP3   OH2 3578   5.689   0.960   5.093  0.0382  0.1542 -0.6384
 1191TIP3    H1 3579   5.736   0.877   5.100  2.2607  1.3584 -0.1017
 1191TIP3    H2 3580   5.607   0.946   5.141  0.2404 -1.7828 -0.8065
 1192TIP3   OH2 3581   6.300   2.737   2.429 -0.1877 -0.1428  0.2304
 1192TIP3    H1 3582   6.323   2.809   2.487 -1.6241  1.1368 -0.6887
 1192TIP3    H2 3583   6.206   2.749   2.411 -0.4110 -2.0648 -0.2172
 1193TIP3   OH2 3584   4.817   4.688   5.125  0.3811 -0.5231  0.0844
 1193TIP3    H1 3585   4.777   4.666   5.041  0.0579  2.7293 -0.7772
 1193TIP3    H2 3586   4.872   4.613   5.147 -0.5604 -2.0331 -2.3582
 1194TIP3   OH2 3587   3.914   4.494   2.525 -0.0275  0.2039 -0.3946
 1194TIP3    H1 3588   3.857   4.446   2.464 -1.5015  1.8978 -0.4266
 1194TIP3    H2 3589   3.931   4.432   2.595 -2.0947 -0.3364 -0.2956
 1195TIP3   OH2 3590   0.871   3.993   3.154 -0.0842  0.1189 -0.7266
 1195TIP3    H1 3591   0.883   4.009   3.248  1.2339  2.1805 -1.1882
 1195TIP3    H2 3592   0.794   4.045   3.131 -0.9142 -1.0395 -0.6802
 1196TIP3   OH2 3593   5.229   4.897   4.432 -0.6792  0.1072 -0.0107
 1196TIP3    H1 3594   5.207   4.839   4.359  2.0860  0.0191 -0.8953
 1196TIP3    H2 3595   5.272   4.972   4.391 -0.3902  0.7676  1.4312
 1197TIP3   OH2 3596   1.320   4.138   1.571 -0.5148  0.5238 -0.4588
 1197TIP3    H1 3597   1.251   4.165   1.632 -0.1726  1.6680 -0.5483
 1197TIP3    H2 3598   1.281   4.148   1.484 -0.8140 -0.5548 -0.4584
 1198TIP3   OH2 3599   5.445   3.072  -0.034  0.0714  0.4326  0.9451
 1198TIP3    H1 3600   5.374   3.083   0.028  1.1182  0.2650  2.2014
 1198TIP3    H2 3601   5.524   3.098   0.014  1.1450 -1.4983  0.3209
 1199TIP3   OH2 3602   6.216   4.053   3.627  0.3551  0.1206  0.6834
 1199TIP3    H1 3603   6.289   4.004   3.664 -0.3029 -0.9856  0.5466
 1199TIP3    H2 3604   6.150   4.054   3.696  0.1819  0.4153  0.5155
 1200TIP3   OH2 3605   5.132   3.012   3.136 -0.3902 -0.0788  0.0772
 1200TIP3    H1 3606   5.151   3.019   3.229 -1.8488  3.0882  0.2700
 1200TIP3    H2 3607   5.072   2.937   3.129 -1.6212  0.6634  1.9634
 1201TIP3   OH2 3608   2.192   3.479   0.281  0.1395 -0.1015 -0.1454
 1201TIP3    H1 3609   2.113   3.500   0.232  0.3339  3.0522  0.6605
 1201TIP3    H2 3610   2.169   3.400   0.332 -2.1062  0.1170 -0.7143
 1202TIP3   OH2 3611   3.126   0.089   0.433  0.3165 -0.1766  0.3238
 1202TIP3    H1 3612   3.189   0.044   0.490 -0.5481 -0.3033  1.2011
 1202TIP3    H2 3613   3.127   0.180   0.462  0.7902  0.0292 -0.3066
 1203TIP3   OH2 3614   5.059   4.315   0.978 -0.1294 -0.6298 -0.1368
 1203TIP3    H1 3615   5.062   4.227   0.942 -0.4544 -1.4583  1.7127
 1203TIP3    H2 3616   5.039   4.302   1.071 -1.1366  1.4458 -0.0038
 1204TIP3   OH2 3617   4.105   1.646   2.938  0.1275  0.0776  0.4341
 1204TIP3    H1 3618   4.014   1.632   2.962 -0.3784  0.9322 -0.8929
 1204TIP3    H2 3619   4.146   1.680   3.017 -1.5251  2.9947  0.1550
 1205TIP3   OH2 3620   4.880   2.168   1.623 -0.5116 -0.0851  0.1690
 1205TIP3    H1 3621   4.848   2.197   1.537 -0.3065  2.2485  0.8280
 1205TIP3    H2 3622   4.803   2.132   1.666 -0.6495 -1.1506 -0.9096
 1206TIP3   OH2 3623   2.750   4.738   2.328 -0.3094 -0.5193  0.1271
 1206TIP3    H1 3624   2.824   4.792   2.355 -0.1616 -0.3341 -0.6095
 1206TIP3    H2 3625   2.735   4.679   2.401 -0.2833  0.3235  0.8272
 1207TIP3   OH2 3626   0.719   5.030   0.064  0.0037  0.4926 -0.3593
 1207TIP3    H1 3627   0.769   4.976   0.125  0.3244  0.0223 -1.0223
 1207TIP3    H2 3628   0.747   5.000  -0.023  0.1503  1.6807 -0.7417
 1208TIP3   OH2 3629   1.715   5.838   1.662  0.0407 -0.2048 -0.8594
 1208TIP3    H1 3630   1.693   5.894   1.588 -1.3549  0.0487 -0.2760
 1208TIP3    H2 3631   1.631   5.805   1.694  0.6871 -1.0619  0.0297
 1209TIP3   OH2 3632   1.693   4.357   4.535 -0.6680  0.6943 -0.5102
 1209TIP3    H1 3633   1.768   4.314   4.494  0.9400 -1.1302  3.7063
 1209TIP3    H2 3634   1.635   4.285   4.561 -1.5394  1.6713  0.3783
 1210TIP3   OH2 3635   4.654   5.884   2.088  0.1219 -0.2551 -0.2331
 1210TIP3    H1 3636   4.641   5.944   2.162  1.0603 -0.2397 -0.0679
 1210TIP3    H2 3637   4.566   5.855   2.065 -0.1857 -0.3634  0.9850
 1211TIP3   OH2 3638   0.913   1.534   1.854 -1.0277 -0.2486  0.2637
 1211TIP3    H1 3639   0.827   1.565   1.826 -1.0264  1.5288  2.0180
 1211TIP3    H2 3640   0.974   1.596   1.815 -0.8724  0.8867  2.2103
 1212TIP3   OH2 3641   2.995   2.136   0.246  0.9063  0.1158 -0.7434
 1212TIP3    H1 3642   3.040   2.127   0.331 -1.0818 -0.2977  0.3278
 1212TIP3    H2 3643   3.029   2.063   0.194 -2.0694 -3.4992  1.8145
 1213TIP3   OH2 3644   2.175   2.665   3.123  0.2426  0.5888  0.6176
 1213TIP3    H1 3645   2.144   2.612   3.050 -0.9752  0.0291  1.5058
 1213TIP3    H2 3646   2.218   2.740   3.082 -1.7743  1.0954 -0.7081
 1214TIP3   OH2 3647   2.805   5.949   1.884 -0.4251 -0.4784  0.2032
 1214TIP3    H1 3648   2.823   5.856   1.900  0.9242  0.1385  2.6762
 1214TIP3    H2 3649   2.722   5.964   1.929  0.1328 -0.1606  1.1385
 1215TIP3   OH2 3650   1.042   0.812   0.203 -0.0414  0.0524  0.4222
 1215TIP3    H1 3651   1.132   0.785   0.224  0.3669  1.1448  0.1483
 1215TIP3    H2 3652   1.050   0.858   0.120 -0.4786  2.0948  1.4429
 1216TIP3   OH2 3653   4.581   5.915   3.712 -0.0193  0.3904  0.1327
 1216TIP3    H1 3654   4.567   5.917   3.618  1.0320  2.9688 -0.0368
 1216TIP3    H2 3655   4.656   5.856   3.724 -0.1651  0.0402 -0.6051
 1217TIP3   OH2 3656   4.965   1.627   0.944  0.0955 -0.2490 -0.0562
 1217TIP3    H1 3657   4.874   1.653   0.926 -0.2515 -0.2000  1.5517
 1217TIP3    H2 3658   5.018   1.688   0.893 -0.7798  0.0039 -0.6884
 1218TIP3   OH2 3659   1.374   5.730   1.225  0.7314  0.2741 -0.4506
 1218TIP3    H1 3660   1.314   5.784   1.174  0.1433 -1.2759 -1.4701
 1218TIP3    H2 3661   1.460   5.769   1.208  0.4672  0.2359 -2.0949
 1219TIP3   OH2 3662   6.205   4.370   1.533  0.0544 -0.1809 -0.9305
 1219TIP3    H1 3663   6.256   4.379   1.613  0.5574 -0.6802 -1.1800
 1219TIP3    H2 3664   6.126   4.422   1.548 -0.7877 -1.8063  0.6426
 1220TIP3   OH2 3665   4.101   2.873   3.179  0.0226  0.2831 -0.2988
 1220TIP3    H1 3666   4.102   2.793   3.127  2.6574  0.8161 -1.2214
 1220TIP3    H2 3667   4.095   2.843   3.269  1.8067 -1.0701 -0.5675
 1221TIP3   OH2 3668   0.092   3.180   4.894  0.2526 -0.7330  0.6813
 1221TIP3    H1 3669   0.176   3.222   4.913 -0.5848  1.1714  0.4515
 1221TIP3    H2 3670   0.067   3.216   4.808 -1.9923  0.8482  1.8855
 1222TIP3   OH2 3671   2.619   2.441   2.355  0.0913 -0.1481 -0.2740
 1222TIP3    H1 3672   2.686   2.383   2.319  1.5272 -0.5309  2.6888
 1222TIP3    H2 3673   2.662   2.527   2.361 -0.4527  0.1389 -0.4277
 1223TIP3   OH2 3674   2.780   5.864   0.670 -0.8224 -0.1093  0.0428
 1223TIP3    H1 3675   2.876   5.863   0.662 -0.7264  0.0236  1.0510
 1223TIP3    H2 3676   2.753   5.780   0.634 -0.3908  0.1551 -0.9314
 1224TIP3   OH2 3677   1.351   1.549   1.856  0.1146 -0.2521 -0.0758
 1224TIP3    H1 3678   1.433   1.534   1.903  0.8515  2.4061 -0.3120
 1224TIP3    H2 3679   1.282   1.533   1.921  0.8356 -1.5470  0.4033
 1225TIP3   OH2 3680   0.324   0.769   0.628 -0.1618  0.3325 -0.1466
 1225TIP3    H1 3681   0.353   0.825   0.700 -1.3670  0.7453  0.0419
 1225TIP3    H2 3682   0.229   0.781   0.625 -0.5588 -2.1140  0.2510
 1226TIP3   OH2 3683   4.467   1.707   1.616 -0.2219  0.6737  0.2708
 1226TIP3    H1 3684   4.395   1.643   1.614  0.3249 -0.0062  1.2156
 1226TIP3    H2 3685   4.522   1.683   1.542  0.1289 -0.1664  0.7834
 1227TIP3   OH2 3686   3.473   0.723   4.295 -0.0080  0.1702  0.3197
 1227TIP3    H1 3687   3.547   0.784   4.293 -0.6074  0.9843  1.3492
 1227TIP3    H2 3688   3.412   0.763   4.357 -1.5057 -0.2577 -0.8276
 1228TIP3   OH2 3689   4.304   2.321   0.262  0.2723  0.2996 -0.0116
 1228TIP3    H1 3690   4.331   2.371   0.339  1.2734  2.2006 -1.5126
 1228TIP3    H2 3691   4.377   2.260   0.247  1.9261  2.5048 -1.5602
 1229TIP3   OH2 3692   2.829   1.692   0.422 -0.0041  0.0245  0.4011
 1229TIP3    H1 3693   2.897   1.720   0.361  0.9765 -0.8462  1.0581
 1229TIP3    H2 3694   2.871   1.626   0.477 -1.1711 -0.0110  1.3083
 1230TIP3   OH2 3695   1.517   4.379   0.665 -0.1125 -0.5580  0.3400
 1230TIP3    H1 3696   1.545   4.297   0.623 -2.7083 -1.9930  1.1792
 1230TIP3    H2 3697   1.598   4.418   0.698  1.7966 -0.5461 -3.7130
 1231TIP3   OH2 3698   1.737   3.917   3.821 -0.6464 -0.2971 -0.0840
 1231TIP3    H1 3699   1.669   3.880   3.878 -0.9814  1.0988  0.4866
 1231TIP3    H2 3700   1.817   3.911   3.873 -0.7896  0.1911  0.1994
 1232TIP3   OH2 3701   3.693   5.913   1.724  0.0653  0.0506  0.2284
 1232TIP3    H1 3702   3.706   6.000   1.762 -2.7542  0.4974  0.3779
 1232TIP3    H2 3703   3.723   5.921   1.634 -0.6611  1.3737  0.0829
 1233TIP3   OH2 3704   1.317   3.941   0.514 -0.0674  0.5251 -0.1791
 1233TIP3    H1 3705   1.274   3.858   0.496  0.7397 -0.0326  0.3847
 1233TIP3    H2 3706   1.249   3.995   0.554 -0.2271 -0.3933  0.8370
 1234TIP3   OH2 3707   2.680   4.545   1.677  0.5488 -0.3543 -0.0582
 1234TIP3    H1 3708   2.662   4.516   1.766  0.9600  1.1576  0.5562
 1234TIP3    H2 3709   2.745   4.484   1.643 -0.6399 -1.7784  0.1537
 1235TIP3   OH2 3710   6.095   0.727   3.801  0.2667  0.5870 -0.6324
 1235TIP3    H1 3711   6.131   0.703   3.716 -0.5358 -2.4682 -0.2543
 1235TIP3    H2 3712   6.007   0.689   3.801  1.0023 -1.5153  2.2720
 1236TIP3   OH2 3713   1.837   3.870   2.006  0.0938  0.4128  0.1834
 1236TIP3    H1 3714   1.785   3.802   2.050 -0.3353  0.0079 -0.9011
 1236TIP3    H2 3715   1.775   3.941   1.992  0.6293  1.2044  1.6267
 1237TIP3   OH2 3716   5.403   1.833   2.416 -0.3714  0.5444  0.1367
 1237TIP3    H1 3717   5.463   1.775   2.369 -0.1912  0.8885 -0.0576
 1237TIP3    H2 3718   5.459   1.884   2.474 -0.2836  1.9089 -1.1085
 1238TIP3   OH2 3719   2.468  -0.010   3.402  0.0618  0.7681 -0.6527
 1238TIP3    H1 3720   2.557  -0.009   3.366 -0.9764  1.2358 -3.3927
 1238TIP3    H2 3721   2.449   0.082   3.422  0.4610  0.5663  0.8180
 1239TIP3   OH2 3722   4.238   1.295   2.234 -0.2949  0.4837  0.4432
 1239TIP3    H1 3723   4.320   1.258   2.201 -0.0860  1.0517  0.3071
 1239TIP3    H2 3724   4.187   1.315   2.156 -1.4714 -1.7891  0.5474
 1240TIP3   OH2 3725   5.544   4.506   2.972 -0.2510  0.5202  0.0952
 1240TIP3    H1 3726   5.520   4.436   3.033 -1.5688  1.1263  0.3166
 1240TIP3    H2 3727   5.615   4.470   2.920 -0.5345 -0.7810  0.5812
 1241TIP3   OH2 3728   1.039   3.434   4.546 -0.1233 -0.3655 -0.4066
 1241TIP3    H1 3729   1.044   3.425   4.641 -0.7863 -1.5895 -0.4760
 1241TIP3    H2 3730   1.130   3.442   4.518  0.0860 -0.1718  0.3117
 1242TIP3   OH2 3731   0.300   3.879   3.650 -0.2653 -0.2327 -0.4580
 1242TIP3    H1 3732   0.238   3.860   3.579  0.5012  0.0443 -1.2214
 1242TIP3    H2 3733   0.300   3.800   3.704 -1.9365  0.0898  0.0686
 1243TIP3   OH2 3734   2.235   5.051   1.691  0.1884 -0.2723  0.0449
 1243TIP3    H1 3735   2.266   4.972   1.735 -1.8059 -0.3915  1.3842
 1243TIP3    H2 3736   2.140   5.051   1.705  0.1547  2.5610  0.4670
 1244TIP3   OH2 3737   0.480   2.255   0.063 -0.6739  0.0353 -0.0300
 1244TIP3    H1 3738   0.486   2.176   0.010 -1.9656  0.6553 -1.1499
 1244TIP3    H2 3739   0.474   2.326  -0.001  0.2323  1.0369  0.9541
 1245TIP3   OH2 3740   1.843   3.409   1.094 -0.1177 -0.3297  0.6574
 1245TIP3    H1 3741   1.928   3.405   1.137 -0.5772 -1.7917  1.5264
 1245TIP3    H2 3742   1.847   3.342   1.027  0.2263  1.2424 -0.9579
 1246TIP3   OH2 3743   5.673   3.180   2.743  0.3194 -0.1519 -0.0054
 1246TIP3    H1 3744   5.744   3.205   2.683 -0.8715  1.5641 -0.8052
 1246TIP3    H2 3745   5.660   3.086   2.727  1.5222 -0.2047 -0.8096
 1247TIP3   OH2 3746   2.028   2.611   3.504  0.4592 -0.2401 -0.0014
 1247TIP3    H1 3747   2.106   2.630   3.557 -1.2215  0.7514  2.3070
 1247TIP3    H2 3748   1.977   2.692   3.507 -0.6701 -0.8625 -1.4522
 1248TIP3   OH2 3749   3.549   3.885   4.492  0.3199  0.0882 -0.2118
 1248TIP3    H1 3750   3.511   3.962   4.449  0.1089 -0.4646 -1.0273
 1248TIP3    H2 3751   3.643   3.890   4.472  0.2407 -0.0990 -0.6257
 1249TIP3   OH2 3752   2.731   1.287   1.351  0.2022 -0.0564  0.6127
 1249TIP3    H1 3753   2.818   1.269   1.315 -0.5968 -0.1189 -1.4058
 1249TIP3    H2 3754   2.718   1.381   1.337 -1.1561 -0.5193 -1.8761
 1250TIP3   OH2 3755   5.194   2.044   0.204  0.1312 -0.0444  0.3981
 1250TIP3    H1 3756   5.150   2.050   0.289 -0.4940  2.1691 -0.0373
 1250TIP3    H2 3757   5.123   2.023   0.143  0.6946 -2.4330  0.4370
 1251TIP3   OH2 3758   3.007   3.361   2.643  0.2978  0.0796  0.3307
 1251TIP3    H1 3759   3.042   3.274   2.623 -0.2228 -0.5270  1.8913
 1251TIP3    H2 3760   3.034   3.377   2.734 -0.0863  1.3106  0.2472
 1252TIP3   OH2 3761   1.549   0.785   2.827  0.1781 -0.6301  0.4390
 1252TIP3    H1 3762   1.615   0.846   2.859 -0.1608 -0.4280  0.7550
 1252TIP3    H2 3763   1.561   0.706   2.880  0.9571 -1.0394 -0.3146
 1253TIP3   OH2 3764   0.885   2.948   2.701 -0.5017 -0.1779 -0.2567
 1253TIP3    H1 3765   0.827   2.902   2.641 -0.2076 -0.9006  0.0016
 1253TIP3    H2 3766   0.827   2.996   2.760 -0.8307 -0.6997 -0.1540
 1254TIP3   OH2 3767   1.390   2.920   4.118  0.3245 -0.0823 -0.4115
 1254TIP3    H1 3768   1.406   3.014   4.105  2.8308 -0.4143 -0.2442
 1254TIP3    H2 3769   1.343   2.915   4.202  1.3684  0.9748  0.2730
 1255TIP3   OH2 3770   0.207   1.705   0.633  0.6203  0.0411  0.2916
 1255TIP3    H1 3771   0.293   1.673   0.606  0.0531 -0.3365 -1.1402
 1255TIP3    H2 3772   0.224   1.789   0.674  1.9221 -1.0841  2.2318
 1256TIP3   OH2 3773   1.382   1.398   4.991 -0.6637  0.1393  0.0762
 1256TIP3    H1 3774   1.462   1.350   5.013 -0.7353  0.0095  0.0566
 1256TIP3    H2 3775   1.412   1.475   4.942 -0.6789 -1.1782 -2.1765
 1257TIP3   OH2 3776   4.193   4.327   2.505  0.1551  0.0988 -0.3264
 1257TIP3    H1 3777   4.250   4.264   2.549  0.2847  0.2990 -0.2024
 1257TIP3    H2 3778   4.201   4.407   2.558 -0.7844 -0.0759  0.0998
 1258TIP3   OH2 3779   2.575   1.492   5.074 -0.4486 -0.1612 -0.0953
 1258TIP3    H1 3780   2.573   1.521   4.983 -0.7366 -0.2997 -0.1342
 1258TIP3    H2 3781   2.490   1.516   5.109  0.4052  1.8225  0.7551
 1259TIP3   OH2 3782   0.897   1.496   1.251 -0.4026  0.3091  0.0862
 1259TIP3    H1 3783   0.883   1.427   1.186  0.1685 -0.8072  1.1017
 1259TIP3    H2 3784   0.810   1.531   1.268 -0.9069 -1.0530  0.4731
 1260TIP3   OH2 3785   3.163   3.020   1.055 -1.1057  0.2925  0.1844
 1260TIP3    H1 3786   3.117   3.046   0.975 -1.8914 -1.4309  0.0513
 1260TIP3    H2 3787   3.101   3.039   1.125 -1.8132 -1.4156  0.0601
 1261TIP3   OH2 3788   2.911   3.998   2.537 -0.2005  0.1276  0.2201
 1261TIP3    H1 3789   2.973   4.007   2.464 -0.5766 -0.1183 -0.1370
 1261TIP3    H2 3790   2.967   3.991   2.615  0.2106  0.2598 -0.0562
 1262TIP3   OH2 3791   4.165   1.494   0.617  0.1029 -0.2495 -0.3091
 1262TIP3    H1 3792   4.117   1.554   0.559 -0.0858 -0.1110 -0.0141
 1262TIP3    H2 3793   4.257   1.516   0.603  0.1376 -1.0947 -1.5109
 1263TIP3   OH2 3794   4.292   3.122   3.048 -0.0560 -0.2703  0.2569
 1263TIP3    H1 3795   4.346   3.104   2.971 -1.9885  0.0242 -1.2385
 1263TIP3    H2 3796   4.286   3.038   3.093  1.0799 -0.4495  0.1166
 1264TIP3   OH2 3797   3.823   2.871   2.381 -0.2332 -0.0885  0.2607
 1264TIP3    H1 3798   3.915   2.882   2.405 -0.4964  0.1965  1.1817
 1264TIP3    H2 3799   3.815   2.779   2.356  0.2294 -0.1968  0.5029
 1265TIP3   OH2 3800   0.250   4.090   1.679 -0.1758 -0.0388  0.1082
 1265TIP3    H1 3801   0.183   4.022   1.678 -0.2964  0.0752  0.4186
 1265TIP3    H2 3802   0.230   4.143   1.756  0.5745 -0.3063  0.4944
 1266TIP3   OH2 3803   2.606   2.921   3.718 -0.2676 -0.4855  0.2073
 1266TIP3    H1 3804   2.599   2.997   3.660 -1.0216 -1.8762 -1.6099
 1266TIP3    H2 3805   2.701   2.908   3.728 -0.0372  1.9094  2.3393
 1267TIP3   OH2 3806   3.690   4.368   2.915 -0.5755  0.2806 -0.3534
 1267TIP3    H1 3807   3.656   4.286   2.951 -0.7679 -0.1828 -1.5488
 1267TIP3    H2 3808   3.625   4.394   2.850  1.3104 -0.7028 -2.8114
 1268TIP3   OH2 3809   0.474   4.333   3.282 -0.1894  0.0493 -0.0744
 1268TIP3    H1 3810   0.440   4.263   3.338  0.3570 -0.5977 -0.5302
 1268TIP3    H2 3811   0.411   4.404   3.291  0.4963  0.4403  2.3021
 1269TIP3   OH2 3812   2.851   3.297   2.040 -0.3967 -0.5004  0.0759
 1269TIP3    H1 3813   2.794   3.355   1.989 -1.2052 -1.9870 -0.8161
 1269TIP3    H2 3814   2.823   3.308   2.130 -2.2461 -1.2665 -0.3521
 1270TIP3   OH2 3815   6.381   3.581   4.160  0.1562  0.6598  0.2894
 1270TIP3    H1 3816   6.346   3.582   4.249  2.8050  1.7220  1.4078
 1270TIP3    H2 3817   6.329   3.646   4.113 -0.6269  0.8209  1.3382
 1271TIP3   OH2 3818   3.365   0.782   3.765 -0.2776  0.3728  0.6513
 1271TIP3    H1 3819   3.308   0.710   3.791  0.8425 -0.5030  0.7513
 1271TIP3    H2 3820   3.308   0.860   3.768 -2.0649 -0.7327 -1.3923
 1272TIP3   OH2 3821   3.887   3.059   3.126 -0.1087 -0.0195 -0.3068
 1272TIP3    H1 3822   3.962   3.001   3.137 -1.0643 -0.9496  2.0564
 1272TIP3    H2 3823   3.918   3.129   3.069  1.9688 -1.3300 -0.8777
 1273TIP3   OH2 3824   4.055   0.616   2.330  0.3698  0.4985  0.1741
 1273TIP3    H1 3825   4.075   0.617   2.424  1.4572  0.6209 -0.0361
 1273TIP3    H2 3826   4.134   0.579   2.290 -0.9391 -1.7131 -0.5277
 1274TIP3   OH2 3827   4.116   4.649   2.399  0.1599  0.1608 -0.0524
 1274TIP3    H1 3828   4.202   4.612   2.417 -0.0487 -0.8558 -1.0224
 1274TIP3    H2 3829   4.056   4.598   2.454  0.0478  0.1216 -0.2110
 1275TIP3   OH2 3830   5.682   4.001   5.088  0.1046  0.1713 -0.6218
 1275TIP3    H1 3831   5.683   4.030   5.180  1.4580 -0.4219 -0.4283
 1275TIP3    H2 3832   5.616   3.931   5.086  1.0382 -0.7621  0.2218
 1276TIP3   OH2 3833   2.631   0.154   5.006  0.0497  0.1057 -0.3508
 1276TIP3    H1 3834   2.632   0.082   5.068 -0.1247  0.7106  0.3658
 1276TIP3    H2 3835   2.704   0.136   4.947 -0.3056 -0.9188 -0.4938
 1277TIP3   OH2 3836   1.762   4.481   0.851  0.2918 -0.1228  0.4200
 1277TIP3    H1 3837   1.751   4.564   0.898  1.5237 -0.0757  0.6463
 1277TIP3    H2 3838   1.844   4.490   0.803 -0.8659 -0.2205 -1.7045
 1278TIP3   OH2 3839   4.420   3.562   3.884  0.0176  0.0984 -0.2784
 1278TIP3    H1 3840   4.333   3.532   3.912  0.1879  0.7325  1.0361
 1278TIP3    H2 3841   4.479   3.529   3.953  0.5802  1.0670 -0.2847
 1279TIP3   OH2 3842   0.937   4.696   0.617 -0.1438  0.3880 -0.3687
 1279TIP3    H1 3843   0.887   4.764   0.662  1.0624  1.4474 -0.5608
 1279TIP3    H2 3844   1.010   4.676   0.677  1.5546  1.8983 -1.7941
 1280TIP3   OH2 3845   0.255   0.099   3.095 -0.0523 -0.4466 -0.3539
 1280TIP3    H1 3846   0.331   0.141   3.135  0.0977 -1.3860  0.3989
 1280TIP3    H2 3847   0.280   0.007   3.086 -1.1345 -0.8049  0.0525
 1281TIP3   OH2 3848   1.888   4.205   4.422  0.0873  0.4684 -0.0109
 1281TIP3    H1 3849   1.940   4.125   4.433 -0.8672 -0.2455 -0.4847
 1281TIP3    H2 3850   1.951   4.271   4.396  1.4378  0.7205  3.4652
 1282TIP3   OH2 3851   0.001   3.098   1.609  0.1383 -0.3230 -0.9353
 1282TIP3    H1 3852   0.086   3.069   1.575 -0.1014 -3.4051  0.7838
 1282TIP3    H2 3853   0.002   3.073   1.701 -1.8600  1.5350 -0.3333
 1283TIP3   OH2 3854   4.918   4.873   3.597 -0.3076 -0.4249  0.4940
 1283TIP3    H1 3855   5.008   4.840   3.603 -0.3893 -0.4050  2.3313
 1283TIP3    H2 3856   4.922   4.960   3.638 -0.6438  0.7914 -1.8714
 1284TIP3   OH2 3857   0.224   2.698   2.283  0.2785  0.3564 -0.4325
 1284TIP3    H1 3858   0.276   2.648   2.220  2.2219 -2.5329  3.0364
 1284TIP3    H2 3859   0.151   2.640   2.305  1.1974 -0.0685  1.8528
 1285TIP3   OH2 3860   2.230   5.124   2.465 -0.5404  0.0117  0.3349
 1285TIP3    H1 3861   2.318   5.148   2.496  0.2487 -1.4700 -0.6381
 1285TIP3    H2 3862   2.198   5.061   2.528 -1.2276  1.0627  1.0694
 1286TIP3   OH2 3863   2.326   2.127   0.051  0.1038 -0.3475  0.3814
 1286TIP3    H1 3864   2.404   2.182   0.044 -0.5562  0.6150  0.3891
 1286TIP3    H2 3865   2.259   2.174   0.001 -1.4100  0.6289  3.1079
 1287TIP3   OH2 3866   3.935   4.133   0.582 -0.3703 -0.5553  0.5348
 1287TIP3    H1 3867   3.847   4.098   0.589 -0.4105 -0.5347  0.1480
 1287TIP3    H2 3868   3.991   4.065   0.619 -0.5307 -0.6450  0.6147
 1288TIP3   OH2 3869   5.851   1.401   4.190  0.2897  0.5955  0.0870
 1288TIP3    H1 3870   5.906   1.402   4.268 -0.6075  0.3708  0.7487
 1288TIP3    H2 3871   5.911   1.382   4.118  1.1642  1.0085  0.6952
 1289TIP3   OH2 3872   0.827   0.852   3.940  0.2478 -0.1655 -0.0182
 1289TIP3    H1 3873   0.841   0.863   3.846  0.7656  1.8871  0.2490
 1289TIP3    H2 3874   0.771   0.775   3.948 -0.3613  0.0248 -2.0445
 1290TIP3   OH2 3875   0.462   1.445   3.372  0.0381 -0.8930 -0.2530
 1290TIP3    H1 3876   0.404   1.370   3.359 -0.0712 -0.7758 -0.4497
 1290TIP3    H2 3877   0.481   1.444   3.466 -1.0768 -0.3634 -0.0014
 1291TIP3   OH2 3878   0.783   5.773   2.465  0.7030 -0.5177  0.3009
 1291TIP3    H1 3879   0.844   5.707   2.431  1.7969  2.1291 -3.4623
 1291TIP3    H2 3880   0.759   5.825   2.389 -4.5767  0.1078  2.0306
 1292TIP3   OH2 3881   1.700   3.589   0.945  0.4935  0.0727 -0.0238
 1292TIP3    H1 3882   1.753   3.568   1.023  0.0017  2.3180  1.0099
 1292TIP3    H2 3883   1.620   3.628   0.981  0.5854  1.9067 -1.6367
 1293TIP3   OH2 3884   0.743   4.031   2.577  0.3425  0.1491 -0.3320
 1293TIP3    H1 3885   0.813   4.024   2.512  1.0755 -2.0007  0.6111
 1293TIP3    H2 3886   0.778   3.988   2.655 -1.3978  0.5616  0.7326
 1294TIP3   OH2 3887   5.847   1.628   0.212  0.1751 -0.0022  0.1154
 1294TIP3    H1 3888   5.795   1.566   0.162 -0.6742  1.3901 -0.7973
 1294TIP3    H2 3889   5.882   1.689   0.146 -0.2116  1.3314  1.0974
 1295TIP3   OH2 3890   3.404   3.998   0.648  0.0950  0.4499  0.7786
 1295TIP3    H1 3891   3.331   3.937   0.650 -0.1542  0.6747 -0.6120
 1295TIP3    H2 3892   3.393   4.052   0.726 -0.1500 -0.7182  1.5779
 1296TIP3   OH2 3893   1.453   4.819   0.966  0.7979 -0.0476 -0.2304
 1296TIP3    H1 3894   1.458   4.809   1.061 -0.1095  0.6170 -0.0971
 1296TIP3    H2 3895   1.444   4.730   0.933 -2.8324 -0.1421  0.6169
 1297TIP3   OH2 3896   3.669   3.516   4.085 -0.4359 -0.0992 -0.1514
 1297TIP3    H1 3897   3.627   3.567   4.154 -0.3869 -1.2874  0.8014
 1297TIP3    H2 3898   3.634   3.427   4.096  2.9948 -1.4460  1.4181
 1298TIP3   OH2 3899   4.995   4.541   2.966 -0.0457  0.1206 -0.3435
 1298TIP3    H1 3900   4.923   4.491   3.003  1.7736 -2.6169 -0.2474
 1298TIP3    H2 3901   5.019   4.494   2.886  2.5141  0.0658  0.3790
 1299TIP3   OH2 3902   5.100   3.783   4.966 -0.1859  0.0182  0.4221
 1299TIP3    H1 3903   5.118   3.737   4.884 -0.4206 -0.3489  0.5785
 1299TIP3    H2 3904   5.014   3.752   4.993 -0.4220  0.6652  0.4466
 1300TIP3   OH2 3905   3.769   1.207   4.726  0.0032 -0.4929  0.4440
 1300TIP3    H1 3906   3.747   1.298   4.747  1.2384  0.2263 -1.1180
 1300TIP3    H2 3907   3.850   1.190   4.775  0.6958 -0.1495 -0.5411
 1301TIP3   OH2 3908   0.551   1.685   3.223 -0.6771 -0.4620 -0.2053
 1301TIP3    H1 3909   0.459   1.677   3.198 -1.0035 -0.6369  1.0099
 1301TIP3    H2 3910   0.562   1.625   3.297  0.2880 -0.0628  0.0012
 1302TIP3   OH2 3911   4.883   1.365   2.638 -0.3244  0.2885  0.0653
 1302TIP3    H1 3912   4.923   1.321   2.564  1.3447  0.1391  1.0065
 1302TIP3    H2 3913   4.919   1.454   2.637 -2.1946  1.0844 -0.7020
 1303TIP3   OH2 3914   2.046   4.549   1.089  0.0451 -0.6551  0.3399
 1303TIP3    H1 3915   2.023   4.523   1.178 -0.5745 -0.4417  0.2451
 1303TIP3    H2 3916   2.019   4.475   1.035 -2.1371  0.3071  0.0155
 1304TIP3   OH2 3917   1.194   2.177   4.821  0.8542  0.4023  0.9238
 1304TIP3    H1 3918   1.168   2.086   4.813 -1.1561  0.9882  0.3657
 1304TIP3    H2 3919   1.286   2.178   4.792  1.7925 -1.8145  3.4133
 1305TIP3   OH2 3920   3.145   1.928   0.141  0.1090  0.5249  0.4061
 1305TIP3    H1 3921   3.101   1.860   0.191 -0.1503  1.0634  0.9051
 1305TIP3    H2 3922   3.238   1.912   0.156  0.1338 -0.6990 -0.7628
 1306TIP3   OH2 3923   3.292   2.282   0.306 -0.5877 -0.0726 -0.0827
 1306TIP3    H1 3924   3.262   2.281   0.215 -0.6841 -2.2799 -0.0849
 1306TIP3    H2 3925   3.267   2.196   0.340  1.7587 -0.3163  1.2419
 1307TIP3   OH2 3926   2.818   2.116   1.164 -0.1089 -0.6344 -0.3635
 1307TIP3    H1 3927   2.897   2.128   1.111  0.6114 -2.1067  0.2971
 1307TIP3    H2 3928   2.770   2.198   1.155  1.5716  0.3745 -0.6680
 1308TIP3   OH2 3929   4.609   0.914   4.828  0.4163  0.1476  0.4062
 1308TIP3    H1 3930   4.531   0.963   4.802 -0.3109 -0.6416  1.0898
 1308TIP3    H2 3931   4.682   0.966   4.792 -0.2993  1.9070  1.3756
 1309TIP3   OH2 3932   4.047   2.394   0.577  0.0436  0.2305 -0.3427
 1309TIP3    H1 3933   4.008   2.471   0.536 -0.0350 -0.1922 -1.0851
 1309TIP3    H2 3934   4.048   2.327   0.507  0.2800 -0.3792  0.2310
 1310TIP3   OH2 3935   0.032   0.806   3.363 -0.4355  0.5901  0.0023
 1310TIP3    H1 3936   0.117   0.828   3.400 -0.3708  1.2278 -0.5043
 1310TIP3    H2 3937   0.051   0.740   3.296 -0.1684  1.5972 -0.9516
 1311TIP3   OH2 3938   4.103   2.842   1.481  0.0381 -0.2784  0.0111
 1311TIP3    H1 3939   4.016   2.878   1.462 -0.6001 -1.2895  0.9207
 1311TIP3    H2 3940   4.097   2.810   1.571  1.7954  0.9057  0.6102
 1312TIP3   OH2 3941   3.364   0.336   4.043 -0.2240  0.1518  0.0776
 1312TIP3    H1 3942   3.345   0.261   4.100 -0.9354 -1.0907 -1.7135
 1312TIP3    H2 3943   3.324   0.313   3.959  0.3278  2.1579 -0.7886
 1313TIP3   OH2 3944   0.592   4.415   1.753 -0.1258 -0.2569  0.4231
 1313TIP3    H1 3945   0.683   4.411   1.723  0.4095  0.2795  1.8772
 1313TIP3    H2 3946   0.580   4.336   1.805 -0.4071 -0.1969  0.4496
 1314TIP3   OH2 3947   3.058   1.467   0.257  0.6443 -0.5316 -0.0834
 1314TIP3    H1 3948   2.995   1.410   0.303  0.2153  0.3262  0.4133
 1314TIP3    H2 3949   3.138   1.415   0.253  0.7808 -0.5513  1.9173
 1315TIP3   OH2 3950   3.779   4.447   3.481 -0.0966  0.5088 -0.2945
 1315TIP3    H1 3951   3.804   4.522   3.428  2.5670  0.3934  0.6375
 1315TIP3    H2 3952   3.790   4.372   3.422 -0.4247  0.6436 -0.5311
 1316TIP3   OH2 3953   3.145   1.143   4.522  0.8961 -0.0677  0.1690
 1316TIP3    H1 3954   3.228   1.096   4.532 -0.0231 -1.9133 -0.3985
 1316TIP3    H2 3955   3.153   1.189   4.439  1.3007 -0.3846  0.0264
 1317TIP3   OH2 3956   2.559   5.798   1.758 -0.3261 -0.1268 -0.1872
 1317TIP3    H1 3957   2.496   5.769   1.692 -1.1645  0.5419  0.2884
 1317TIP3    H2 3958   2.505   5.812   1.837  0.2955  1.1886  0.0213
 1318TIP3   OH2 3959   2.935   1.863   1.211  0.0745 -0.0751  0.6011
 1318TIP3    H1 3960   2.880   1.940   1.223 -0.7258 -0.6972  0.9963
 1318TIP3    H2 3961   2.963   1.839   1.299 -0.0218 -0.4790  0.5248
 1319TIP3   OH2 3962   4.436   4.236   0.404 -0.6534  0.2057  0.3231
 1319TIP3    H1 3963   4.349   4.206   0.378 -0.5352  0.3611 -0.2912
 1319TIP3    H2 3964   4.494   4.164   0.379 -0.6697 -0.1504  1.2857
 1320TIP3   OH2 3965   4.563   3.850   5.156  0.1331  0.6123  0.0851
 1320TIP3    H1 3966   4.629   3.918   5.169 -0.2432  0.7511  1.4928
 1320TIP3    H2 3967   4.557   3.839   5.061  2.7510  0.0169 -0.0797
 1321TIP3   OH2 3968   4.653   1.735   0.083  0.6677 -0.3262 -0.1711
 1321TIP3    H1 3969   4.590   1.678   0.040  1.0368 -1.4276  0.7000
 1321TIP3    H2 3970   4.642   1.717   0.176  1.1732  0.6302  0.0849
 1322TIP3   OH2 3971   5.210   0.802   2.482 -0.0775  0.1341 -0.1864
 1322TIP3    H1 3972   5.265   0.839   2.414 -0.0383 -1.0832 -0.8351
 1322TIP3    H2 3973   5.180   0.719   2.447  1.1221 -1.2431  1.8358
 1323TIP3   OH2 3974   4.665   0.723   3.612  0.6053 -0.3235 -0.3530
 1323TIP3    H1 3975   4.692   0.675   3.534 -1.2042  0.0047 -1.2230
 1323TIP3    H2 3976   4.585   0.769   3.587 -0.8851 -1.3602  2.0864
 1324TIP3   OH2 3977   2.100   4.272   4.672  0.5284  0.0939  0.4658
 1324TIP3    H1 3978   2.008   4.260   4.649  0.5245 -1.8290  1.3038
 1324TIP3    H2 3979   2.108   4.235   4.760  1.7421  1.9388  1.1802
 1325TIP3   OH2 3980   2.215   1.398   4.501  0.2434  0.0563  0.0312
 1325TIP3    H1 3981   2.213   1.304   4.514 -0.0816 -0.2318 -1.8494
 1325TIP3    H2 3982   2.123   1.422   4.488  0.5536  0.1488 -2.3484
 1326TIP3   OH2 3983   3.659   4.843   0.758 -0.2229  0.4565  0.2489
 1326TIP3    H1 3984   3.668   4.749   0.749 -3.1618  0.2421 -1.6352
 1326TIP3    H2 3985   3.697   4.880   0.678 -0.9968  0.6821 -0.0260
 1327TIP3   OH2 3986   4.613   3.659   2.823  0.4414 -0.6767 -0.0721
 1327TIP3    H1 3987   4.573   3.612   2.750  0.0814  1.5194 -1.3728
 1327TIP3    H2 3988   4.540   3.706   2.864  0.7221 -1.4963  1.4366
 1328TIP3   OH2 3989   1.801   0.054   1.265  0.1857 -0.0085  0.2673
 1328TIP3    H1 3990   1.805  -0.003   1.188 -1.8675 -1.2059  0.9718
 1328TIP3    H2 3991   1.756   0.003   1.331  0.7910  1.4542  1.8908
 1329TIP3   OH2 3992   2.411   5.449   0.491  0.4896 -0.2240  0.7415
 1329TIP3    H1 3993   2.365   5.366   0.489  0.2145 -0.1575  2.3400
 1329TIP3    H2 3994   2.438   5.465   0.401  0.1787 -1.8255  0.3416
 1330TIP3   OH2 3995   1.068   3.110   0.396 -0.6446 -0.1655 -0.0814
 1330TIP3    H1 3996   1.014   3.081   0.322  0.9966  0.6273 -1.6497
 1330TIP3    H2 3997   1.091   3.029   0.441 -1.5058 -0.6833 -0.5367
 1331TIP3   OH2 3998   1.751   1.884   3.816 -0.4797 -0.0314  0.2606
 1331TIP3    H1 3999   1.713   1.903   3.730 -0.6175  0.0911  0.3465
 1331TIP3    H2 4000   1.693   1.817   3.853  0.2250 -0.9142 -0.1973
 1332TIP3   OH2 4001   4.837   5.654   0.758 -0.5380 -0.1068  0.4131
 1332TIP3    H1 4002   4.851   5.692   0.672 -1.8169 -1.3778 -0.4076
 1332TIP3    H2 4003   4.863   5.562   0.748  1.5074  0.2162  2.0434
 1333TIP3   OH2 4004   3.731   0.168   4.653 -0.2335 -0.3937  0.1788
 1333TIP3    H1 4005   3.728   0.098   4.588  0.0761 -2.1892  1.9952
 1333TIP3    H2 4006   3.642   0.170   4.690  0.3091 -1.4297  1.6595
 1334TIP3   OH2 4007   0.962   3.085   3.923  0.1512 -0.2196  0.5594
 1334TIP3    H1 4008   1.015   3.005   3.926 -1.4043 -1.3132  0.4178
 1334TIP3    H2 4009   0.961   3.110   3.831 -1.3981 -1.5356  0.1694
 1335TIP3   OH2 4010   1.248   5.733   2.617  0.1831 -0.2256  0.5628
 1335TIP3    H1 4011   1.276   5.804   2.560 -0.5128 -0.4216 -0.0411
 1335TIP3    H2 4012   1.298   5.657   2.588 -1.9380 -0.9616 -1.5568
 1336TIP3   OH2 4013   3.550   2.588   1.269 -0.0356  0.3240  0.4548
 1336TIP3    H1 4014   3.610   2.637   1.325 -1.2381  0.1927  1.9031
 1336TIP3    H2 4015   3.574   2.614   1.180  2.7963 -0.4377  0.8993
 1337TIP3   OH2 4016   0.443   0.850   0.291  0.8518  0.2813  0.5694
 1337TIP3    H1 4017   0.420   0.771   0.339 -0.5649  1.6000  2.2422
 1337TIP3    H2 4018   0.367   0.907   0.301  1.8288  1.8753 -0.5203
 1338TIP3   OH2 4019   2.924   5.411   2.080  0.1817  0.0170 -0.1605
 1338TIP3    H1 4020   2.991   5.349   2.051  0.0223  0.0034 -0.5067
 1338TIP3    H2 4021   2.908   5.465   2.004 -0.1025  0.1101 -0.0338
 1339TIP3   OH2 4022   3.166   4.842   1.768  0.6307  0.5410  0.5546
 1339TIP3    H1 4023   3.094   4.780   1.760  0.4361  1.0018 -3.6071
 1339TIP3    H2 4024   3.199   4.830   1.857 -2.3157 -2.1617  1.4555
 1340TIP3   OH2 4025   2.029   0.213   1.227 -0.0693 -0.2507  0.4898
 1340TIP3    H1 4026   1.974   0.137   1.245 -0.0159 -0.5023 -0.3451
 1340TIP3    H2 4027   1.978   0.267   1.167 -0.2171  0.5170  1.2926
 1341TIP3   OH2 4028   1.517   3.737   4.888 -0.3751 -0.3938 -0.1838
 1341TIP3    H1 4029   1.458   3.670   4.920  2.3880 -1.9502  2.1075
 1341TIP3    H2 4030   1.589   3.739   4.952  1.5703  2.0554 -2.2021
 1342TIP3   OH2 4031   5.758   4.825   2.336 -0.3087 -0.1111  0.3163
 1342TIP3    H1 4032   5.688   4.808   2.399 -0.5187  0.3038  0.2031
 1342TIP3    H2 4033   5.834   4.777   2.369 -0.6552 -0.5881  0.4270
 1343TIP3   OH2 4034   5.172   5.237   1.698  0.0773 -0.1352  0.5902
 1343TIP3    H1 4035   5.115   5.310   1.675 -0.4859 -1.1779 -1.4987
 1343TIP3    H2 4036   5.218   5.267   1.777 -0.8325  2.0723  0.3544
 1344TIP3   OH2 4037   0.626   0.949   0.950  0.3121 -0.1126  0.0286
 1344TIP3    H1 4038   0.535   0.919   0.950  0.3440 -0.2101  0.2435
 1344TIP3    H2 4039   0.677   0.871   0.970  0.5565 -0.3754 -1.4708
 1345TIP3   OH2 4040   3.059   4.584   0.662 -0.0730  0.4502  0.0671
 1345TIP3    H1 4041   3.072   4.494   0.630 -0.0685 -0.1891  1.7360
 1345TIP3    H2 4042   3.056   4.637   0.583  0.7287 -0.9144 -0.9441
 1346TIP3   OH2 4043   1.820   1.735   2.053 -0.0862 -0.2599 -0.4805
 1346TIP3    H1 4044   1.895   1.734   2.112 -0.0223 -0.3592 -0.5631
 1346TIP3    H2 4045   1.845   1.676   1.982  0.7071  1.4343 -1.6873
 1347TIP3   OH2 4046   6.367   0.954   3.674 -0.1036  0.5707 -0.0586
 1347TIP3    H1 4047   6.387   0.864   3.649 -0.5799  0.5413 -0.3514
 1347TIP3    H2 4048   6.273   0.952   3.695 -0.2796  1.1490 -0.7552
 1348TIP3   OH2 4049   2.492   2.637   1.567 -0.6984 -0.0950 -0.2781
 1348TIP3    H1 4050   2.553   2.581   1.615 -0.7251 -0.2264 -0.3987
 1348TIP3    H2 4051   2.490   2.600   1.478 -0.0496  0.6035 -0.5985
 1349TIP3   OH2 4052   1.714   4.409   3.529 -0.0919  0.0060 -0.1662
 1349TIP3    H1 4053   1.635   4.388   3.480 -0.2151  0.0845  0.0004
 1349TIP3    H2 4054   1.698   4.375   3.617  0.7049 -1.4436 -0.5498
 1350TIP3   OH2 4055   2.915   2.085   4.235  0.3132  0.1719  0.4591
 1350TIP3    H1 4056   3.003   2.054   4.213  0.3019  0.5174 -0.0764
 1350TIP3    H2 4057   2.903   2.058   4.326 -0.1650 -2.5482 -0.3045
 1351TIP3   OH2 4058   3.950   4.793   1.638 -0.5097  0.2415  0.2577
 1351TIP3    H1 4059   3.918   4.863   1.695  0.4771  0.4806  0.5305
 1351TIP3    H2 4060   4.029   4.761   1.682 -1.0886 -1.2371  0.2867
 1352TIP3   OH2 4061   4.694   4.265   1.043  0.6506 -0.4304  0.1918
 1352TIP3    H1 4062   4.755   4.216   0.987 -1.1547 -2.8574  0.1882
 1352TIP3    H2 4063   4.697   4.219   1.127  0.6809  1.0064  1.0016
 1353TIP3   OH2 4064   1.516   0.852   0.242 -0.2712 -0.0812  0.2190
 1353TIP3    H1 4065   1.438   0.896   0.209 -0.5680  1.1687  2.3936
 1353TIP3    H2 4066   1.486   0.806   0.321  1.2430  0.8895  1.4196
 1354TIP3   OH2 4067   1.635   2.935   2.063 -0.1517  0.1729 -0.3669
 1354TIP3    H1 4068   1.642   2.974   1.976 -1.3150  1.9837  0.2939
 1354TIP3    H2 4069   1.604   3.006   2.119 -0.5875 -1.2523  1.2976
 1355TIP3   OH2 4070   3.529   0.835   3.988  0.5925  0.4007 -0.0527
 1355TIP3    H1 4071   3.487   0.854   3.904  0.5493 -0.1873 -0.1705
 1355TIP3    H2 4072   3.503   0.908   4.045 -2.4900 -1.0090  0.5513
 1356TIP3   OH2 4073   0.025   0.827   4.665 -0.3366  0.0059 -0.0739
 1356TIP3    H1 4074   0.072   0.812   4.582  0.7872 -0.1924  0.5768
 1356TIP3    H2 4075   0.024   0.742   4.708 -0.4396  0.2209  0.3499
 1357TIP3   OH2 4076   5.150   1.170   1.789  0.3051 -0.1425 -0.0422
 1357TIP3    H1 4077   5.066   1.179   1.834  0.7586  1.7146  0.5157
 1357TIP3    H2 4078   5.210   1.140   1.858  0.0724 -1.8510 -0.5262
 1358TIP3   OH2 4079   3.611   0.313   3.944 -0.4043  0.2584 -0.1988
 1358TIP3    H1 4080   3.526   0.317   3.989 -0.2353  1.0140  0.0589
 1358TIP3    H2 4081   3.613   0.391   3.888 -0.5941 -0.6336 -1.5213
 1359TIP3   OH2 4082   5.210   2.957   1.492 -0.0342  0.1710 -0.0375
 1359TIP3    H1 4083   5.191   3.030   1.432 -0.8003 -0.3048 -0.3914
 1359TIP3    H2 4084   5.210   2.997   1.579  2.0926  1.0609 -0.3980
 1360TIP3   OH2 4085   5.785   2.823   5.190  0.0308 -0.6162  0.1492
 1360TIP3    H1 4086   5.743   2.880   5.125 -2.2946 -0.5240  1.6606
 1360TIP3    H2 4087   5.853   2.878   5.229  1.1844 -0.5372 -1.8329
 1361TIP3   OH2 4088   2.079   0.363   3.817 -0.1761 -0.0013 -0.1569
 1361TIP3    H1 4089   2.052   0.289   3.870 -0.2236  0.2648  0.1955
 1361TIP3    H2 4090   2.002   0.419   3.814  0.3578  0.8498  1.0029
 1362TIP3   OH2 4091   4.815   0.706   2.300 -0.2358 -0.0373 -0.0462
 1362TIP3    H1 4092   4.853   0.621   2.323 -0.2470 -0.1686 -0.4962
 1362TIP3    H2 4093   4.884   0.751   2.252 -0.2307  0.2070  0.1925
 1363TIP3   OH2 4094   4.365   1.723   0.712 -0.0806 -0.6397 -0.2680
 1363TIP3    H1 4095   4.431   1.655   0.727 -0.5220 -0.8196  1.0030
 1363TIP3    H2 4096   4.303   1.712   0.784 -0.2280  1.0256 -0.1077
 1364TIP3   OH2 4097   3.439   3.704   4.680 -0.2578 -0.1148 -0.4637
 1364TIP3    H1 4098   3.515   3.645   4.678  1.2702  1.7420 -0.1815
 1364TIP3    H2 4099   3.463   3.776   4.622 -1.9678  0.3646 -0.6169
 1365TIP3   OH2 4100   1.885   3.451   3.619  0.3441  0.1350  0.2236
 1365TIP3    H1 4101   1.895   3.545   3.632 -0.4758  0.5252 -1.5545
 1365TIP3    H2 4102   1.790   3.438   3.611  0.4136 -0.9307  0.9316
 1366TIP3   OH2 4103   2.007   2.537   3.828  0.1100 -0.6548  0.4426
 1366TIP3    H1 4104   2.080   2.581   3.783 -1.3294 -0.2363 -1.6539
 1366TIP3    H2 4105   2.005   2.450   3.789 -0.0137 -0.9565  1.1097
 1367TIP3   OH2 4106   5.412   2.228   2.282 -0.6174  0.1451 -0.0875
 1367TIP3    H1 4107   5.401   2.299   2.345 -1.4093  1.5977 -1.7719
 1367TIP3    H2 4108   5.443   2.272   2.203  0.6072 -1.6554 -0.6531
 1368TIP3   OH2 4109   0.568   4.616   1.961  0.1248  0.1511 -0.6316
 1368TIP3    H1 4110   0.575   4.533   1.915 -0.6689 -0.8232  0.9041
 1368TIP3    H2 4111   0.491   4.658   1.923 -0.0872 -0.3017 -0.7076
 1369TIP3   OH2 4112   5.801   5.481   0.474  0.5096 -0.0395  0.3107
 1369TIP3    H1 4113   5.824   5.388   0.469  0.1297 -0.0699 -1.3007
 1369TIP3    H2 4114   5.706   5.483   0.463  0.2861  0.4563  1.9373
 1370TIP3   OH2 4115   5.817   0.198   1.775 -0.5897  0.0163  0.0520
 1370TIP3    H1 4116   5.911   0.211   1.759 -0.6121 -0.1864 -0.2383
 1370TIP3    H2 4117   5.774   0.243   1.702 -0.7362  0.6223  0.5043
 1371TIP3   OH2 4118   2.352   3.357   3.918  0.7037  0.1839 -0.1269
 1371TIP3    H1 4119   2.339   3.419   3.990 -0.1278 -0.7614  0.5614
 1371TIP3    H2 4120   2.271   3.361   3.867  1.5479  1.3599 -1.4619
 1372TIP3   OH2 4121   4.947   4.485   4.977 -0.8301  0.7145  0.1661
 1372TIP3    H1 4122   4.910   4.429   4.909  1.6441  0.4560 -1.1001
 1372TIP3    H2 4123   5.001   4.426   5.029  0.6221  1.5857 -0.2768
 1373TIP3   OH2 4124   2.214   4.296   0.654  0.6017 -0.2762 -0.2750
 1373TIP3    H1 4125   2.237   4.361   0.720 -0.8429  1.8001 -1.7019
 1373TIP3    H2 4126   2.160   4.343   0.592 -1.1250 -3.0470 -1.0391
 1374TIP3   OH2 4127   3.055   1.585   1.704  0.1731  0.3341  0.1392
 1374TIP3    H1 4128   3.096   1.671   1.709  1.3857 -0.1533 -0.9183
 1374TIP3    H2 4129   3.128   1.523   1.708 -0.4259 -0.5679 -1.7288
 1375TIP3   OH2 4130   4.483   3.197   4.321  0.4352 -0.2069 -0.5339
 1375TIP3    H1 4131   4.504   3.276   4.271  0.5111 -0.7876 -1.4378
 1375TIP3    H2 4132   4.474   3.128   4.255 -0.8388 -0.7111  0.1204
 1376TIP3   OH2 4133   5.242   1.452   2.295 -0.2832 -0.1912  0.0560
 1376TIP3    H1 4134   5.182   1.411   2.233 -1.4275  0.6756  0.5512
 1376TIP3    H2 4135   5.198   1.534   2.320  0.8419  0.1847  0.8771
 1377TIP3   OH2 4136   3.266   3.997   1.579 -0.5938 -0.1971 -0.5176
 1377TIP3    H1 4137   3.207   3.963   1.512 -1.7066  0.8909 -0.1239
 1377TIP3    H2 4138   3.240   4.089   1.590 -0.6690 -0.4255  1.6242
 1378TIP3   OH2 4139   4.774   4.363   3.627  0.3385 -0.2197  0.1139
 1378TIP3    H1 4140   4.852   4.389   3.676 -0.4548 -0.2522  1.4421
 1378TIP3    H2 4141   4.761   4.271   3.650  0.2286 -0.3703 -0.5475
 1379TIP3   OH2 4142   4.621   3.479   3.732  0.2838 -0.1645  0.0205
 1379TIP3    H1 4143   4.645   3.449   3.820  0.0997  2.1796  0.9628
 1379TIP3    H2 4144   4.529   3.506   3.741 -0.3306 -1.6133 -1.4320
 1380TIP3   OH2 4145   5.940   3.314   4.719 -0.0723  0.6519  0.0234
 1380TIP3    H1 4146   5.941   3.312   4.623 -0.3157 -1.3494  0.0185
 1380TIP3    H2 4147   6.032   3.317   4.744  0.0176  0.2622 -0.2626
 1381TIP3   OH2 4148   4.532   1.653   4.196  0.1446  0.3020 -0.1093
 1381TIP3    H1 4149   4.627   1.642   4.196 -0.0078 -1.4032 -1.9751
 1381TIP3    H2 4150   4.518   1.738   4.238  2.4339  0.2719  0.8285
 1382TIP3   OH2 4151   4.974   5.497   4.586 -0.5434  0.2955  0.4605
 1382TIP3    H1 4152   5.003   5.406   4.593  0.0771  0.5303  1.0703
 1382TIP3    H2 4153   4.945   5.506   4.495 -1.2237 -0.6822  0.5603
 1383TIP3   OH2 4154   3.594   3.987   2.804  0.2285 -0.6864  0.0631
 1383TIP3    H1 4155   3.571   4.018   2.716  1.5535  0.2858  0.0219
 1383TIP3    H2 4156   3.680   3.945   2.792  1.1847  0.8550  1.1215
 1384TIP3   OH2 4157   4.386   2.759   2.696  0.2904  0.1772  0.4270
 1384TIP3    H1 4158   4.317   2.807   2.743  0.7695  2.1940 -0.8060
 1384TIP3    H2 4159   4.467   2.784   2.740  0.4461 -0.5801  0.5882
 1385TIP3   OH2 4160   0.404   5.530   3.880  0.1836 -0.9745  0.0179
 1385TIP3    H1 4161   0.370   5.592   3.816  0.5588 -0.5081  0.2655
 1385TIP3    H2 4162   0.468   5.478   3.831  1.1183 -0.0445  0.1964
 1386TIP3   OH2 4163   0.679   4.732   2.601 -0.5433  0.2572  0.3025
 1386TIP3    H1 4164   0.775   4.734   2.598 -0.4383 -2.0676  0.6011
 1386TIP3    H2 4165   0.658   4.719   2.693 -1.2582  2.1527  0.4639
 1387TIP3   OH2 4166   5.514   3.823   1.163  0.2586  0.5670 -0.3035
 1387TIP3    H1 4167   5.536   3.862   1.079 -1.4833  1.2200 -0.5058
 1387TIP3    H2 4168   5.560   3.739   1.163 -1.3802 -0.4681 -2.8973
 1388TIP3   OH2 4169   2.583   2.107   3.425  0.3977  0.3069 -0.2268
 1388TIP3    H1 4170   2.491   2.088   3.411  0.1604  1.1067  0.2161
 1388TIP3    H2 4171   2.604   2.067   3.509  0.1170  1.2388  0.2947
 1389TIP3   OH2 4172   3.673   4.018   0.582  0.3819 -0.0848 -0.2894
 1389TIP3    H1 4173   3.588   3.993   0.619 -0.8781 -0.0391 -2.9787
 1389TIP3    H2 4174   3.685   3.962   0.506  2.1599  0.8241 -0.7450
 1390TIP3   OH2 4175   2.352   1.389   2.042 -0.2822  0.1382 -0.1045
 1390TIP3    H1 4176   2.311   1.387   2.129 -0.0110  1.7727  0.0813
 1390TIP3    H2 4177   2.374   1.481   2.028  0.6799 -0.2784 -1.4506
 1391TIP3   OH2 4178   0.051   4.943   0.234  0.4078  0.2825 -0.1702
 1391TIP3    H1 4179  -0.001   4.904   0.304 -0.1934 -1.1589 -1.3672
 1391TIP3    H2 4180   0.089   5.022   0.273 -1.8963  0.8788  1.0496
 1392TIP3   OH2 4181   2.590   4.826   3.449 -0.6106 -0.4038  0.0979
 1392TIP3    H1 4182   2.616   4.734   3.449 -0.3430 -0.3314  0.4916
 1392TIP3    H2 4183   2.578   4.847   3.541 -0.7721 -0.0700  0.0015
 1393TIP3   OH2 4184   3.877   4.917   4.860 -0.2195  0.1037  0.2236
 1393TIP3    H1 4185   3.960   4.949   4.896  0.9688 -1.6299 -0.8201
 1393TIP3    H2 4186   3.871   4.960   4.774 -1.1043  1.2576  0.8444
 1394TIP3   OH2 4187   2.265   4.174   3.871  0.1926  0.0989 -0.0447
 1394TIP3    H1 4188   2.217   4.244   3.827 -0.0477  0.6929  1.1094
 1394TIP3    H2 4189   2.197   4.113   3.900  0.3241 -0.1630 -0.2915
 1395TIP3   OH2 4190   1.601   5.149   1.641  0.6430 -0.1274  0.2146
 1395TIP3    H1 4191   1.597   5.129   1.548  1.0578 -1.5865  0.4878
 1395TIP3    H2 4192   1.540   5.087   1.682 -0.2693  1.1319  0.8404
 1396TIP3   OH2 4193   6.087   1.344   0.653 -0.5344  0.2120 -0.4486
 1396TIP3    H1 4194   6.133   1.355   0.736 -1.3825 -0.8007  0.1807
 1396TIP3    H2 4195   6.143   1.387   0.588  0.7137 -0.0049  0.4598
 1397TIP3   OH2 4196   4.185   4.743   4.851 -0.1038 -0.6405 -0.2101
 1397TIP3    H1 4197   4.133   4.733   4.771 -4.7582 -0.5332  2.4972
 1397TIP3    H2 4198   4.159   4.828   4.886  2.9294 -0.0114  0.8555
 1398TIP3   OH2 4199   2.334   2.574   5.116 -0.0154 -0.1798  0.3817
 1398TIP3    H1 4200   2.365   2.489   5.146  0.5654  0.4253  1.5657
 1398TIP3    H2 4201   2.356   2.576   5.023 -2.8479 -2.5626 -0.4999
 1399TIP3   OH2 4202   5.569   0.245   2.606 -0.0628  0.4163 -0.2940
 1399TIP3    H1 4203   5.563   0.339   2.624 -0.1625  0.5870 -1.1346
 1399TIP3    H2 4204   5.661   0.231   2.585 -0.3424  0.7033 -1.9291
 1400TIP3   OH2 4205   3.281   3.729   2.437 -1.0425 -0.2344  0.2169
 1400TIP3    H1 4206   3.243   3.812   2.410  0.1220 -0.0201 -0.8003
 1400TIP3    H2 4207   3.207   3.681   2.476 -1.6837  1.3166  0.9772
 1401TIP3   OH2 4208   1.608   1.072   1.051  0.1110 -0.6137  0.0906
 1401TIP3    H1 4209   1.594   1.039   1.140  1.5621 -1.2388  0.1123
 1401TIP3    H2 4210   1.702   1.088   1.046 -0.0255 -0.1018 -1.1822
 1402TIP3   OH2 4211   5.391   0.628   2.580  0.1978  0.1427 -0.3723
 1402TIP3    H1 4212   5.389   0.612   2.675  1.2275 -2.3630 -0.7009
 1402TIP3    H2 4213   5.354   0.716   2.570 -0.6852  0.1655  2.2713
 1403TIP3   OH2 4214   5.058   4.376   3.258 -0.2390 -0.1814 -0.0608
 1403TIP3    H1 4215   5.014   4.439   3.315 -3.0185  0.0969 -2.3155
 1403TIP3    H2 4216   5.063   4.296   3.311 -0.4657  0.7371  1.3990
 1404TIP3   OH2 4217   1.723   2.320   3.570  0.6885 -0.5431  0.1418
 1404TIP3    H1 4218   1.694   2.402   3.530  0.4459 -1.1334 -0.9084
 1404TIP3    H2 4219   1.816   2.315   3.550  1.1677  0.4090  1.8831
 1405TIP3   OH2 4220   3.548   2.347   1.678  0.5837 -0.1865  0.9131
 1405TIP3    H1 4221   3.456   2.334   1.702  0.2558  3.1020  2.0887
 1405TIP3    H2 4222   3.597   2.292   1.739 -0.5182 -2.5156 -0.1681
 1406TIP3   OH2 4223   4.748   1.346   1.653  0.3468 -0.4099 -0.4550
 1406TIP3    H1 4224   4.795   1.324   1.573 -0.9001 -2.0271 -0.8009
 1406TIP3    H2 4225   4.671   1.395   1.622  1.0014  0.9612 -0.0151
 1407TIP3   OH2 4226   0.478   5.296   1.760 -0.1855  0.2811 -0.1036
 1407TIP3    H1 4227   0.499   5.361   1.693  2.1347 -0.5656 -0.3018
 1407TIP3    H2 4228   0.459   5.216   1.710 -2.1639  0.5461  0.1675
 1408TIP3   OH2 4229   3.590   0.702   3.607 -0.1384 -0.0222  0.7157
 1408TIP3    H1 4230   3.513   0.736   3.652  1.1604  1.5782  1.8454
 1408TIP3    H2 4231   3.605   0.764   3.536  0.1409 -0.3028  0.5288
 1409TIP3   OH2 4232   5.362   5.437   1.486  0.4771 -0.2111  0.3744
 1409TIP3    H1 4233   5.397   5.473   1.567  0.1965  1.2708 -0.1366
 1409TIP3    H2 4234   5.286   5.491   1.466 -0.9759 -2.1307  0.4248
 1410TIP3   OH2 4235   2.231   1.932   2.371  0.0711  0.3997 -0.5495
 1410TIP3    H1 4236   2.146   1.892   2.386  0.0641  0.2925 -0.8712
 1410TIP3    H2 4237   2.213   2.026   2.371 -0.0432  0.3780 -0.5947
 1411TIP3   OH2 4238   5.825   1.907   3.472 -0.5031 -0.2165 -0.0115
 1411TIP3    H1 4239   5.842   1.916   3.566  1.6276  0.7873 -0.4257
 1411TIP3    H2 4240   5.785   1.991   3.447 -1.0112 -0.4589 -0.0157
 1412TIP3   OH2 4241   4.830   2.445   0.743  0.0397  0.7714 -0.2875
 1412TIP3    H1 4242   4.785   2.479   0.666  2.0985  3.4727 -0.4351
 1412TIP3    H2 4243   4.834   2.520   0.803  0.0414 -0.7706  1.7288
 1413TIP3   OH2 4244   3.050   4.354   0.463  0.2785 -0.0159 -0.0762
 1413TIP3    H1 4245   2.988   4.281   0.471  0.1119  0.0999 -0.2833
 1413TIP3    H2 4246   3.102   4.334   0.385  0.0649  0.2045 -0.2820
 1414TIP3   OH2 4247   4.299   2.014   3.094  0.2968  0.1026 -0.0747
 1414TIP3    H1 4248   4.249   2.022   3.013 -1.2225  0.1142  0.8158
 1414TIP3    H2 4249   4.272   1.929   3.131 -0.3597  0.8294  1.2207
 1415TIP3   OH2 4250   4.860   2.417   3.553  0.0943  0.0133  0.1044
 1415TIP3    H1 4251   4.821   2.385   3.472  0.3381 -1.4126  0.5228
 1415TIP3    H2 4252   4.795   2.479   3.588 -1.8281 -2.1865  0.7118
 1416TIP3   OH2 4253   1.885   2.429   3.332  0.0168  0.0155  0.4134
 1416TIP3    H1 4254   1.793   2.445   3.349  0.0855  0.3685  0.4690
 1416TIP3    H2 4255   1.931   2.495   3.384  0.3041 -0.2306  0.4746
 1417TIP3   OH2 4256   0.245   5.491   4.767 -0.0403  0.6778 -0.5759
 1417TIP3    H1 4257   0.231   5.584   4.781 -0.3327  0.3903  1.2822
 1417TIP3    H2 4258   0.324   5.486   4.713 -1.8630  2.0544 -3.6328
 1418TIP3   OH2 4259   1.943   5.149   1.045 -0.0438 -0.9420 -0.4405
 1418TIP3    H1 4260   1.954   5.126   0.953  0.9206  0.7057 -0.7563
 1418TIP3    H2 4261   1.978   5.237   1.053  0.4466 -1.2748  1.6372
 1419TIP3   OH2 4262   5.752   5.883   0.636 -0.5085  0.6640  0.0247
 1419TIP3    H1 4263   5.682   5.948   0.640  0.9885  2.3354 -0.0175
 1419TIP3    H2 4264   5.797   5.900   0.554  0.7790  0.5114  0.6725
 1420TIP3   OH2 4265   5.803   0.188   1.152 -0.3086  0.3057  0.2979
 1420TIP3    H1 4266   5.763   0.272   1.131 -0.6597  0.4880  1.6367
 1420TIP3    H2 4267   5.799   0.138   1.070  2.2389  2.4614 -1.3098
 1421TIP3   OH2 4268   5.186   4.620   0.496  0.6896  0.2127 -0.3155
 1421TIP3    H1 4269   5.205   4.710   0.523  2.0605  0.0428 -0.6184
 1421TIP3    H2 4270   5.091   4.613   0.501  0.4932  1.8831 -0.9194
 1422TIP3   OH2 4271   5.339   2.390   4.773  0.8348  0.0155 -0.2882
 1422TIP3    H1 4272   5.401   2.378   4.700  1.7746  0.8242  0.3485
 1422TIP3    H2 4273   5.394   2.388   4.851  0.2214  1.7356  0.2366
 1423TIP3   OH2 4274   0.798  -0.006   0.893 -0.0346  0.3007  0.3275
 1423TIP3    H1 4275   0.757   0.032   0.815 -0.8426 -0.6175  0.2767
 1423TIP3    H2 4276   0.889  -0.020   0.867 -0.4930 -0.8528 -0.8202
 1424TIP3   OH2 4277   2.886   3.570   4.070  0.2322  0.1935 -0.2538
 1424TIP3    H1 4278   2.793   3.549   4.082  0.6577 -1.0568  1.0822
 1424TIP3    H2 4279   2.889   3.666   4.073 -0.5324  0.2964  4.3063
 1425TIP3   OH2 4280   2.463   0.969   3.216  0.0207  0.5189 -0.2438
 1425TIP3    H1 4281   2.423   0.883   3.228 -1.3379  1.0977 -0.3857
 1425TIP3    H2 4282   2.518   0.960   3.138 -0.6739 -0.0479 -0.6836
 1426TIP3   OH2 4283   2.163   4.789   3.955 -0.1573  0.5150  0.7507
 1426TIP3    H1 4284   2.179   4.864   4.012  0.7333  1.1989 -0.3439
 1426TIP3    H2 4285   2.172   4.824   3.866  2.4560 -1.2761  0.1867
 1427TIP3   OH2 4286   2.846   4.439   1.038  0.2701 -0.5342 -0.0653
 1427TIP3    H1 4287   2.925   4.385   1.040 -0.9121 -2.4009 -1.2788
 1427TIP3    H2 4288   2.783   4.393   1.094 -0.4562  0.1230 -0.3177
 1428TIP3   OH2 4289   2.954   1.568   3.490 -0.0180 -0.0504  0.4908
 1428TIP3    H1 4290   2.894   1.642   3.493  0.9234  0.7062  2.6393
 1428TIP3    H2 4291   2.909   1.498   3.537 -0.1753 -0.2773  0.0116
 1429TIP3   OH2 4292   1.971   5.555   2.106 -0.3055  0.4915 -0.5763
 1429TIP3    H1 4293   1.949   5.580   2.196 -1.5814 -0.6151 -0.5415
 1429TIP3    H2 4294   2.064   5.577   2.097  0.1090 -0.2472  1.3284
 1430TIP3   OH2 4295   0.844   0.842   1.953  0.1306  0.2213  0.4088
 1430TIP3    H1 4296   0.863   0.753   1.923  1.9058  0.0602  1.8603
 1430TIP3    H2 4297   0.929   0.876   1.982 -0.2707  2.8211 -1.1159
 1431TIP3   OH2 4298   2.310   4.643   1.106  0.3674  1.2186  0.4423
 1431TIP3    H1 4299   2.284   4.732   1.082 -0.8574  1.9100  3.8559
 1431TIP3    H2 4300   2.228   4.599   1.130  1.0375 -0.6689 -0.4484
 1432TIP3   OH2 4301   1.241   1.928   0.234  0.3215  0.1423  0.1011
 1432TIP3    H1 4302   1.184   1.889   0.299  2.8077 -1.0051  1.7605
 1432TIP3    H2 4303   1.214   2.019   0.229 -1.5652 -0.3465  0.8299
 1433TIP3   OH2 4304   5.402   4.013   4.400 -0.1579  0.3480  0.1460
 1433TIP3    H1 4305   5.362   3.956   4.466 -1.5015 -0.5775 -1.3917
 1433TIP3    H2 4306   5.403   4.100   4.441 -1.0776 -0.1753  1.3379
 1434TIP3   OH2 4307   4.883   0.935   0.994  0.1911 -0.5778  0.1272
 1434TIP3    H1 4308   4.973   0.962   1.013 -0.5631  1.6362  0.9328
 1434TIP3    H2 4309   4.863   0.978   0.911 -0.7373  0.6646  0.9541
 1435TIP3   OH2 4310   1.584   2.091   1.451 -0.7914  0.4857  0.1416
 1435TIP3    H1 4311   1.505   2.131   1.414  0.2471  1.9109 -0.6094
 1435TIP3    H2 4312   1.553   2.045   1.529 -2.1728  2.1337  0.6212
 1436TIP3   OH2 4313   4.710   4.954   2.948  0.4601 -0.4110  0.3136
 1436TIP3    H1 4314   4.729   5.033   2.898  0.8071 -0.5377  0.2439
 1436TIP3    H2 4315   4.646   4.983   3.014 -0.1584 -0.2891 -0.3227
 1437TIP3   OH2 4316   0.523   4.685   3.470  0.2591 -0.4411  0.3107
 1437TIP3    H1 4317   0.529   4.670   3.375  1.5023 -1.0231  0.4614
 1437TIP3    H2 4318   0.498   4.777   3.478 -0.5594 -0.5672 -0.5828
 1438TIP3   OH2 4319   3.799   4.528   3.100 -0.5102  0.5145  0.4100
 1438TIP3    H1 4320   3.855   4.572   3.036 -1.6921 -0.5594 -1.4385
 1438TIP3    H2 4321   3.746   4.467   3.048 -1.4031 -0.5354  2.4411
 1439TIP3   OH2 4322   4.511   5.565   5.136 -0.4634  0.0866 -0.1631
 1439TIP3    H1 4323   4.551   5.552   5.222  0.1064  0.9987 -0.2829
 1439TIP3    H2 4324   4.570   5.625   5.091  0.1971 -1.7086 -1.8441
 1440TIP3   OH2 4325   5.676   5.238   1.695 -0.3680 -0.9910  0.2656
 1440TIP3    H1 4326   5.647   5.265   1.781  1.6470  3.0653 -0.0991
 1440TIP3    H2 4327   5.771   5.225   1.704 -0.4024 -2.4516 -0.9666
 1441TIP3   OH2 4328   0.436   4.835   2.195  0.0870  0.6553 -0.3018
 1441TIP3    H1 4329   0.517   4.864   2.153  0.6274 -1.1757 -0.6031
 1441TIP3    H2 4330   0.464   4.793   2.276 -0.5434 -0.0666 -0.4442
 1442TIP3   OH2 4331   3.599   1.457   4.200 -0.3277  0.0037 -0.1382
 1442TIP3    H1 4332   3.573   1.486   4.112 -2.7449 -0.6095  0.3027
 1442TIP3    H2 4333   3.656   1.382   4.184 -0.1199  0.3568 -1.1852
 1443TIP3   OH2 4334   3.979   0.612   1.504  0.2056  0.3854 -0.2507
 1443TIP3    H1 4335   4.030   0.675   1.454  1.4767  0.2924  0.8667
 1443TIP3    H2 4336   4.045   0.556   1.546 -0.8352 -0.2057  0.6455
 1444TIP3   OH2 4337   1.576   5.125   3.401 -0.5420  0.1384 -0.0685
 1444TIP3    H1 4338   1.522   5.164   3.470 -0.6290  0.6831 -0.4401
 1444TIP3    H2 4339   1.644   5.190   3.384 -1.6761  0.9222 -1.8840
 1445TIP3   OH2 4340   5.229   2.042   2.337 -0.2112  0.0562 -0.1527
 1445TIP3    H1 4341   5.278   1.980   2.391  1.4784  0.8659 -0.6986
 1445TIP3    H2 4342   5.293   2.108   2.311 -1.2024  0.2466 -2.3229
 1446TIP3   OH2 4343   4.990   1.774   1.776  0.1370 -0.1013  0.7041
 1446TIP3    H1 4344   5.019   1.786   1.866 -0.7229  0.1178  0.9587
 1446TIP3    H2 4345   4.895   1.765   1.782  0.1226 -0.6781 -0.1206
 1447TIP3   OH2 4346   3.190   2.285   3.123  0.0058  0.1389  0.4911
 1447TIP3    H1 4347   3.248   2.210   3.133  0.1269  0.3119  1.1347
 1447TIP3    H2 4348   3.106   2.256   3.158  0.0024  0.2445  0.5712
 1448TIP3   OH2 4349   2.823   1.093   2.009 -0.1702  0.1457  0.7572
 1448TIP3    H1 4350   2.877   1.023   1.970 -0.8973 -0.2148  0.3601
 1448TIP3    H2 4351   2.861   1.174   1.976 -0.3869 -0.1343 -0.2410
 1449TIP3   OH2 4352   0.879   4.050   4.904 -0.3083  0.4361 -0.2426
 1449TIP3    H1 4353   0.947   3.983   4.898  0.5263  1.3806 -2.0490
 1449TIP3    H2 4354   0.797   4.000   4.899  0.2857 -0.4670 -2.7204
 1450TIP3   OH2 4355   1.045   2.387   4.712  0.2497  0.0708  0.8063
 1450TIP3    H1 4356   1.085   2.406   4.627 -0.3333 -1.8984  0.0455
 1450TIP3    H2 4357   1.099   2.317   4.748 -1.1631 -1.0994  0.7404
 1451TIP3   OH2 4358   3.881   5.120   3.179 -0.1465 -0.1773  0.5191
 1451TIP3    H1 4359   3.973   5.095   3.184  0.4471  1.6937 -0.2732
 1451TIP3    H2 4360   3.881   5.216   3.181 -1.9191 -0.0559 -1.3696
 1452TIP3   OH2 4361   4.788   2.098   3.029  0.2751 -0.1508 -0.0679
 1452TIP3    H1 4362   4.824   2.177   3.070 -0.0564 -0.9327  1.8553
 1452TIP3    H2 4363   4.699   2.092   3.063 -0.0164 -0.8708 -0.9234
 1453TIP3   OH2 4364   2.409   4.106   1.100 -0.3191  0.0911  0.2666
 1453TIP3    H1 4365   2.379   4.197   1.092 -0.8908  0.0458  1.6431
 1453TIP3    H2 4366   2.420   4.092   1.194  1.4502 -0.7479 -0.0271
 1454TIP3   OH2 4367   3.984   5.759   2.497 -0.2251 -0.0648 -0.1385
 1454TIP3    H1 4368   4.054   5.743   2.434  1.6770 -0.1489  1.8647
 1454TIP3    H2 4369   4.030   5.775   2.579 -2.5625  1.0298  1.0293
 1455TIP3   OH2 4370   0.573   3.443   2.545 -0.0930 -0.4289 -0.2373
 1455TIP3    H1 4371   0.578   3.518   2.487 -1.5256 -0.3399 -0.2828
 1455TIP3    H2 4372   0.608   3.475   2.629 -0.8099  0.3385 -0.2167
 1456TIP3   OH2 4373   3.744   4.958   2.036 -0.0466  0.3652 -0.1801
 1456TIP3    H1 4374   3.762   4.956   2.130  0.0817 -0.1365 -0.2137
 1456TIP3    H2 4375   3.829   4.973   1.996 -0.1582  0.9553 -0.2003
 1457TIP3   OH2 4376   2.787   4.558   4.136  0.3549  0.3822  0.3303
 1457TIP3    H1 4377   2.863   4.559   4.079  0.5942  0.2501  0.6494
 1457TIP3    H2 4378   2.822   4.565   4.224 -0.0482  1.2591  0.4345
 1458TIP3   OH2 4379   2.082   2.423   0.477  0.3674  0.2678 -0.8707
 1458TIP3    H1 4380   2.137   2.356   0.518  1.5481  1.7602  0.0621
 1458TIP3    H2 4381   2.073   2.394   0.387 -0.2721 -1.8409 -0.2039
 1459TIP3   OH2 4382   3.620   0.486   4.232  0.0007  0.3668 -0.1537
 1459TIP3    H1 4383   3.591   0.416   4.290 -1.7801 -0.0147 -1.4262
 1459TIP3    H2 4384   3.574   0.564   4.263  1.3230  0.8317  0.7307
 1460TIP3   OH2 4385   1.228   0.353   4.119  0.1294  0.0523 -0.1996
 1460TIP3    H1 4386   1.201   0.441   4.094  1.3081  0.9268  1.3805
 1460TIP3    H2 4387   1.317   0.364   4.154 -0.0319 -1.6003  0.8793
 1461TIP3   OH2 4388   6.344   2.475   0.720  0.4290  0.4810  0.0854
 1461TIP3    H1 4389   6.376   2.471   0.630 -0.3875 -0.7494 -0.1684
 1461TIP3    H2 4390   6.268   2.533   0.716  2.6553  3.7241  0.7568
 1462TIP3   OH2 4391   6.324   3.467   4.508  0.0554  0.0531  0.4593
 1462TIP3    H1 4392   6.395   3.458   4.444 -0.5658  0.5849 -0.3352
 1462TIP3    H2 4393   6.279   3.548   4.482 -1.4134 -0.7724  0.3446
 1463TIP3   OH2 4394   3.415   1.682   0.462  0.4792 -0.0051 -0.0227
 1463TIP3    H1 4395   3.399   1.733   0.542  2.6421 -1.9617  1.7899
 1463TIP3    H2 4396   3.442   1.747   0.397 -3.2715  1.9184  0.0686
 1464TIP3   OH2 4397   1.743   4.713   1.004 -0.2021  0.5980 -0.3238
 1464TIP3    H1 4398   1.811   4.774   1.031 -1.9479  2.2290  0.6504
 1464TIP3    H2 4399   1.662   4.749   1.041 -1.4254 -1.9978 -0.2355
 1465TIP3   OH2 4400   3.582   0.640   1.614  0.3583  0.0247  0.0386
 1465TIP3    H1 4401   3.650   0.585   1.653  1.1599  1.1724  0.3255
 1465TIP3    H2 4402   3.611   0.730   1.631 -0.4911  0.5503 -1.1126
 1466TIP3   OH2 4403   3.371   2.811   4.395  0.4092  0.2326 -0.1812
 1466TIP3    H1 4404   3.310   2.853   4.457  0.8705  1.4480 -0.5246
 1466TIP3    H2 4405   3.365   2.718   4.416 -1.5792  0.3024 -0.2033
 1467TIP3   OH2 4406   0.498   2.956   4.080  0.2354 -0.0335 -0.3097
 1467TIP3    H1 4407   0.524   2.980   4.168  0.1552  1.6802 -0.7262
 1467TIP3    H2 4408   0.497   2.860   4.080 -1.3456 -0.0920  1.9972
 1468TIP3   OH2 4409   2.943   5.102   0.938  0.2089 -0.0235  0.0516
 1468TIP3    H1 4410   2.884   5.168   0.974  0.7662  1.6095 -1.8647
 1468TIP3    H2 4411   2.918   5.094   0.846  1.0637 -1.4841 -0.0930
 1469TIP3   OH2 4412   2.107   1.414   4.781  0.0185  0.0448 -0.1840
 1469TIP3    H1 4413   2.172   1.421   4.710 -0.4562 -0.2467 -0.6595
 1469TIP3    H2 4414   2.067   1.327   4.768  0.8218 -0.5714  1.2346
 1470TIP3   OH2 4415   1.111   1.287   4.578 -0.1694  0.2525 -0.3096
 1470TIP3    H1 4416   1.133   1.302   4.670 -1.3196  1.9818 -0.2780
 1470TIP3    H2 4417   1.147   1.363   4.532 -0.5788 -0.0371 -1.1348
 1471TIP3   OH2 4418   5.901   3.159   3.302 -0.2421 -0.7093 -0.0859
 1471TIP3    H1 4419   5.896   3.122   3.214  0.5243  0.4419 -0.6342
 1471TIP3    H2 4420   5.995   3.166   3.320 -0.3927 -0.5311  0.6606
 1472TIP3   OH2 4421   0.072   5.513   1.822 -0.5033 -0.5169  0.0124
 1472TIP3    H1 4422   0.054   5.548   1.735  0.2006  1.4324  0.5923
 1472TIP3    H2 4423   0.016   5.565   1.881  0.8610 -0.0442  0.9493
 1473TIP3   OH2 4424   4.952   4.508   1.214 -0.2408  0.6205 -0.3947
 1473TIP3    H1 4425   4.949   4.413   1.219  0.5188  0.6263  0.6087
 1473TIP3    H2 4426   5.036   4.531   1.254 -1.0982  1.7868  0.8014
 1474TIP3   OH2 4427   0.357   0.828   2.566  0.2422  0.1028 -0.1641
 1474TIP3    H1 4428   0.384   0.920   2.561 -3.3967  1.3050 -0.6653
 1474TIP3    H2 4429   0.311   0.822   2.650  0.4061 -1.3134 -0.1570
 1475TIP3   OH2 4430   3.883   0.068   0.889  0.2359  0.7049  0.1739
 1475TIP3    H1 4431   3.809   0.127   0.876  0.5014  1.1474  0.6113
 1475TIP3    H2 4432   3.952   0.124   0.925  0.5005  0.1344  0.5798
 1476TIP3   OH2 4433   4.483   1.458   4.029 -0.3792  0.4122 -0.6172
 1476TIP3    H1 4434   4.412   1.409   4.072  0.9303 -0.5902  0.5126
 1476TIP3    H2 4435   4.502   1.530   4.089  0.6723 -0.3203 -0.0214
 1477TIP3   OH2 4436   2.409   3.804   1.662  0.1523  0.6582 -0.3106
 1477TIP3    H1 4437   2.403   3.879   1.720 -2.8329  0.5661 -0.3153
 1477TIP3    H2 4438   2.319   3.773   1.655  0.6818 -0.5130 -3.4385
 1478TIP3   OH2 4439   1.752   5.658   0.571 -0.3795  0.6537 -0.1504
 1478TIP3    H1 4440   1.693   5.651   0.496 -2.1791 -0.1496  1.2846
 1478TIP3    H2 4441   1.721   5.734   0.619 -0.9985 -0.4119  1.2038
 1479TIP3   OH2 4442   3.085   2.052   3.581  0.3782 -0.3682  0.0140
 1479TIP3    H1 4443   3.032   2.130   3.597 -0.3566 -0.7053 -0.7151
 1479TIP3    H2 4444   3.175   2.085   3.576  0.3020  0.1612  1.6071
 1480TIP3   OH2 4445   0.014   1.869   3.900  0.1403 -0.0316  0.1512
 1480TIP3    H1 4446   0.098   1.869   3.945  0.7331 -1.1785 -0.8915
 1480TIP3    H2 4447   0.033   1.832   3.814 -1.7366 -2.0572  0.5182
 1481TIP3   OH2 4448   5.620   0.686   0.090  0.1972 -0.2871  0.5620
 1481TIP3    H1 4449   5.564   0.645   0.024 -1.3863  0.0898  1.6340
 1481TIP3    H2 4450   5.686   0.733   0.038 -0.8806 -0.1633 -0.7591
 1482TIP3   OH2 4451   6.076   4.511   4.884  0.0249  0.0397  0.3677
 1482TIP3    H1 4452   6.159   4.536   4.844  1.2948 -1.0988  2.0946
 1482TIP3    H2 4453   6.039   4.445   4.825  2.5688 -2.7166  1.5645
 1483TIP3   OH2 4454   2.097   3.401   1.239 -0.4204 -0.0711 -0.1202
 1483TIP3    H1 4455   2.185   3.401   1.201 -1.0886 -1.7855 -1.8148
 1483TIP3    H2 4456   2.100   3.330   1.303 -0.2801  0.6099  0.6488
 1484TIP3   OH2 4457   2.103   0.687   4.978  0.2539  0.3533 -0.5295
 1484TIP3    H1 4458   2.150   0.621   4.927 -1.1272 -1.1776  0.0883
 1484TIP3    H2 4459   2.010   0.670   4.959 -0.1897  1.1659  0.8012
 1485TIP3   OH2 4460   4.154   3.251   0.099  0.1965 -0.3348  0.0284
 1485TIP3    H1 4461   4.227   3.190   0.103  0.2792 -0.2955 -0.7945
 1485TIP3    H2 4462   4.076   3.197   0.110  0.3602 -0.2922  1.6266
 1486TIP3   OH2 4463   1.212   4.999   5.094 -0.1043 -0.3476  0.2999
 1486TIP3    H1 4464   1.193   5.091   5.073  3.4755  0.3892 -0.3971
 1486TIP3    H2 4465   1.213   4.954   5.010 -2.3089 -1.2145  0.6799
 1487TIP3   OH2 4466   5.578   3.966   0.925  0.4256  0.2205  0.0829
 1487TIP3    H1 4467   5.602   4.054   0.896  0.5638 -0.4479 -1.9509
 1487TIP3    H2 4468   5.552   3.920   0.845 -3.2673 -0.5041  1.5031
 1488TIP3   OH2 4469   5.014   1.165   1.567  0.2499 -0.5560  0.9783
 1488TIP3    H1 4470   5.079   1.139   1.633  0.2131 -2.1367  0.4360
 1488TIP3    H2 4471   4.931   1.133   1.601 -0.4332  2.0125  1.9756
 1489TIP3   OH2 4472   0.064   1.301   0.503 -0.2141  0.3265 -0.5325
 1489TIP3    H1 4473   0.136   1.348   0.543  0.8100 -1.5194 -0.0881
 1489TIP3    H2 4474   0.048   1.347   0.421  2.9989 -0.4752 -1.7512
 1490TIP3   OH2 4475   0.668   4.758   1.431  0.4264 -0.3671  0.1724
 1490TIP3    H1 4476   0.663   4.840   1.479 -0.6812  0.7264 -1.7178
 1490TIP3    H2 4477   0.599   4.704   1.469 -1.9544  1.2936 -1.5499
 1491TIP3   OH2 4478   6.313   4.571   3.290  0.2803 -0.2554 -0.5252
 1491TIP3    H1 4479   6.319   4.475   3.285  0.5005 -0.1924 -1.7359
 1491TIP3    H2 4480   6.348   4.602   3.207  2.1479  0.9913  0.6455
 1492TIP3   OH2 4481   2.148   0.604   1.347  0.2042 -0.2275  0.0909
 1492TIP3    H1 4482   2.224   0.655   1.319  0.3240 -0.4116  0.0784
 1492TIP3    H2 4483   2.081   0.669   1.367  0.6852 -0.0242  1.0690
 1493TIP3   OH2 4484   4.122   3.276   2.189  0.2274 -0.3893 -0.6460
 1493TIP3    H1 4485   4.156   3.216   2.256  0.7457  1.0591  0.4548
 1493TIP3    H2 4486   4.028   3.262   2.190 -0.1147  1.2169  2.1886
 1494TIP3   OH2 4487   5.543   3.960   0.265  0.1335 -0.0313 -0.0831
 1494TIP3    H1 4488   5.498   4.045   0.259  0.4785  0.0895 -1.4138
 1494TIP3    H2 4489   5.606   3.962   0.193  0.2993 -1.3405  0.0055
 1495TIP3   OH2 4490   3.662   4.785   2.854 -0.7394 -0.0380 -0.4706
 1495TIP3    H1 4491   3.741   4.759   2.807 -0.8930 -1.5247  0.0386
 1495TIP3    H2 4492   3.686   4.865   2.900  0.9916 -1.3093  0.9496
 1496TIP3   OH2 4493   0.660   4.474   3.925  0.0723 -0.0457  0.3182
 1496TIP3    H1 4494   0.665   4.546   3.862 -0.3166 -0.4856 -0.2306
 1496TIP3    H2 4495   0.644   4.396   3.871  0.4607 -0.5396  0.9037
 1497TIP3   OH2 4496   3.883   2.374   4.909  0.0541  0.2270 -0.1256
 1497TIP3    H1 4497   3.790   2.375   4.930  0.0812 -0.1009  0.0041
 1497TIP3    H2 4498   3.894   2.299   4.851 -0.0667  1.2735 -1.5508
 1498TIP3   OH2 4499   5.536   1.694   0.852 -0.2512  0.0519 -0.4018
 1498TIP3    H1 4500   5.627   1.710   0.827  0.1099 -0.5742  0.4584
 1498TIP3    H2 4501   5.505   1.778   0.887  0.5279 -0.1416  0.8306
 1499TIP3   OH2 4502   1.944   3.094   2.864 -0.2996  0.5300 -0.6056
 1499TIP3    H1 4503   1.867   3.086   2.921  1.5224 -0.6165  1.8702
 1499TIP3    H2 4504   1.908   3.113   2.778 -3.4434 -1.1994  0.1750
 1500TIP3   OH2 4505   0.862   3.510   3.483 -0.3027  0.6932 -0.0585
 1500TIP3    H1 4506   0.910   3.453   3.423 -0.3290  1.4960 -0.8622
 1500TIP3    H2 4507   0.771   3.503   3.454 -0.4944  0.1686  0.6488
 1501TIP3   OH2 4508   2.147   4.494   0.456 -0.0043  0.1448  0.2724
 1501TIP3    H1 4509   2.156   4.453   0.370 -0.7386  1.7850 -0.6373
 1501TIP3    H2 4510   2.235   4.490   0.493 -0.1738 -2.7897  0.5487
 1502TIP3   OH2 4511   1.877   4.520   3.337  0.3531 -0.1096 -0.3731
 1502TIP3    H1 4512   1.796   4.483   3.372  1.4027 -1.6117  0.5818
 1502TIP3    H2 4513   1.848   4.595   3.285 -1.5827 -0.1481  0.5468
 1503TIP3   OH2 4514   5.004   2.037   1.081 -0.1304 -0.1115  0.4407
 1503TIP3    H1 4515   5.097   2.017   1.071 -0.0742  0.5901 -0.6794
 1503TIP3    H2 4516   5.000   2.099   1.154  0.1922 -0.6819  0.9506
 1504TIP3   OH2 4517   4.963   1.130   2.811 -0.4861  0.1269 -0.2010
 1504TIP3    H1 4518   5.034   1.191   2.791 -1.2990  1.1364 -0.1279
 1504TIP3    H2 4519   4.942   1.090   2.726  0.9233 -1.0494 -0.0184
 1505TIP3   OH2 4520   1.047   1.391   3.705 -0.1348  0.4794  0.0478
 1505TIP3    H1 4521   1.141   1.408   3.697 -0.1821  1.5723  1.4715
 1505TIP3    H2 4522   1.010   1.426   3.623  0.4278  2.4537  0.5633
 1506TIP3   OH2 4523   3.555   5.919   2.084  0.1271  0.0512  0.1429
 1506TIP3    H1 4524   3.618   5.983   2.117 -2.3339  2.0178  1.3481
 1506TIP3    H2 4525   3.515   5.962   2.008 -2.7587  0.8713  1.9560
 1507TIP3   OH2 4526   0.903   4.872   3.950 -0.1339  0.1365  0.0224
 1507TIP3    H1 4527   0.919   4.815   4.026 -0.2759  0.7849  0.5510
 1507TIP3    H2 4528   0.972   4.850   3.888  0.8324  0.5654  0.9098
 1508TIP3   OH2 4529   3.053   5.844   0.694 -0.1430  0.1170  0.2092
 1508TIP3    H1 4530   3.021   5.867   0.781 -0.1471 -2.4068  0.9563
 1508TIP3    H2 4531   3.035   5.751   0.686  0.3162  0.1803 -2.3242
 1509TIP3   OH2 4532   0.328   3.120   1.131 -0.0295  0.1988  0.0534
 1509TIP3    H1 4533   0.411   3.152   1.097 -0.2097  1.6373  0.8737
 1509TIP3    H2 4534   0.324   3.028   1.104  1.9285  0.0360  0.2133
 1510TIP3   OH2 4535   4.238   1.555   1.614 -0.4639  0.6124 -0.2939
 1510TIP3    H1 4536   4.178   1.602   1.673 -1.0068 -0.1666 -0.1982
 1510TIP3    H2 4537   4.179   1.504   1.557  0.1017  0.0059 -0.3460
 1511TIP3   OH2 4538   1.818   4.987   1.901 -0.2298  0.1627 -0.2827
 1511TIP3    H1 4539   1.792   4.896   1.886 -0.9076  0.5481 -1.6371
 1511TIP3    H2 4540   1.793   5.004   1.992  0.8029 -1.2753  0.3092
 1512TIP3   OH2 4541   2.581   4.849   0.092 -0.3497  0.4313 -0.2280
 1512TIP3    H1 4542   2.667   4.866   0.130  0.1894 -1.0610 -0.6929
 1512TIP3    H2 4543   2.527   4.922   0.122  0.8770  1.0075  0.6975
 1513TIP3   OH2 4544   4.029   1.443   5.074 -0.2281  0.3334 -0.2619
 1513TIP3    H1 4545   3.934   1.447   5.063 -0.0525  2.2712 -1.5692
 1513TIP3    H2 4546   4.044   1.473   5.164 -0.7868  1.8937 -0.6552
 1514TIP3   OH2 4547   0.865   3.921   2.364 -0.0737 -0.1066  0.4734
 1514TIP3    H1 4548   0.810   3.901   2.289  0.2173  1.4362 -0.1852
 1514TIP3    H2 4549   0.856   3.844   2.422 -1.6558 -0.5533 -0.3193
 1515TIP3   OH2 4550   3.711   0.910   4.286  0.1395 -0.1488  0.1625
 1515TIP3    H1 4551   3.696   0.947   4.199 -0.6262  0.7603  0.6747
 1515TIP3    H2 4552   3.739   0.984   4.339 -1.1852 -0.3183  1.1443
 1516TIP3   OH2 4553   0.375   4.202   2.346  0.5661  0.1341 -0.9145
 1516TIP3    H1 4554   0.339   4.139   2.283  0.5578 -0.3230 -0.4608
 1516TIP3    H2 4555   0.401   4.148   2.420 -0.7113  0.7991  0.0611
 1517TIP3   OH2 4556   2.767   2.099   5.097  0.5025  0.3283 -0.0791
 1517TIP3    H1 4557   2.678   2.130   5.078  0.2014 -0.6707 -0.4057
 1517TIP3    H2 4558   2.796   2.058   5.015  1.3339  0.7951 -0.0209
 1518TIP3   OH2 4559   0.441   4.548   4.096 -0.5704  0.2145 -0.0821
 1518TIP3    H1 4560   0.423   4.639   4.072 -1.1703  0.2671  0.5387
 1518TIP3    H2 4561   0.514   4.522   4.039 -0.5045  1.0253 -0.3803
 1519TIP3   OH2 4562   1.993   5.830   3.855  0.2281  0.3641 -0.1789
 1519TIP3    H1 4563   1.915   5.852   3.803  0.1752 -1.3662 -0.9009
 1519TIP3    H2 4564   2.065   5.874   3.810 -0.0743  0.3777 -0.6649
 1520TIP3   OH2 4565   0.087   2.760   0.633 -0.2923 -0.6500 -0.1080
 1520TIP3    H1 4566   0.172   2.786   0.596 -0.0947 -2.0453 -0.7012
 1520TIP3    H2 4567   0.024   2.783   0.565 -0.5248  1.1211  0.6521
 1521TIP3   OH2 4568   1.343   3.517   2.172 -0.2128 -0.1405 -0.0520
 1521TIP3    H1 4569   1.339   3.612   2.166  0.2865 -0.1115  0.0274
 1521TIP3    H2 4570   1.299   3.486   2.093  0.3826  0.1662 -0.5147
 1522TIP3   OH2 4571   1.433   3.093   1.338 -0.4874  0.7294  0.6602
 1522TIP3    H1 4572   1.459   3.061   1.252 -0.0040  2.5179  0.1125
 1522TIP3    H2 4573   1.389   3.176   1.321 -0.2748  1.1732  2.1492
 1523TIP3   OH2 4574   4.700   0.481   2.539 -0.0842 -0.2044 -0.5624
 1523TIP3    H1 4575   4.778   0.512   2.493 -1.0521  0.9184 -1.5622
 1523TIP3    H2 4576   4.728   0.466   2.629  1.3117  0.0164 -0.9443
 1524TIP3   OH2 4577   3.240   0.089   2.109 -0.0643  0.5545  0.1247
 1524TIP3    H1 4578   3.234   0.155   2.041  0.0951  0.1056 -0.3333
 1524TIP3    H2 4579   3.334   0.080   2.126 -0.0305 -0.0787 -0.3480
 1525TIP3   OH2 4580   2.613   1.758   4.494  0.1667  0.5725 -0.1557
 1525TIP3    H1 4581   2.631   1.784   4.584  1.5349 -3.2436  0.8422
 1525TIP3    H2 4582   2.700   1.753   4.453 -0.0541 -1.4223 -0.4671
 1526TIP3   OH2 4583   4.879   0.353   1.226  0.5940 -0.1181 -0.0117
 1526TIP3    H1 4584   4.858   0.259   1.227  0.6427 -0.1406 -0.8133
 1526TIP3    H2 4585   4.794   0.397   1.223  0.5358 -0.1041  1.2202
 1527TIP3   OH2 4586   1.005   2.772   3.496  0.1298 -0.1458  0.7903
 1527TIP3    H1 4587   0.992   2.679   3.515  1.6979 -0.3185  1.2120
 1527TIP3    H2 4588   1.010   2.777   3.401  0.0392 -0.4996  0.7646
 1528TIP3   OH2 4589   0.079   5.517   3.777 -0.3450  0.1028 -0.1983
 1528TIP3    H1 4590   0.084   5.546   3.686  0.8132  1.2915  0.2074
 1528TIP3    H2 4591   0.037   5.590   3.823  0.4239  0.1464  0.4529
 1529TIP3   OH2 4592   4.290   2.259   1.901 -0.6871  0.5072  0.1931
 1529TIP3    H1 4593   4.235   2.310   1.960 -0.1246  1.6049 -0.1991
 1529TIP3    H2 4594   4.380   2.283   1.926 -0.4243  2.1184 -1.9903
 1530TIP3   OH2 4595   1.265   3.890   4.090 -0.4118  0.1320  0.2201
 1530TIP3    H1 4596   1.214   3.972   4.091 -0.4196  0.1456 -0.5388
 1530TIP3    H2 4597   1.256   3.855   4.178  1.5144  2.1084  1.2941
 1531TIP3   OH2 4598   2.612   3.558   4.034  0.6006 -0.2133  0.2335
 1531TIP3    H1 4599   2.625   3.623   3.965  0.7759 -0.1265  0.3451
 1531TIP3    H2 4600   2.570   3.607   4.105  2.0510  0.1484  0.8888
 1532TIP3   OH2 4601   2.293   2.280   2.344  0.1158 -0.5197 -0.0487
 1532TIP3    H1 4602   2.377   2.289   2.389  0.1537  1.0749 -0.3859
 1532TIP3    H2 4603   2.231   2.328   2.399 -0.4432 -1.1136 -0.1516
 1533TIP3   OH2 4604   3.632   4.410   4.549  0.6898  0.4565 -0.4779
 1533TIP3    H1 4605   3.578   4.416   4.628  0.1156 -0.5196 -0.7730
 1533TIP3    H2 4606   3.684   4.330   4.562  0.5231  0.2388 -1.1222
 1534TIP3   OH2 4607   0.205   2.497   3.731  0.2701  0.2542  0.5164
 1534TIP3    H1 4608   0.142   2.464   3.795  0.1338 -0.1551  0.1734
 1534TIP3    H2 4609   0.275   2.432   3.730 -1.0058 -1.1974 -1.7240
 1535TIP3   OH2 4610   3.796   1.464   3.339  0.0386  0.2186 -0.1847
 1535TIP3    H1 4611   3.706   1.465   3.308  0.4366  0.6867 -1.4166
 1535TIP3    H2 4612   3.827   1.554   3.327  0.4680  0.2257  0.8620
 1536TIP3   OH2 4613   5.617   2.528   2.205 -0.0759 -0.2929  0.0961
 1536TIP3    H1 4614   5.674   2.461   2.242 -0.1198 -0.2643  0.2161
 1536TIP3    H2 4615   5.677   2.595   2.170  0.0325 -1.2296 -1.6471
 1537TIP3   OH2 4616   0.792   0.331   3.237 -0.0153 -0.5316  0.5771
 1537TIP3    H1 4617   0.830   0.316   3.324  2.0675  2.3449  0.3228
 1537TIP3    H2 4618   0.758   0.420   3.241 -1.0725 -0.8146 -1.1890
 1538TIP3   OH2 4619   3.703   2.627   1.888 -0.5633 -0.6283  0.2060
 1538TIP3    H1 4620   3.781   2.625   1.942  0.1898  0.9899 -0.7440
 1538TIP3    H2 4621   3.734   2.607   1.800 -0.9869  0.9959 -0.3609
 1539TIP3   OH2 4622   5.813   1.160   3.084 -0.0669  0.7576  0.2347
 1539TIP3    H1 4623   5.859   1.227   3.034 -0.5354  1.6229  0.9449
 1539TIP3    H2 4624   5.871   1.142   3.159 -1.0674  2.2377  1.4253
 1540TIP3   OH2 4625   2.222   2.021   4.091 -0.3018  0.2885 -0.4259
 1540TIP3    H1 4626   2.148   1.964   4.114 -1.9460  2.2279 -0.6561
 1540TIP3    H2 4627   2.219   2.027   3.996  0.4084  0.0987 -0.4685
 1541TIP3   OH2 4628   4.886   1.975   0.794 -0.4547  0.5028  0.1723
 1541TIP3    H1 4629   4.889   1.979   0.890  0.0649  0.3594  0.1617
 1541TIP3    H2 4630   4.939   1.900   0.771  3.8367  3.3754 -0.4790
 1542TIP3   OH2 4631   1.419   3.825   0.798  0.0969 -0.0782  0.1343
 1542TIP3    H1 4632   1.384   3.849   0.713  1.1108 -0.4536 -0.4035
 1542TIP3    H2 4633   1.458   3.905   0.833 -0.5864  0.1476  0.3825
 1543TIP3   OH2 4634   2.808   0.260   3.075  0.2050 -0.3158 -0.1469
 1543TIP3    H1 4635   2.877   0.244   3.011  0.6241  1.3104 -0.1422
 1543TIP3    H2 4636   2.729   0.274   3.022  0.3249 -0.0343 -0.2493
 1544TIP3   OH2 4637   3.053   4.765   0.915 -0.6912  0.1850  0.0876
 1544TIP3    H1 4638   3.071   4.703   0.845  0.8706  0.8905 -0.1638
 1544TIP3    H2 4639   2.991   4.827   0.876 -1.2941 -0.4792 -0.0454
 1545TIP3   OH2 4640   4.297   1.025   0.672 -0.7405  0.7817 -0.7222
 1545TIP3    H1 4641   4.385   1.018   0.708 -0.2513 -0.6980 -2.0939
 1545TIP3    H2 4642   4.309   1.032   0.578 -2.0926 -1.7865 -1.1708
 1546TIP3   OH2 4643   5.650   2.127   3.574 -0.1356  0.3239 -0.2036
 1546TIP3    H1 4644   5.594   2.050   3.569  0.2480 -0.0170  0.4868
 1546TIP3    H2 4645   5.621   2.183   3.503 -0.9870 -0.0841 -0.1870
 1547TIP3   OH2 4646   0.428   4.295   0.244  0.1983  0.2124  0.5751
 1547TIP3    H1 4647   0.411   4.205   0.216  2.0971 -0.0865  0.2304
 1547TIP3    H2 4648   0.423   4.292   0.340 -2.1121  0.3041  0.5006
 1548TIP3   OH2 4649   3.068   3.122   0.839 -0.2332  0.1083  0.6917
 1548TIP3    H1 4650   3.077   3.147   0.747  1.5509 -3.4666 -0.2841
 1548TIP3    H2 4651   3.011   3.189   0.876  0.3818  2.7134 -2.5427
 1549TIP3   OH2 4652   0.823   5.427   5.060 -0.0459  0.2562  0.0681
 1549TIP3    H1 4653   0.742   5.463   5.022  0.1388  0.9308  0.3080
 1549TIP3    H2 4654   0.800   5.406   5.151  0.0468  0.4259  0.1297
 1550TIP3   OH2 4655   2.470   0.235   3.704 -0.2118 -0.1392 -0.2437
 1550TIP3    H1 4656   2.485   0.223   3.610  0.0734 -0.5802 -0.1428
 1550TIP3    H2 4657   2.384   0.197   3.720 -1.0330  1.4361 -0.6246
 1551TIP3   OH2 4658   1.173   4.002   2.359 -0.3092 -0.4836 -0.7407
 1551TIP3    H1 4659   1.255   4.050   2.354  0.4946 -1.6921  0.3708
 1551TIP3    H2 4660   1.106   4.066   2.334  1.0496  0.1837 -2.9325
 1552TIP3   OH2 4661   3.302   0.608   1.645  0.5601 -0.0827  0.0064
 1552TIP3    H1 4662   3.393   0.623   1.620  0.6898 -0.3562  0.3030
 1552TIP3    H2 4663   3.251   0.640   1.571  0.8618  0.8485  0.1947
 1553TIP3   OH2 4664   1.165   5.564   0.270  0.4693 -0.3916 -0.3354
 1553TIP3    H1 4665   1.083   5.612   0.275 -0.4316 -1.7181 -1.6783
 1553TIP3    H2 4666   1.228   5.628   0.236 -0.8429 -0.2320 -2.7243
 1554TIP3   OH2 4667   2.420   5.231   1.755  0.0550 -0.2899  0.0745
 1554TIP3    H1 4668   2.343   5.175   1.741 -0.4820  0.2429  0.8338
 1554TIP3    H2 4669   2.478   5.179   1.811  0.5990 -0.9931 -1.1164
 1555TIP3   OH2 4670   1.422   3.357   0.441  0.1529  0.4857 -0.3475
 1555TIP3    H1 4671   1.378   3.294   0.498  0.6701  1.8075  1.5961
 1555TIP3    H2 4672   1.350   3.406   0.400 -0.2168 -0.4057 -0.7967
 1556TIP3   OH2 4673   4.116   5.943   1.788  0.3794  0.5187  0.2593
 1556TIP3    H1 4674   4.078   6.013   1.841  1.8590  0.6546  1.1940
 1556TIP3    H2 4675   4.173   5.896   1.848 -1.7780 -2.5681  0.1341
 1557TIP3   OH2 4676   3.901   5.048   1.482 -0.0588 -0.2158  0.0693
 1557TIP3    H1 4677   3.910   5.070   1.575  0.7288 -1.1513  0.2277
 1557TIP3    H2 4678   3.952   4.968   1.472 -0.3983 -0.2889 -1.1116
 1558TIP3   OH2 4679   3.933   2.234   1.637 -0.4429  0.8092 -0.1013
 1558TIP3    H1 4680   3.873   2.262   1.568 -1.1036 -0.2480  0.0339
 1558TIP3    H2 4681   4.004   2.189   1.591 -0.8727  0.1230 -0.1026
 1559TIP3   OH2 4682   0.310   5.026   2.009 -0.1922  0.2616  0.4947
 1559TIP3    H1 4683   0.216   5.019   2.028 -0.1083  0.9538  1.2124
 1559TIP3    H2 4684   0.351   4.959   2.062 -0.1078  1.2082  1.6700
 1560TIP3   OH2 4685   3.926   5.493   2.881 -0.0020 -0.2145 -0.4618
 1560TIP3    H1 4686   4.021   5.497   2.881 -0.0128  0.8733  1.0168
 1560TIP3    H2 4687   3.902   5.477   2.789  1.6023 -1.4743 -0.6956
 1561TIP3   OH2 4688   4.502   1.507   0.868 -0.3427 -0.5771 -0.8084
 1561TIP3    H1 4689   4.514   1.412   0.874 -0.1398 -0.5940 -1.4090
 1561TIP3    H2 4690   4.571   1.544   0.923 -0.1675 -0.7681 -0.8996
 1562TIP3   OH2 4691   5.815   2.553   2.720  0.1228  0.1694 -0.5432
 1562TIP3    H1 4692   5.810   2.611   2.645 -3.1230  0.4258 -0.2956
 1562TIP3    H2 4693   5.848   2.470   2.684 -1.7125  0.1630 -2.4101
 1563TIP3   OH2 4694   1.533   2.504   0.689  0.0021 -0.0943  0.0770
 1563TIP3    H1 4695   1.483   2.556   0.626  1.0526 -0.3314 -0.9992
 1563TIP3    H2 4696   1.514   2.543   0.774 -1.6998  0.0388 -0.3449
 1564TIP3   OH2 4697   2.251   2.080   1.766 -0.2629 -0.1145 -0.6587
 1564TIP3    H1 4698   2.200   2.048   1.841 -1.8698 -2.3133 -2.5649
 1564TIP3    H2 4699   2.214   2.166   1.746 -0.3069  0.1711  0.5796
 1565TIP3   OH2 4700   4.420   5.334   4.934 -0.1586  0.2353  0.1696
 1565TIP3    H1 4701   4.427   5.246   4.897 -1.4604  1.1062 -2.3145
 1565TIP3    H2 4702   4.329   5.359   4.920  0.1134  1.8801  1.1241
 1566TIP3   OH2 4703   2.748   0.496   0.607  0.3112 -0.3847 -0.0256
 1566TIP3    H1 4704   2.787   0.572   0.650  1.7322 -0.3143 -1.3381
 1566TIP3    H2 4705   2.690   0.532   0.540  1.3417 -0.3911 -0.9662
 1567TIP3   OH2 4706   2.764   1.598   1.984 -0.1145 -0.4354  0.0006
 1567TIP3    H1 4707   2.802   1.534   2.045 -0.5770 -1.2038 -0.5059
 1567TIP3    H2 4708   2.720   1.545   1.918  0.0267  0.4018 -0.7803
 1568TIP3   OH2 4709   6.287   2.319   4.966  0.4157 -0.1830  0.5622
 1568TIP3    H1 4710   6.375   2.349   4.990 -0.1858  0.3570  2.1806
 1568TIP3    H2 4711   6.235   2.333   5.044 -0.9852 -1.0896 -0.1824
 1569TIP3   OH2 4712   5.286   3.548   3.573 -0.7200  0.6895 -0.6161
 1569TIP3    H1 4713   5.323   3.496   3.644 -0.8574  1.5733  0.1251
 1569TIP3    H2 4714   5.240   3.620   3.617 -1.1404  1.0374 -1.5879
 1570TIP3   OH2 4715   4.448   0.295   1.756  0.1486 -0.2406  0.1575
 1570TIP3    H1 4716   4.503   0.217   1.766 -1.3994 -1.3426  0.3782
 1570TIP3    H2 4717   4.376   0.267   1.700 -0.5191  0.9966  0.3660
 1571TIP3   OH2 4718   1.442   0.084   1.426  0.0675  0.4953 -0.0183
 1571TIP3    H1 4719   1.433   0.121   1.338 -1.2741 -0.9297 -0.5396
 1571TIP3    H2 4720   1.515   0.022   1.418  0.7916  1.3083  0.2305
 1572TIP3   OH2 4721   2.900   5.332   3.733 -0.1502  0.4063  0.7163
 1572TIP3    H1 4722   2.917   5.404   3.672 -1.0570 -1.0259 -1.3961
 1572TIP3    H2 4723   2.986   5.294   3.749  0.1287  0.8823  0.3917
 1573TIP3   OH2 4724   2.276   5.804   2.382 -0.0688 -0.0923  0.1453
 1573TIP3    H1 4725   2.193   5.827   2.339 -0.2036 -0.7025  0.0674
 1573TIP3    H2 4726   2.274   5.708   2.388 -1.1427 -0.0090  3.5963
 1574TIP3   OH2 4727   5.947   5.863   3.281 -0.2497  0.6356  0.4546
 1574TIP3    H1 4728   5.924   5.846   3.190  1.7540 -2.2689  0.3602
 1574TIP3    H2 4729   5.868   5.840   3.331 -0.7963  0.6154 -0.4056
 1575TIP3   OH2 4730   5.925   2.434   4.274  0.2784  0.3282  0.1690
 1575TIP3    H1 4731   5.988   2.499   4.303 -0.4391  1.0038  0.2220
 1575TIP3    H2 4732   5.866   2.481   4.216  0.1963 -0.4432 -0.3980
 1576TIP3   OH2 4733   4.556   5.874   1.682  0.2331  0.2297 -0.8092
 1576TIP3    H1 4734   4.506   5.829   1.750  0.0861  0.3995 -0.8061
 1576TIP3    H2 4735   4.647   5.867   1.711  0.3046 -0.7772 -1.2102
 1577TIP3   OH2 4736   1.156   2.536   2.186  0.3678 -0.3075 -0.5127
 1577TIP3    H1 4737   1.179   2.448   2.157 -0.3681  0.0709 -2.3846
 1577TIP3    H2 4738   1.060   2.539   2.182  0.2742  0.1047  1.1021
 1578TIP3   OH2 4739   3.347   5.873   0.225 -0.4069  0.1631  0.0536
 1578TIP3    H1 4740   3.333   5.779   0.231 -2.0450  0.4734  3.1288
 1578TIP3    H2 4741   3.289   5.902   0.155 -1.9280 -0.8500  0.8322
 1579TIP3   OH2 4742   0.872   2.576   4.980 -0.0803  0.1813 -0.7646
 1579TIP3    H1 4743   0.783   2.582   5.016 -0.9019  0.2012 -2.6987
 1579TIP3    H2 4744   0.880   2.653   4.924  0.8911 -0.2169 -1.1845
 1580TIP3   OH2 4745   4.415   0.540   3.044 -0.0089  0.1315  0.6010
 1580TIP3    H1 4746   4.369   0.463   3.009 -0.2057  0.7687 -0.6145
 1580TIP3    H2 4747   4.373   0.614   3.000  1.2220  0.8236  0.5609
 1581TIP3   OH2 4748   4.223   3.182   0.537 -0.3341  0.0928 -0.0421
 1581TIP3    H1 4749   4.266   3.139   0.610 -1.6482  1.6886  1.7983
 1581TIP3    H2 4750   4.211   3.273   0.567  0.7863  1.3607 -3.0188
 1582TIP3   OH2 4751   5.578   3.988   4.191  0.4689 -0.0724 -0.4458
 1582TIP3    H1 4752   5.641   3.918   4.209  1.7108  0.9289 -0.8160
 1582TIP3    H2 4753   5.531   3.999   4.274  1.9023  0.2615  0.3563
 1583TIP3   OH2 4754   5.790   1.639   0.779  0.4502  0.1933  0.0702
 1583TIP3    H1 4755   5.831   1.725   0.789  0.4200  0.2632 -0.4173
 1583TIP3    H2 4756   5.839   1.582   0.839  3.1775 -0.4151 -2.5385
 1584TIP3   OH2 4757   5.266   4.670   3.789  0.5748 -0.1945 -0.0382
 1584TIP3    H1 4758   5.218   4.752   3.789  0.7419 -0.0929  0.2796
 1584TIP3    H2 4759   5.201   4.604   3.764  0.8231  0.2356 -1.9682
 1585TIP3   OH2 4760   4.332   0.807   2.410  0.0470 -0.0759  0.1487
 1585TIP3    H1 4761   4.299   0.798   2.320  0.0632  0.4568  0.0866
 1585TIP3    H2 4762   4.395   0.735   2.420 -0.7923 -0.8434  0.1198
 1586TIP3   OH2 4763   5.868   4.770   3.617 -0.2485 -0.2788 -0.6269
 1586TIP3    H1 4764   5.876   4.804   3.706  0.5811 -0.2399 -0.7085
 1586TIP3    H2 4765   5.875   4.848   3.561  0.2382 -0.4064 -0.7558
 1587TIP3   OH2 4766   4.986   1.621   2.621  0.1087 -0.2311  0.1320
 1587TIP3    H1 4767   5.077   1.646   2.605  0.1432 -0.3234  0.1871
 1587TIP3    H2 4768   4.935   1.683   2.570  0.2053 -0.2364  0.0305
 1588TIP3   OH2 4769   2.370   1.295   1.579 -0.5144 -0.6474  0.0219
 1588TIP3    H1 4770   2.275   1.285   1.583 -0.3170 -4.2560 -0.2873
 1588TIP3    H2 4771   2.389   1.315   1.487 -0.9693  1.9100  0.4138
 1589TIP3   OH2 4772   1.011   0.686   4.787 -0.6544  0.5868 -0.3991
 1589TIP3    H1 4773   1.071   0.759   4.804 -0.9607  0.4899  1.2209
 1589TIP3    H2 4774   1.046   0.613   4.837 -2.9107  0.9509  1.9451
 1590TIP3   OH2 4775   3.497   4.429   3.183  0.1979  0.1634  0.6446
 1590TIP3    H1 4776   3.451   4.508   3.157  0.0423  0.0555  0.5882
 1590TIP3    H2 4777   3.588   4.456   3.195  1.0584 -0.3991 -3.2934
 1591TIP3   OH2 4778   1.109   2.840   2.796 -0.0807  0.1691  0.2443
 1591TIP3    H1 4779   1.043   2.882   2.741  1.8262  1.6758 -1.0630
 1591TIP3    H2 4780   1.118   2.751   2.761 -0.9313  0.1727  0.0179
 1592TIP3   OH2 4781   4.501   5.559   0.645  0.5865  0.2997 -0.5843
 1592TIP3    H1 4782   4.540   5.613   0.576  0.7033 -0.8189 -1.4359
 1592TIP3    H2 4783   4.558   5.482   0.649 -0.7332 -0.7362 -0.8892
 1593TIP3   OH2 4784   2.612   4.598   2.994  1.0114  0.1477 -0.0406
 1593TIP3    H1 4785   2.530   4.550   3.007 -0.0832  1.3017 -2.1497
 1593TIP3    H2 4786   2.666   4.538   2.942  1.2510 -0.3373  0.7531
 1594TIP3   OH2 4787   1.327   3.032   0.576  0.2626 -0.0770  0.0595
 1594TIP3    H1 4788   1.268   3.078   0.636 -2.6112 -1.2279 -1.7009
 1594TIP3    H2 4789   1.410   3.027   0.624 -1.3196  0.6919  3.1338
 1595TIP3   OH2 4790   1.493   4.008   3.015  0.2097 -0.5949 -0.0843
 1595TIP3    H1 4791   1.515   3.989   3.106 -0.3494  0.5162  0.3062
 1595TIP3    H2 4792   1.563   4.067   2.986  0.1874 -0.6564 -0.2619
 1596TIP3   OH2 4793   2.582   3.655   2.756  0.0519  0.9066 -0.1084
 1596TIP3    H1 4794   2.504   3.639   2.809 -0.0773  0.2216 -0.4961
 1596TIP3    H2 4795   2.548   3.693   2.675  0.2081  1.4970  0.0960
 1597TIP3   OH2 4796   2.467   1.883   1.736  0.4415  0.3131 -0.0348
 1597TIP3    H1 4797   2.431   1.856   1.651  0.7862 -1.5241  0.3565
 1597TIP3    H2 4798   2.410   1.955   1.764 -0.9763 -0.4371 -0.8633
 1598TIP3   OH2 4799   2.104   2.424   2.506 -0.2023  0.1759 -0.2881
 1598TIP3    H1 4800   2.104   2.519   2.514 -0.5946  0.1527  0.0455
 1598TIP3    H2 4801   2.081   2.393   2.594 -2.8027 -0.1629 -1.0068
 1599TIP3   OH2 4802   5.599   2.448   0.388  0.0936 -0.2411 -0.1424
 1599TIP3    H1 4803   5.603   2.357   0.357  2.1587 -0.2324 -0.0232
 1599TIP3    H2 4804   5.599   2.500   0.308 -1.3860 -0.3286 -0.2184
 1600TIP3   OH2 4805   0.723   0.001   3.184  0.4673 -0.5143  0.0367
 1600TIP3    H1 4806   0.731   0.069   3.118  2.4604 -0.4655  0.2733
 1600TIP3    H2 4807   0.630  -0.024   3.182  0.4284 -0.4910 -2.7226
 1601TIP3   OH2 4808   5.917   5.046   3.798  0.2129  0.1553  0.1783
 1601TIP3    H1 4809   5.942   4.965   3.844  0.2912  0.8394  1.4005
 1601TIP3    H2 4810   6.000   5.091   3.783  0.2371 -0.2966 -1.1365
 1602TIP3   OH2 4811   4.296   4.852   0.578  0.2396 -0.0348 -0.1323
 1602TIP3    H1 4812   4.298   4.843   0.674 -0.5286  0.4790 -0.0630
 1602TIP3    H2 4813   4.232   4.921   0.562 -1.3863 -1.6668 -1.1197
 1603TIP3   OH2 4814   3.788   1.480   4.994 -0.7284 -0.9902 -0.2262
 1603TIP3    H1 4815   3.705   1.465   4.949 -0.8531  2.1283 -1.2885
 1603TIP3    H2 4816   3.816   1.567   4.965  0.7070 -0.0177  3.4852
 1604TIP3   OH2 4817   3.832   5.500   4.741  0.0792 -0.1474  0.2826
 1604TIP3    H1 4818   3.921   5.471   4.761 -0.1859  0.0531  1.8407
 1604TIP3    H2 4819   3.839   5.596   4.735  0.2006 -0.2114 -0.9439
 1605TIP3   OH2 4820   2.059   5.963   0.871 -0.2900  0.1031  0.3302
 1605TIP3    H1 4821   2.038   6.012   0.951  0.6447  0.3232  0.4535
 1605TIP3    H2 4822   2.089   5.878   0.901  0.0402  0.1766  0.2145
 1606TIP3   OH2 4823   5.268   0.861   4.047  0.0943  0.1161  0.2848
 1606TIP3    H1 4824   5.302   0.943   4.011  1.8335 -0.1795  1.1503
 1606TIP3    H2 4825   5.200   0.888   4.109 -1.9758  0.6889 -2.0613
 1607TIP3   OH2 4826   6.137   1.051   2.634  0.1584  0.1701 -0.3723
 1607TIP3    H1 4827   6.122   1.082   2.723 -0.4322 -2.6341  0.6241
 1607TIP3    H2 4828   6.230   1.066   2.619  0.2303  0.8564  0.6413
 1608TIP3   OH2 4829   1.105   0.960   1.979  0.1961 -0.4988  0.4467
 1608TIP3    H1 4830   1.130   1.016   2.052 -0.8523 -1.3989  1.5311
 1608TIP3    H2 4831   1.127   1.012   1.901 -1.9159  2.0568  1.3612
 1609TIP3   OH2 4832   1.660   1.026   2.389  0.0092 -0.5510 -0.0826
 1609TIP3    H1 4833   1.731   1.028   2.452 -1.1217 -2.3101  1.3374
 1609TIP3    H2 4834   1.667   1.110   2.342 -0.2416  1.7947  3.6709
 1610TIP3   OH2 4835   3.202   3.447   2.869 -0.5906  0.3425  0.0673
 1610TIP3    H1 4836   3.248   3.391   2.931 -0.2090  0.7249  0.1352
 1610TIP3    H2 4837   3.268   3.467   2.802 -0.6155  0.9799  0.2218
 1611TIP3   OH2 4838   1.352   2.636   2.008  0.4052  0.5372 -0.3712
 1611TIP3    H1 4839   1.314   2.613   2.092  0.5718 -1.7046 -0.8321
 1611TIP3    H2 4840   1.283   2.615   1.944  0.8620  0.6202 -0.9032
 1612TIP3   OH2 4841   3.353   1.824   2.874  0.2655  0.2892  0.1636
 1612TIP3    H1 4842   3.416   1.793   2.808 -0.1996 -1.9948  0.7090
 1612TIP3    H2 4843   3.267   1.803   2.838 -0.0020 -0.8827  1.3850
 1613TIP3   OH2 4844   4.420   0.876   1.959  0.0399  0.0759 -0.1352
 1613TIP3    H1 4845   4.502   0.870   1.910  0.1068 -2.3883  0.1413
 1613TIP3    H2 4846   4.356   0.910   1.895  0.7057 -0.5127 -1.1488
 1614TIP3   OH2 4847   4.103   5.574   4.523 -0.6485  0.1818  0.4040
 1614TIP3    H1 4848   4.074   5.498   4.472 -0.0235  0.1372  0.1135
 1614TIP3    H2 4849   4.057   5.648   4.483  0.7701  0.3281 -1.0595
 1615TIP3   OH2 4850   5.821   3.649   3.348  0.0553 -0.0214  0.2761
 1615TIP3    H1 4851   5.893   3.599   3.310 -0.1563 -0.2326  0.1523
 1615TIP3    H2 4852   5.860   3.733   3.370 -0.1313  0.6487 -1.7225
 1616TIP3   OH2 4853   2.197   1.868   1.608 -0.5056 -0.5684 -0.4632
 1616TIP3    H1 4854   2.114   1.829   1.632 -0.2057  0.3676  2.4009
 1616TIP3    H2 4855   2.191   1.959   1.638  1.4893 -0.4591 -0.2609
 1617TIP3   OH2 4856   3.489   1.875   1.301  0.1440 -0.3286 -0.4096
 1617TIP3    H1 4857   3.504   1.782   1.287  0.3304 -0.2562 -0.7180
 1617TIP3    H2 4858   3.414   1.879   1.360  2.3470 -0.7444  2.6691
 1618TIP3   OH2 4859   5.166   2.322   4.070  0.4173 -0.2191  0.7149
 1618TIP3    H1 4860   5.207   2.322   4.157  0.5547  0.8282  0.6534
 1618TIP3    H2 4861   5.085   2.371   4.081  0.3245 -0.2754  0.2965
 1619TIP3   OH2 4862   4.762   1.257   2.006 -0.5503 -0.0479 -0.0869
 1619TIP3    H1 4863   4.725   1.292   2.087  1.6793 -1.1123  1.4767
 1619TIP3    H2 4864   4.810   1.330   1.967  0.7717 -0.2535  1.0922
 1620TIP3   OH2 4865   0.339   4.728   1.869 -0.0452 -0.1867 -0.0379
 1620TIP3    H1 4866   0.278   4.759   1.936  0.4310  1.4621 -0.3129
 1620TIP3    H2 4867   0.304   4.764   1.787 -0.8713 -2.5433 -0.8015
 1621TIP3   OH2 4868   2.274   1.607   2.534 -0.0905  0.6874  0.0666
 1621TIP3    H1 4869   2.314   1.668   2.472  0.4287 -0.1933 -0.4913
 1621TIP3    H2 4870   2.186   1.642   2.550  0.0457  1.3372 -0.5759
 1622TIP3   OH2 4871   5.148   1.458   0.224 -0.6524  1.0711 -0.4142
 1622TIP3    H1 4872   5.053   1.447   0.219 -0.4558 -1.6205  0.1996
 1622TIP3    H2 4873   5.160   1.534   0.281 -2.4751  0.0389  1.5047
 1623TIP3   OH2 4874   0.762   0.143   2.886  0.0289 -0.0119  0.3224
 1623TIP3    H1 4875   0.769   0.137   2.791  1.2413  0.8230  0.3314
 1623TIP3    H2 4876   0.669   0.133   2.905 -0.2549  0.0808 -0.9712
 1624TIP3   OH2 4877   0.055   4.095   2.774 -0.6533 -0.0817 -0.1788
 1624TIP3    H1 4878   0.094   4.159   2.715  0.7056 -0.3765  0.3476
 1624TIP3    H2 4879   0.078   4.010   2.736 -1.3115 -0.2618 -0.1792
 1625TIP3   OH2 4880   3.749   5.043   2.900 -0.4353 -0.3958 -0.4980
 1625TIP3    H1 4881   3.711   5.070   2.817 -0.3830 -1.2463 -0.8110
 1625TIP3    H2 4882   3.742   5.120   2.957 -0.6558  0.1222 -1.2231
 1626TIP3   OH2 4883   6.271   4.060   5.021 -0.3683  0.2946  0.0120
 1626TIP3    H1 4884   6.329   4.118   4.973  1.2817 -1.4237 -0.2091
 1626TIP3    H2 4885   6.195   4.114   5.044  0.4122  2.0831 -1.4234
 1627TIP3   OH2 4886   2.022   5.006   0.809  0.7137  0.1520  0.0866
 1627TIP3    H1 4887   1.947   4.953   0.783  1.2756 -0.8326  0.4321
 1627TIP3    H2 4888   2.098   4.950   0.792  1.1881 -0.1400  2.8139
 1628TIP3   OH2 4889   1.587   0.046   2.770 -0.4101 -0.3151 -0.0850
 1628TIP3    H1 4890   1.635   0.018   2.848 -0.1633  0.7275  0.1489
 1628TIP3    H2 4891   1.587   0.141   2.775 -2.0074 -0.2741 -0.3776
 1629TIP3   OH2 4892   2.328   2.531   0.559 -0.2534 -0.2749 -0.4122
 1629TIP3    H1 4893   2.296   2.559   0.474 -1.9474 -1.2045 -0.1289
 1629TIP3    H2 4894   2.314   2.436   0.560  1.3624 -0.5468  0.2547
 1630TIP3   OH2 4895   5.467   3.298   1.008 -0.2807 -0.6508  0.2227
 1630TIP3    H1 4896   5.534   3.367   1.016 -1.7566  1.0189 -0.9037
 1630TIP3    H2 4897   5.412   3.310   1.084 -0.2697 -0.9120  0.2718
 1631TIP3   OH2 4898   3.583   0.621   0.622  0.3763 -0.5242  0.5810
 1631TIP3    H1 4899   3.597   0.645   0.714  0.3817 -0.6528  0.6142
 1631TIP3    H2 4900   3.632   0.539   0.611  2.1820  0.5976 -0.1215
 1632TIP3   OH2 4901   2.965   2.981   2.315  0.1847  0.0137  0.2376
 1632TIP3    H1 4902   2.975   2.894   2.277  0.0147  0.5146 -1.0166
 1632TIP3    H2 4903   3.051   3.003   2.351  0.1606 -0.7579  0.7845
 1633TIP3   OH2 4904   5.533   2.325   4.602 -0.3984 -0.0721  0.3435
 1633TIP3    H1 4905   5.495   2.260   4.544 -0.5197  1.3109 -1.2057
 1633TIP3    H2 4906   5.608   2.359   4.554  1.0202 -0.5962  2.0592
 1634TIP3   OH2 4907   2.713   3.590   1.213 -0.5486 -0.0241 -0.3063
 1634TIP3    H1 4908   2.749   3.503   1.197 -0.8372 -0.3376  0.6763
 1634TIP3    H2 4909   2.789   3.646   1.223 -0.3107 -0.5873  1.2669
 1635TIP3   OH2 4910   3.768   2.744   0.240 -0.5900 -0.2742  0.6778
 1635TIP3    H1 4911   3.798   2.720   0.328 -0.1880  0.5028  0.7544
 1635TIP3    H2 4912   3.693   2.686   0.224 -1.8980  0.8893  2.3073
 1636TIP3   OH2 4913   1.614   4.488   1.857  0.3924  0.0663  0.5176
 1636TIP3    H1 4914   1.678   4.424   1.889 -0.6012 -0.2415  1.9850
 1636TIP3    H2 4915   1.592   4.458   1.769  2.7465  0.5781 -0.3356
 1637TIP3   OH2 4916   5.076   4.137   3.084  0.4929  0.6684 -0.0551
 1637TIP3    H1 4917   5.161   4.097   3.100  1.1079  0.6841 -2.7662
 1637TIP3    H2 4918   5.091   4.231   3.093  0.6712  0.6535 -0.2100
 1638TIP3   OH2 4919   5.992   1.028   5.007  0.7622  0.2504  0.1521
 1638TIP3    H1 4920   6.087   1.035   5.005  0.7115  0.7823 -1.1044
 1638TIP3    H2 4921   5.968   1.053   5.096  1.8636 -1.0183  0.8428
 1639TIP3   OH2 4922   0.083   5.177   4.175 -0.5135 -0.4295  0.4855
 1639TIP3    H1 4923   0.015   5.126   4.219 -0.5235 -1.7321 -0.9784
 1639TIP3    H2 4924   0.035   5.244   4.126 -0.6023 -0.0772  1.0431
 1640TIP3   OH2 4925   4.659   4.042   1.568 -0.1898 -0.3154 -0.0776
 1640TIP3    H1 4926   4.569   4.010   1.579 -0.1284 -0.2859  0.5467
 1640TIP3    H2 4927   4.663   4.121   1.621 -0.2575  0.6049 -1.3749
 1641TIP3   OH2 4928   3.498   0.454   1.361 -0.3002 -0.0621  0.4240
 1641TIP3    H1 4929   3.534   0.368   1.380  2.9433  0.7806 -1.1035
 1641TIP3    H2 4930   3.519   0.507   1.438 -1.6778 -0.4193  1.0726
 1642TIP3   OH2 4931   3.917   0.796   2.200  0.3142  0.1148  0.0153
 1642TIP3    H1 4932   3.941   0.721   2.253  0.8855  0.4393  0.2272
 1642TIP3    H2 4933   3.923   0.765   2.109  1.3558  0.1296  0.0713
 1643TIP3   OH2 4934   3.286   4.875   5.034  0.1232  0.0214 -0.3923
 1643TIP3    H1 4935   3.286   4.812   4.962 -0.9079 -0.0267 -0.3609
 1643TIP3    H2 4936   3.302   4.960   4.993 -0.3267 -0.0226 -0.6632
 1644TIP3   OH2 4937   2.732   3.751   4.828  0.6463 -0.7838 -0.0105
 1644TIP3    H1 4938   2.784   3.705   4.762 -0.4582 -1.4278 -0.4678
 1644TIP3    H2 4939   2.673   3.684   4.862 -0.6657  0.1643 -0.3340
 1645TIP3   OH2 4940   5.834   5.420   3.053 -0.2153  0.4348  0.1063
 1645TIP3    H1 4941   5.850   5.326   3.051  1.6614  0.7122 -0.4946
 1645TIP3    H2 4942   5.880   5.451   3.131  3.1621  1.3598 -2.0067
 1646TIP3   OH2 4943   1.955   0.579   4.470  0.3569 -0.5752 -0.0193
 1646TIP3    H1 4944   1.897   0.528   4.527 -0.7762 -0.0465 -0.6730
 1646TIP3    H2 4945   1.916   0.572   4.383  0.3224  1.1475 -0.1846
 1647TIP3   OH2 4946   2.748   2.089   0.707  0.1749  0.1532  0.4527
 1647TIP3    H1 4947   2.771   2.080   0.799 -0.6294 -2.7133  0.4486
 1647TIP3    H2 4948   2.757   2.183   0.689  1.4484  0.6173  3.1198
 1648TIP3   OH2 4949   2.558   5.380   0.729 -0.5430 -0.4270  0.3697
 1648TIP3    H1 4950   2.504   5.400   0.652 -1.3892  1.7909  1.4413
 1648TIP3    H2 4951   2.496   5.361   0.799  0.0782  0.3687  1.1759
 1649TIP3   OH2 4952   2.489   5.114   4.778  0.3438  0.1330  0.3394
 1649TIP3    H1 4953   2.463   5.052   4.710  0.2542  0.7724 -0.2156
 1649TIP3    H2 4954   2.420   5.180   4.778  0.1607 -0.0405  1.2985
 1650TIP3   OH2 4955   6.051   1.958   2.466  0.1958  0.1944 -0.1182
 1650TIP3    H1 4956   6.068   2.045   2.432 -0.4663 -0.5271 -2.4679
 1650TIP3    H2 4957   6.133   1.910   2.454 -0.2589 -0.2765 -1.4920
 1651TIP3   OH2 4958   2.108   4.384   3.122  0.4923  0.0216  0.4875
 1651TIP3    H1 4959   2.147   4.458   3.075 -0.6894  1.7790  2.1126
 1651TIP3    H2 4960   2.158   4.379   3.204  0.3050 -0.7202  0.5581
 1652TIP3   OH2 4961   6.192   3.130   4.401 -0.5036  0.0926 -0.1813
 1652TIP3    H1 4962   6.209   3.212   4.356  2.0011 -0.9531 -1.3273
 1652TIP3    H2 4963   6.218   3.146   4.492 -1.2060  0.9032 -0.1198
 1653TIP3   OH2 4964   2.053   5.815   4.347 -0.1869 -0.0815 -0.6628
 1653TIP3    H1 4965   2.112   5.755   4.393 -0.1039 -0.3232 -1.0832
 1653TIP3    H2 4966   2.021   5.765   4.272  0.0861  0.4770 -1.1631
 1654TIP3   OH2 4967   5.948   1.950   0.375  0.1040 -0.1871  0.7654
 1654TIP3    H1 4968   5.875   1.889   0.385  0.4710 -0.7098  0.2700
 1654TIP3    H2 4969   5.915   2.016   0.313 -0.1579 -0.0915  1.0057
 1655TIP3   OH2 4970   2.090   3.735   0.590  0.6040 -0.2140  0.2126
 1655TIP3    H1 4971   2.088   3.830   0.592  1.3142 -0.1836 -0.2152
 1655TIP3    H2 4972   2.034   3.711   0.515  0.6596 -0.1215  0.1420
 1656TIP3   OH2 4973   0.396   1.512   0.767 -0.7329 -0.0395  0.2850
 1656TIP3    H1 4974   0.435   1.542   0.684 -0.6104  0.1044  0.3938
 1656TIP3    H2 4975   0.361   1.425   0.747 -2.1581  0.6427 -0.3746
 1657TIP3   OH2 4976   4.597   1.565   4.964  0.1024  0.2931 -0.0168
 1657TIP3    H1 4977   4.618   1.480   5.003 -2.7488 -0.8815 -0.8163
 1657TIP3    H2 4978   4.589   1.548   4.871 -2.9049  0.8246  0.0653
 1658TIP3   OH2 4979   1.886   2.195   4.176  0.0005  0.1236 -0.4974
 1658TIP3    H1 4980   1.915   2.170   4.088 -0.9691 -2.0746 -0.2471
 1658TIP3    H2 4981   1.802   2.238   4.162 -0.0770 -0.0763 -0.6372
 1659TIP3   OH2 4982   2.608   0.312   3.914  0.1973  0.1059 -0.0334
 1659TIP3    H1 4983   2.546   0.279   3.849  2.3440 -2.1050 -1.1664
 1659TIP3    H2 4984   2.664   0.373   3.866  0.0434  0.6858  0.5070
 1660TIP3   OH2 4985   2.524   1.678   4.176 -0.2973 -0.1484  0.2280
 1660TIP3    H1 4986   2.518   1.688   4.271 -3.6722 -0.1003  0.1174
 1660TIP3    H2 4987   2.499   1.763   4.141  0.0105 -0.4359 -0.7354
 1661TIP3   OH2 4988   6.312   3.870   4.809 -0.0208  0.5674 -0.0871
 1661TIP3    H1 4989   6.336   3.918   4.730 -1.0964  0.3900 -0.5313
 1661TIP3    H2 4990   6.299   3.938   4.875  0.3800  0.7454 -0.1839
 1662TIP3   OH2 4991   1.970   1.945   4.213  0.7042 -0.2280 -0.3762
 1662TIP3    H1 4992   1.944   2.036   4.205 -0.7825 -0.5837  0.0663
 1662TIP3    H2 4993   1.928   1.915   4.294  0.2983 -1.5694 -1.0439
 1663TIP3   OH2 4994   6.292   3.085   3.683 -0.2609 -0.4205  0.0269
 1663TIP3    H1 4995   6.367   3.132   3.647 -0.7171 -0.2753 -0.7538
 1663TIP3    H2 4996   6.261   3.031   3.611  0.0708 -1.7150  0.8147
 1664TIP3   OH2 4997   5.694   5.891   2.188 -0.0918 -0.3638 -0.3936
 1664TIP3    H1 4998   5.676   5.948   2.263  1.2298 -1.4768  0.8337
 1664TIP3    H2 4999   5.747   5.944   2.129 -0.7655  0.3835 -0.3320
 1665TIP3   OH2 5000   3.045   2.036   4.915 -0.1617  0.6172 -0.5590
 1665TIP3    H1 5001   3.129   2.024   4.959 -0.1531  0.2054 -0.6883
 1665TIP3    H2 5002   3.015   1.948   4.894 -0.8383  0.7307 -0.1142
 1666TIP3   OH2 5003   5.717   0.494   4.187  0.0852 -0.1062 -0.1521
 1666TIP3    H1 5004   5.661   0.570   4.170  0.5330  0.2620 -0.0017
 1666TIP3    H2 5005   5.770   0.485   4.108  1.6605  1.1687  0.6794
 1667TIP3   OH2 5006   2.893   3.308   4.384  0.0298 -0.0456 -0.6153
 1667TIP3    H1 5007   2.978   3.336   4.349  0.2959  1.3111  0.9904
 1667TIP3    H2 5008   2.908   3.300   4.479 -1.3639 -0.8693 -0.4388
 1668TIP3   OH2 5009   1.677   5.580   4.544 -0.4336 -0.0480  0.1126
 1668TIP3    H1 5010   1.767   5.568   4.574  0.2717  0.0882 -1.7823
 1668TIP3    H2 5011   1.640   5.645   4.603  0.9730  0.4729  0.4544
 1669TIP3   OH2 5012   5.194   4.821   3.189 -0.5046  0.2124 -0.0134
 1669TIP3    H1 5013   5.239   4.764   3.251 -2.2123  0.8953  1.9822
 1669TIP3    H2 5014   5.228   4.909   3.208 -2.1425  0.6586  1.1670
 1670TIP3   OH2 5015   2.223   4.063   3.208 -0.4993 -0.1639  0.3738
 1670TIP3    H1 5016   2.132   4.092   3.211 -0.2844  0.4582  0.9057
 1670TIP3    H2 5017   2.269   4.120   3.269  0.2882 -0.3440 -0.0404
 1671TIP3   OH2 5018   1.959   4.754   4.899 -0.5846  0.5811 -0.1972
 1671TIP3    H1 5019   1.984   4.810   4.973 -1.0779 -1.1161  1.3415
 1671TIP3    H2 5020   1.873   4.719   4.924 -0.2062 -0.9976 -0.9693
 1672TIP3   OH2 5021   5.399   2.862   3.534 -0.5906 -0.1861  0.1477
 1672TIP3    H1 5022   5.470   2.853   3.597 -1.4588  0.9122  1.3378
 1672TIP3    H2 5023   5.432   2.924   3.469  0.7421 -2.1806 -1.2026
 1673TIP3   OH2 5024   0.092   2.587   1.601  0.1713 -0.2438 -0.2642
 1673TIP3    H1 5025   0.176   2.567   1.641  0.3558  0.2438 -0.4020
 1673TIP3    H2 5026   0.045   2.504   1.601  0.2460 -0.2983  0.7728
 1674TIP3   OH2 5027   5.370   2.896   2.823  0.4029 -0.1521  0.0939
 1674TIP3    H1 5028   5.354   2.988   2.843  0.5625 -0.3998  1.4653
 1674TIP3    H2 5029   5.345   2.886   2.731  2.3381  1.7305 -0.7238
 1675TIP3   OH2 5030   4.693   4.330   2.175 -0.0215  0.1975  0.6942
 1675TIP3    H1 5031   4.732   4.245   2.195 -1.3880 -0.7141 -0.3153
 1675TIP3    H2 5032   4.720   4.387   2.247  2.5506 -0.5339  0.4121
 1676TIP3   OH2 5033   3.370   4.439   0.815  0.0500  0.5555  0.7479
 1676TIP3    H1 5034   3.351   4.386   0.738  1.3436 -0.0622  0.8203
 1676TIP3    H2 5035   3.385   4.527   0.781 -2.1290  0.9247  0.6279
 1677TIP3   OH2 5036   2.802   1.520   0.655  0.1218 -0.2466  0.0548
 1677TIP3    H1 5037   2.887   1.546   0.692  0.9227 -1.5151 -0.8254
 1677TIP3    H2 5038   2.745   1.595   0.673  1.2438  0.3821  1.2337
 1678TIP3   OH2 5039   2.061   5.285   0.747  0.1620 -0.0330 -0.3843
 1678TIP3    H1 5040   2.022   5.371   0.733  1.3513  0.2832 -2.0622
 1678TIP3    H2 5041   2.086   5.286   0.840 -2.5120  0.2255  0.4104
 1679TIP3   OH2 5042   1.942   5.366   1.473 -0.4900 -0.0830  0.9976
 1679TIP3    H1 5043   1.918   5.282   1.511 -2.0393 -0.5755 -0.9101
 1679TIP3    H2 5044   1.909   5.431   1.535 -1.9850 -0.8655  1.0782
 1680TIP3   OH2 5045   0.986   5.357   1.147 -0.6210  0.8038 -0.5072
 1680TIP3    H1 5046   0.951   5.345   1.058 -0.3099 -1.4318 -0.3765
 1680TIP3    H2 5047   1.071   5.314   1.146  0.0872  2.0944  0.4930
 1681TIP3   OH2 5048   4.446   3.145   0.339  0.0424 -0.3895  0.6155
 1681TIP3    H1 5049   4.368   3.139   0.394 -0.5382 -2.6436 -0.3388
 1681TIP3    H2 5050   4.414   3.129   0.250  1.7407 -3.1601  0.3796
 1682TIP3   OH2 5051   5.656   0.929   2.378  0.1363 -0.5619 -0.0100
 1682TIP3    H1 5052   5.688   0.971   2.459  0.3203 -2.4650  0.9512
 1682TIP3    H2 5053   5.668   0.836   2.393  0.2665 -0.9691 -2.3116
 1683TIP3   OH2 5054   4.348   5.012   0.834 -0.3755 -0.1691 -0.4532
 1683TIP3    H1 5055   4.348   4.966   0.918  1.6709  1.7701  0.6914
 1683TIP3    H2 5056   4.349   5.105   0.857 -3.1634  0.5422 -2.6894
 1684TIP3   OH2 5057   5.763   5.627   2.710  0.9892  0.7456  0.2756
 1684TIP3    H1 5058   5.776   5.680   2.788 -1.6759 -0.0594  1.3587
 1684TIP3    H2 5059   5.747   5.538   2.743 -1.2419  0.5787 -1.0422
 1685TIP3   OH2 5060   1.853   2.068   1.890  0.1099 -0.0277  0.2283
 1685TIP3    H1 5061   1.948   2.064   1.904  0.0238  0.7446  1.1279
 1685TIP3    H2 5062   1.841   2.140   1.828  0.1415 -0.4506 -0.2758
 1686TIP3   OH2 5063   1.499   3.909   1.293 -0.2828 -0.2494  0.2786
 1686TIP3    H1 5064   1.581   3.874   1.329 -0.2474 -0.6061 -0.1471
 1686TIP3    H2 5065   1.435   3.897   1.363  0.0328  0.0541  0.6230
 1687TIP3   OH2 5066   1.880   3.182   4.443  0.0773 -0.0265 -0.1765
 1687TIP3    H1 5067   1.918   3.270   4.451 -1.6939  0.9144 -1.3492
 1687TIP3    H2 5068   1.914   3.149   4.360 -0.6567  0.3123 -0.6216
 1688TIP3   OH2 5069   2.503   5.971   2.369  0.0215  0.4397  0.0716
 1688TIP3    H1 5070   2.430   5.911   2.382 -0.0175  0.4675 -0.0141
 1688TIP3    H2 5071   2.578   5.915   2.353  0.0131  0.4115  0.1303
 1689TIP3   OH2 5072   1.073   2.015   3.798  0.2259  0.1166 -0.0476
 1689TIP3    H1 5073   1.053   2.103   3.829  0.0401  0.6173 -1.5092
 1689TIP3    H2 5074   1.163   2.000   3.826  0.6700  1.2559 -0.7815
 1690TIP3   OH2 5075   3.969   1.794   1.233 -0.0380 -0.1720  0.4255
 1690TIP3    H1 5076   3.975   1.710   1.187  0.5249  0.0597  0.0653
 1690TIP3    H2 5077   4.054   1.803   1.277  0.2190  0.5877 -0.2071
 1691TIP3   OH2 5078   5.410   1.263   3.569 -0.1713  0.0796 -0.2004
 1691TIP3    H1 5079   5.365   1.183   3.542  1.5333 -0.6850 -0.9196
 1691TIP3    H2 5080   5.420   1.314   3.489  1.5997 -0.4954 -0.3922
 1692TIP3   OH2 5081   5.613   4.537   3.986  0.2418  0.2219  0.0469
 1692TIP3    H1 5082   5.565   4.472   4.037 -1.8392  1.4214 -0.2468
 1692TIP3    H2 5083   5.630   4.494   3.902 -0.1768 -0.3133  0.2267
 1693TIP3   OH2 5084   3.720   1.028   2.746  0.6975  0.4261  0.3869
 1693TIP3    H1 5085   3.785   0.959   2.733  1.7866  1.1931  1.5222
 1693TIP3    H2 5086   3.730   1.084   2.669  1.1260  0.3224  0.3604
 1694TIP3   OH2 5087   2.232   4.548   4.622 -0.2386  0.0023  0.5166
 1694TIP3    H1 5088   2.191   4.467   4.653  0.0013 -1.0658 -1.7248
 1694TIP3    H2 5089   2.167   4.616   4.639 -1.7755 -1.1855 -0.3115
 1695TIP3   OH2 5090   3.637   3.815   3.324  0.4192  0.1081  0.5583
 1695TIP3    H1 5091   3.731   3.832   3.329  0.1977  1.4500  0.4467
 1695TIP3    H2 5092   3.631   3.722   3.304  1.8024  0.3948 -1.5436
 1696TIP3   OH2 5093   0.116   0.114   2.021  0.4171  0.7313 -0.0932
 1696TIP3    H1 5094   0.202   0.144   1.991 -0.1651  0.1430 -2.5965
 1696TIP3    H2 5095   0.112   0.022   1.995 -1.3550  1.0330 -1.1005
 1697TIP3   OH2 5096   1.619   1.855   1.877 -0.5394  0.0562  0.7420
 1697TIP3    H1 5097   1.548   1.831   1.937 -0.5038  1.2716  1.2804
 1697TIP3    H2 5098   1.699   1.825   1.920 -0.6349 -0.5196  0.5375
 1698TIP3   OH2 5099   2.616   0.695   0.481 -0.1440  0.2187  0.0044
 1698TIP3    H1 5100   2.643   0.782   0.512 -0.6667  0.7874 -1.1025
 1698TIP3    H2 5101   2.530   0.682   0.521 -0.3838  0.5249 -0.4080
 1699TIP3   OH2 5102   3.202   3.007   2.446 -0.0570 -0.2102  0.2025
 1699TIP3    H1 5103   3.219   3.013   2.540 -0.1723 -2.3497  0.4176
 1699TIP3    H2 5104   3.277   2.957   2.412 -1.1483 -1.4926 -0.4140
 1700TIP3   OH2 5105   6.204   3.780   0.455 -0.2443  0.9000 -0.1115
 1700TIP3    H1 5106   6.177   3.780   0.547  0.4172 -2.6515  0.2471
 1700TIP3    H2 5107   6.162   3.702   0.418  2.0353  0.4447 -1.9595
 1701TIP3   OH2 5108   4.170   0.214   4.581 -0.0545  0.6057 -0.0040
 1701TIP3    H1 5109   4.262   0.187   4.574  0.2214  1.7611 -1.2892
 1701TIP3    H2 5110   4.125   0.136   4.612  1.4632  0.2223  1.3841
 1702TIP3   OH2 5111   4.488   3.309   3.157  0.3713 -0.1486 -0.3811
 1702TIP3    H1 5112   4.524   3.356   3.082 -0.1883 -1.2528 -1.3708
 1702TIP3    H2 5113   4.423   3.251   3.120  1.3814 -2.0836  0.7120
 1703TIP3   OH2 5114   1.090   5.729   3.446  0.0941  0.1585  0.3791
 1703TIP3    H1 5115   1.081   5.675   3.367 -0.2216  0.1119  0.4474
 1703TIP3    H2 5116   1.091   5.665   3.518 -1.0450  0.2804  0.5206
 1704TIP3   OH2 5117   4.265   4.017   0.371 -0.5102 -0.3792  0.4872
 1704TIP3    H1 5118   4.171   4.005   0.385 -0.7918 -0.1110 -0.9707
 1704TIP3    H2 5119   4.304   3.933   0.396 -1.1534 -0.5532  0.9383
 1705TIP3   OH2 5120   3.386   3.554   3.277  0.0340  0.3244 -0.0262
 1705TIP3    H1 5121   3.397   3.555   3.372  0.2922 -2.5154  0.0639
 1705TIP3    H2 5122   3.473   3.572   3.242  0.5517 -1.2894  0.3627
 1706TIP3   OH2 5123   6.218   1.334   4.947 -0.0534 -0.5225 -0.3101
 1706TIP3    H1 5124   6.231   1.245   4.981  0.4391 -0.2910  0.1204
 1706TIP3    H2 5125   6.307   1.367   4.932 -0.1972  0.2193  0.3808
 1707TIP3   OH2 5126   2.174   0.709   4.622  0.0650 -0.1093  0.4252
 1707TIP3    H1 5127   2.210   0.654   4.692 -0.9972  0.8146  1.7547
 1707TIP3    H2 5128   2.083   0.681   4.614 -0.1674  0.6632  0.3162
 1708TIP3   OH2 5129   4.402   4.782   3.121 -0.9280 -0.3146  0.4788
 1708TIP3    H1 5130   4.378   4.738   3.040 -1.9667 -0.3715  0.7992
 1708TIP3    H2 5131   4.350   4.739   3.189 -0.9801  0.5166  0.9936
 1709TIP3   OH2 5132   5.612   0.419   1.900 -0.1957 -0.8585  0.1403
 1709TIP3    H1 5133   5.685   0.397   1.842 -0.1350 -0.1654 -0.0635
 1709TIP3    H2 5134   5.650   0.418   1.988  0.5253  1.2156 -0.0980
 1710TIP3   OH2 5135   3.505   4.882   4.789  0.2621  0.3809  0.1377
 1710TIP3    H1 5136   3.544   4.944   4.851  1.8272 -0.1528 -0.2590
 1710TIP3    H2 5137   3.573   4.869   4.723  0.2515 -2.1678  0.5032
 1711TIP3   OH2 5138   2.541   0.891   1.521 -0.1889 -0.0545  0.0718
 1711TIP3    H1 5139   2.575   0.971   1.561  0.7184  0.5299 -1.7194
 1711TIP3    H2 5140   2.475   0.922   1.458 -0.0140 -0.7149 -0.4531
 1712TIP3   OH2 5141   2.434   1.271   2.707  0.5726  0.1418  0.2937
 1712TIP3    H1 5142   2.518   1.252   2.749  1.1753 -0.3096 -1.0668
 1712TIP3    H2 5143   2.425   1.203   2.640 -0.1617  1.0689 -0.5713
 1713TIP3   OH2 5144   4.722   5.784   5.109  0.0866 -0.2388 -0.0221
 1713TIP3    H1 5145   4.737   5.847   5.039  0.6773 -0.2889  0.0573
 1713TIP3    H2 5146   4.797   5.725   5.105  0.0499 -0.3291  0.5553
 1714TIP3   OH2 5147   2.130   1.797   0.881  0.2461  0.8033 -0.6672
 1714TIP3    H1 5148   2.037   1.779   0.869  0.5176 -0.3764 -1.0376
 1714TIP3    H2 5149   2.170   1.712   0.892  1.3358  1.2871 -0.7850
 1715TIP3   OH2 5150   3.776   0.242   1.539 -0.2554  0.3783 -0.5856
 1715TIP3    H1 5151   3.736   0.156   1.526  0.5990 -0.1773  0.2527
 1715TIP3    H2 5152   3.852   0.242   1.481 -0.1510  0.4850 -0.4492
 1716TIP3   OH2 5153   2.128   4.037   1.537  0.4018  0.0586 -0.1090
 1716TIP3    H1 5154   2.105   4.127   1.513 -0.2449 -0.2580 -0.7218
 1716TIP3    H2 5155   2.085   4.024   1.622 -1.3932 -0.3644 -1.0184
 1717TIP3   OH2 5156   3.910   0.028   1.240  0.3178 -0.0111  0.0132
 1717TIP3    H1 5157   3.939   0.036   1.330  0.8820 -0.5339 -0.1116
 1717TIP3    H2 5158   3.983   0.062   1.188  0.0732  0.1122 -0.2590
 1718TIP3   OH2 5159   5.550   2.948   4.020  0.4293 -0.2763 -0.6248
 1718TIP3    H1 5160   5.477   2.941   3.959  0.8964  1.4992 -1.4381
 1718TIP3    H2 5161   5.510   2.939   4.107 -0.8768  1.2876 -1.0189
 1719TIP3   OH2 5162   0.681   2.150   3.348  0.5455  0.1237 -0.6517
 1719TIP3    H1 5163   0.588   2.158   3.370  1.1275 -0.2714  2.4488
 1719TIP3    H2 5164   0.700   2.057   3.356  0.9239 -0.0545 -2.9465
 1720TIP3   OH2 5165   1.091   3.860   4.927  0.1081  0.5337 -0.3880
 1720TIP3    H1 5166   1.087   3.798   5.000  0.2207 -0.3622 -1.1317
 1720TIP3    H2 5167   1.172   3.908   4.941  1.1354 -0.9565 -0.9501
 1721TIP3   OH2 5168   0.350   3.500   0.549 -0.1246  0.2926 -0.6520
 1721TIP3    H1 5169   0.410   3.543   0.488  1.4644  0.6713  1.0866
 1721TIP3    H2 5170   0.354   3.407   0.525  0.5730  0.4138 -1.0223
 1722TIP3   OH2 5171   4.403   3.912   1.601 -0.2646 -0.2001  0.0074
 1722TIP3    H1 5172   4.321   3.863   1.593  0.2137 -1.0183  0.0805
 1722TIP3    H2 5173   4.462   3.854   1.649  0.6364  0.0410 -0.7755
 1723TIP3   OH2 5174   5.184   5.247   3.631  0.1036  0.1090  0.0487
 1723TIP3    H1 5175   5.216   5.173   3.579  1.7387  0.6701  0.1945
 1723TIP3    H2 5176   5.222   5.233   3.718 -0.5398  0.5065  0.4028
 1724TIP3   OH2 5177   2.034   0.127   3.968  0.4813  0.8364 -0.4145
 1724TIP3    H1 5178   2.021   0.163   4.056  0.8995 -1.3798  0.6199
 1724TIP3    H2 5179   1.973   0.054   3.962  0.5197  0.8822 -1.9712
 1725TIP3   OH2 5180   6.212   2.761   5.166 -0.3775  0.5027  0.1029
 1725TIP3    H1 5181   6.183   2.844   5.204 -0.1989  0.3004  0.7054
 1725TIP3    H2 5182   6.308   2.766   5.168 -0.3660  0.3458 -0.0021
 1726TIP3   OH2 5183   5.216   5.814   1.076 -0.0257 -0.3976  0.2202
 1726TIP3    H1 5184   5.152   5.848   1.014  0.0799 -0.6197 -0.0082
 1726TIP3    H2 5185   5.239   5.728   1.043 -1.1178 -1.1829  1.3952
 1727TIP3   OH2 5186   2.546   1.265   0.146 -0.1596 -0.4634  0.3021
 1727TIP3    H1 5187   2.537   1.356   0.118 -0.6651 -0.8119 -0.7137
 1727TIP3    H2 5188   2.628   1.264   0.196 -0.4266  0.6509  0.8155
 1728TIP3   OH2 5189   5.289   5.752   3.258  0.3767 -0.2891  0.5801
 1728TIP3    H1 5190   5.257   5.674   3.301  0.9479 -0.6475  0.3716
 1728TIP3    H2 5191   5.327   5.721   3.175  0.0105  0.2858  0.1833
 1729TIP3   OH2 5192   4.467   4.533   4.034 -0.2849  0.0554 -0.6010
 1729TIP3    H1 5193   4.429   4.458   4.080  0.3338 -0.6605 -1.2374
 1729TIP3    H2 5194   4.469   4.506   3.942  1.1882  0.3269 -0.6610
 1730TIP3   OH2 5195   3.705   1.458   3.031 -0.2305 -0.0995  0.0618
 1730TIP3    H1 5196   3.791   1.492   3.005 -0.1806  0.3831  0.8493
 1730TIP3    H2 5197   3.711   1.364   3.013  0.9267 -0.2870  1.3074
 1731TIP3   OH2 5198   2.663   0.931   1.865 -0.4059  0.1787  0.3074
 1731TIP3    H1 5199   2.707   1.005   1.906  0.2820  0.1324 -0.3091
 1731TIP3    H2 5200   2.604   0.971   1.801 -0.8026  0.2249  0.7037
 1732TIP3   OH2 5201   3.027   3.764   4.478  0.8709 -0.7732 -0.2622
 1732TIP3    H1 5202   2.962   3.694   4.470  1.2075 -0.9906 -1.3694
 1732TIP3    H2 5203   3.030   3.803   4.390  0.2978  0.9970  0.4689
 1733TIP3   OH2 5204   3.896   4.809   0.238 -0.3016  0.1080 -0.1430
 1733TIP3    H1 5205   3.947   4.741   0.282 -2.5083  0.0022  2.5017
 1733TIP3    H2 5206   3.961   4.863   0.193  2.0128 -0.6788  2.0386
 1734TIP3   OH2 5207   2.060   3.006   5.019 -0.0622 -0.1861 -0.7378
 1734TIP3    H1 5208   1.988   2.948   5.043 -0.6171  0.4492 -0.8697
 1734TIP3    H2 5209   2.139   2.955   5.039 -0.5403 -0.8851 -0.6010
 1735TIP3   OH2 5210   0.821   1.994   0.817 -0.1845  0.1969  0.2269
 1735TIP3    H1 5211   0.772   1.944   0.751 -0.5756  1.4334 -0.4556
 1735TIP3    H2 5212   0.860   1.928   0.874  0.1725 -0.9200 -1.2582
 1736TIP3   OH2 5213   3.052   0.310   3.646  0.2181 -0.5878  0.2281
 1736TIP3    H1 5214   3.075   0.353   3.564 -0.9806 -1.6530 -0.6947
 1736TIP3    H2 5215   3.135   0.302   3.693  1.0175 -0.4649 -1.1183
 1737TIP3   OH2 5216   3.045   2.209   1.056 -0.3823 -0.2900  1.2230
 1737TIP3    H1 5217   3.097   2.162   1.120  1.6750 -0.3282 -0.3762
 1737TIP3    H2 5218   3.075   2.300   1.062 -0.1683 -0.2956  0.3282
 1738TIP3   OH2 5219   0.908   4.965   1.730  0.5339 -0.2187  0.1867
 1738TIP3    H1 5220   0.974   5.023   1.691  0.9029 -1.3075 -0.8528
 1738TIP3    H2 5221   0.896   4.999   1.819  1.7218  0.6343  0.0451
 1739TIP3   OH2 5222   1.148   4.136   0.225 -0.2541  0.0076 -0.7578
 1739TIP3    H1 5223   1.179   4.200   0.161 -0.1222  0.6645 -0.0629
 1739TIP3    H2 5224   1.194   4.159   0.306  0.5062 -1.5495 -0.7041
 1740TIP3   OH2 5225   6.328   4.314   0.347  0.1617 -0.3180 -0.6991
 1740TIP3    H1 5226   6.295   4.224   0.343  0.7414 -0.5326 -0.7154
 1740TIP3    H2 5227   6.367   4.321   0.434  1.1811 -0.4680 -1.1279
 1741TIP3   OH2 5228   4.299   5.665   4.978  0.0887 -0.0084 -0.2655
 1741TIP3    H1 5229   4.235   5.728   5.011  0.0681  0.6877 -1.5554
 1741TIP3    H2 5230   4.366   5.661   5.046 -0.8311 -0.0085  0.6632
 1742TIP3   OH2 5231   5.891   2.730   1.483 -0.3299  0.5131 -0.1759
 1742TIP3    H1 5232   5.818   2.761   1.430 -2.2173 -0.0494  1.9485
 1742TIP3    H2 5233   5.901   2.638   1.458  0.7163  0.9736 -1.5582
 1743TIP3   OH2 5234   4.706   4.289   4.005  0.0236 -0.0158 -0.3404
 1743TIP3    H1 5235   4.663   4.280   4.090 -0.8410 -1.3095 -0.8855
 1743TIP3    H2 5236   4.758   4.369   4.013 -2.6936  1.8381  0.2600
 1744TIP3   OH2 5237   4.410   2.066   2.194 -0.0319  0.0522 -0.2416
 1744TIP3    H1 5238   4.385   2.145   2.242 -2.4488 -1.8727  1.8878
 1744TIP3    H2 5239   4.328   2.034   2.156  1.1947 -0.5636 -2.5880
 1745TIP3   OH2 5240   2.950   5.766   3.167  0.2938  0.3514 -0.2401
 1745TIP3    H1 5241   2.999   5.835   3.213  2.3658  0.0795 -1.8850
 1745TIP3    H2 5242   2.861   5.773   3.201  1.1124  1.9127  1.7688
 1746TIP3   OH2 5243   2.167   0.301   1.707  0.2192  0.8696 -0.2590
 1746TIP3    H1 5244   2.134   0.315   1.618  0.5256  1.3863 -0.2978
 1746TIP3    H2 5245   2.212   0.216   1.703  0.0758  0.8059 -0.5497
 1747TIP3   OH2 5246   5.620   5.014   4.365 -0.4214  0.1129  0.9139
 1747TIP3    H1 5247   5.709   5.047   4.377 -0.2028 -0.2512  0.3557
 1747TIP3    H2 5248   5.594   5.047   4.279 -0.4008 -0.7080  0.5861
 1748TIP3   OH2 5249   4.662   3.375   4.710 -0.0513  0.1531 -0.2711
 1748TIP3    H1 5250   4.706   3.449   4.753 -3.0182  1.9535 -0.0458
 1748TIP3    H2 5251   4.638   3.409   4.623  0.5179 -1.3881 -1.0715
 1749TIP3   OH2 5252   0.043   1.439   4.030 -0.0152 -0.0440 -0.3844
 1749TIP3    H1 5253   0.069   1.505   4.094 -0.9377 -0.0406 -0.0064
 1749TIP3    H2 5254   0.060   1.355   4.073 -0.5504 -0.0422 -0.1678
 1750TIP3   OH2 5255   1.821   2.705   3.760  0.2031  0.5286  0.0698
 1750TIP3    H1 5256   1.875   2.783   3.766  0.2361  0.4611  0.7085
 1750TIP3    H2 5257   1.877   2.634   3.793  0.4142  0.1045 -1.1390
 1751TIP3   OH2 5258   6.261   1.819   2.205 -0.6841  0.6144  0.5392
 1751TIP3    H1 5259   6.285   1.768   2.127  1.4603  1.4800  0.5466
 1751TIP3    H2 5260   6.202   1.886   2.173 -1.9392 -0.6115  0.1739
 1752TIP3   OH2 5261   5.284   0.824  -0.010 -0.1201 -0.0903  0.0062
 1752TIP3    H1 5262   5.333   0.805   0.070  1.3037 -1.6648 -1.1639
 1752TIP3    H2 5263   5.192   0.818   0.016  0.3136 -0.0528  1.6253
 1753TIP3   OH2 5264   6.056   4.077   3.847  0.1805 -0.0288 -0.3680
 1753TIP3    H1 5265   6.014   4.029   3.919  1.7441 -0.3147  0.4210
 1753TIP3    H2 5266   6.068   4.165   3.882 -0.9606  0.4351 -1.1012
 1754TIP3   OH2 5267   0.921   0.069   1.705  0.2572 -0.2296  0.2136
 1754TIP3    H1 5268   0.929   0.108   1.618  1.9247  0.1709  0.5009
 1754TIP3    H2 5269   0.830   0.085   1.731  0.0733  0.7414 -0.9389
 1755TIP3   OH2 5270   2.505   1.917   4.724  0.1668 -0.4314  0.3280
 1755TIP3    H1 5271   2.421   1.951   4.693  0.5940  0.1720 -0.1920
 1755TIP3    H2 5272   2.507   1.938   4.817 -0.8201 -1.6162  0.6315
 1756TIP3   OH2 5273   2.318   5.769   2.012  0.3948 -0.1986 -0.5695
 1756TIP3    H1 5274   2.379   5.757   2.084 -0.2737  1.1380  0.2620
 1756TIP3    H2 5275   2.274   5.684   2.003  0.2259 -0.2832  0.8555
 1757TIP3   OH2 5276   3.259   3.369   3.607 -0.2558 -0.1097 -0.0270
 1757TIP3    H1 5277   3.178   3.345   3.563  0.0500 -0.9086 -0.1717
 1757TIP3    H2 5278   3.231   3.413   3.687 -0.8187  0.5295 -0.5603
 1758TIP3   OH2 5279   4.477   2.753   4.520  0.2738 -0.4280  0.1056
 1758TIP3    H1 5280   4.453   2.784   4.432  0.4338 -0.8832 -0.1002
 1758TIP3    H2 5281   4.413   2.794   4.578  0.8837  0.8568 -0.0660
 1759TIP3   OH2 5282   4.042   4.399   4.234  0.5703  0.1184  0.3047
 1759TIP3    H1 5283   3.966   4.342   4.226 -0.1988  1.4008 -3.4941
 1759TIP3    H2 5284   4.115   4.340   4.253 -0.9076 -1.4374  1.4559
 1760TIP3   OH2 5285   1.941   3.594   4.508  0.5817  0.2383  0.6314
 1760TIP3    H1 5286   2.007   3.565   4.571 -0.8073 -0.0215  2.0099
 1760TIP3    H2 5287   1.900   3.670   4.548 -0.3731  0.0346  0.0768
 1761TIP3   OH2 5288   2.174   1.681   3.130 -0.2913  0.1800 -0.0173
 1761TIP3    H1 5289   2.242   1.617   3.151 -0.3535  0.1668  0.1494
 1761TIP3    H2 5290   2.160   1.671   3.036 -2.8879 -2.6887  0.4953
 1762TIP3   OH2 5291   5.290   0.418   1.291  0.5489  0.6194  0.2209
 1762TIP3    H1 5292   5.227   0.445   1.223  0.1112 -1.4116 -0.2568
 1762TIP3    H2 5293   5.267   0.470   1.367  1.1372  3.0697 -1.1819
 1763TIP3   OH2 5294   0.207   0.975   1.869 -0.2118  0.2109  0.4084
 1763TIP3    H1 5295   0.250   0.910   1.813 -2.1456  1.0017 -2.2056
 1763TIP3    H2 5296   0.215   0.939   1.957  1.7026 -1.8873 -0.5104
 1764TIP3   OH2 5297   2.001   2.705   1.682  0.1293  0.0849 -0.1649
 1764TIP3    H1 5298   2.090   2.717   1.717  0.9686 -0.7754 -1.9139
 1764TIP3    H2 5299   1.977   2.792   1.650  0.6981  0.1408 -0.4598
 1765TIP3   OH2 5300   3.292   5.504   3.405  0.6657  0.3617  0.8344
 1765TIP3    H1 5301   3.382   5.475   3.388 -0.2001 -1.4701 -1.1103
 1765TIP3    H2 5302   3.269   5.556   3.328  0.3868  1.8034  1.8477
 1766TIP3   OH2 5303   3.041   5.027   5.189  0.2898  0.6822 -1.2784
 1766TIP3    H1 5304   3.112   4.966   5.171 -1.7120 -2.2592  0.0368
 1766TIP3    H2 5305   3.008   5.052   5.103  1.6603  0.5671 -1.8585
 1767TIP3   OH2 5306   4.981   0.738   3.419  0.3557 -0.0869 -0.0099
 1767TIP3    H1 5307   5.016   0.822   3.390 -0.0938 -0.0192 -0.3714
 1767TIP3    H2 5308   5.030   0.673   3.369  0.8524 -0.0474  0.4287
 1768TIP3   OH2 5309   2.344   0.375   1.020 -0.2715  0.1671 -0.0550
 1768TIP3    H1 5310   2.335   0.368   1.115 -1.0604  0.6745 -0.0791
 1768TIP3    H2 5311   2.400   0.301   0.996  0.6787  0.5526  0.8968
 1769TIP3   OH2 5312   3.418   3.123   2.064  0.3368 -0.6709  0.8328
 1769TIP3    H1 5313   3.428   3.181   2.140 -0.8202 -1.0085  1.2679
 1769TIP3    H2 5314   3.347   3.163   2.013 -0.0753 -1.3905  0.8334
 1770TIP3   OH2 5315   2.416   1.146   2.393  0.8227  0.0563  0.2941
 1770TIP3    H1 5316   2.484   1.123   2.457  1.3976 -0.0364 -0.3425
 1770TIP3    H2 5317   2.398   1.064   2.346  0.0426  0.0064  0.6576
 1771TIP3   OH2 5318   3.327   3.658   0.708 -0.1281 -0.0513  0.5464
 1771TIP3    H1 5319   3.258   3.592   0.712  0.1785 -0.3087  3.4573
 1771TIP3    H2 5320   3.396   3.618   0.656 -1.1902 -0.7360 -0.3809
 1772TIP3   OH2 5321   3.227   2.374   4.910  0.4143 -1.0177 -0.3889
 1772TIP3    H1 5322   3.175   2.379   4.990 -0.2509 -2.4104 -0.6968
 1772TIP3    H2 5323   3.169   2.331   4.847  1.7334 -2.0904 -0.9176
 1773TIP3   OH2 5324   3.932   2.481   1.378  0.2917  0.2686  0.2956
 1773TIP3    H1 5325   3.877   2.403   1.374  1.0728 -0.3085  0.5932
 1773TIP3    H2 5326   3.878   2.550   1.339  0.3285 -0.8403 -1.8709
 1774TIP3   OH2 5327   2.357   3.022   2.401  0.2821 -0.5275 -0.1783
 1774TIP3    H1 5328   2.417   2.977   2.459  0.3023  1.0352  1.0812
 1774TIP3    H2 5329   2.273   3.019   2.446 -0.1370 -0.8958 -0.9537
 1775TIP3   OH2 5330   2.747   2.499   0.587 -0.2153 -0.1053  0.1991
 1775TIP3    H1 5331   2.688   2.559   0.541 -1.6525 -0.7379  1.1596
 1775TIP3    H2 5332   2.735   2.415   0.544  2.2709  0.3378 -1.5626
 1776TIP3   OH2 5333   1.689   3.946   4.244 -0.0093  0.2750  0.1464
 1776TIP3    H1 5334   1.762   4.003   4.221  0.7318 -0.4829  0.5754
 1776TIP3    H2 5335   1.653   3.985   4.324 -0.1814  0.7390 -0.1524
 1777TIP3   OH2 5336   5.544   1.308   0.936 -0.6122 -0.0731 -0.6221
 1777TIP3    H1 5337   5.593   1.363   0.998 -1.0285  0.5071 -0.8012
 1777TIP3    H2 5338   5.520   1.368   0.865 -0.6398 -0.6050 -1.0599
 1778TIP3   OH2 5339   4.673   4.755   1.880  0.4175 -0.3649 -0.0197
 1778TIP3    H1 5340   4.697   4.662   1.883 -0.3204 -0.6756 -2.2047
 1778TIP3    H2 5341   4.757   4.801   1.877  0.7911 -0.9383  1.1599
 1779TIP3   OH2 5342   0.691   1.031   1.785  0.3459  0.0854 -0.3384
 1779TIP3    H1 5343   0.760   1.097   1.779 -0.0817  0.8065  1.6404
 1779TIP3    H2 5344   0.736   0.954   1.820  0.5088 -0.0660 -0.8854
 1780TIP3   OH2 5345   3.321   0.182   1.607 -0.6042 -0.0734 -1.2643
 1780TIP3    H1 5346   3.240   0.161   1.653 -1.5761  1.8241 -1.9980
 1780TIP3    H2 5347   3.295   0.247   1.542  1.5585  0.7620 -1.3707
 1781TIP3   OH2 5348   0.250   5.289   3.729 -0.0066  0.0879 -0.0398
 1781TIP3    H1 5349   0.195   5.365   3.748  1.0674  0.8022  0.3125
 1781TIP3    H2 5350   0.285   5.262   3.813 -1.2655 -1.5573  0.0166
 1782TIP3   OH2 5351   6.123   3.822   3.040  0.3935 -0.4983 -0.0674
 1782TIP3    H1 5352   6.085   3.750   2.990 -0.3267  0.8662 -1.5862
 1782TIP3    H2 5353   6.134   3.893   2.976  1.9602  0.4379  1.1602
 1783TIP3   OH2 5354   1.690   2.227   3.843 -0.0295  0.3580  0.8599
 1783TIP3    H1 5355   1.764   2.178   3.879  0.5079  0.1217 -0.4864
 1783TIP3    H2 5356   1.721   2.258   3.758 -1.7298 -0.3869 -0.0843
 1784TIP3   OH2 5357   0.396   5.955   0.436  0.6690 -0.2598 -0.2221
 1784TIP3    H1 5358   0.398   5.987   0.526  1.0169 -1.3484  0.1767
 1784TIP3    H2 5359   0.485   5.967   0.404  0.9729 -1.3950  0.1532
 1785TIP3   OH2 5360   4.077   4.001   3.232  0.3220  0.6329 -0.2512
 1785TIP3    H1 5361   4.062   3.907   3.220  0.8008  0.4709  0.3180
 1785TIP3    H2 5362   4.001   4.043   3.192 -1.3121 -0.1084  1.8708
 1786TIP3   OH2 5363   0.438   3.070   2.717  0.1283  0.3292  0.2565
 1786TIP3    H1 5364   0.394   3.018   2.784  0.3581 -1.0050 -0.5711
 1786TIP3    H2 5365   0.397   3.041   2.635  1.4674  0.1769 -0.3794
 1787TIP3   OH2 5366   5.614   3.845   1.890  0.4962  0.3858  0.0188
 1787TIP3    H1 5367   5.535   3.873   1.844 -0.1070  2.0701  1.9613
 1787TIP3    H2 5368   5.686   3.872   1.832 -0.2339 -2.0540 -2.2593
 1788TIP3   OH2 5369   4.045   1.256   0.590 -0.3810  0.2483 -0.0749
 1788TIP3    H1 5370   3.983   1.329   0.585 -0.0640  0.4776 -0.7328
 1788TIP3    H2 5371   4.124   1.294   0.628 -0.2997  0.1843 -0.1832
 1789TIP3   OH2 5372   1.904   1.580   0.862 -0.3042 -0.1089  0.2327
 1789TIP3    H1 5373   1.829   1.619   0.816 -0.1640  0.0393  0.1275
 1789TIP3    H2 5374   1.942   1.519   0.799  1.4130  1.9128 -0.8345
 1790TIP3   OH2 5375   4.144   2.440   4.739 -0.2552  0.1612 -0.0897
 1790TIP3    H1 5376   4.129   2.369   4.802  2.8453 -0.9228 -0.4002
 1790TIP3    H2 5377   4.082   2.422   4.667 -1.6180 -0.4102  1.1797
 1791TIP3   OH2 5378   3.513   5.948   1.243 -0.1759  0.2499 -0.3841
 1791TIP3    H1 5379   3.499   5.887   1.171 -1.2666  0.4639 -0.3674
 1791TIP3    H2 5380   3.561   6.021   1.204  0.4928 -0.2749 -0.5658
 1792TIP3   OH2 5381   5.003   3.095   1.969 -0.1511 -0.3706 -0.0213
 1792TIP3    H1 5382   5.040   3.052   2.046  0.2964 -1.1925 -0.6772
 1792TIP3    H2 5383   4.964   3.176   2.003  1.8943  0.3461  0.7601
 1793TIP3   OH2 5384   3.329   2.642   1.676 -0.5029 -0.1796 -0.2176
 1793TIP3    H1 5385   3.256   2.666   1.733 -0.0993  0.6480 -0.0259
 1793TIP3    H2 5386   3.361   2.559   1.710 -0.7421 -0.0589  0.3016
 1794TIP3   OH2 5387   2.176   4.567   5.037 -0.2175 -0.2358 -0.1516
 1794TIP3    H1 5388   2.131   4.592   5.118 -1.6692  0.0392 -1.0021
 1794TIP3    H2 5389   2.113   4.510   4.992  1.5316 -2.3946  0.0033
 1795TIP3   OH2 5390   1.836   4.061   1.215  0.6637 -0.9176 -0.3414
 1795TIP3    H1 5391   1.748   4.099   1.211  0.6037 -1.1148 -1.0161
 1795TIP3    H2 5392   1.895   4.137   1.218  0.4997 -0.7762 -0.6371
 1796TIP3   OH2 5393   4.007   2.847   4.190  0.5616 -0.5797  0.1881
 1796TIP3    H1 5394   4.022   2.939   4.168 -2.4325 -0.4925 -2.0505
 1796TIP3    H2 5395   3.925   2.846   4.238  1.9894 -1.9134  2.8459
 1797TIP3   OH2 5396   4.758   3.435   1.004 -0.0362  0.2408  0.8287
 1797TIP3    H1 5397   4.682   3.394   1.045  0.0783 -0.6932  0.1451
 1797TIP3    H2 5398   4.721   3.488   0.933 -0.0669 -0.1603  0.5392
 1798TIP3   OH2 5399   6.121   3.336   0.600  0.3136  0.3847  0.5929
 1798TIP3    H1 5400   6.203   3.385   0.595 -0.0777  0.9184 -2.2233
 1798TIP3    H2 5401   6.148   3.244   0.601  1.0348  0.4761 -2.1960
 1799TIP3   OH2 5402   1.667   3.525   4.716 -0.4774  0.2001  0.7504
 1799TIP3    H1 5403   1.712   3.487   4.791  2.3574 -0.4194 -1.1250
 1799TIP3    H2 5404   1.643   3.613   4.745  1.7390  0.4578  2.0072
 1800TIP3   OH2 5405   5.933   3.079   1.122  0.5512 -0.2398 -1.0932
 1800TIP3    H1 5406   5.975   3.122   1.047 -0.2229 -0.9681 -1.9684
 1800TIP3    H2 5407   5.960   2.987   1.116 -0.4099 -0.5342 -1.1498
 1801TIP3   OH2 5408   0.686   2.872   2.460  0.0669  0.2521  0.6062
 1801TIP3    H1 5409   0.612   2.820   2.429  1.2248  0.2249 -2.4950
 1801TIP3    H2 5410   0.666   2.962   2.434  0.1097  0.6400  1.8557
 1802TIP3   OH2 5411   5.865   1.769   3.739 -0.0241 -0.4282  0.1435
 1802TIP3    H1 5412   5.959   1.752   3.744  0.2292  0.4551 -1.2314
 1802TIP3    H2 5413   5.835   1.717   3.665  0.0427  1.8462 -1.5840
 1803TIP3   OH2 5414   3.790   1.605   2.388  0.0522 -0.0656  0.4984
 1803TIP3    H1 5415   3.702   1.601   2.351  0.4842  1.2863 -0.7461
 1803TIP3    H2 5416   3.836   1.532   2.347 -0.4877 -0.8769  1.2718
 1804TIP3   OH2 5417   6.082   0.524   4.195  0.4818 -0.0311 -0.3036
 1804TIP3    H1 5418   6.057   0.616   4.194 -1.1935 -0.4518 -0.1509
 1804TIP3    H2 5419   6.178   0.525   4.192  0.5376  1.7188  0.8836
 1805TIP3   OH2 5420   3.676   4.920   3.180 -0.1970  0.2740  0.7583
 1805TIP3    H1 5421   3.750   4.981   3.180  0.0937 -0.0133 -1.0993
 1805TIP3    H2 5422   3.600   4.975   3.162  0.0171  0.1669 -0.5567
 1806TIP3   OH2 5423   0.729   3.170   1.872 -0.5905 -0.2728 -0.3740
 1806TIP3    H1 5424   0.732   3.265   1.885 -0.1202 -0.4004  0.6026
 1806TIP3    H2 5425   0.781   3.135   1.945 -2.2377 -1.3617  0.3514
 1807TIP3   OH2 5426   0.919   2.578   2.747  0.1605  0.4529 -0.1329
 1807TIP3    H1 5427   0.865   2.500   2.755  0.1831  0.1223 -2.5234
 1807TIP3    H2 5428   1.001   2.556   2.792 -0.1646 -0.5673 -0.0259
 1808TIP3   OH2 5429   5.725   3.425   1.409 -0.1943  0.5901  0.3699
 1808TIP3    H1 5430   5.730   3.371   1.330 -0.5282  0.4335  0.4500
 1808TIP3    H2 5431   5.803   3.403   1.459 -0.9823 -0.8322  1.0288
 1809TIP3   OH2 5432   0.560   0.175   3.584 -0.1440 -0.3419  0.1557
 1809TIP3    H1 5433   0.535   0.267   3.575 -2.3879 -0.5636  2.7076
 1809TIP3    H2 5434   0.516   0.131   3.512 -0.5519  0.3784 -0.0442
 1810TIP3   OH2 5435   2.627   0.889   2.298 -0.2619  0.0665 -0.1962
 1810TIP3    H1 5436   2.534   0.868   2.296 -0.6115  1.3540  1.2757
 1810TIP3    H2 5437   2.664   0.840   2.224 -1.8735 -1.4732 -0.0500
 1811TIP3   OH2 5438   5.903   3.389   2.109  0.5166 -0.2963  0.2776
 1811TIP3    H1 5439   5.929   3.377   2.018 -0.4573  2.1213 -0.3978
 1811TIP3    H2 5440   5.810   3.413   2.105  0.8338  1.4093  1.7332
 1812TIP3   OH2 5441   1.295   0.381   5.118 -0.0183 -0.3223 -0.1940
 1812TIP3    H1 5442   1.379   0.410   5.083  0.0825 -0.4249 -0.0373
 1812TIP3    H2 5443   1.297   0.404   5.211 -0.1392 -0.3775 -0.1765
 1813TIP3   OH2 5444   5.219   0.866   1.509 -0.1171  0.0987 -0.3512
 1813TIP3    H1 5445   5.148   0.918   1.472 -1.6466  0.1724  2.4789
 1813TIP3    H2 5446   5.187   0.775   1.506  1.2090 -0.3812 -2.2776
 1814TIP3   OH2 5447   2.152   0.516   0.832  0.1835 -0.1168 -0.0031
 1814TIP3    H1 5448   2.218   0.463   0.876 -0.5198  0.3357  1.6747
 1814TIP3    H2 5449   2.197   0.599   0.813  0.4657 -0.2785 -0.0405
 1815TIP3   OH2 5450   3.279   4.519   4.599 -0.0288  0.6010  0.4623
 1815TIP3    H1 5451   3.361   4.505   4.645 -1.0049 -0.6882  1.9316
 1815TIP3    H2 5452   3.288   4.472   4.516  0.2310 -0.6857  1.2125
 1816TIP3   OH2 5453   3.187   6.014   4.669  0.6201 -0.2774  0.1167
 1816TIP3    H1 5454   3.249   6.005   4.741  2.1220 -0.8097 -1.1628
 1816TIP3    H2 5455   3.147   5.928   4.661  1.4984 -0.6545 -0.5251
 1817TIP3   OH2 5456   5.480   1.495   1.621 -0.1970 -0.4291  0.2701
 1817TIP3    H1 5457   5.459   1.530   1.707 -0.2261 -0.9987  0.4981
 1817TIP3    H2 5458   5.535   1.563   1.580  1.5353 -1.0159  1.5185
 1818TIP3   OH2 5459   2.937   1.823   1.462  0.4773 -0.3609  0.4075
 1818TIP3    H1 5460   2.876   1.758   1.497  1.1697 -1.3687 -0.2025
 1818TIP3    H2 5461   2.929   1.898   1.521 -2.2478  0.0486 -0.3328
 1819TIP3   OH2 5462  -0.031   0.099   2.446  0.2275  0.1066 -0.6487
 1819TIP3    H1 5463   0.003   0.025   2.397  1.2750  1.0234 -1.3511
 1819TIP3    H2 5464   0.033   0.169   2.432 -1.2182  1.4586 -0.8552
 1820TIP3   OH2 5465   5.472   0.798   0.278  0.2744 -0.0624  0.0238
 1820TIP3    H1 5466   5.547   0.780   0.221  0.2861 -1.6450  0.4824
 1820TIP3    H2 5467   5.495   0.879   0.323  0.5742  0.8369 -1.6749
 1821TIP3   OH2 5468   1.607   5.042   2.845 -0.5866  0.0280  0.0111
 1821TIP3    H1 5469   1.526   5.085   2.815 -1.0416 -0.3498  0.6758
 1821TIP3    H2 5470   1.657   5.112   2.886 -0.4948  0.2998 -0.5464
 1822TIP3   OH2 5471   4.420   0.544   3.757  0.3424 -0.3887  0.0601
 1822TIP3    H1 5472   4.442   0.606   3.688  1.8800 -1.0924 -0.1225
 1822TIP3    H2 5473   4.408   0.597   3.835 -0.4181  0.3210 -0.5216
 1823TIP3   OH2 5474   4.065   1.562   0.361  0.2868 -0.1066  0.7315
 1823TIP3    H1 5475   4.042   1.652   0.337  2.1795  0.0184 -0.8472
 1823TIP3    H2 5476   3.984   1.513   0.346 -0.8064  1.2945  1.6793
 1824TIP3   OH2 5477   3.900   3.641   4.749 -0.1306 -0.4812  0.1297
 1824TIP3    H1 5478   3.959   3.628   4.823  0.6518  1.5045 -0.0770
 1824TIP3    H2 5479   3.846   3.716   4.774  0.7682  0.8252 -1.6216
 1825TIP3   OH2 5480   1.511   0.317   2.755 -0.4510  0.3602  0.3669
 1825TIP3    H1 5481   1.502   0.326   2.660  3.0131  0.7035 -0.0420
 1825TIP3    H2 5482   1.459   0.388   2.791 -0.9476  0.8937 -1.3139
 1826TIP3   OH2 5483   5.859   0.447   5.081  0.0558 -0.4917 -0.2141
 1826TIP3    H1 5484   5.821   0.530   5.111  0.6801 -0.4605  0.5196
 1826TIP3    H2 5485   5.783   0.388   5.072 -0.6259  0.6217 -2.4493
 1827TIP3   OH2 5486   0.848   3.977   1.934  0.0185  0.7433  0.0052
 1827TIP3    H1 5487   0.918   3.983   1.869 -0.9517  3.6562 -0.9265
 1827TIP3    H2 5488   0.774   3.941   1.886 -0.1091  0.9692  0.0304
 1828TIP3   OH2 5489   5.440   4.947   3.011  0.0164  0.5939 -0.4867
 1828TIP3    H1 5490   5.480   4.887   3.074 -0.5098  0.5242 -0.2183
 1828TIP3    H2 5491   5.426   4.895   2.932  1.4893  0.8993 -0.9809
 1829TIP3   OH2 5492   0.356   2.452   2.533 -0.0864 -0.5124  0.2531
 1829TIP3    H1 5493   0.448   2.430   2.518  0.2043  0.6797  0.1949
 1829TIP3    H2 5494   0.353   2.483   2.623 -0.5659 -1.1412  0.4670
 1830TIP3   OH2 5495   0.800   3.211   4.094  0.0495 -0.0614 -0.0917
 1830TIP3    H1 5496   0.785   3.131   4.145  0.5351  0.2666  0.5891
 1830TIP3    H2 5497   0.842   3.180   4.013  0.0343 -0.5176  0.0730
 1831TIP3   OH2 5498   6.168   1.998   1.172  0.1151  0.2371  0.0862
 1831TIP3    H1 5499   6.132   1.952   1.097  0.8832 -1.1221  0.5128
 1831TIP3    H2 5500   6.129   1.955   1.248 -0.8766  1.7783  0.4961
 1832TIP3   OH2 5501   3.099   4.193   0.754 -0.6482 -0.4739 -0.1750
 1832TIP3    H1 5502   3.103   4.099   0.733 -2.0145 -0.1286 -2.3333
 1832TIP3    H2 5503   3.132   4.236   0.676 -0.2187  0.8762  0.7196
 1833TIP3   OH2 5504   3.519   5.386   3.381  0.3635  0.4487  0.4602
 1833TIP3    H1 5505   3.592   5.378   3.443  2.5506  1.4307 -1.8527
 1833TIP3    H2 5506   3.559   5.375   3.295 -2.3084  0.6982 -0.9063
 1834TIP3   OH2 5507   4.011   3.248   2.974  0.1028 -0.0577  0.2799
 1834TIP3    H1 5508   4.099   3.215   2.959  0.4311  0.3755  1.1690
 1834TIP3    H2 5509   3.986   3.287   2.890  1.0199  0.3984  0.1987
 1835TIP3   OH2 5510   6.179   3.023   2.313 -0.4723  0.2446 -0.2832
 1835TIP3    H1 5511   6.124   3.037   2.236 -1.2588 -0.3218  0.1538
 1835TIP3    H2 5512   6.118   2.994   2.381  0.2570  0.3976  0.4565
 1836TIP3   OH2 5513   4.133   1.440   1.377 -0.3736 -0.0083 -0.8635
 1836TIP3    H1 5514   4.061   1.417   1.319 -0.9812  0.9925 -0.5210
 1836TIP3    H2 5515   4.210   1.441   1.320 -0.3020 -2.6551 -0.9525
 1837TIP3   OH2 5516   2.686   4.438   3.801  0.2529  0.0535  0.2571
 1837TIP3    H1 5517   2.639   4.356   3.817  2.6115 -1.2665  0.9037
 1837TIP3    H2 5518   2.625   4.507   3.830 -1.5153 -1.4804  0.3604
 1838TIP3   OH2 5519   1.425   1.718   3.756 -0.1067 -0.2100 -0.2368
 1838TIP3    H1 5520   1.449   1.773   3.682 -0.0806 -0.1432 -0.1789
 1838TIP3    H2 5521   1.382   1.642   3.717  0.1596 -0.3097 -0.3382
 1839TIP3   OH2 5522   4.371   5.282   4.562  0.4117  0.0757  0.2200
 1839TIP3    H1 5523   4.369   5.333   4.481 -1.3715 -1.4404 -0.7752
 1839TIP3    H2 5524   4.446   5.224   4.551 -0.6259 -1.0976 -1.0452
 1840TIP3   OH2 5525   0.335   3.228   3.144 -0.3410 -0.2246  0.0036
 1840TIP3    H1 5526   0.348   3.286   3.218 -1.2476  0.3801 -0.3064
 1840TIP3    H2 5527   0.402   3.255   3.081 -0.2762 -0.0202  0.1588
 1841TIP3   OH2 5528   2.413   1.890   3.655  0.8723  0.5522  0.2458
 1841TIP3    H1 5529   2.408   1.883   3.560 -0.1044  1.0269  0.2427
 1841TIP3    H2 5530   2.376   1.809   3.688 -0.2262  1.0145  0.2049
 1842TIP3   OH2 5531   1.380   0.436   1.926  0.5879 -0.1528  0.4451
 1842TIP3    H1 5532   1.395   0.445   2.020  0.4774 -1.1495  0.5623
 1842TIP3    H2 5533   1.465   0.410   1.891  0.6715  0.3857  0.2412
 1843TIP3   OH2 5534   3.557   1.343   0.246 -0.5761  0.1704 -0.1749
 1843TIP3    H1 5535   3.533   1.361   0.337 -0.8627  1.1663 -0.4262
 1843TIP3    H2 5536   3.496   1.396   0.194  1.2329  1.7117 -0.8805
 1844TIP3   OH2 5537   3.860   4.832   4.365 -0.6325 -0.3600 -0.1433
 1844TIP3    H1 5538   3.785   4.853   4.308 -0.6327 -0.3286 -0.1311
 1844TIP3    H2 5539   3.897   4.753   4.326  0.6813  0.8604 -1.4789
 1845TIP3   OH2 5540   4.080   5.213   2.294  0.1715  0.3368 -0.5054
 1845TIP3    H1 5541   4.004   5.245   2.245  0.1738 -0.1627 -0.8392
 1845TIP3    H2 5542   4.135   5.170   2.229  0.4901  0.2373 -0.1748
 1846TIP3   OH2 5543   5.534   3.007   4.295  0.6687  0.3281 -0.0036
 1846TIP3    H1 5544   5.479   3.023   4.372  1.0460  0.1011  0.3179
 1846TIP3    H2 5545   5.601   3.075   4.298  1.1245 -0.1225  0.2902
 1847TIP3   OH2 5546   2.065   4.741   3.499 -0.3244 -0.1432  0.2863
 1847TIP3    H1 5547   2.102   4.676   3.438 -1.5571 -0.9313  0.3519
 1847TIP3    H2 5548   2.018   4.803   3.444 -1.2113 -0.7036  0.3939
 1848TIP3   OH2 5549   2.077   0.373   0.221  0.3100  0.1066 -0.1604
 1848TIP3    H1 5550   2.091   0.465   0.197  0.2769  0.2528  0.3798
 1848TIP3    H2 5551   2.045   0.376   0.311 -0.2326 -0.4064 -0.3315
 1849TIP3   OH2 5552   3.522   1.489   3.276 -0.2084 -0.3463  0.3431
 1849TIP3    H1 5553   3.482   1.528   3.353 -0.6328 -1.8756  0.9353
 1849TIP3    H2 5554   3.450   1.484   3.212 -0.7959 -2.2543  1.0895
 1850TIP3   OH2 5555   2.152   3.793   5.136 -0.1517  0.3963  0.1451
 1850TIP3    H1 5556   2.092   3.761   5.202 -1.6470  1.7748 -0.4956
 1850TIP3    H2 5557   2.154   3.723   5.070 -1.5048  0.5730 -0.0983
 1851TIP3   OH2 5558   3.401   0.106   4.183 -0.0590 -0.4126 -0.1297
 1851TIP3    H1 5559   3.426   0.062   4.265  0.1471 -0.7552 -0.3734
 1851TIP3    H2 5560   3.360   0.038   4.131  1.7821 -0.7822 -1.1984
 1852TIP3   OH2 5561   4.818   2.957   0.032 -0.5984 -0.0385 -0.3086
 1852TIP3    H1 5562   4.824   2.865   0.008  1.1247 -0.0533  0.0869
 1852TIP3    H2 5563   4.727   2.967   0.062 -0.8854 -1.5357 -0.5685
 1853TIP3   OH2 5564   3.088   4.547   1.468  0.2076  0.4581  0.1187
 1853TIP3    H1 5565   3.175   4.508   1.473  0.0443  0.1580  0.8417
 1853TIP3    H2 5566   3.102   4.633   1.430  1.1524  1.3693  2.3345
 1854TIP3   OH2 5567   0.086   1.792   1.691  0.2965  0.4440  0.0437
 1854TIP3    H1 5568   0.084   1.878   1.732 -0.1112 -0.1596  1.3677
 1854TIP3    H2 5569   0.173   1.785   1.651  0.4481  1.3284  0.2191
 1855TIP3   OH2 5570   3.793   2.905   1.587  0.0422 -0.2648  0.0847
 1855TIP3    H1 5571   3.795   3.001   1.594  0.7801 -0.2172 -0.6529
 1855TIP3    H2 5572   3.819   2.874   1.674  0.5489  0.2089  0.1030
 1856TIP3   OH2 5573   6.149   4.972   2.296 -0.2036 -0.4128  0.3028
 1856TIP3    H1 5574   6.148   4.886   2.254  0.1851 -0.5646  0.6107
 1856TIP3    H2 5575   6.112   5.030   2.230  2.1930 -0.2903 -1.0420
 1857TIP3   OH2 5576   3.141   0.024   4.366  0.5828 -0.0758 -0.2107
 1857TIP3    H1 5577   3.115   0.076   4.290 -0.3523  1.5220  1.1238
 1857TIP3    H2 5578   3.102   0.070   4.441 -1.3523 -3.3479  1.0205
 1858TIP3   OH2 5579   1.696   2.219   2.994  0.0264 -0.7441 -0.7085
 1858TIP3    H1 5580   1.784   2.232   3.029 -0.1741 -0.4281 -0.3178
 1858TIP3    H2 5581   1.699   2.132   2.955  0.3301 -0.9986 -0.1321
 1859TIP3   OH2 5582   5.611   1.412   0.504 -0.2065 -0.0077 -0.0852
 1859TIP3    H1 5583   5.636   1.374   0.588  0.5084 -1.0819 -0.7602
 1859TIP3    H2 5584   5.680   1.384   0.444 -0.8603  0.5035 -1.1007
 1860TIP3   OH2 5585   1.316   2.093   3.313  0.1666 -0.0667  0.2454
 1860TIP3    H1 5586   1.394   2.113   3.365  0.2214  0.5433 -0.0675
 1860TIP3    H2 5587   1.343   2.105   3.222 -0.3081  0.2387  0.1381
 1861TIP3   OH2 5588   6.346   2.926   2.636 -0.2577 -0.2334 -0.1928
 1861TIP3    H1 5589   6.391   2.854   2.681  0.3688  0.9632  1.1701
 1861TIP3    H2 5590   6.320   2.985   2.706 -1.4327  0.5134 -1.2247
 1862TIP3   OH2 5591   4.454   5.273   2.930 -0.3755  0.6022 -0.2814
 1862TIP3    H1 5592   4.499   5.290   2.847  0.8514  0.1466  0.2675
 1862TIP3    H2 5593   4.507   5.319   2.995 -0.6631 -0.0132  0.3969
 1863TIP3   OH2 5594   6.152   5.710   3.193  0.1892  0.6567 -0.2462
 1863TIP3    H1 5595   6.240   5.740   3.214  0.0380  3.6343 -3.0185
 1863TIP3    H2 5596   6.096   5.783   3.220 -1.1681 -0.2206 -0.6061
 1864TIP3   OH2 5597   3.833   0.391   4.069  0.4603 -0.6855  0.1597
 1864TIP3    H1 5598   3.765   0.423   4.128  1.8931  1.7796  0.5904
 1864TIP3    H2 5599   3.785   0.362   3.991 -1.1327  0.3822  0.6874
 1865TIP3   OH2 5600   1.794   0.506   4.175 -0.9341  0.1078 -0.0487
 1865TIP3    H1 5601   1.764   0.472   4.091  0.8204  0.7740 -0.9919
 1865TIP3    H2 5602   1.889   0.512   4.166 -0.2333 -3.0385  3.2024
 1866TIP3   OH2 5603   3.765   2.063   2.268 -0.8357 -0.3809 -0.8205
 1866TIP3    H1 5604   3.796   1.985   2.313 -1.4613 -0.9194 -1.3096
 1866TIP3    H2 5605   3.696   2.098   2.324  0.1720  0.4503 -0.0583
 1867TIP3   OH2 5606   1.253   4.391   0.588 -0.0018 -0.3170  0.3225
 1867TIP3    H1 5607   1.346   4.396   0.607  0.0896  0.0433 -0.2038
 1867TIP3    H2 5608   1.210   4.411   0.672  0.3721 -2.3164  1.0435
 1868TIP3   OH2 5609   5.856   4.205   3.648  0.2194 -0.0128 -0.4887
 1868TIP3    H1 5610   5.910   4.136   3.609  0.4732 -0.3216  0.3808
 1868TIP3    H2 5611   5.917   4.258   3.699 -0.1301  0.2894 -0.3768
 1869TIP3   OH2 5612   5.506   5.628   3.971 -0.8551 -0.1315 -0.7292
 1869TIP3    H1 5613   5.558   5.706   3.988 -0.9611 -0.2718  0.3035
 1869TIP3    H2 5614   5.418   5.661   3.951 -0.8590  0.0281 -0.4548
 1870TIP3   OH2 5615   3.318   5.336   3.650 -0.5701 -0.6250  0.0420
 1870TIP3    H1 5616   3.298   5.398   3.580  1.4941 -0.3825 -0.3810
 1870TIP3    H2 5617   3.295   5.250   3.613  1.0675 -0.5680 -1.2096
 1871TIP3   OH2 5618   2.870   5.042   1.410  0.2389 -0.5364  0.1790
 1871TIP3    H1 5619   2.852   5.061   1.502 -0.6579 -0.1923 -0.0632
 1871TIP3    H2 5620   2.966   5.040   1.404  0.3051 -1.1837  1.2389
 1872TIP3   OH2 5621   5.438  -0.002   2.605 -0.1822  0.5342 -0.1339
 1872TIP3    H1 5622   5.369   0.036   2.659  0.4945  0.5929  0.7265
 1872TIP3    H2 5623   5.489   0.073   2.575  0.4145  0.4070  0.5292
 1873TIP3   OH2 5624   1.952   0.352   0.975  0.2022 -0.0486 -0.6165
 1873TIP3    H1 5625   1.929   0.272   0.929  2.6523 -1.2033 -0.0172
 1873TIP3    H2 5626   2.040   0.374   0.944 -0.4748  2.5691 -0.9192
 1874TIP3   OH2 5627   3.085   4.376   3.339  0.1734 -0.1538  0.4051
 1874TIP3    H1 5628   3.046   4.457   3.371  0.3206  0.6495 -1.3316
 1874TIP3    H2 5629   3.167   4.368   3.387  0.4621  1.0825  0.1502
 1875TIP3   OH2 5630   0.452   0.716   4.183  0.4834 -0.0860  0.2914
 1875TIP3    H1 5631   0.368   0.748   4.215  0.9444  2.0282 -0.4203
 1875TIP3    H2 5632   0.488   0.665   4.256 -0.7717  0.1931  1.1298
 1876TIP3   OH2 5633   5.671   0.019   0.978 -0.5909  0.5294 -0.0969
 1876TIP3    H1 5634   5.613  -0.054   0.955 -0.7881  0.6836 -0.0916
 1876TIP3    H2 5635   5.706   0.049   0.893  0.7493 -0.5976  0.0229
 1877TIP3   OH2 5636   3.268   1.616   3.755  0.2531 -0.3589 -0.1277
 1877TIP3    H1 5637   3.176   1.622   3.780 -0.2735 -1.2915 -1.6502
 1877TIP3    H2 5638   3.312   1.579   3.832 -0.5835  0.3360  0.7042
 1878TIP3   OH2 5639   1.630   5.499   4.813 -0.4514  0.2873 -0.0830
 1878TIP3    H1 5640   1.617   5.449   4.732  3.4076  0.1973 -0.8453
 1878TIP3    H2 5641   1.588   5.446   4.881 -1.5772 -0.9618 -1.6689
 1879TIP3   OH2 5642   4.090   0.505   4.447  0.1812 -0.2348 -0.1515
 1879TIP3    H1 5643   4.011   0.454   4.430  0.6746 -0.9678 -0.2712
 1879TIP3    H2 5644   4.063   0.596   4.432  0.2587 -0.6842 -3.7668
 1880TIP3   OH2 5645   5.607   3.559   4.254  0.2877  0.2822  0.1122
 1880TIP3    H1 5646   5.572   3.510   4.180  1.9448  3.0438 -2.7228
 1880TIP3    H2 5647   5.531   3.605   4.291 -0.2262  0.7993 -1.5147
 1881TIP3   OH2 5648   2.946   3.306   1.770 -0.4642  0.2659 -0.3726
 1881TIP3    H1 5649   2.953   3.228   1.716 -2.2957 -0.4030  0.2461
 1881TIP3    H2 5650   2.930   3.273   1.859 -2.0766  1.2849 -0.2220
 1882TIP3   OH2 5651   1.186   2.395   4.445 -0.0957 -0.0885  0.4377
 1882TIP3    H1 5652   1.272   2.412   4.482 -0.5244  0.4200  1.2394
 1882TIP3    H2 5653   1.196   2.316   4.393  0.6155 -0.6091  1.3556
 1883TIP3   OH2 5654   5.407   5.390   4.358  0.0567  0.1230  0.0450
 1883TIP3    H1 5655   5.326   5.438   4.337 -2.0840 -2.5015  1.6811
 1883TIP3    H2 5656   5.456   5.390   4.275 -2.1157  0.8556 -1.3430
 1884TIP3   OH2 5657   5.822   4.670   4.633  0.2454  0.0008  0.0784
 1884TIP3    H1 5658   5.753   4.631   4.687 -0.3183  0.8781  0.0203
 1884TIP3    H2 5659   5.834   4.758   4.670  0.8183  0.1239 -0.3809
 1885TIP3   OH2 5660   5.436   4.419   0.293  0.5174  0.0216  0.0433
 1885TIP3    H1 5661   5.417   4.327   0.275  1.5997 -0.2272  0.0905
 1885TIP3    H2 5662   5.350   4.460   0.301 -0.0305 -1.2752  1.5028
 1886TIP3   OH2 5663   1.180   5.883   0.563  0.5059 -0.4829  0.1037
 1886TIP3    H1 5664   1.255   5.888   0.504 -1.1935 -0.2362 -2.1621
 1886TIP3    H2 5665   1.210   5.926   0.644  2.6962 -0.1908 -0.8001
 1887TIP3   OH2 5666   6.277   2.830   1.625  0.3646 -0.9144 -0.0728
 1887TIP3    H1 5667   6.315   2.910   1.587 -2.3509 -0.1276 -1.4446
 1887TIP3    H2 5668   6.344   2.763   1.611  1.9951  0.7166 -0.5692
 1888TIP3   OH2 5669   5.888   1.906   2.218 -0.3031 -0.3840 -0.1209
 1888TIP3    H1 5670   5.832   1.960   2.274  0.1724 -0.8916  0.8780
 1888TIP3    H2 5671   5.920   1.837   2.277  0.8862 -0.4446 -0.8245
 1889TIP3   OH2 5672   6.207   3.996   2.089 -0.2901 -0.8053 -0.0534
 1889TIP3    H1 5673   6.120   3.967   2.115 -0.4381 -0.1186  0.2260
 1889TIP3    H2 5674   6.262   3.979   2.166 -0.3444 -0.4934  0.0547
 1890TIP3   OH2 5675   0.915   5.949   0.199  0.4137 -0.4763  0.0401
 1890TIP3    H1 5676   0.938   5.986   0.284 -0.7080 -0.7391  0.4838
 1890TIP3    H2 5677   0.992   5.898   0.173  0.3195 -1.4344  1.5047
 1891TIP3   OH2 5678   4.191   5.098   0.415  0.0128 -0.1111 -0.3490
 1891TIP3    H1 5679   4.106   5.077   0.377  0.2708 -1.1051 -0.4227
 1891TIP3    H2 5680   4.176   5.178   0.465 -1.4989 -1.3600  1.3341
 1892TIP3   OH2 5681   0.253   3.474   4.348  0.1667  0.1948 -0.7002
 1892TIP3    H1 5682   0.202   3.428   4.281 -0.3425 -0.6387  0.2257
 1892TIP3    H2 5683   0.216   3.562   4.350  1.0642  0.6628 -2.4117
 1893TIP3   OH2 5684   5.789   3.335   0.890  0.5168 -0.2998  0.3551
 1893TIP3    H1 5685   5.806   3.251   0.847 -1.2265 -0.7482  0.4554
 1893TIP3    H2 5686   5.859   3.393   0.859 -0.0061 -0.9179 -2.1699
 1894TIP3   OH2 5687   2.487   1.682   0.406  0.1286  0.2413 -0.5548
 1894TIP3    H1 5688   2.553   1.751   0.412  1.5291 -1.1635  2.3790
 1894TIP3    H2 5689   2.405   1.726   0.428  0.2605  1.6868 -2.6449
 1895TIP3   OH2 5690   2.074   3.150   1.403  0.3310  0.4434  0.0256
 1895TIP3    H1 5691   2.024   3.186   1.477  0.9249  2.2450 -0.3775
 1895TIP3    H2 5692   2.134   3.087   1.442  0.6969  1.4332  1.1400
 1896TIP3   OH2 5693   4.213   5.895   1.088  0.2630  0.0306 -0.0045
 1896TIP3    H1 5694   4.129   5.849   1.094  0.4066 -0.3657 -0.8294
 1896TIP3    H2 5695   4.278   5.828   1.110  0.5938 -0.6865 -2.7718
 1897TIP3   OH2 5696   4.304   4.554   4.421 -0.1841 -0.1273  0.1652
 1897TIP3    H1 5697   4.290   4.488   4.354  1.4701 -2.7305  2.1735
 1897TIP3    H2 5698   4.303   4.505   4.504  0.6272  2.4445  1.8316
 1898TIP3   OH2 5699   6.063   4.249   4.472  0.0268  0.3302  0.4248
 1898TIP3    H1 5700   6.042   4.158   4.454 -0.6476  0.4775  0.4390
 1898TIP3    H2 5701   6.033   4.297   4.394  0.7101  0.4972  0.2601
 1899TIP3   OH2 5702   0.971   5.877   1.180 -0.6708 -0.0360  0.1495
 1899TIP3    H1 5703   0.906   5.922   1.126 -0.0238  0.0005 -0.6242
 1899TIP3    H2 5704   0.969   5.786   1.149  1.6269  0.4987 -1.9617
 1900TIP3   OH2 5705   2.810   4.795   5.170  0.2511 -0.1115 -0.0827
 1900TIP3    H1 5706   2.857   4.834   5.096  0.1799 -0.2759 -0.2142
 1900TIP3    H2 5707   2.823   4.857   5.242 -1.3289  1.0649 -0.7523
 1901TIP3   OH2 5708   1.087   2.226   3.191  0.1420 -0.2782 -0.0847
 1901TIP3    H1 5709   1.072   2.163   3.121 -0.7324 -0.3566  0.1618
 1901TIP3    H2 5710   1.160   2.189   3.242 -0.1679 -0.9375 -0.1154
 1902TIP3   OH2 5711   4.055   2.966   4.492 -0.3647 -0.2373  0.2897
 1902TIP3    H1 5712   4.115   3.011   4.431 -1.6354  0.3225 -0.5940
 1902TIP3    H2 5713   4.102   2.887   4.517  0.5073 -0.1174 -0.8617
 1903TIP3   OH2 5714   0.714   3.119   0.107 -0.2535  0.2788 -0.1428
 1903TIP3    H1 5715   0.772   3.195   0.110  0.0268  0.0489  0.5371
 1903TIP3    H2 5716   0.631   3.153   0.073 -0.1815  0.9233  0.3125
 1904TIP3   OH2 5717   0.377   3.202   0.484 -0.0241 -0.1743 -0.6617
 1904TIP3    H1 5718   0.393   3.142   0.557  1.1899  2.7510  1.7020
 1904TIP3    H2 5719   0.464   3.231   0.457 -0.5005 -0.5360 -2.7846
 1905TIP3   OH2 5720   5.930   5.723   1.874  0.0719 -0.5454 -0.0752
 1905TIP3    H1 5721   5.904   5.681   1.791  1.0536  0.0279 -0.6849
 1905TIP3    H2 5722   6.022   5.743   1.863 -0.5800  2.8017 -0.2442
 1906TIP3   OH2 5723   4.229   5.532   2.017 -0.2365 -0.7004  0.1229
 1906TIP3    H1 5724   4.197   5.524   1.927 -2.1226  0.1529  0.6698
 1906TIP3    H2 5725   4.285   5.610   2.016  0.0483 -0.9104 -0.3850
 1907TIP3   OH2 5726   0.190   5.443   0.455  0.5071 -0.0498 -0.1585
 1907TIP3    H1 5727   0.257   5.418   0.519  1.3346  1.1868 -0.5123
 1907TIP3    H2 5728   0.112   5.457   0.507  1.1708  0.9387  0.6136
 1908TIP3   OH2 5729   1.590   4.125   4.651  0.2641 -0.2045  0.0243
 1908TIP3    H1 5730   1.577   4.032   4.632  0.0249  0.1100 -1.4346
 1908TIP3    H2 5731   1.621   4.126   4.742  2.8494 -1.9104 -0.7077
 1909TIP3   OH2 5732   4.139   5.237   2.562  0.3701  0.5324 -0.2705
 1909TIP3    H1 5733   4.110   5.235   2.471 -1.5499  0.1948  0.3127
 1909TIP3    H2 5734   4.059   5.244   2.613  1.1890 -1.8241  1.5160
 1910TIP3   OH2 5735   1.641   5.511   0.867 -0.1136 -0.4785  0.3755
 1910TIP3    H1 5736   1.707   5.570   0.830 -0.1671 -0.9145 -0.4471
 1910TIP3    H2 5737   1.679   5.480   0.949  0.7510 -0.7951 -0.1272
 1911TIP3   OH2 5738   5.834   4.400   2.958 -0.1042 -0.4250 -0.0242
 1911TIP3    H1 5739   5.806   4.309   2.967 -1.2906 -0.2464 -1.4951
 1911TIP3    H2 5740   5.888   4.400   2.879  0.8781 -0.0445  0.6271
 1912TIP3   OH2 5741   4.964   1.659   1.513  0.2658 -0.4202  0.5251
 1912TIP3    H1 5742   4.950   1.681   1.605 -0.0597 -1.6999  0.7978
 1912TIP3    H2 5743   5.022   1.583   1.514  1.3450  0.3636 -0.3838
 1913TIP3   OH2 5744   1.626   3.220   4.216 -0.0190 -0.1862  1.0132
 1913TIP3    H1 5745   1.692   3.226   4.286  0.8065  1.5440  0.1512
 1913TIP3    H2 5746   1.677   3.206   4.136 -0.8894 -1.1852  0.6062
 1914TIP3   OH2 5747   3.894   5.509   3.400 -0.0491  0.0235  0.4640
 1914TIP3    H1 5748   3.860   5.501   3.311 -1.2619  1.3705  0.7811
 1914TIP3    H2 5749   3.971   5.565   3.391 -0.6970  0.9085  0.3760
 1915TIP3   OH2 5750   3.155   1.948   3.851  0.6314  0.2378 -0.1608
 1915TIP3    H1 5751   3.125   1.971   3.763 -0.7357 -0.3612  0.1183
 1915TIP3    H2 5752   3.173   1.854   3.846  0.7185  0.2369  0.1533
 1916TIP3   OH2 5753   5.519   5.433   0.431  0.5314  0.0017  0.0938
 1916TIP3    H1 5754   5.505   5.528   0.431 -2.4901 -0.3418 -1.1907
 1916TIP3    H2 5755   5.452   5.399   0.490  0.1463 -1.4704 -1.1332
 1917TIP3   OH2 5756   3.033   1.904   1.777  0.2039  0.0446 -0.5724
 1917TIP3    H1 5757   3.036   1.999   1.764  0.2152  0.1755  0.3318
 1917TIP3    H2 5758   3.122   1.874   1.757  0.8922  0.5606  1.5175
 1918TIP3   OH2 5759   1.273   3.377   4.827  0.0985 -0.1499  0.0195
 1918TIP3    H1 5760   1.285   3.383   4.732  0.2946 -0.7993 -0.0036
 1918TIP3    H2 5761   1.179   3.361   4.838 -0.3908  2.4494  0.0775
 1919TIP3   OH2 5762   5.903   5.954   2.030  0.0157 -0.6395  0.0424
 1919TIP3    H1 5763   5.909   6.010   1.953 -0.0553 -0.3360  0.2586
 1919TIP3    H2 5764   5.915   5.865   1.996  0.5809 -0.4592 -0.2382
 1920TIP3   OH2 5765   5.105   2.458   1.463  0.7908 -0.2351  0.4073
 1920TIP3    H1 5766   5.171   2.527   1.469  1.0817 -0.5776  1.3854
 1920TIP3    H2 5767   5.126   2.398   1.535 -1.2442  0.2391  1.5053
 1921TIP3   OH2 5768   0.675   4.729   3.859 -0.3930 -0.4154 -0.2009
 1921TIP3    H1 5769   0.611   4.770   3.801 -0.7285 -0.3705  0.1920
 1921TIP3    H2 5770   0.754   4.782   3.849  0.4610 -1.9534 -2.6463
 1922TIP3   OH2 5771   0.686   4.018   0.404  0.2228  0.0205 -0.2171
 1922TIP3    H1 5772   0.613   4.014   0.342  0.1062 -0.0283 -0.0775
 1922TIP3    H2 5773   0.744   4.085   0.369 -0.3765  0.7632  0.2000
 1923TIP3   OH2 5774   2.164   3.506   5.124 -0.3042  0.4869  0.5817
 1923TIP3    H1 5775   2.177   3.427   5.071  0.8564  0.1412  1.3385
 1923TIP3    H2 5776   2.216   3.490   5.203  1.0527  2.5508  0.1647
 1924TIP3   OH2 5777   1.498   2.716   0.507  0.2120 -0.3769 -0.0557
 1924TIP3    H1 5778   1.512   2.809   0.526  0.9224 -0.7678  1.4820
 1924TIP3    H2 5779   1.480   2.713   0.413 -2.3563  1.5682  0.2698
 1925TIP3   OH2 5780   0.417   3.283   2.393  0.0557 -0.1130 -0.2068
 1925TIP3    H1 5781   0.451   3.338   2.463  2.1516 -1.1970 -0.3232
 1925TIP3    H2 5782   0.393   3.345   2.324  0.4743  0.7860  0.4366
 1926TIP3   OH2 5783   1.391   4.105   0.814 -0.2981  0.0417  0.5780
 1926TIP3    H1 5784   1.302   4.140   0.812 -0.5376 -0.5000  1.4217
 1926TIP3    H2 5785   1.440   4.168   0.868 -0.8370 -1.0910  2.4992
 1927TIP3   OH2 5786   0.504   0.793   1.546  0.2005  0.0884  0.1720
 1927TIP3    H1 5787   0.415   0.787   1.511  0.6257 -1.5112 -0.7428
 1927TIP3    H2 5788   0.522   0.887   1.551 -1.3740  0.4224 -0.0341
 1928TIP3   OH2 5789   2.653   2.822   0.722 -0.0430 -0.0602 -0.3484
 1928TIP3    H1 5790   2.564   2.856   0.711  0.0244 -0.4547 -2.8442
 1928TIP3    H2 5791   2.693   2.834   0.636  1.6102 -1.8682  0.0991
 1929TIP3   OH2 5792   1.552   4.244   4.269 -0.1878  0.6552 -0.3736
 1929TIP3    H1 5793   1.565   4.277   4.358  2.4610  2.3110 -1.2654
 1929TIP3    H2 5794   1.487   4.174   4.279  1.2417 -0.4141  3.1088
 1930TIP3   OH2 5795   5.302   3.200   1.727  0.2386 -0.4870  0.1087
 1930TIP3    H1 5796   5.377   3.223   1.671 -1.6148  1.6463 -1.6875
 1930TIP3    H2 5797   5.229   3.251   1.691 -1.6984 -1.1121  2.8816
 1931TIP3   OH2 5798   4.382   5.447   2.219  0.5815 -0.3798 -0.1955
 1931TIP3    H1 5799   4.471   5.479   2.207 -0.2102  2.0655 -0.0431
 1931TIP3    H2 5800   4.335   5.478   2.141 -0.1563 -1.6560 -0.2823
 1932TIP3   OH2 5801   5.701   3.204   4.362  0.2447  0.0895  0.0612
 1932TIP3    H1 5802   5.715   3.148   4.439 -0.7514 -0.9088 -0.4435
 1932TIP3    H2 5803   5.788   3.215   4.324  0.4623 -1.1980  0.1461
 1933TIP3   OH2 5804   2.448   4.676   0.832 -0.6810 -0.2348 -0.4534
 1933TIP3    H1 5805   2.494   4.617   0.773 -0.8595 -0.2849 -0.5447
 1933TIP3    H2 5806   2.512   4.699   0.899  0.8457  2.9638 -2.7372
 1934TIP3   OH2 5807   1.283   5.927   4.435  0.8634  0.2120  0.1871
 1934TIP3    H1 5808   1.204   5.941   4.382  2.3267 -0.4066 -2.2953
 1934TIP3    H2 5809   1.260   5.856   4.495 -0.0419 -0.9860 -1.5097
 1935TIP3   OH2 5810   1.470   2.223   0.314 -0.8411  0.2277 -0.1811
 1935TIP3    H1 5811   1.506   2.135   0.301 -1.3182  0.0312 -0.2130
 1935TIP3    H2 5812   1.511   2.277   0.247 -1.4876 -0.2528 -0.9758
 1936TIP3   OH2 5813   2.340   3.639   2.183 -0.4819 -0.4031  0.1186
 1936TIP3    H1 5814   2.272   3.687   2.231 -0.0703 -0.0459  0.3501
 1936TIP3    H2 5815   2.423   3.672   2.218 -0.1803 -0.6094 -0.3784
 1937TIP3   OH2 5816   0.303   5.478   4.396  0.4765 -0.3349  0.1776
 1937TIP3    H1 5817   0.323   5.385   4.396  0.3594 -0.3757 -1.0239
 1937TIP3    H2 5818   0.234   5.488   4.330 -1.7570  0.1675  2.4202
 1938TIP3   OH2 5819   2.375   2.499   4.010  0.4784 -0.7438  0.3795
 1938TIP3    H1 5820   2.424   2.449   3.944 -1.9066 -0.2179 -1.9389
 1938TIP3    H2 5821   2.396   2.591   3.991 -1.2993 -0.5073 -0.6587
 1939TIP3   OH2 5822   4.616   3.929   1.118 -0.2406  0.1243 -0.0353
 1939TIP3    H1 5823   4.568   3.925   1.035  0.0142  0.0710 -0.1782
 1939TIP3    H2 5824   4.597   4.016   1.152 -1.8669 -0.4773  0.7512
 1940TIP3   OH2 5825   3.879   3.579   2.006  0.3909 -0.1187  0.2474
 1940TIP3    H1 5826   3.837   3.501   2.041  0.8360 -0.0969  0.8455
 1940TIP3    H2 5827   3.970   3.554   1.993  0.4039  0.1203 -0.1497
 1941TIP3   OH2 5828   4.670   2.253   2.405 -0.0814  1.0882 -0.5175
 1941TIP3    H1 5829   4.633   2.176   2.446  2.3704 -0.0300 -0.1932
 1941TIP3    H2 5830   4.637   2.327   2.456 -1.4641  0.1677 -0.0452
 1942TIP3   OH2 5831   4.874   4.011   1.122 -0.5622 -0.0965 -0.6806
 1942TIP3    H1 5832   4.936   3.943   1.100 -0.5299 -0.8197  1.3782
 1942TIP3    H2 5833   4.793   3.986   1.077  0.2666  0.2254 -2.4236
 1943TIP3   OH2 5834   1.304   3.217   3.602  0.0103  0.4774 -0.0953
 1943TIP3    H1 5835   1.306   3.307   3.636 -1.2915  0.7675 -0.7018
 1943TIP3    H2 5836   1.281   3.227   3.510 -1.6635 -0.5272  0.1653
 1944TIP3   OH2 5837   1.136   3.785   0.845 -0.4102  0.3460 -0.1087
 1944TIP3    H1 5838   1.094   3.777   0.931 -2.2061  1.3471 -0.8363
 1944TIP3    H2 5839   1.227   3.807   0.865 -0.6590  0.0509  1.5347
 1945TIP3   OH2 5840   0.247   0.198   2.777 -0.3276 -0.1653 -0.2924
 1945TIP3    H1 5841   0.319   0.158   2.728 -0.7611 -0.2870 -0.8459
 1945TIP3    H2 5842   0.268   0.291   2.779  0.1937 -0.2845  0.1594
 1946TIP3   OH2 5843   1.550   5.804   1.994 -0.2830 -0.7939 -0.1215
 1946TIP3    H1 5844   1.512   5.808   1.906 -0.1730 -0.9966 -0.1792
 1946TIP3    H2 5845   1.639   5.772   1.979 -0.4356 -1.3399  0.1156
 1947TIP3   OH2 5846   0.867   4.416   0.778  0.0215 -0.0716  0.1129
 1947TIP3    H1 5847   0.892   4.464   0.699 -2.5743 -0.4911 -1.0462
 1947TIP3    H2 5848   0.860   4.325   0.750 -0.6009 -0.2836  0.9243
 1948TIP3   OH2 5849   1.774   3.920   0.422  0.0652  0.4678 -0.3561
 1948TIP3    H1 5850   1.730   3.859   0.481 -0.5406  0.1703 -1.0948
 1948TIP3    H2 5851   1.832   3.864   0.370 -1.3636  0.3118 -1.8542
 1949TIP3   OH2 5852   1.065   4.530   0.427  0.4950  0.1436 -0.3381
 1949TIP3    H1 5853   1.125   4.468   0.469 -0.0672 -0.5791 -0.5920
 1949TIP3    H2 5854   1.049   4.597   0.494  1.0475 -0.0159 -0.0413
 1950TIP3   OH2 5855   1.301   2.400   3.772  0.4655 -0.5906 -0.0286
 1950TIP3    H1 5856   1.362   2.329   3.789 -0.0997 -1.1903 -0.4606
 1950TIP3    H2 5857   1.345   2.455   3.707  0.0951 -1.6450 -1.2189
 1951TIP3   OH2 5858   2.433   0.390   1.598 -0.2010 -0.3183  0.3661
 1951TIP3    H1 5859   2.383   0.453   1.649  0.0540 -0.1024  0.3479
 1951TIP3    H2 5860   2.406   0.305   1.632 -3.5178 -0.4915 -2.1858
 1952TIP3   OH2 5861   5.702   3.286   1.690  0.2430 -0.3379  0.6023
 1952TIP3    H1 5862   5.775   3.225   1.678  3.0671  2.6769  0.9742
 1952TIP3    H2 5863   5.653   3.250   1.764  0.4762 -3.1462 -0.4552
 1953TIP3   OH2 5864   2.131   2.358   4.062 -0.3466 -0.1130  0.0730
 1953TIP3    H1 5865   2.222   2.389   4.055 -0.0854 -0.8805 -0.0679
 1953TIP3    H2 5866   2.088   2.390   3.983  0.1470 -0.8298 -0.5039
 1954TIP3   OH2 5867   4.545   0.244   2.396  0.1707  0.3386  0.3612
 1954TIP3    H1 5868   4.592   0.163   2.378  1.4557  1.3440 -1.0578
 1954TIP3    H2 5869   4.611   0.304   2.431 -0.4252  1.2442 -0.0122
 1955TIP3   OH2 5870   3.878   3.299   4.637  0.1859  0.6120 -0.1756
 1955TIP3    H1 5871   3.954   3.313   4.693 -0.3760  1.5965  0.3501
 1955TIP3    H2 5872   3.870   3.379   4.585 -0.4381  0.4763 -0.3008
 1956TIP3   OH2 5873   2.290   3.033   3.895 -0.1501 -0.0009 -0.3754
 1956TIP3    H1 5874   2.329   3.052   3.810 -1.4835  1.6677 -0.6613
 1956TIP3    H2 5875   2.362   3.045   3.957  0.5356 -0.0467 -1.1432
 1957TIP3   OH2 5876   1.629   1.028   3.165 -0.7677  0.3589  0.4824
 1957TIP3    H1 5877   1.698   0.986   3.115  0.1657 -1.1035  2.8144
 1957TIP3    H2 5878   1.602   1.102   3.111 -0.5882 -1.6110 -2.6100
 1958TIP3   OH2 5879   3.857   3.032   4.700  0.1351  0.4241  0.2878
 1958TIP3    H1 5880   3.917   3.002   4.632  0.4508  0.0194  0.7376
 1958TIP3    H2 5881   3.836   3.122   4.676  0.0180  0.1966 -0.4991
 1959TIP3   OH2 5882   5.801   1.240   0.682 -0.2836 -0.0319 -0.2417
 1959TIP3    H1 5883   5.782   1.266   0.772  0.0500 -1.6050  0.3114
 1959TIP3    H2 5884   5.896   1.253   0.673  0.1681 -2.4564  0.5578
 1960TIP3   OH2 5885   6.047   2.812   3.222 -0.0465  0.8900  0.4922
 1960TIP3    H1 5886   6.082   2.801   3.311 -0.4132  0.3965  0.5819
 1960TIP3    H2 5887   6.056   2.905   3.204  1.5425  0.7522  0.4175
 1961TIP3   OH2 5888   5.915   5.615   1.610  0.5829  0.0721 -0.1872
 1961TIP3    H1 5889   5.832   5.658   1.630  1.0607 -0.1200  2.6467
 1961TIP3    H2 5890   5.890   5.531   1.571 -0.6632 -0.5476  1.8150
 1962TIP3   OH2 5891   6.021   0.358   0.733 -0.3000  0.1467 -0.0765
 1962TIP3    H1 5892   6.016   0.438   0.680  0.0003  1.2778  1.5227
 1962TIP3    H2 5893   6.096   0.311   0.697 -0.8302  0.2964 -1.4141
 1963TIP3   OH2 5894   4.135   0.689   2.597 -0.4878 -0.1967 -0.0454
 1963TIP3    H1 5895   4.179   0.608   2.624  1.4131  0.8223  0.0629
 1963TIP3    H2 5896   4.204   0.742   2.558 -1.0005  2.5990  2.4927
 1964TIP3   OH2 5897   4.704   1.628   3.444  0.1986  0.2998 -0.0729
 1964TIP3    H1 5898   4.776   1.626   3.381 -0.5055  1.2708 -0.9485
 1964TIP3    H2 5899   4.637   1.682   3.402 -0.4366  0.6917  1.3660
 1965TIP3   OH2 5900   5.030   5.338   1.421 -0.0763 -0.1705  0.7810
 1965TIP3    H1 5901   5.077   5.259   1.395  0.4363  0.5426 -0.5186
 1965TIP3    H2 5902   5.088   5.410   1.398 -1.6976  0.7270 -0.6949
 1966TIP3   OH2 5903   4.972   1.433   3.501 -0.1027 -0.3003  0.4801
 1966TIP3    H1 5904   4.974   1.339   3.484 -0.9524 -0.3092  0.4183
 1966TIP3    H2 5905   4.953   1.472   3.416  0.4331 -0.0524  0.4670
 1967TIP3   OH2 5906   0.340   2.809   0.481  0.1763  0.7722 -0.5198
 1967TIP3    H1 5907   0.403   2.879   0.462  0.5177  0.7061  0.3289
 1967TIP3    H2 5908   0.312   2.778   0.395  3.5261 -1.2370 -1.0393
 1968TIP3   OH2 5909   3.714   4.214   5.071  0.1007  0.1319 -0.0116
 1968TIP3    H1 5910   3.680   4.251   5.153 -0.6745  1.1805 -0.7747
 1968TIP3    H2 5911   3.733   4.290   5.017 -0.9496 -0.5576 -1.4129
 1969TIP3   OH2 5912   2.133   0.770   3.685  0.1290  0.1533  0.0160
 1969TIP3    H1 5913   2.172   0.837   3.629  0.3027  0.1916  0.1838
 1969TIP3    H2 5914   2.205   0.709   3.703 -0.5847 -1.4537 -2.1795
 1970TIP3   OH2 5915   3.880   1.719   3.067  0.1133 -0.1298 -0.0341
 1970TIP3    H1 5916   3.801   1.731   3.119  0.5604 -0.8177  0.8382
 1970TIP3    H2 5917   3.912   1.808   3.051 -0.0583  0.1031  0.8521
 1971TIP3   OH2 5918   2.307   2.997   3.630  0.3237  0.2211  0.1599
 1971TIP3    H1 5919   2.347   3.064   3.575  1.8295  0.9037  1.9795
 1971TIP3    H2 5920   2.329   2.915   3.588  2.7802  0.6394  0.4794
 1972TIP3   OH2 5921   3.876   5.275   2.624  0.2092  0.6712 -0.6164
 1972TIP3    H1 5922   3.871   5.370   2.612 -0.5208  1.0427  1.9454
 1972TIP3    H2 5923   3.786   5.249   2.647  0.9769 -0.0459  1.9254
 1973TIP3   OH2 5924   4.385   0.425   0.681  0.0805  0.2182 -0.3918
 1973TIP3    H1 5925   4.345   0.386   0.604 -2.2048  2.1934 -0.3027
 1973TIP3    H2 5926   4.463   0.469   0.648 -0.8681  1.0387 -1.6152
 1974TIP3   OH2 5927   0.750   1.870   1.851 -0.2821  0.6238 -0.2121
 1974TIP3    H1 5928   0.701   1.801   1.806  2.7381 -1.0556 -1.1365
 1974TIP3    H2 5929   0.753   1.840   1.942  0.5592 -0.2249 -0.5054
 1975TIP3   OH2 5930   5.688   1.518   4.897  0.2626 -0.4479 -0.3027
 1975TIP3    H1 5931   5.771   1.538   4.854  0.1943  1.5961  0.3974
 1975TIP3    H2 5932   5.630   1.590   4.871 -0.9220 -1.2077  0.1649
 1976TIP3   OH2 5933   3.876   5.940   4.231 -0.2600 -0.2353 -0.1419
 1976TIP3    H1 5934   3.838   6.020   4.195  0.4206  0.6914  1.1157
 1976TIP3    H2 5935   3.961   5.932   4.188  0.0025  0.1510  0.3037
 1977TIP3   OH2 5936   4.676   4.105   2.715 -0.5281  0.1034  0.8837
 1977TIP3    H1 5937   4.607   4.156   2.672 -0.4169 -0.0748  0.4906
 1977TIP3    H2 5938   4.754   4.160   2.709 -0.0631 -0.6744 -0.7900
 1978TIP3   OH2 5939   4.564   5.362   2.703 -0.3745 -0.0308 -0.1261
 1978TIP3    H1 5940   4.612   5.440   2.730 -1.3502 -0.2118  2.4727
 1978TIP3    H2 5941   4.525   5.385   2.619  2.7750  0.7057 -1.5073
 1979TIP3   OH2 5942   4.110   2.399   2.083 -0.1703  0.2855  0.1255
 1979TIP3    H1 5943   4.036   2.352   2.121 -1.2363  0.5245 -1.5530
 1979TIP3    H2 5944   4.143   2.453   2.155  0.1668 -1.8543  1.6997
 1980TIP3   OH2 5945   4.662   1.208   4.551 -0.4519  0.1015 -0.0054
 1980TIP3    H1 5946   4.681   1.231   4.461  1.5369  1.1166  0.6161
 1980TIP3    H2 5947   4.600   1.135   4.545 -0.8781  0.5852 -2.1480
 1981TIP3   OH2 5948   0.706   5.735   1.279 -0.1345  0.1311  0.1525
 1981TIP3    H1 5949   0.738   5.645   1.275 -1.0897 -0.2339  0.5881
 1981TIP3    H2 5950   0.784   5.787   1.302  0.2898 -0.6554  0.5352
 1982TIP3   OH2 5951   3.350   1.667   3.461 -0.3740 -0.2641 -0.1009
 1982TIP3    H1 5952   3.260   1.697   3.474 -0.0340  0.7284  0.0752
 1982TIP3    H2 5953   3.377   1.636   3.547  0.3507  2.0510  0.5990
 1983TIP3   OH2 5954   5.213   0.547   4.241  0.0517 -0.3855  0.6310
 1983TIP3    H1 5955   5.255   0.563   4.156  0.2713  1.8679  1.1079
 1983TIP3    H2 5956   5.231   0.455   4.260  2.2992 -0.2340 -0.5185
 1984TIP3   OH2 5957   4.154   1.035   2.453 -0.4061 -0.3782 -0.0689
 1984TIP3    H1 5958   4.129   1.096   2.383 -0.4068 -0.1825  0.0994
 1984TIP3    H2 5959   4.203   0.966   2.409  0.2741  0.1483 -0.1550
 1985TIP3   OH2 5960   4.014   1.083   2.684  0.1950 -0.3363 -0.3691
 1985TIP3    H1 5961   4.071   1.075   2.608 -0.3853  2.1324 -1.1536
 1985TIP3    H2 5962   4.060   1.142   2.743 -0.3230 -0.5213  0.2331
 1986TIP3   OH2 5963   4.829   5.565   4.810 -0.4470 -0.1274 -0.2896
 1986TIP3    H1 5964   4.777   5.488   4.832 -1.0239  0.5768  0.8590
 1986TIP3    H2 5965   4.857   5.549   4.719  0.6167 -2.3291  0.3555
 1987TIP3   OH2 5966   5.406   2.649   3.954  0.3633  0.6400 -0.5225
 1987TIP3    H1 5967   5.371   2.738   3.950 -1.8932 -0.1607  0.2356
 1987TIP3    H2 5968   5.442   2.634   3.866  1.1343  2.3963 -0.5479
 1988TIP3   OH2 5969   1.586   5.074   1.380 -0.0331 -0.0833  0.0596
 1988TIP3    H1 5970   1.681   5.084   1.371 -0.1563  0.5287 -0.6164
 1988TIP3    H2 5971   1.554   5.061   1.291 -0.3941 -2.2544  0.4314
 1989TIP3   OH2 5972   2.185   4.892   3.700  0.4312  0.1792  0.5276
 1989TIP3    H1 5973   2.170   4.849   3.616 -0.5460  0.1074  0.7250
 1989TIP3    H2 5974   2.231   4.973   3.678 -0.7258  0.6646 -0.1967
 1990TIP3   OH2 5975   5.680   3.004   4.612 -0.5224 -0.1911 -0.2900
 1990TIP3    H1 5976   5.661   2.912   4.596 -0.3984 -0.5208  1.3187
 1990TIP3    H2 5977   5.738   3.004   4.688 -1.4916  1.2765  0.4912
 1991TIP3   OH2 5978   2.667   2.813   2.851  0.0317 -0.4936  0.0323
 1991TIP3    H1 5979   2.688   2.903   2.875 -1.3931  0.1991 -1.1441
 1991TIP3    H2 5980   2.667   2.765   2.935 -0.1067  0.7912  0.7925
 1992TIP3   OH2 5981   3.808   0.539   1.729 -0.1210 -0.0190 -0.1544
 1992TIP3    H1 5982   3.875   0.565   1.665 -0.8728  0.0923 -0.9031
 1992TIP3    H2 5983   3.825   0.447   1.745 -0.2263 -0.1769 -0.8950
 1993TIP3   OH2 5984   6.255   4.615   3.675  0.5051 -0.1682  0.0341
 1993TIP3    H1 5985   6.199   4.651   3.606 -0.0959 -1.0503  0.0485
 1993TIP3    H2 5986   6.256   4.683   3.742 -1.3041 -0.4958  0.4318
 1994TIP3   OH2 5987   2.434   5.841   0.340 -0.1489 -0.0665  0.4032
 1994TIP3    H1 5988   2.513   5.895   0.336 -0.1691 -0.1057 -1.4628
 1994TIP3    H2 5989   2.436   5.802   0.428  1.8596  0.0128  0.4425
 1995TIP3   OH2 5990   2.639   4.239   1.836 -0.1769  0.0266  0.0806
 1995TIP3    H1 5991   2.618   4.156   1.880  1.1383  0.1997  1.0999
 1995TIP3    H2 5992   2.679   4.213   1.753  1.8805 -0.4658  1.1500
 1996TIP3   OH2 5993   4.756   3.520   3.034  1.2355  0.3539 -0.5864
 1996TIP3    H1 5994   4.723   3.436   3.002  3.0748 -0.7083  0.1398
 1996TIP3    H2 5995   4.737   3.582   2.963  0.4218 -0.7972 -1.4112
 1997TIP3   OH2 5996   2.466   3.820   0.066 -0.5146 -0.1478  0.3065
 1997TIP3    H1 5997   2.508   3.890   0.016 -2.8734 -0.5220 -2.5307
 1997TIP3    H2 5998   2.503   3.740   0.031 -1.0760 -0.3916  0.2571
 1998TIP3   OH2 5999   1.777   0.865   3.766  0.0580 -0.1083  0.0908
 1998TIP3    H1 6000   1.707   0.924   3.738 -1.2992 -1.3858  0.6912
 1998TIP3    H2 6001   1.831   0.853   3.688 -0.4033  0.8488 -0.3959
 1999TIP3   OH2 6002   3.431   0.475   0.827 -0.0278 -0.2381 -1.0402
 1999TIP3    H1 6003   3.340   0.486   0.855 -0.2009 -0.7384 -1.3922
 1999TIP3    H2 6004   3.425   0.448   0.736  0.5536  2.0398 -1.8162
 2000TIP3   OH2 6005   1.187   3.767   2.919 -0.7680 -0.2277 -0.5527
 2000TIP3    H1 6006   1.259   3.793   2.860 -0.7294 -0.9401 -0.8319
 2000TIP3    H2 6007   1.167   3.847   2.968 -0.4129  0.2313 -1.1293
 2001TIP3   OH2 6008   3.232   4.724   2.673  0.0708 -0.0169 -0.1732
 2001TIP3    H1 6009   3.166   4.766   2.728 -0.7599  1.2238 -2.0254
 2001TIP3    H2 6010   3.290   4.796   2.645  0.2205 -0.5424 -1.2497
 2002TIP3   OH2 6011   5.165   3.163   1.349 -0.3624  0.4312  0.2509
 2002TIP3    H1 6012   5.152   3.158   1.255 -1.9471 -1.6018  0.5106
 2002TIP3    H2 6013   5.122   3.244   1.376 -2.8214 -0.5766 -0.4065
 2003TIP3   OH2 6014   5.996   5.197   4.670 -0.1716  0.3784  0.5017
 2003TIP3    H1 6015   6.019   5.290   4.670  1.3921  0.0525 -1.0702
 2003TIP3    H2 6016   6.047   5.160   4.743  0.2405  0.5384  0.2981
 2004TIP3   OH2 6017   1.230   0.013   0.197 -0.0213  0.4732 -0.1328
 2004TIP3    H1 6018   1.253   0.106   0.202 -0.1434  0.5643 -1.0947
 2004TIP3    H2 6019   1.180   0.005   0.116  0.3503 -0.5105 -0.2819
 2005TIP3   OH2 6020   5.372   0.525   4.968  0.1381  0.9051 -0.0584
 2005TIP3    H1 6021   5.381   0.455   5.033 -1.2023  0.1005 -0.6900
 2005TIP3    H2 6022   5.431   0.594   4.999  1.0327 -0.2475  0.9128
 2006TIP3   OH2 6023   1.643   5.583   3.590 -0.1564 -0.5035  0.1157
 2006TIP3    H1 6024   1.549   5.579   3.607 -0.5396  0.6699 -1.5199
 2006TIP3    H2 6025   1.668   5.492   3.575 -1.3225 -0.7081 -0.7783
 2007TIP3   OH2 6026   4.486   0.745   0.515 -0.4267  0.5756  0.1718
 2007TIP3    H1 6027   4.554   0.754   0.582 -0.0889 -0.5449 -0.0138
 2007TIP3    H2 6028   4.483   0.831   0.473  1.4454  0.4208 -0.3508
 2008TIP3   OH2 6029   0.610   5.864   3.192  0.4115 -0.2654  0.4530
 2008TIP3    H1 6030   0.657   5.809   3.130  0.7831  0.3161  0.2170
 2008TIP3    H2 6031   0.577   5.937   3.140 -0.7932 -0.6750  0.6027
 2009TIP3   OH2 6032   4.173   1.637   0.953 -0.1356  0.6222 -0.3659
 2009TIP3    H1 6033   4.124   1.629   1.035  2.3030 -0.4944  1.0956
 2009TIP3    H2 6034   4.162   1.552   0.911 -0.7879  0.9477 -0.8697
 2010TIP3   OH2 6035   3.692   0.489   4.546 -0.0394  0.5452 -0.7194
 2010TIP3    H1 6036   3.726   0.515   4.460  0.0141  0.4824 -0.7169
 2010TIP3    H2 6037   3.746   0.414   4.572 -0.9635 -0.3502 -1.2816
 2011TIP3   OH2 6038   1.467   4.572   3.952 -0.6265  0.5768 -0.1566
 2011TIP3    H1 6039   1.554   4.537   3.936 -0.1043  1.6746  0.1999
 2011TIP3    H2 6040   1.428   4.581   3.865 -0.5939 -0.4110 -0.2795
 2012TIP3   OH2 6041   2.665   5.657   3.283  0.1949  0.1485  0.5699
 2012TIP3    H1 6042   2.680   5.747   3.255  1.9291  0.2001  1.4981
 2012TIP3    H2 6043   2.719   5.647   3.362 -0.0337 -1.6721  0.5464
 2013TIP3   OH2 6044   5.653   1.720   3.271  0.0321 -0.2185  0.2430
 2013TIP3    H1 6045   5.714   1.740   3.342  0.1849 -1.3180  0.4243
 2013TIP3    H2 6046   5.653   1.799   3.217  1.2228 -0.0169  0.5177
 2014TIP3   OH2 6047   1.789   1.287   4.016 -0.5412 -0.3243  0.1639
 2014TIP3    H1 6048   1.712   1.240   3.983 -0.8778  0.2944  0.0464
 2014TIP3    H2 6049   1.857   1.270   3.951 -0.3704 -1.4167  0.6031
 2015TIP3   OH2 6050   5.314   1.845   0.626 -0.1532  0.3584  0.1916
 2015TIP3    H1 6051   5.373   1.844   0.551  1.1991 -0.6575  1.2171
 2015TIP3    H2 6052   5.356   1.905   0.688 -0.9899  0.7931  0.3422
 2016TIP3   OH2 6053   5.494   5.036   1.602  0.2894 -0.1698  0.6538
 2016TIP3    H1 6054   5.550   4.959   1.615  1.2843  0.5965  1.0115
 2016TIP3    H2 6055   5.533   5.104   1.658 -0.5508  0.6048  0.3188
 2017TIP3   OH2 6056   4.269   0.092   3.813  0.2452 -0.6479 -0.4784
 2017TIP3    H1 6057   4.347   0.067   3.863 -0.2979  0.5589  1.0401
 2017TIP3    H2 6058   4.197   0.087   3.876 -1.2645 -3.3559 -2.2381
 2018TIP3   OH2 6059   3.230   5.154   0.959  0.3494  0.0211 -0.1065
 2018TIP3    H1 6060   3.135   5.151   0.946  0.5324  0.1898 -1.6113
 2018TIP3    H2 6061   3.247   5.241   0.993  0.0336  0.2580 -0.5429
 2019TIP3   OH2 6062   5.017   4.098   3.669 -0.0329 -0.8347  0.1122
 2019TIP3    H1 6063   4.956   4.025   3.675  0.5920 -1.2606  3.0313
 2019TIP3    H2 6064   5.000   4.150   3.748  1.6244  0.4715 -0.3155
 2020TIP3   OH2 6065   2.530   2.393   3.095 -0.4072 -0.3113  0.2796
 2020TIP3    H1 6066   2.547   2.379   3.188  0.7332  0.2462  0.1768
 2020TIP3    H2 6067   2.517   2.305   3.059  1.7636 -0.7729  0.5031
 2021TIP3   OH2 6068   0.793   0.720   0.232  0.3747 -0.6059 -0.5718
 2021TIP3    H1 6069   0.769   0.693   0.143  0.7883 -1.4964 -0.4237
 2021TIP3    H2 6070   0.885   0.743   0.226  0.5199 -1.0944 -0.2848
 2022TIP3   OH2 6071   5.909   0.846   1.349 -0.4857  0.5645  0.1053
 2022TIP3    H1 6072   5.820   0.815   1.367 -0.5193  0.2141 -0.6211
 2022TIP3    H2 6073   5.918   0.841   1.254  0.3519  0.4874  0.1754
 2023TIP3   OH2 6074   4.629   1.357   5.157 -0.5927 -0.1371 -0.2743
 2023TIP3    H1 6075   4.549   1.309   5.138 -1.1190  1.4038 -2.1995
 2023TIP3    H2 6076   4.642   1.346   5.251 -2.7703 -0.8258 -0.0139
 2024TIP3   OH2 6077   6.257   3.122   0.957 -0.5302  0.1249 -0.7664
 2024TIP3    H1 6078   6.325   3.189   0.954 -0.9966  0.6234 -0.4055
 2024TIP3    H2 6079   6.304   3.041   0.978 -0.4178  1.1000  3.8867
 2025TIP3   OH2 6080   5.089   1.073   0.311  0.0591  0.0457 -0.0718
 2025TIP3    H1 6081   5.130   1.036   0.389  1.6636  1.2071 -0.3104
 2025TIP3    H2 6082   5.119   1.019   0.238 -1.8230 -1.3377  0.0976
 2026TIP3   OH2 6083   4.910   4.181   4.719 -0.1734 -0.1214 -0.8161
 2026TIP3    H1 6084   4.944   4.181   4.630  0.0789 -4.3751 -0.9246
 2026TIP3    H2 6085   4.981   4.144   4.772 -1.1247  0.2161  0.7559
 2027TIP3   OH2 6086   0.766   2.193   3.688 -0.5297  0.0366  0.7843
 2027TIP3    H1 6087   0.813   2.259   3.739 -1.8371 -0.4852  2.7801
 2027TIP3    H2 6088   0.682   2.235   3.666 -0.6559 -0.3442  0.5305
 2028TIP3   OH2 6089   5.272   4.570   5.186  0.1739 -0.2820 -0.1738
 2028TIP3    H1 6090   5.229   4.522   5.257 -0.2672 -1.8152 -1.4089
 2028TIP3    H2 6091   5.255   4.517   5.108  0.6538  1.3404 -1.4326
 2029TIP3   OH2 6092   5.589   0.077   0.377 -0.8974  0.0538 -0.8595
 2029TIP3    H1 6093   5.535   0.022   0.321 -1.9806  0.4962 -0.2788
 2029TIP3    H2 6094   5.679   0.059   0.349 -1.3429 -0.6211 -1.9109
 2030TIP3   OH2 6095   3.553   5.371   4.743  0.1602  0.4690  0.4427
 2030TIP3    H1 6096   3.567   5.370   4.648 -0.8029  1.1078  0.2766
 2030TIP3    H2 6097   3.615   5.307   4.777  1.1884  0.9191 -0.5249
 2031TIP3   OH2 6098   0.258   3.362   4.755  0.3470  0.8620 -0.2130
 2031TIP3    H1 6099   0.219   3.446   4.730 -0.8172 -0.4666 -3.2746
 2031TIP3    H2 6100   0.297   3.328   4.674 -0.0518 -1.9825  0.6890
 2032TIP3   OH2 6101   5.222   5.827   4.255  0.4165  0.0639  0.1117
 2032TIP3    H1 6102   5.206   5.878   4.334 -0.0276 -1.4739  1.0435
 2032TIP3    H2 6103   5.304   5.781   4.271  0.5883  0.1201 -0.5437
 2033TIP3   OH2 6104   0.086   0.071   1.288 -0.0289 -0.4604 -0.1420
 2033TIP3    H1 6105   0.100   0.014   1.363  1.6069 -1.4606 -1.1534
 2033TIP3    H2 6106   0.028   0.022   1.230  0.4901 -0.6394 -0.5162
 2034TIP3   OH2 6107   2.723   1.010   0.297 -0.4182 -0.7302 -0.2033
 2034TIP3    H1 6108   2.779   0.956   0.242 -1.6012  2.0035 -4.5641
 2034TIP3    H2 6109   2.633   0.986   0.271 -1.0862  0.0706  1.2393
 2035TIP3   OH2 6110   4.637   2.768   2.847  0.2552  0.0766 -0.6801
 2035TIP3    H1 6111   4.647   2.694   2.908 -2.7691 -1.9086 -2.3434
 2035TIP3    H2 6112   4.605   2.840   2.902  0.7483 -0.6270  0.5846
 2036TIP3   OH2 6113   3.509   0.124   2.031 -0.3525  0.8377  0.1770
 2036TIP3    H1 6114   3.528   0.047   1.976  0.9032  1.0577  0.2617
 2036TIP3    H2 6115   3.569   0.191   1.999 -0.9834  1.5822  0.5401
 2037TIP3   OH2 6116   3.808   5.138   0.665 -0.0852 -0.1459 -0.6396
 2037TIP3    H1 6117   3.734   5.142   0.726 -0.6777 -0.2731 -1.3490
 2037TIP3    H2 6118   3.875   5.089   0.714  0.3181  1.6999  0.7942
 2038TIP3   OH2 6119   1.318   0.496   2.854 -0.1837 -0.1668 -0.1904
 2038TIP3    H1 6120   1.253   0.485   2.785  1.0995 -1.4034 -1.2547
 2038TIP3    H2 6121   1.314   0.589   2.876  0.1217  0.5031 -2.7112
 2039TIP3   OH2 6122   5.013   3.634   4.096  0.1749  0.0233 -0.1684
 2039TIP3    H1 6123   4.976   3.640   4.008  0.8083  0.6408 -0.4030
 2039TIP3    H2 6124   5.107   3.624   4.082  0.2765  0.1027  0.4414
 2040TIP3   OH2 6125   3.278   2.289   1.416  0.1585 -0.1765  0.1246
 2040TIP3    H1 6126   3.243   2.378   1.412 -1.0975 -0.6438  0.2891
 2040TIP3    H2 6127   3.369   2.298   1.387 -0.3433  0.9402 -1.2432
 2041TIP3   OH2 6128   2.527   2.263   0.917 -0.1860  0.3336 -0.2109
 2041TIP3    H1 6129   2.622   2.265   0.931  0.1791 -0.6841 -2.1359
 2041TIP3    H2 6130   2.507   2.345   0.873  0.0141  0.0298 -0.8755
 2042TIP3   OH2 6131   2.316   0.871   3.942  0.3857 -0.6036 -0.0025
 2042TIP3    H1 6132   2.287   0.934   3.876  0.6813 -1.1337 -0.6471
 2042TIP3    H2 6133   2.292   0.911   4.025  2.3887  1.3383 -0.2577
 2043TIP3   OH2 6134   1.234   1.360   0.784 -0.7025 -0.1806 -0.1669
 2043TIP3    H1 6135   1.253   1.454   0.780  1.0631 -0.4437  0.8685
 2043TIP3    H2 6136   1.301   1.320   0.729 -0.3863 -0.9304  0.7249
 2044TIP3   OH2 6137   6.025   3.573   0.353 -0.4132 -0.0083 -0.0268
 2044TIP3    H1 6138   5.993   3.566   0.443 -2.0377  0.3414 -0.5470
 2044TIP3    H2 6139   6.031   3.483   0.322 -1.8516 -0.0520 -0.2221
 2045TIP3   OH2 6140   4.115   2.841   3.443  0.3725  1.0512  0.4360
 2045TIP3    H1 6141   4.179   2.781   3.480  0.4768 -0.0274 -1.3717
 2045TIP3    H2 6142   4.154   2.928   3.456  1.3287  0.5584  1.0023
 2046TIP3   OH2 6143   0.398   1.792   1.156  0.1435 -0.4626  0.1130
 2046TIP3    H1 6144   0.391   1.885   1.131  2.2924 -0.0418  0.8950
 2046TIP3    H2 6145   0.358   1.745   1.083 -2.6306  1.0917  0.4875
 2047TIP3   OH2 6146   1.285   4.515   1.223 -0.0658 -0.4986  0.5287
 2047TIP3    H1 6147   1.260   4.430   1.186 -1.4754 -0.6389  1.7091
 2047TIP3    H2 6148   1.213   4.538   1.282 -0.2220  2.0289 -0.5106
 2048TIP3   OH2 6149   3.978   1.918   0.418 -0.0226  0.0342  0.0918
 2048TIP3    H1 6150   3.994   1.925   0.324 -1.0732  0.3856 -0.0826
 2048TIP3    H2 6151   4.062   1.894   0.456  0.6196  0.7727 -0.8413
 2049TIP3   OH2 6152   1.858   5.022   4.392 -0.3011 -0.0576 -0.1127
 2049TIP3    H1 6153   1.947   4.991   4.377  0.0874  0.3159  1.2479
 2049TIP3    H2 6154   1.865   5.117   4.390 -0.2917  0.0268  1.7017
 2050TIP3   OH2 6155   4.543   4.871   0.095  0.5756 -0.2804 -0.4662
 2050TIP3    H1 6156   4.526   4.958   0.059 -3.8111 -0.1616  1.2394
 2050TIP3    H2 6157   4.622   4.882   0.148  0.4062  2.5556 -0.6493
 2051TIP3   OH2 6158   4.169   4.749   3.643  0.1706 -0.3795 -0.4573
 2051TIP3    H1 6159   4.117   4.811   3.591  0.9780  1.0039  0.3422
 2051TIP3    H2 6160   4.112   4.672   3.651 -0.2042 -0.4235 -2.8677
 2052TIP3   OH2 6161   1.309   2.490   1.335 -0.4173  0.4015 -0.6160
 2052TIP3    H1 6162   1.370   2.516   1.266 -0.8854  0.9339 -0.8392
 2052TIP3    H2 6163   1.223   2.515   1.301 -0.7622 -0.3284 -0.3037
 2053TIP3   OH2 6164   0.624   1.364   2.838  0.0766 -0.6865 -0.2266
 2053TIP3    H1 6165   0.574   1.435   2.880 -0.8581 -1.0261 -0.7193
 2053TIP3    H2 6166   0.675   1.408   2.771  0.7398 -0.2805  0.5259
 2054TIP3   OH2 6167   1.125   1.893   0.660 -0.1391 -0.2471  0.2514
 2054TIP3    H1 6168   1.097   1.977   0.694 -0.6119 -0.3856  0.2034
 2054TIP3    H2 6169   1.048   1.857   0.616 -0.5034 -1.5183  1.8155
 2055TIP3   OH2 6170   4.889   0.520   5.103 -0.4121  0.0265  0.7578
 2055TIP3    H1 6171   4.930   0.522   5.017  1.1414 -0.7480  1.4271
 2055TIP3    H2 6172   4.820   0.586   5.099 -0.2364  0.1457 -0.9977
 2056TIP3   OH2 6173   5.111   3.296   3.846  0.0449  0.2524 -0.1595
 2056TIP3    H1 6174   5.113   3.381   3.890  0.1309  0.1243  0.0868
 2056TIP3    H2 6175   5.029   3.295   3.798  0.5559  0.9350 -1.0765
 2057TIP3   OH2 6176   0.749   4.631   2.176  0.0992 -0.5835  0.0330
 2057TIP3    H1 6177   0.663   4.603   2.146  1.2006 -1.9874 -1.9947
 2057TIP3    H2 6178   0.739   4.639   2.271 -1.9779 -1.6853 -0.0328
 2058TIP3   OH2 6179   6.079   0.684   1.498 -0.3879 -0.3233 -0.4239
 2058TIP3    H1 6180   6.028   0.661   1.575 -0.5858 -1.2605 -0.8122
 2058TIP3    H2 6181   6.028   0.753   1.454 -1.5433 -1.4885 -0.9984
 2059TIP3   OH2 6182   5.016   3.535   0.956 -0.2420  0.3615 -0.2808
 2059TIP3    H1 6183   5.022   3.535   0.861  1.7851 -0.6147 -0.2077
 2059TIP3    H2 6184   4.932   3.492   0.974 -0.7532  0.7476 -1.6012
 2060TIP3   OH2 6185   4.113   3.384   4.315 -0.1586 -0.4999 -0.4094
 2060TIP3    H1 6186   4.137   3.379   4.407  3.7572  1.7654 -1.0569
 2060TIP3    H2 6187   4.078   3.472   4.304  1.1837 -0.0488 -1.3391
 2061TIP3   OH2 6188   1.569   3.259   4.949  0.3227 -0.2822  0.0908
 2061TIP3    H1 6189   1.490   3.206   4.959 -1.4509  2.2673  0.7292
 2061TIP3    H2 6190   1.592   3.252   4.857 -2.0124  0.5937 -0.6260
 2062TIP3   OH2 6191   2.739   2.427   2.698 -0.5586 -0.5032  0.6079
 2062TIP3    H1 6192   2.651   2.449   2.726 -0.4712  0.4110  0.1905
 2062TIP3    H2 6193   2.796   2.492   2.739 -0.1329 -0.7804  0.4759
 2063TIP3   OH2 6194   2.621   1.544   4.810  0.2357  0.0052 -0.0106
 2063TIP3    H1 6195   2.564   1.511   4.741  1.1236 -1.6457  0.0019
 2063TIP3    H2 6196   2.703   1.497   4.798  1.1680  1.3531  0.7937
 2064TIP3   OH2 6197   1.907   5.272   4.274  0.4154 -0.1077  0.0440
 2064TIP3    H1 6198   1.850   5.349   4.279  0.1601 -0.3370  0.7930
 2064TIP3    H2 6199   1.987   5.305   4.233 -0.7894 -0.1278 -2.5368
 2065TIP3   OH2 6200   0.212   4.156   1.148  0.1813  0.6806 -0.2972
 2065TIP3    H1 6201   0.129   4.132   1.189 -0.1547  0.5440 -1.0466
 2065TIP3    H2 6202   0.187   4.214   1.076  0.4843 -1.3275 -2.1212
 2066TIP3   OH2 6203   1.293   3.335   1.327  0.4107 -0.5850 -0.0496
 2066TIP3    H1 6204   1.367   3.377   1.371 -0.0373 -0.6148  0.7467
 2066TIP3    H2 6205   1.265   3.398   1.261 -1.1422  1.0755  2.0402
 2067TIP3   OH2 6206   3.764   2.727   1.376 -0.0582 -0.0808  0.5916
 2067TIP3    H1 6207   3.776   2.785   1.451 -0.3724  1.2900 -0.3851
 2067TIP3    H2 6208   3.740   2.785   1.304  1.3497 -1.2144 -0.8740
 2068TIP3   OH2 6209   5.330   1.844   2.923  0.5094 -0.4173 -0.3892
 2068TIP3    H1 6210   5.361   1.922   2.968  1.0507 -0.1974 -1.1177
 2068TIP3    H2 6211   5.257   1.812   2.976  0.9132  0.0238  0.4412
 2069TIP3   OH2 6212   2.824   0.310   4.081 -0.4424  0.0050 -0.3169
 2069TIP3    H1 6213   2.786   0.396   4.102 -0.0973  0.2767 -0.7752
 2069TIP3    H2 6214   2.783   0.286   3.998 -2.4775 -1.4748  1.0141
 2070TIP3   OH2 6215   3.017   5.914   3.958 -0.2231  0.5743 -0.0945
 2070TIP3    H1 6216   2.967   5.995   3.954  0.2566  0.9805  1.5002
 2070TIP3    H2 6217   3.093   5.930   3.902  0.5017  1.7224  1.1712
 2071TIP3   OH2 6218   4.647   4.006   3.420  0.7726  0.0375 -0.0038
 2071TIP3    H1 6219   4.582   3.945   3.385 -0.4353  0.8761  0.6809
 2071TIP3    H2 6220   4.708   4.020   3.348  0.1690 -0.7365 -0.6917
 2072TIP3   OH2 6221   3.487   0.863   3.182 -0.5064 -0.4130  0.1976
 2072TIP3    H1 6222   3.453   0.945   3.145 -1.9281 -1.6360 -1.3412
 2072TIP3    H2 6223   3.580   0.864   3.161 -0.4117  1.0033  0.5939
 2073TIP3   OH2 6224   3.904   1.590   4.402 -0.0300 -0.2879  0.0412
 2073TIP3    H1 6225   3.932   1.546   4.321  0.3280  0.7655 -0.4186
 2073TIP3    H2 6226   3.951   1.544   4.471  0.2180 -0.7280 -0.4103
 2074TIP3   OH2 6227   5.781   3.877   1.664 -0.2459  0.3497 -0.0161
 2074TIP3    H1 6228   5.801   3.960   1.620  0.5130  0.1856 -0.0043
 2074TIP3    H2 6229   5.858   3.861   1.719  0.2103 -1.0020 -1.0020
 2075TIP3   OH2 6230   3.656   1.639   1.379 -0.0062 -0.7568 -0.0700
 2075TIP3    H1 6231   3.680   1.688   1.300 -1.2609 -0.8344 -0.5235
 2075TIP3    H2 6232   3.671   1.700   1.451  0.0043 -0.2731 -0.4779
 2076TIP3   OH2 6233   5.013   0.079   1.228 -0.4747 -0.1478  0.7828
 2076TIP3    H1 6234   5.053   0.112   1.308  1.8885 -2.4002  0.6885
 2076TIP3    H2 6235   5.019  -0.016   1.236 -1.9317 -0.4696 -1.2464
 2077TIP3   OH2 6236   1.182   2.025   1.330 -0.1697  0.4604 -0.0826
 2077TIP3    H1 6237   1.250   1.987   1.274 -0.3850  0.1999 -0.1705
 2077TIP3    H2 6238   1.221   2.106   1.363  2.2610 -2.0512  3.9839
 2078TIP3   OH2 6239   4.911   3.316   1.772  0.7762 -0.8465 -0.7186
 2078TIP3    H1 6240   4.828   3.292   1.732  1.1823 -2.1648 -0.8104
 2078TIP3    H2 6241   4.952   3.233   1.796  2.3388 -0.2616 -1.2205
 2079TIP3   OH2 6242   3.879   0.078   3.878  0.0938 -0.1032  0.1343
 2079TIP3    H1 6243   3.916   0.154   3.834  1.5489  0.5928  2.3781
 2079TIP3    H2 6244   3.890   0.006   3.815 -0.4528  1.2974 -1.6539
 2080TIP3   OH2 6245   3.867   2.319   2.199 -0.1157 -0.0182  0.6040
 2080TIP3    H1 6246   3.812   2.254   2.243 -1.2510 -0.3038 -1.1337
 2080TIP3    H2 6247   3.813   2.398   2.197 -0.2391 -0.1102 -0.5370
 2081TIP3   OH2 6248   6.290   1.048   2.210 -0.7771  0.0176 -0.2659
 2081TIP3    H1 6249   6.322   1.089   2.291  1.0136 -2.4556  0.3901
 2081TIP3    H2 6250   6.212   1.098   2.187  1.2352  3.7857  0.3725
 2082TIP3   OH2 6251   4.667   0.128   3.094 -0.2179 -0.1692 -0.1010
 2082TIP3    H1 6252   4.583   0.166   3.122  0.5955  1.1822  0.5945
 2082TIP3    H2 6253   4.678   0.159   3.004 -0.3392 -0.1231 -0.1002
 2083TIP3   OH2 6254   0.267   2.506   0.267 -0.0825 -0.5937  0.0240
 2083TIP3    H1 6255   0.362   2.504   0.274 -0.1912 -0.2008  3.1999
 2083TIP3    H2 6256   0.249   2.541   0.180  2.6346 -0.9584 -0.7560
 2084TIP3   OH2 6257   1.867   3.300   1.594  1.2362 -0.4863  0.0638
 2084TIP3    H1 6258   1.950   3.345   1.607  0.4814  0.3763  2.2537
 2084TIP3    H2 6259   1.816   3.360   1.540  1.1596  0.1444  0.8184
 2085TIP3   OH2 6260   0.289   0.918   3.433  0.5799  0.7349  0.3201
 2085TIP3    H1 6261   0.329   0.902   3.347 -0.3054  0.7866 -0.1157
 2085TIP3    H2 6262   0.243   1.002   3.422 -2.7479 -1.0173 -0.3841
 2086TIP3   OH2 6263   1.273   3.537   2.692  0.4717  0.2721  0.4525
 2086TIP3    H1 6264   1.297   3.626   2.717 -0.8814 -0.1187  3.6736
 2086TIP3    H2 6265   1.350   3.485   2.712  1.8487  0.7672 -2.9066
 2087TIP3   OH2 6266   0.569   0.979   5.147  0.1831  0.3932  0.8396
 2087TIP3    H1 6267   0.654   0.991   5.189  0.2371  0.0676  0.8262
 2087TIP3    H2 6268   0.575   0.893   5.105  0.5734  1.2188 -0.8821
 2088TIP3   OH2 6269   0.326   1.308   4.809 -0.2057 -0.4716 -0.2329
 2088TIP3    H1 6270   0.374   1.358   4.874 -2.0647  0.4016  0.5361
 2088TIP3    H2 6271   0.326   1.218   4.842  1.4341 -0.6413 -0.6114
 2089TIP3   OH2 6272   0.559   2.969   1.988  0.1696 -0.6072 -0.1086
 2089TIP3    H1 6273   0.606   2.903   2.039  2.1989  1.4549  0.8862
 2089TIP3    H2 6274   0.627   3.010   1.935 -1.0185  0.7024 -0.6727
 2090TIP3   OH2 6275   2.721   0.030   0.807  0.1040 -0.6491 -0.6606
 2090TIP3    H1 6276   2.760   0.094   0.747  0.3635  0.6377  0.8023
 2090TIP3    H2 6277   2.754  -0.055   0.778  1.2473  0.0702 -1.5375
 2091TIP3   OH2 6278   2.922   4.790   2.676 -0.6194 -0.7909 -0.4935
 2091TIP3    H1 6279   2.940   4.848   2.603  1.6505  0.9366  1.2900
 2091TIP3    H2 6280   2.834   4.815   2.705 -0.2157  0.8810 -0.5927
 2092TIP3   OH2 6281   4.659   4.686   1.155 -0.0245  0.2125 -0.2118
 2092TIP3    H1 6282   4.569   4.670   1.127 -0.3698 -2.1176  1.8578
 2092TIP3    H2 6283   4.708   4.698   1.073 -2.0492  0.6854 -1.4171
 2093TIP3   OH2 6284   3.272   2.338   0.631 -0.3784  0.1278  0.1726
 2093TIP3    H1 6285   3.241   2.355   0.720 -1.1636 -1.1136  0.1462
 2093TIP3    H2 6286   3.339   2.271   0.641  0.2341  0.6824 -0.0908
 2094TIP3   OH2 6287   4.547   5.831   3.085  0.7078  0.3026  0.2168
 2094TIP3    H1 6288   4.620   5.850   3.144  1.1814  1.8267 -0.8103
 2094TIP3    H2 6289   4.551   5.737   3.071  1.4518  0.1224  1.4735
 2095TIP3   OH2 6290   6.242   2.994   3.933  0.0584  0.4860  0.0985
 2095TIP3    H1 6291   6.242   3.084   3.967 -1.2962  0.5652 -0.0365
 2095TIP3    H2 6292   6.267   3.003   3.841 -0.2388  0.7613  0.0395
 2096TIP3   OH2 6293   3.500   1.343   1.077  0.2831  0.0184 -0.5822
 2096TIP3    H1 6294   3.416   1.389   1.089 -0.3237 -1.1428 -0.2418
 2096TIP3    H2 6295   3.491   1.263   1.128  0.8377 -1.0830 -2.1430
 2097TIP3   OH2 6296   2.453   5.383   1.297  0.1095 -0.5593  0.8469
 2097TIP3    H1 6297   2.451   5.293   1.330 -0.0153 -1.1574 -0.6876
 2097TIP3    H2 6298   2.366   5.395   1.257  0.4122 -0.0541  0.3284
 2098TIP3   OH2 6299   4.308   5.509   3.372 -0.8298  0.2402  0.0163
 2098TIP3    H1 6300   4.369   5.474   3.437 -0.1300  2.4918  0.6611
 2098TIP3    H2 6301   4.233   5.538   3.424 -1.4568 -0.4019 -0.5186
 2099TIP3   OH2 6302   2.651   0.294   2.489 -0.1665  0.5070 -0.2790
 2099TIP3    H1 6303   2.662   0.344   2.569  0.7823  0.1707 -0.1830
 2099TIP3    H2 6304   2.715   0.331   2.429 -1.7656  1.6581 -1.3687
 2100TIP3   OH2 6305   0.363   0.801   4.972  0.0411  0.0905  0.4216
 2100TIP3    H1 6306   0.457   0.798   4.954  0.3469 -0.2675  1.9477
 2100TIP3    H2 6307   0.342   0.894   4.972  0.2844  0.1523 -0.4467
 2101TIP3   OH2 6308   0.059   0.307   1.416 -0.0951 -0.3182  0.1015
 2101TIP3    H1 6309  -0.007   0.371   1.390  0.8574  1.0692  0.9376
 2101TIP3    H2 6310   0.055   0.239   1.348 -0.4817  1.1046 -1.3622
 2102TIP3   OH2 6311   5.538   2.545   0.093  0.4434  0.1002 -0.4003
 2102TIP3    H1 6312   5.465   2.586   0.046  1.1001 -0.0652 -1.6143
 2102TIP3    H2 6313   5.605   2.613   0.098 -0.0871  0.5395  1.5102
 2103TIP3   OH2 6314   1.734   5.930   2.394  0.0651  0.2485  0.3107
 2103TIP3    H1 6315   1.683   5.884   2.460  1.8775 -1.2777  0.7099
 2103TIP3    H2 6316   1.668   5.970   2.337 -1.5800 -1.5076  0.8713
 2104TIP3   OH2 6317   3.198   5.940   2.342 -0.1243 -0.4548  0.3491
 2104TIP3    H1 6318   3.166   6.029   2.326 -0.4644 -0.6447 -0.0507
 2104TIP3    H2 6319   3.241   5.945   2.427 -1.1141 -0.1622  0.8553
 2105TIP3   OH2 6320   1.868   4.388   5.088 -0.0421  0.1535 -0.0319
 2105TIP3    H1 6321   1.843   4.417   5.000  0.4882  1.2941  0.1769
 2105TIP3    H2 6322   1.905   4.466   5.129  0.4177 -0.5609  0.9437
 2106TIP3   OH2 6323   2.670   0.520   1.494 -0.1091 -0.4870 -0.2441
 2106TIP3    H1 6324   2.585   0.480   1.475  0.3875 -1.0485 -1.3625
 2106TIP3    H2 6325   2.663   0.546   1.586 -2.6450  2.4118 -1.0825
 2107TIP3   OH2 6326   5.394   0.108   1.066 -0.3442 -0.5391 -0.2979
 2107TIP3    H1 6327   5.400   0.203   1.055 -0.9161 -0.3485  0.9731
 2107TIP3    H2 6328   5.441   0.073   0.990 -0.0900  0.7513 -0.7626
 2108TIP3   OH2 6329   1.531   3.854   4.647 -0.0900  0.5626 -0.2231
 2108TIP3    H1 6330   1.459   3.805   4.606  0.7276 -0.8868  0.0214
 2108TIP3    H2 6331   1.513   3.847   4.741  1.3188 -1.4019 -0.0503
 2109TIP3   OH2 6332   3.492   3.494   0.533  0.0130  0.3278 -0.5120
 2109TIP3    H1 6333   3.534   3.434   0.595 -0.5838 -0.6262 -1.0054
 2109TIP3    H2 6334   3.553   3.498   0.459 -0.2243 -0.1399 -0.7328
 2110TIP3   OH2 6335   2.718   2.953   4.313 -0.2965 -0.2167  0.3523
 2110TIP3    H1 6336   2.764   2.996   4.384  2.2722  0.7722 -1.7545
 2110TIP3    H2 6337   2.787   2.919   4.256 -2.0833  1.3447 -3.0096
 2111TIP3   OH2 6338   5.916   0.082   0.582  0.2007  0.4020  0.3129
 2111TIP3    H1 6339   5.878  -0.002   0.555  0.0669  0.9225 -1.2096
 2111TIP3    H2 6340   6.008   0.061   0.602  1.2106  0.3922 -3.5019
 2112TIP3   OH2 6341   6.104   2.629   0.668  0.0516 -0.6808  0.0738
 2112TIP3    H1 6342   6.021   2.585   0.651 -0.7434  0.7839 -0.0150
 2112TIP3    H2 6343   6.083   2.722   0.665  1.7899 -0.2584 -0.3834
 2113TIP3   OH2 6344   2.614   0.251   2.898  0.0434 -0.0662 -0.0670
 2113TIP3    H1 6345   2.560   0.324   2.866  0.1776  0.3134  0.5507
 2113TIP3    H2 6346   2.694   0.255   2.845  1.3848  2.1556  1.9411
 2114TIP3   OH2 6347   2.491   4.393   0.093 -0.4548 -0.4861 -0.0601
 2114TIP3    H1 6348   2.584   4.415   0.089  0.0239 -1.7296  2.6061
 2114TIP3    H2 6349   2.448   4.476   0.115 -0.3040  0.5071 -2.9814
 2115TIP3   OH2 6350   4.886   5.637   4.024  0.0684  0.0639  0.5856
 2115TIP3    H1 6351   4.857   5.696   3.955 -0.5675  0.3062  1.0520
 2115TIP3    H2 6352   4.939   5.571   3.979 -0.2757  0.2630 -0.1179
 2116TIP3   OH2 6353   5.685   3.937   2.924  0.1046 -0.2019 -0.7685
 2116TIP3    H1 6354   5.633   3.876   2.976 -1.3809  1.2006 -0.5165
 2116TIP3    H2 6355   5.674   4.022   2.969  2.3810  0.2200 -0.8970
 2117TIP3   OH2 6356   1.549   1.930   0.290  0.3482  0.3099 -1.1214
 2117TIP3    H1 6357   1.591   1.892   0.367  0.8305 -0.3818 -1.7139
 2117TIP3    H2 6358   1.455   1.928   0.311  0.3939 -0.8458 -0.9627
 2118TIP3   OH2 6359   1.872   4.974   3.707  0.5402 -0.4314  0.5538
 2118TIP3    H1 6360   1.830   5.051   3.668  0.9792 -0.3036  0.3248
 2118TIP3    H2 6361   1.965   4.996   3.708  0.5750 -0.5706  1.3638
 2119TIP3   OH2 6362   5.470   2.053   0.168  0.2513 -0.7631 -0.0577
 2119TIP3    H1 6363   5.462   2.017   0.080 -0.4366  2.7285 -1.5867
 2119TIP3    H2 6364   5.382   2.048   0.205 -0.3319  1.1583 -1.1007
 2120TIP3   OH2 6365   3.166   2.535   1.470  0.1905  0.0489 -0.3403
 2120TIP3    H1 6366   3.218   2.557   1.548 -0.7412 -0.2953  0.4090
 2120TIP3    H2 6367   3.075   2.548   1.498 -0.2103 -0.9765 -1.0832
 2121TIP3   OH2 6368   3.256   0.928   4.759  0.7756 -0.6762  0.2184
 2121TIP3    H1 6369   3.172   0.949   4.799  1.1246 -0.8118  1.0552
 2121TIP3    H2 6370   3.259   0.832   4.759  0.2090 -0.7312 -1.4006
 2122TIP3   OH2 6371   1.925   3.143   3.748 -0.3075  0.1626  0.0743
 2122TIP3    H1 6372   1.992   3.078   3.725  0.6008  1.1524 -0.1293
 2122TIP3    H2 6373   1.855   3.128   3.685 -1.5028 -2.5849  1.8217
 2123TIP3   OH2 6374   0.215   2.861   1.581 -0.0998 -0.1509  0.2725
 2123TIP3    H1 6375   0.218   2.779   1.631 -0.3912  0.6475  1.6386
 2123TIP3    H2 6376   0.213   2.833   1.489 -0.4060 -1.6774  0.7219
 2124TIP3   OH2 6377   0.733   0.364   1.660 -0.2417  0.5724 -0.0970
 2124TIP3    H1 6378   0.673   0.292   1.681  0.0759 -0.7922 -3.2007
 2124TIP3    H2 6379   0.680   0.424   1.608  0.1973  1.1896  0.1630
 2125TIP3   OH2 6380   0.583   3.838   4.407 -0.0210 -0.3167 -0.5318
 2125TIP3    H1 6381   0.555   3.820   4.317  0.8700 -1.5691 -0.5845
 2125TIP3    H2 6382   0.539   3.919   4.430 -0.5381 -0.1590 -1.9819
 2126TIP3   OH2 6383   1.627   0.266   0.952  0.2917  0.4914 -0.2083
 2126TIP3    H1 6384   1.543   0.294   0.916  0.4632  0.1830 -0.8675
 2126TIP3    H2 6385   1.685   0.260   0.875  0.4577 -0.9599  0.0115
 2127TIP3   OH2 6386   1.386   4.674   4.806  0.2382 -0.0821 -0.2057
 2127TIP3    H1 6387   1.335   4.613   4.752  0.0677 -1.7240  1.6951
 2127TIP3    H2 6388   1.322   4.738   4.836 -0.3567 -1.0297  0.6162
 2128TIP3   OH2 6389   1.340   1.238   0.147 -0.4585 -0.2081  0.1173
 2128TIP3    H1 6390   1.328   1.292   0.068  1.7196 -1.1079 -0.9306
 2128TIP3    H2 6391   1.265   1.259   0.202 -0.5056  2.7356 -0.8862
 2129TIP3   OH2 6392   4.925   3.594   3.456  0.3247 -0.6414  0.3202
 2129TIP3    H1 6393   4.932   3.690   3.459 -1.2484 -0.5115  0.8955
 2129TIP3    H2 6394   4.997   3.567   3.398  1.5756  0.7749  1.1104
 2130TIP3   OH2 6395   5.448   5.345   4.934 -0.3929  0.2173 -0.0209
 2130TIP3    H1 6396   5.400   5.401   4.873 -1.1000  1.2271  1.4079
 2130TIP3    H2 6397   5.409   5.258   4.922  0.0557  0.2114 -1.5736
 2131TIP3   OH2 6398   5.974   2.660   3.016  0.3197  0.0727  0.4634
 2131TIP3    H1 6399   6.024   2.703   3.085  0.2907 -0.1827  0.6463
 2131TIP3    H2 6400   5.915   2.601   3.062  1.5320 -1.4336  0.1925
 2132TIP3   OH2 6401   2.700   5.773   3.723  0.2132  0.0938 -0.0840
 2132TIP3    H1 6402   2.610   5.761   3.755  0.0235  0.8110 -0.3423
 2132TIP3    H2 6403   2.744   5.820   3.794  1.0369 -2.2047  1.0494
 2133TIP3   OH2 6404   2.585   5.651   2.423  0.1750  0.0219  0.0316
 2133TIP3    H1 6405   2.499   5.645   2.464 -0.4453 -1.9124 -1.4109
 2133TIP3    H2 6406   2.647   5.636   2.494 -0.5959  1.8888  1.1864
 2134TIP3   OH2 6407   3.768   4.596   1.107 -0.0627 -0.4269  0.0803
 2134TIP3    H1 6408   3.810   4.678   1.131  1.0175  0.1372 -3.1662
 2134TIP3    H2 6409   3.799   4.579   1.018 -4.2325 -1.6611 -1.3739
 2135TIP3   OH2 6410   3.859   5.299   2.119 -0.3262 -0.0702  0.2820
 2135TIP3    H1 6411   3.875   5.359   2.047 -0.6424  0.1009  0.3503
 2135TIP3    H2 6412   3.772   5.323   2.151 -0.1514 -0.0845  0.7751
 2136TIP3   OH2 6413   0.144   2.241   2.788  0.5028 -0.5879 -0.3628
 2136TIP3    H1 6414   0.184   2.272   2.706  0.0384 -0.7292 -0.6427
 2136TIP3    H2 6415   0.110   2.320   2.829 -0.1298 -0.6376 -0.7788
 2137TIP3   OH2 6416   0.074   2.418   0.441  0.3727 -0.1255 -0.3186
 2137TIP3    H1 6417   0.141   2.430   0.374  0.0967  0.9451 -0.4210
 2137TIP3    H2 6418   0.047   2.326   0.432  0.6840 -0.1284 -1.3412
 2138TIP3   OH2 6419   4.719   5.425   3.737  0.1768 -0.1549 -0.3008
 2138TIP3    H1 6420   4.690   5.392   3.652  1.3764 -0.3792 -0.6495
 2138TIP3    H2 6421   4.652   5.397   3.798 -0.6984 -0.0087 -1.1696
 2139TIP3   OH2 6422   4.016   4.780   0.693 -0.5108 -0.5666  0.2299
 2139TIP3    H1 6423   3.949   4.798   0.628 -1.4567 -1.9213  0.7844
 2139TIP3    H2 6424   4.001   4.844   0.762 -1.2566 -0.8837  0.3637
 2140TIP3   OH2 6425   0.723   5.470   3.550 -0.0650  0.2571  0.5526
 2140TIP3    H1 6426   0.638   5.441   3.581 -0.4875  0.8108 -0.0577
 2140TIP3    H2 6427   0.704   5.551   3.501  1.0085  1.3999  1.9349
 2141TIP3   OH2 6428   6.042   3.858   4.073 -0.0537  0.1713 -0.1138
 2141TIP3    H1 6429   5.957   3.900   4.088  0.3255  0.4774  1.2573
 2141TIP3    H2 6430   6.074   3.837   4.160 -1.2249 -5.1323 -0.5907
 2142TIP3   OH2 6431   2.978   0.019   1.474  0.7151 -0.3404 -0.2450
 2142TIP3    H1 6432   3.044   0.068   1.424  1.1824  0.5608  1.1875
 2142TIP3    H2 6433   2.896   0.065   1.455  0.4328 -1.5142 -2.0985
 2143TIP3   OH2 6434   1.405   5.751   4.792  0.1639 -0.2496  0.0032
 2143TIP3    H1 6435   1.495   5.767   4.765 -0.8341  0.6180 -3.2806
 2143TIP3    H2 6436   1.390   5.658   4.771  0.2658 -0.3869  0.5237
 2144TIP3   OH2 6437   3.729   1.462   3.949 -0.0414 -0.1693  0.0109
 2144TIP3    H1 6438   3.728   1.524   3.875 -2.1160  0.0614  0.1750
 2144TIP3    H2 6439   3.744   1.377   3.909  0.1832  0.1085 -0.5109
 2145TIP3   OH2 6440   1.935   1.739   1.688 -0.0810 -0.0350 -0.5896
 2145TIP3    H1 6441   1.902   1.817   1.732 -0.8411 -0.1746 -0.8927
 2145TIP3    H2 6442   1.944   1.674   1.759  0.7665  0.3859 -0.3027
 2146TIP3   OH2 6443   0.086   2.873   1.331 -0.1350  0.0383 -0.1651
 2146TIP3    H1 6444   0.038   2.954   1.313 -0.7153 -0.1770  0.3833
 2146TIP3    H2 6445   0.146   2.863   1.257  0.4736  1.3680  0.1106
 2147TIP3   OH2 6446   3.289   5.568   0.793  0.4337 -0.2889 -0.1601
 2147TIP3    H1 6447   3.263   5.569   0.701  0.1767 -1.7984 -0.1248
 2147TIP3    H2 6448   3.282   5.660   0.821 -2.8241 -0.2733 -0.6935
 2148TIP3   OH2 6449   3.393   2.519   0.458 -0.0033 -0.0618 -0.7718
 2148TIP3    H1 6450   3.350   2.473   0.531  1.0022 -0.3367 -0.3314
 2148TIP3    H2 6451   3.362   2.474   0.380 -0.1072 -0.6016 -0.4270
 2149TIP3   OH2 6452   4.172   1.648   3.435 -0.1728  0.3927 -0.3213
 2149TIP3    H1 6453   4.241   1.587   3.409 -0.7182 -1.3013  1.9116
 2149TIP3    H2 6454   4.114   1.597   3.491 -2.6450  2.0782 -1.1623
 2150TIP3   OH2 6455   0.476   0.512   5.182 -0.1863 -0.8672  0.2701
 2150TIP3    H1 6456   0.489   0.539   5.091  0.0507  0.4084  0.6502
 2150TIP3    H2 6457   0.436   0.425   5.177  1.3091 -1.5130 -1.0250
 2151TIP3   OH2 6458   6.232   5.625   1.199  0.3130 -0.3255  0.3389
 2151TIP3    H1 6459   6.202   5.535   1.199 -0.7108 -0.0785  3.4456
 2151TIP3    H2 6460   6.327   5.619   1.212  0.2639 -0.9240  0.4374
 2152TIP3   OH2 6461   3.719   4.692   4.812  0.0772  0.1059 -0.1026
 2152TIP3    H1 6462   3.783   4.759   4.836  1.3626 -0.3482 -1.9971
 2152TIP3    H2 6463   3.681   4.723   4.730 -0.6453 -0.6295 -0.0589
 2153TIP3   OH2 6464   5.990   3.368   4.439  0.1812  0.1455  0.1719
 2153TIP3    H1 6465   6.030   3.374   4.352  3.4627 -1.4912  1.3951
 2153TIP3    H2 6466   6.022   3.446   4.485  0.5004 -0.2727  0.6577
 2154TIP3   OH2 6467   3.462   2.592   3.511  0.4803  0.1217 -0.3047
 2154TIP3    H1 6468   3.431   2.503   3.492  0.3999  0.2946 -1.0013
 2154TIP3    H2 6469   3.557   2.587   3.496  0.2477  0.6132 -2.2690
 2155TIP3   OH2 6470   6.124   4.309   5.050 -0.6746  0.0652  0.1332
 2155TIP3    H1 6471   6.094   4.383   4.997  0.9989  1.6362  1.2567
 2155TIP3    H2 6472   6.063   4.306   5.123  0.7993  2.2089  1.5581
 2156TIP3   OH2 6473   2.445   0.321   0.482  0.3720 -0.1904  0.2412
 2156TIP3    H1 6474   2.472   0.378   0.554  0.3334  0.6820 -0.4222
 2156TIP3    H2 6475   2.379   0.263   0.521 -0.2271  0.7960  0.7284
 2157TIP3   OH2 6476   2.031   0.834   1.586  0.2838 -0.0540 -0.1664
 2157TIP3    H1 6477   1.952   0.829   1.533  1.9141 -0.8258 -2.6731
 2157TIP3    H2 6478   2.056   0.926   1.584 -0.4272  0.1723  0.5371
 2158TIP3   OH2 6479   6.222   4.927   2.945 -0.1382  0.3240 -0.2841
 2158TIP3    H1 6480   6.289   4.884   2.891  0.9902 -0.1566  1.4027
 2158TIP3    H2 6481   6.169   4.856   2.979 -1.0513  0.6482 -0.9952
 2159TIP3   OH2 6482   6.115   0.280   4.657 -0.4767  0.1283 -0.3154
 2159TIP3    H1 6483   6.036   0.333   4.666  0.5474  1.5337  0.6683
 2159TIP3    H2 6484   6.160   0.316   4.581 -0.4579 -0.2428 -0.4825
 2160TIP3   OH2 6485   1.795   4.790   4.127 -0.1237 -0.6511  0.1037
 2160TIP3    H1 6486   1.713   4.835   4.111 -0.0682 -0.7296 -0.4279
 2160TIP3    H2 6487   1.859   4.860   4.141 -0.3767 -0.5948  1.0617
 2161TIP3   OH2 6488   1.784   1.771  -0.003  0.7099  0.4951 -0.4836
 2161TIP3    H1 6489   1.813   1.723   0.074  0.0875  1.2173  0.2047
 2161TIP3    H2 6490   1.709   1.722  -0.036  0.2382  0.8440  0.0660
 2162TIP3   OH2 6491   1.500   4.272   2.768  0.3458  0.1406  0.5407
 2162TIP3    H1 6492   1.507   4.321   2.686  0.6247 -0.5136  0.1677
 2162TIP3    H2 6493   1.590   4.266   2.800  0.2941 -0.0116  0.6577
 2163TIP3   OH2 6494   4.386   4.625   1.168  0.3002 -0.5026  0.5336
 2163TIP3    H1 6495   4.307   4.628   1.223  1.1142 -1.8886  1.8654
 2163TIP3    H2 6496   4.385   4.538   1.129 -0.1392  0.3897 -1.5480
 2164TIP3   OH2 6497   0.275   1.696   0.919  0.2067  0.6153  0.2706
 2164TIP3    H1 6498   0.263   1.756   0.846 -0.4835  0.5613  0.3321
 2164TIP3    H2 6499   0.319   1.620   0.880 -1.1848  0.0928 -0.3578
 2165TIP3   OH2 6500   2.342   0.861   2.281 -0.1551  0.0650  0.2522
 2165TIP3    H1 6501   2.248   0.863   2.299 -0.6428  0.5260 -2.0355
 2165TIP3    H2 6502   2.353   0.792   2.215  1.1310 -0.0529  0.5551
 2166TIP3   OH2 6503   4.632   3.377   0.315 -0.5376 -0.2203  0.4534
 2166TIP3    H1 6504   4.579   3.307   0.278 -0.7902  0.2389 -0.0711
 2166TIP3    H2 6505   4.574   3.422   0.376 -0.4718 -0.2682  0.5525
 2167TIP3   OH2 6506   4.281   2.177   0.638 -0.0028  0.1570  0.1349
 2167TIP3    H1 6507   4.254   2.255   0.590  1.2554 -0.1606 -1.1693
 2167TIP3    H2 6508   4.375   2.188   0.651  0.5659 -1.8579 -1.6066
 2168TIP3   OH2 6509   3.012   5.447   3.456 -0.7990  0.3367 -0.2251
 2168TIP3    H1 6510   3.007   5.389   3.380  0.9252  0.4137 -0.4467
 2168TIP3    H2 6511   3.098   5.489   3.448  0.7273 -1.7004  3.1769
 2169TIP3   OH2 6512   6.297   2.974   1.872  0.1716 -0.1335  0.3218
 2169TIP3    H1 6513   6.276   2.917   1.798  1.5723 -1.9057  1.1946
 2169TIP3    H2 6514   6.320   2.914   1.943 -0.5093  1.5189  2.0268
 2170TIP3   OH2 6515   2.040   5.809   1.668  0.2117  0.4780  0.5563
 2170TIP3    H1 6516   1.945   5.817   1.670 -0.0447 -1.1558 -1.5284
 2170TIP3    H2 6517   2.059   5.735   1.726  0.3266  1.3383  1.6438
 2171TIP3   OH2 6518   2.561   1.769   2.969  0.0715  0.4170  0.8009
 2171TIP3    H1 6519   2.633   1.709   2.948  0.9704  1.3854  1.0532
 2171TIP3    H2 6520   2.493   1.747   2.906  1.2813  0.7043 -0.6798
 2172TIP3   OH2 6521   4.520   1.140   1.463  0.1342  0.1465 -0.0077
 2172TIP3    H1 6522   4.587   1.204   1.487  0.5741 -0.1055 -0.5287
 2172TIP3    H2 6523   4.437   1.186   1.478  0.3289 -0.1664  2.4390
 2173TIP3   OH2 6524   1.051   3.873   3.889 -0.1911  0.4243 -0.7563
 2173TIP3    H1 6525   1.120   3.867   3.956  0.5152  0.6394 -1.4400
 2173TIP3    H2 6526   0.983   3.927   3.930  0.8866  1.8373 -0.7181
 2174TIP3   OH2 6527   4.130   3.658   0.795  0.4102  0.2227  0.0920
 2174TIP3    H1 6528   4.105   3.638   0.885  0.8675  1.5703  0.5488
 2174TIP3    H2 6529   4.076   3.734   0.772 -0.3746 -0.6826 -1.1100
 2175TIP3   OH2 6530   5.070   4.658   1.785  0.2174 -0.8047  0.3298
 2175TIP3    H1 6531   5.144   4.631   1.839  0.3770 -0.1661  0.4324
 2175TIP3    H2 6532   5.052   4.582   1.729  0.3776 -1.2820  0.9181
 2176TIP3   OH2 6533   5.366   2.008   4.170  0.1017  0.5897  0.0602
 2176TIP3    H1 6534   5.293   1.990   4.112  0.8035  1.0349 -0.9964
 2176TIP3    H2 6535   5.382   1.926   4.216  1.2094 -0.6232 -2.3267
 2177TIP3   OH2 6536   1.057   3.863   1.471 -0.6120  0.2104  0.0007
 2177TIP3    H1 6537   1.030   3.773   1.455 -0.6439  0.0743  0.8248
 2177TIP3    H2 6538   0.974   3.912   1.475 -0.5806  0.3483 -0.8255
 2178TIP3   OH2 6539   5.325   5.229   5.189 -0.5147  0.1900  0.1873
 2178TIP3    H1 6540   5.359   5.238   5.100  1.0453  1.2060  0.8470
 2178TIP3    H2 6541   5.267   5.153   5.185  0.9873 -0.9619 -1.2855
 2179TIP3   OH2 6542   1.936   4.035   3.650  0.0071 -0.3684  0.2021
 2179TIP3    H1 6543   1.994   3.959   3.655 -0.0819 -0.4096  0.6808
 2179TIP3    H2 6544   1.861   4.012   3.704  0.3144  0.3425  0.9653
 2180TIP3   OH2 6545   3.271   2.711   3.917  0.0690 -0.5079 -0.3663
 2180TIP3    H1 6546   3.234   2.657   3.847  0.9732 -2.2569  0.4724
 2180TIP3    H2 6547   3.365   2.712   3.899  0.0913  0.7593 -0.3099
 2181TIP3   OH2 6548   4.766   2.425   2.898  0.1204  0.1714  0.5505
 2181TIP3    H1 6549   4.763   2.477   2.818  0.7044  2.0306  1.6623
 2181TIP3    H2 6550   4.840   2.461   2.947 -0.6395 -0.4402  2.2253
 2182TIP3   OH2 6551   6.295   1.325   3.017  0.7290 -0.2406  0.3880
 2182TIP3    H1 6552   6.323   1.293   3.103 -0.0682 -1.5408  0.1940
 2182TIP3    H2 6553   6.355   1.283   2.956 -0.6711 -1.9116  0.0856
 2183TIP3   OH2 6554   2.742   4.649   0.624 -0.2364  0.1460 -0.1482
 2183TIP3    H1 6555   2.687   4.629   0.548 -2.1935 -0.7842  1.4201
 2183TIP3    H2 6556   2.758   4.564   0.665 -0.9664  0.8125  1.6054
 2184TIP3   OH2 6557   0.636   4.567   3.209 -0.1097  0.1752  0.5820
 2184TIP3    H1 6558   0.715   4.538   3.163  0.4924  3.3920 -0.6948
 2184TIP3    H2 6559   0.584   4.488   3.220  2.7115 -1.8677  0.3513
 2185TIP3   OH2 6560   4.544   3.724   1.742 -0.2447 -0.0253  0.2110
 2185TIP3    H1 6561   4.520   3.648   1.690 -2.4543  0.1102  0.9319
 2185TIP3    H2 6562   4.640   3.730   1.733 -0.3549 -0.9712 -2.4005
 2186TIP3   OH2 6563   3.221   0.509   2.795 -0.1632  0.0988  0.0791
 2186TIP3    H1 6564   3.278   0.586   2.802 -1.4608  1.1227 -0.1720
 2186TIP3    H2 6565   3.281   0.435   2.790  1.1205  1.0483  0.8089
 2187TIP3   OH2 6566   2.887   0.845   3.676  0.0828 -0.2007 -0.3090
 2187TIP3    H1 6567   2.929   0.784   3.737  1.1402 -0.4268 -1.2538
 2187TIP3    H2 6568   2.838   0.789   3.616 -1.1506  0.0345  0.4282
 2188TIP3   OH2 6569   5.058   3.793   4.453 -0.4353 -0.0009  0.4401
 2188TIP3    H1 6570   5.064   3.698   4.461 -0.2790  0.0895  1.5577
 2188TIP3    H2 6571   5.138   3.825   4.495 -0.1613  0.6081 -0.5240
 2189TIP3   OH2 6572   4.170   0.260   4.917 -0.0169  0.3919 -0.4689
 2189TIP3    H1 6573   4.211   0.324   4.859  2.0570 -0.1198  0.3481
 2189TIP3    H2 6574   4.121   0.314   4.980  1.8202  1.2243  0.3020
 2190TIP3   OH2 6575   3.378   4.641   4.845  0.4806 -0.4692 -0.5816
 2190TIP3    H1 6576   3.283   4.644   4.837  0.5251 -1.0111 -1.5608
 2190TIP3    H2 6577   3.408   4.725   4.810  0.2355  1.5359  3.4579
 2191TIP3   OH2 6578   2.505   4.759   2.205  0.3625 -0.4468 -0.0139
 2191TIP3    H1 6579   2.455   4.817   2.263 -1.0045 -0.9540 -0.6425
 2191TIP3    H2 6580   2.588   4.744   2.252  1.8377  3.7857 -0.7774
 2192TIP3   OH2 6581   5.132   3.981   3.928 -0.4915 -0.6448 -0.0035
 2192TIP3    H1 6582   5.220   4.009   3.954 -1.2282 -0.3026  2.3768
 2192TIP3    H2 6583   5.085   4.063   3.911 -0.6455 -0.7748 -0.2083
 2193TIP3   OH2 6584   2.680  -0.018   1.616 -0.0037 -0.3354 -0.0262
 2193TIP3    H1 6585   2.739   0.026   1.677  0.7402  0.8353 -1.5229
 2193TIP3    H2 6586   2.659   0.048   1.550 -1.4825 -1.2956 -0.5792
 2194TIP3   OH2 6587   2.610   0.330   1.160  0.3128 -0.1480  0.1307
 2194TIP3    H1 6588   2.591   0.281   1.081 -0.4644 -0.2444  0.3621
 2194TIP3    H2 6589   2.526   0.370   1.184  0.7372  0.5992  0.4140
 2195TIP3   OH2 6590   2.197   5.180   4.375  0.2458  0.0346 -0.0198
 2195TIP3    H1 6591   2.118   5.209   4.421  1.4162  1.0244  1.4466
 2195TIP3    H2 6592   2.238   5.260   4.344 -1.0090 -0.6064 -3.8900
 2196TIP3   OH2 6593   2.403   0.391   4.422 -0.3651 -0.0654  0.4280
 2196TIP3    H1 6594   2.418   0.426   4.334  0.0986 -1.2354  0.0269
 2196TIP3    H2 6595   2.486   0.404   4.468 -0.5363  0.3374  0.6320
 2197TIP3   OH2 6596   2.388   3.714   4.221 -0.4966  1.0627  0.1232
 2197TIP3    H1 6597   2.431   3.771   4.285  0.5684  0.4285  0.0028
 2197TIP3    H2 6598   2.375   3.771   4.145 -2.2929  1.9766  1.0557
 2198TIP3   OH2 6599   2.563   2.388   4.551 -0.2085 -0.1776 -0.7623
 2198TIP3    H1 6600   2.523   2.389   4.464 -0.6500  1.3807 -0.5738
 2198TIP3    H2 6601   2.489   2.389   4.612  0.1004 -0.3881 -0.3779
 2199TIP3   OH2 6602   4.748   3.116   4.892 -0.0260  0.0123 -0.2068
 2199TIP3    H1 6603   4.735   3.204   4.926 -0.0501 -0.5148  1.2117
 2199TIP3    H2 6604   4.721   3.122   4.800  1.1867  1.7622 -0.4973
 2200TIP3   OH2 6605   2.715   3.107   4.556  0.1403 -0.3806  0.2337
 2200TIP3    H1 6606   2.802   3.146   4.562 -0.8304  1.8880  0.5008
 2200TIP3    H2 6607   2.708   3.050   4.633  1.2339 -0.2908  0.4074
 2201TIP3   OH2 6608   2.812   0.823   1.474  0.5283 -0.2917  0.2925
 2201TIP3    H1 6609   2.798   0.733   1.502 -0.5048 -0.3039 -0.2033
 2201TIP3    H2 6610   2.725   0.864   1.481  0.4860  0.0417 -1.6270
 2202TIP3   OH2 6611   1.641   0.565   4.385  0.3851 -0.1198 -0.8249
 2202TIP3    H1 6612   1.648   0.660   4.375  3.5577  0.3296  3.0347
 2202TIP3    H2 6613   1.695   0.530   4.314  1.6808  1.2057 -0.5537
 2203TIP3   OH2 6614   6.115   0.483   2.798 -0.2070 -0.3387  0.1989
 2203TIP3    H1 6615   6.158   0.405   2.765  0.6155  0.0876  0.2427
 2203TIP3    H2 6616   6.052   0.507   2.730  1.1815  0.2996 -0.8987
 2204TIP3   OH2 6617   0.434   0.573   2.603 -0.4925 -0.1014  0.2670
 2204TIP3    H1 6618   0.423   0.515   2.527 -2.7930  0.5074  0.0697
 2204TIP3    H2 6619   0.408   0.659   2.572  3.1280  1.2100  0.4944
 2205TIP3   OH2 6620   1.557   2.776   2.536  0.2060  0.1296  0.2371
 2205TIP3    H1 6621   1.512   2.787   2.619 -1.4232  1.6995 -0.7909
 2205TIP3    H2 6622   1.626   2.843   2.537 -1.0791  1.5144 -0.4441
 2206TIP3   OH2 6623   0.044   5.224   1.887  0.1134  0.0498 -0.0979
 2206TIP3    H1 6624   0.088   5.245   1.970 -0.2827  2.0309 -0.3350
 2206TIP3    H2 6625   0.016   5.309   1.853 -0.9156 -0.8552 -1.6195
 2207TIP3   OH2 6626   5.519   2.257   3.358 -0.2056 -0.3399  0.2117
 2207TIP3    H1 6627   5.440   2.205   3.347  0.2959 -0.9021 -0.9747
 2207TIP3    H2 6628   5.504   2.335   3.304 -0.0751 -0.3097  0.2183
 2208TIP3   OH2 6629   0.582   2.541   3.560 -0.6857  0.3136  0.5413
 2208TIP3    H1 6630   0.659   2.595   3.578  0.4816 -1.2972  0.5863
 2208TIP3    H2 6631   0.590   2.520   3.467 -1.0910  0.1884  0.5358
 2209TIP3   OH2 6632   4.314   2.428   2.565 -0.1619 -0.2945 -0.2864
 2209TIP3    H1 6633   4.312   2.335   2.588 -1.8257 -0.2090  0.0886
 2209TIP3    H2 6634   4.260   2.470   2.633 -2.0558  0.5006 -2.1658
 2210TIP3   OH2 6635   0.460   2.124   5.037  0.0733 -0.1773 -0.1365
 2210TIP3    H1 6636   0.538   2.175   5.057  0.2572 -0.3377 -0.4295
 2210TIP3    H2 6637   0.458   2.121   4.941 -1.1018  1.0638 -0.1829
 2211TIP3   OH2 6638   3.581   3.616   3.838 -0.4376 -0.2179 -0.6445
 2211TIP3    H1 6639   3.582   3.621   3.933 -0.4140 -0.6859 -0.6170
 2211TIP3    H2 6640   3.652   3.556   3.816  2.0655  2.7082 -1.1683
 2212TIP3   OH2 6641   2.733   4.887   3.890 -0.0859  0.1023 -0.2237
 2212TIP3    H1 6642   2.640   4.871   3.902  0.4296 -1.8551  1.6853
 2212TIP3    H2 6643   2.776   4.807   3.920  2.3541  2.0380  1.8684
 2213TIP3   OH2 6644   0.421   4.044   4.786 -0.3487  0.6540 -0.3012
 2213TIP3    H1 6645   0.417   4.138   4.769  1.7465  1.2657  2.0351
 2213TIP3    H2 6646   0.364   4.031   4.862  0.6118  0.3456  0.3804
 2214TIP3   OH2 6647   6.214   0.394   4.415 -0.7220 -0.4925  0.2176
 2214TIP3    H1 6648   6.285   0.413   4.353 -1.1543  0.8482  0.1004
 2214TIP3    H2 6649   6.145   0.456   4.393 -0.5985  0.5772  2.5157
 2215TIP3   OH2 6650   5.242   0.836   4.699  0.1700 -0.7094  0.2517
 2215TIP3    H1 6651   5.331   0.858   4.726  0.5793 -0.6140 -1.0921
 2215TIP3    H2 6652   5.210   0.915   4.656 -0.5426 -0.7726  0.6548
 2216TIP3   OH2 6653   4.525   5.984   5.166  0.3627  0.4241 -0.2615
 2216TIP3    H1 6654   4.601   5.931   5.191  0.0353 -0.5707 -1.3099
 2216TIP3    H2 6655   4.449   5.928   5.183 -0.3009  1.8239  1.9170
 2217TIP3   OH2 6656   5.610   5.819   1.177  0.3557  0.3190  0.0500
 2217TIP3    H1 6657   5.702   5.835   1.155 -0.0353  0.5165 -1.6096
 2217TIP3    H2 6658   5.568   5.807   1.092 -1.5106  2.0850  0.6605
 2218TIP3   OH2 6659   6.217   4.450   2.612  0.0085 -0.1902  0.4197
 2218TIP3    H1 6660   6.162   4.513   2.659 -0.6106 -0.0661 -0.4371
 2218TIP3    H2 6661   6.301   4.494   2.602 -0.6836  0.9088 -0.9612
 2219TIP3   OH2 6662   6.069   2.893   0.661 -0.4748 -0.0588  0.2674
 2219TIP3    H1 6663   6.028   2.946   0.593 -0.4565  2.6529  2.2074
 2219TIP3    H2 6664   6.154   2.934   0.676 -0.2949 -0.8408  1.6207
 2220TIP3   OH2 6665   1.967   1.811   2.376  0.0221  0.1681 -0.1510
 2220TIP3    H1 6666   1.905   1.738   2.366  0.3247 -0.1371  0.1503
 2220TIP3    H2 6667   1.917   1.878   2.423 -0.0849 -0.0705  0.0777
 2221TIP3   OH2 6668   0.358   1.465   1.549  0.1986  0.0144  0.2352
 2221TIP3    H1 6669   0.405   1.471   1.633 -0.3157 -1.6984  0.6795
 2221TIP3    H2 6670   0.428   1.467   1.483  0.5693  2.1045  0.6238
 2222TIP3   OH2 6671   5.270   2.774   4.428  0.1543  0.4566 -0.1276
 2222TIP3    H1 6672   5.342   2.759   4.489  0.7644 -1.3987 -1.2353
 2222TIP3    H2 6673   5.205   2.822   4.479  1.1818  0.1025  1.5819
 2223TIP3   OH2 6674   4.612   1.332   2.500 -0.0489  0.4444  0.3619
 2223TIP3    H1 6675   4.575   1.255   2.457 -0.7802 -0.0140  1.7570
 2223TIP3    H2 6676   4.569   1.406   2.459 -0.7412  0.0163  0.3107
 2224TIP3   OH2 6677   3.142   1.123   2.122  0.2466 -0.4978 -0.3338
 2224TIP3    H1 6678   3.105   1.035   2.110 -0.7615 -0.0372 -0.7255
 2224TIP3    H2 6679   3.156   1.130   2.217  0.6354 -1.1894 -0.3305
 2225TIP3   OH2 6680   3.739   0.437   3.279 -0.1075  0.0506  0.6414
 2225TIP3    H1 6681   3.792   0.458   3.356  1.2099 -1.2866  0.1651
 2225TIP3    H2 6682   3.781   0.484   3.207 -0.4825  0.1749  0.5015
 2226TIP3   OH2 6683   1.856   0.207   0.353  0.5708 -0.3554  0.2329
 2226TIP3    H1 6684   1.823   0.118   0.348 -0.3095 -0.0517  0.4758
 2226TIP3    H2 6685   1.922   0.205   0.422  0.7062 -0.8600  0.0892
 2227TIP3   OH2 6686   2.369   5.646   3.356 -0.2513 -0.3858 -0.2522
 2227TIP3    H1 6687   2.460   5.644   3.328 -0.6177 -0.5518 -1.4660
 2227TIP3    H2 6688   2.335   5.729   3.322 -0.1712  0.3947  1.4728
 2228TIP3   OH2 6689   4.373   0.381   2.038 -0.4323  0.6222 -0.7992
 2228TIP3    H1 6690   4.394   0.377   1.945  1.6847  1.1676 -0.4079
 2228TIP3    H2 6691   4.415   0.303   2.075 -1.8347  0.0409 -0.3690
 2229TIP3   OH2 6692   3.902   3.878   2.560 -0.0469  0.2514  0.8495
 2229TIP3    H1 6693   3.870   3.795   2.526  1.4720 -0.9220  2.1421
 2229TIP3    H2 6694   3.949   3.917   2.486 -0.4125 -0.2387  0.3507
 2230TIP3   OH2 6695   3.345   4.867   0.108  0.0691  0.3894 -0.1438
 2230TIP3    H1 6696   3.357   4.772   0.103 -0.5097  0.1286  2.3768
 2230TIP3    H2 6697   3.420   4.898   0.159 -0.1768  1.1798 -0.2483
 2231TIP3   OH2 6698   2.534   5.395   2.010  0.2332 -0.0885 -0.1798
 2231TIP3    H1 6699   2.506   5.430   1.925 -2.6083 -1.7027 -0.0165
 2231TIP3    H2 6700   2.548   5.302   1.994 -0.3573 -0.4208  1.1019
 2232TIP3   OH2 6701   4.101   1.853   0.175 -0.1170  0.0578 -0.1098
 2232TIP3    H1 6702   4.081   1.816   0.089 -0.7515  1.3617 -0.5534
 2232TIP3    H2 6703   4.178   1.908   0.161  1.6353 -2.0152  0.8180
 2233TIP3   OH2 6704   1.569   5.459   2.829  0.2632 -0.1697  0.4465
 2233TIP3    H1 6705   1.580   5.378   2.879  1.4394 -0.4106 -0.1659
 2233TIP3    H2 6706   1.523   5.518   2.889 -0.1884 -1.1316  1.0695
 2234TIP3   OH2 6707   4.958   3.588   2.246 -0.3740 -0.0432 -0.2909
 2234TIP3    H1 6708   4.880   3.578   2.301 -0.0817  1.1902  0.3951
 2234TIP3    H2 6709   5.031   3.585   2.308 -0.0178  1.0803 -0.6374
 2235TIP3   OH2 6710   2.783   1.578   2.555 -0.0270  0.3708  0.2998
 2235TIP3    H1 6711   2.757   1.666   2.530 -0.8158  0.2591  0.7028
 2235TIP3    H2 6712   2.754   1.523   2.482 -0.8841  0.2571  0.7120
 2236TIP3   OH2 6713   3.745   5.883   2.547  0.0012 -0.6127 -0.5245
 2236TIP3    H1 6714   3.751   5.837   2.631 -0.7965 -0.1605 -0.2191
 2236TIP3    H2 6715   3.830   5.867   2.506  0.3743 -0.9000  0.3341
 2237TIP3   OH2 6716   3.465   4.150   4.734 -0.1106  0.6906  0.3504
 2237TIP3    H1 6717   3.480   4.245   4.737  0.2242  0.6472  0.1679
 2237TIP3    H2 6718   3.386   4.140   4.682 -0.4942  0.9040  0.8870
 2238TIP3   OH2 6719   0.329   4.921   3.414  0.0908 -0.3255  0.2354
 2238TIP3    H1 6720   0.250   4.877   3.445  1.6355 -0.9811  3.6749
 2238TIP3    H2 6721   0.342   4.887   3.325 -0.7225 -4.2209  1.4294
 2239TIP3   OH2 6722   6.353   2.001   0.615 -0.4904  0.4139  0.0347
 2239TIP3    H1 6723   6.339   2.080   0.563 -0.2622  1.0819  0.9742
 2239TIP3    H2 6724   6.267   1.957   0.614  0.2082 -1.3237 -3.5807
 2240TIP3   OH2 6725   0.863   4.193   0.297 -0.1238  0.3181  0.3489
 2240TIP3    H1 6726   0.955   4.179   0.318  0.0837 -1.3178 -1.4037
 2240TIP3    H2 6727   0.863   4.222   0.206 -1.3425  0.2843  0.3199
 2241TIP3   OH2 6728   0.348   2.472   2.835  0.0543  0.4003  0.4510
 2241TIP3    H1 6729   0.396   2.531   2.893 -0.5007  1.1447  0.1795
 2241TIP3    H2 6730   0.262   2.463   2.876  0.0509 -0.0229  0.3559
 2242TIP3   OH2 6731   4.717   0.643   4.802  0.2836 -0.6500 -0.5070
 2242TIP3    H1 6732   4.664   0.723   4.802  0.5726 -0.4227  1.5565
 2242TIP3    H2 6733   4.803   0.672   4.773 -0.0674 -0.5690 -1.5131
 2243TIP3   OH2 6734   1.884   5.214   2.684 -0.2064  0.3845  0.0694
 2243TIP3    H1 6735   1.878   5.310   2.689 -0.2157  0.3776  0.1971
 2243TIP3    H2 6736   1.928   5.189   2.765 -1.8031  0.1416  0.9116
 2244TIP3   OH2 6737   2.531   4.201   3.815 -0.0326 -0.2736  0.4687
 2244TIP3    H1 6738   2.443   4.173   3.840 -0.6516  1.1508  0.0036
 2244TIP3    H2 6739   2.578   4.120   3.798 -0.9782 -1.1057  1.6040
 2245TIP3   OH2 6740   4.392   1.888   4.066 -0.2852 -0.2715 -0.0802
 2245TIP3    H1 6741   4.358   1.800   4.050 -1.5044  0.2290 -0.2984
 2245TIP3    H2 6742   4.399   1.894   4.161  0.4295 -0.8270 -0.0908
 2246TIP3   OH2 6743   1.138   1.899   4.456 -0.5961 -0.2647 -0.2054
 2246TIP3    H1 6744   1.092   1.973   4.416 -0.5004 -0.6352 -1.0134
 2246TIP3    H2 6745   1.137   1.831   4.389 -0.6087 -0.9706  0.5041
 2247TIP3   OH2 6746   5.602   1.261   5.018 -0.3458  0.1587  0.0905
 2247TIP3    H1 6747   5.651   1.342   5.006  0.7041 -0.4868 -0.0841
 2247TIP3    H2 6748   5.644   1.198   4.958 -0.8932 -0.6220  0.5033
 2248TIP3   OH2 6749   0.421   4.067   4.400  0.3272  0.4617  0.3049
 2248TIP3    H1 6750   0.347   4.126   4.413 -0.6161 -1.0394  2.2499
 2248TIP3    H2 6751   0.496   4.114   4.436 -0.6908 -0.0039  3.3477
 2249TIP3   OH2 6752   3.454   5.211   0.215 -0.0561 -0.5095  0.2964
 2249TIP3    H1 6753   3.460   5.283   0.152  3.8672  2.5270  3.6225
 2249TIP3    H2 6754   3.381   5.235   0.272  1.4408  1.2567  1.5979
 2250TIP3   OH2 6755   6.109   3.106   3.105 -0.7738  0.2946 -0.3974
 2250TIP3    H1 6756   6.068   3.100   3.019  2.1881  1.1502 -2.0128
 2250TIP3    H2 6757   6.144   3.195   3.108  0.7487 -0.3032  0.9089
 2251TIP3   OH2 6758   2.884   4.694   1.129 -0.7207  0.0139  0.2785
 2251TIP3    H1 6759   2.848   4.609   1.104 -2.4856  1.2457 -1.6329
 2251TIP3    H2 6760   2.956   4.710   1.067  1.1879 -1.0104  2.0832
 2252TIP3   OH2 6761   5.564   2.190   4.123  0.1837 -0.1357  0.2187
 2252TIP3    H1 6762   5.496   2.124   4.109 -0.3388  0.7549 -1.7979
 2252TIP3    H2 6763   5.527   2.271   4.087  2.9309 -0.0022 -2.7703
 2253TIP3   OH2 6764   1.926   3.698   0.340 -0.1081 -0.1978  0.1375
 2253TIP3    H1 6765   1.904   3.618   0.389 -0.2409  0.0041  0.4107
 2253TIP3    H2 6766   1.933   3.669   0.249  1.3099 -0.8136  0.4125
 2254TIP3   OH2 6767   0.921   0.299   3.498 -0.3753 -0.2600  0.5722
 2254TIP3    H1 6768   0.938   0.214   3.540 -0.5025  0.6580  2.6254
 2254TIP3    H2 6769   0.862   0.343   3.558 -0.3120  1.2884 -0.4629
 2255TIP3   OH2 6770   4.456   4.977   1.328 -0.3624 -0.4238  0.2617
 2255TIP3    H1 6771   4.422   4.926   1.402  0.0547  1.3027  1.6974
 2255TIP3    H2 6772   4.550   4.983   1.344 -0.5456  1.7912  0.8193
 2256TIP3   OH2 6773   1.253   5.142   0.283 -0.1525 -0.7657 -0.1154
 2256TIP3    H1 6774   1.167   5.184   0.275  0.2650  0.2032  0.4125
 2256TIP3    H2 6775   1.316   5.210   0.260  0.5968 -0.7393  1.7909
 2257TIP3   OH2 6776   5.434   2.680   4.664  0.1609 -0.3022  0.1669
 2257TIP3    H1 6777   5.512   2.637   4.630 -0.9206 -2.0543 -0.2005
 2257TIP3    H2 6778   5.446   2.681   4.759  0.1827 -1.4764  0.1846
 2258TIP3   OH2 6779   1.057   0.018   0.848  0.0717  0.2258 -0.5384
 2258TIP3    H1 6780   1.151   0.004   0.858 -0.2014 -0.2723  2.6282
 2258TIP3    H2 6781   1.048   0.111   0.828  1.2395  0.1359 -1.5635
 2259TIP3   OH2 6782   1.471   3.450   1.520  0.5295  0.6021 -0.1109
 2259TIP3    H1 6783   1.564   3.467   1.505  1.2384 -1.2081  1.7444
 2259TIP3    H2 6784   1.450   3.498   1.599  0.5066 -0.6947  0.7049
 2260TIP3   OH2 6785   2.810   1.777   3.594 -0.1220  0.1015 -0.2440
 2260TIP3    H1 6786   2.811   1.825   3.511  0.2491 -0.6118 -0.6610
 2260TIP3    H2 6787   2.776   1.840   3.657 -1.7988  0.2334 -1.2036
 2261TIP3   OH2 6788   4.980   4.836   1.581  0.3965 -0.2875 -0.1191
 2261TIP3    H1 6789   4.959   4.787   1.661 -0.0881 -0.9001 -0.5998
 2261TIP3    H2 6790   5.066   4.873   1.597  1.0194 -1.7412  0.0809
 2262TIP3   OH2 6791   0.645   1.834   2.758 -0.4050 -0.3638 -0.2461
 2262TIP3    H1 6792   0.571   1.837   2.819 -0.3591  1.8672 -0.2179
 2262TIP3    H2 6793   0.624   1.762   2.699 -1.5279 -1.1684  1.0675
 2263TIP3   OH2 6794   4.614   1.301   4.813  0.1102 -0.0920  0.0075
 2263TIP3    H1 6795   4.642   1.232   4.873 -1.3636 -0.4006  0.3995
 2263TIP3    H2 6796   4.630   1.266   4.726  0.0865 -0.6182  0.2114
 2264TIP3   OH2 6797   4.286   2.047   1.120 -0.2177 -0.1057  0.3559
 2264TIP3    H1 6798   4.254   1.984   1.184 -2.4944 -1.0803 -1.6133
 2264TIP3    H2 6799   4.219   2.115   1.118  0.9520  1.0914  0.5954
 2265TIP3   OH2 6800   2.216   1.045   0.566 -0.3714  0.3889  0.3016
 2265TIP3    H1 6801   2.309   1.051   0.543 -0.7541 -1.2214 -2.0576
 2265TIP3    H2 6802   2.171   1.094   0.498 -1.4189 -2.1574 -0.9721
 2266TIP3   OH2 6803   1.963   5.073   4.856  0.5699 -0.1233  0.0296
 2266TIP3    H1 6804   1.940   5.055   4.947  0.5265 -0.5835 -0.0676
 2266TIP3    H2 6805   1.887   5.120   4.821  0.4508 -0.2235  0.1493
 2267TIP3   OH2 6806   4.840   0.369   0.580  0.0699 -0.0815  0.1136
 2267TIP3    H1 6807   4.828   0.419   0.661 -0.8529  0.0128 -0.0711
 2267TIP3    H2 6808   4.913   0.310   0.599  0.2662  0.3700  0.8037
 2268TIP3   OH2 6809   4.732   1.030   0.147  0.3265 -0.1566 -0.3519
 2268TIP3    H1 6810   4.642   0.997   0.151  0.0222  0.4556 -1.5313
 2268TIP3    H2 6811   4.786   0.952   0.136 -0.1908 -0.4447 -0.9220
 2269TIP3   OH2 6812   3.410   3.930   3.428 -0.3808 -0.2196  0.7583
 2269TIP3    H1 6813   3.477   3.891   3.372  0.5584 -0.3610  1.9253
 2269TIP3    H2 6814   3.352   3.857   3.449 -2.0827  0.2785 -1.7820
 2270TIP3   OH2 6815   3.886   5.639   5.147 -0.2968 -0.2530  0.3717
 2270TIP3    H1 6816   3.823   5.666   5.213  0.4096 -0.4522  1.1492
 2270TIP3    H2 6817   3.866   5.694   5.071 -1.6208 -0.5649  0.4731
 2271TIP3   OH2 6818   4.876   2.708   0.508  0.3328 -0.5908  1.0396
 2271TIP3    H1 6819   4.829   2.783   0.543 -0.8198  0.1533 -1.8105
 2271TIP3    H2 6820   4.967   2.737   0.502  0.0806  0.2067  0.9486
 2272TIP3   OH2 6821   1.698   1.004   0.377 -0.2676  0.2281 -0.7270
 2272TIP3    H1 6822   1.641   0.947   0.326 -0.6182 -0.2281  0.1562
 2272TIP3    H2 6823   1.785   0.965   0.369 -0.4699 -0.3310 -0.2938
 2273TIP3   OH2 6824   2.358   4.741   4.941 -0.2835 -0.2122  0.2437
 2273TIP3    H1 6825   2.443   4.697   4.935  0.9185  1.4183  3.0608
 2273TIP3    H2 6826   2.298   4.672   4.970  1.1644 -0.5564  2.7849
 2274TIP3   OH2 6827   5.648   1.126   3.468  0.4827  0.3575  0.2106
 2274TIP3    H1 6828   5.595   1.159   3.541 -0.2487 -0.2649 -0.0167
 2274TIP3    H2 6829   5.736   1.115   3.504 -0.2277 -1.6689  1.5659
 2275TIP3   OH2 6830   1.163   2.892   0.883 -0.4964  0.4357 -0.2633
 2275TIP3    H1 6831   1.114   2.828   0.832  0.0841 -1.9999  2.0546
 2275TIP3    H2 6832   1.254   2.865   0.874 -0.4001 -0.2819  2.2359
 2276TIP3   OH2 6833   0.084   5.228   1.578  0.0305 -0.5609 -0.4413
 2276TIP3    H1 6834   0.069   5.217   1.672 -1.6160  0.8882 -0.4957
 2276TIP3    H2 6835   0.128   5.147   1.552 -0.1233 -1.3107  1.4284
 2277TIP3   OH2 6836   0.572   3.116   0.894  0.1904 -0.3941 -0.0589
 2277TIP3    H1 6837   0.596   3.143   0.805  0.4202  1.5013  0.5418
 2277TIP3    H2 6838   0.562   3.021   0.888  0.7577 -0.3738 -1.9782
 2278TIP3   OH2 6839   0.552   2.812   1.627 -0.2857 -0.1724  0.3693
 2278TIP3    H1 6840   0.613   2.884   1.639 -0.0260 -0.3006 -0.1549
 2278TIP3    H2 6841   0.599   2.735   1.659 -0.7300 -0.0513  1.3562
 2279TIP3   OH2 6842   4.883   1.634   2.925 -0.4672  0.2620  0.1989
 2279TIP3    H1 6843   4.811   1.626   2.862  1.4164  0.1692 -2.0908
 2279TIP3    H2 6844   4.952   1.679   2.876  1.3701 -0.4335  2.0111
 2280TIP3   OH2 6845   2.117   3.328   0.756 -0.5412  0.1788 -0.3603
 2280TIP3    H1 6846   2.154   3.320   0.668 -1.5059 -0.8995 -0.6932
 2280TIP3    H2 6847   2.126   3.420   0.778 -0.0174  0.4054 -1.4726
 2281TIP3   OH2 6848   6.288   4.224   4.639  0.6871  0.0277 -0.2744
 2281TIP3    H1 6849   6.209   4.236   4.587 -0.5920 -0.6866  1.4015
 2281TIP3    H2 6850   6.324   4.140   4.609 -2.3196 -2.5902  2.5460
 2282TIP3   OH2 6851   0.680   1.681   3.761  0.2067 -0.1740  0.3609
 2282TIP3    H1 6852   0.726   1.740   3.820 -1.4366  1.6251 -0.0393
 2282TIP3    H2 6853   0.649   1.610   3.818  0.1957  0.5893  1.3397
 2283TIP3   OH2 6854   5.447   2.004   3.158 -0.1915 -0.1629 -0.3361
 2283TIP3    H1 6855   5.414   1.948   3.229 -1.5054 -0.2285 -0.9617
 2283TIP3    H2 6856   5.540   1.985   3.154  0.0856  0.4450  1.9213
 2284TIP3   OH2 6857   5.296   5.567   0.992  0.5391  0.0809 -0.3130
 2284TIP3    H1 6858   5.222   5.516   1.023 -0.7489  2.7852  1.5026
 2284TIP3    H2 6859   5.372   5.528   1.036 -0.5452  0.3287  1.9429
 2285TIP3   OH2 6860   0.624   5.010   1.587  0.6515  0.2557  0.1413
 2285TIP3    H1 6861   0.539   5.036   1.623  0.1468 -2.1985  0.9230
 2285TIP3    H2 6862   0.682   5.006   1.664  1.0814  0.4740 -0.1676
 2286TIP3   OH2 6863   5.460   4.894   3.701  0.1049  0.2018 -0.7093
 2286TIP3    H1 6864   5.460   4.877   3.796 -0.7062  0.7198 -0.6125
 2286TIP3    H2 6865   5.418   4.817   3.663 -2.2690  1.2573 -0.3861
 2287TIP3   OH2 6866   5.574   5.907   1.904 -0.7094  0.1256 -0.1756
 2287TIP3    H1 6867   5.506   5.885   1.841  0.0783  0.3612 -1.1413
 2287TIP3    H2 6868   5.614   5.987   1.869 -0.3098  0.3160  0.6779
 2288TIP3   OH2 6869   5.989   5.394   0.839  0.3433  0.6219  0.0435
 2288TIP3    H1 6870   6.081   5.369   0.846  0.0257 -1.0756 -1.2962
 2288TIP3    H2 6871   5.992   5.487   0.815  1.6341  1.0739  1.7159
 2289TIP3   OH2 6872   1.798   5.113   0.317 -0.2041  0.0212 -1.2361
 2289TIP3    H1 6873   1.866   5.150   0.261  1.0989 -1.0068 -0.3981
 2289TIP3    H2 6874   1.844   5.051   0.373 -1.1250  2.0254  2.0373
 2290TIP3   OH2 6875   0.520   0.477   1.961  0.5837 -0.4940 -0.4909
 2290TIP3    H1 6876   0.551   0.559   1.999 -1.3274  0.0761 -0.0278
 2290TIP3    H2 6877   0.506   0.498   1.868  1.3757 -0.7051 -0.6649
 2291TIP3   OH2 6878   5.755   4.193   4.696 -0.1186  0.1080 -0.4399
 2291TIP3    H1 6879   5.816   4.256   4.656 -0.2386 -0.1359 -1.0273
 2291TIP3    H2 6880   5.749   4.219   4.787  0.0916  0.7469 -0.6045
 2292TIP3   OH2 6881   4.194   1.256   3.623 -0.3135  0.9839  0.4805
 2292TIP3    H1 6882   4.116   1.302   3.592 -0.5928 -0.0950 -0.4732
 2292TIP3    H2 6883   4.266   1.297   3.576 -0.8127 -1.2460 -2.5130
 2293TIP3   OH2 6884   5.748   4.898   1.550 -0.3808 -0.1629  0.6057
 2293TIP3    H1 6885   5.766   4.989   1.526 -1.4226 -0.3025 -0.8339
 2293TIP3    H2 6886   5.798   4.884   1.630  0.5960  1.3701  0.3010
 2294TIP3   OH2 6887   4.844   5.076   1.540  0.2123  0.2191 -0.1547
 2294TIP3    H1 6888   4.922   5.120   1.508 -0.8097  1.1428 -1.4946
 2294TIP3    H2 6889   4.866   4.983   1.537  0.5482  0.3100 -2.6991
 2295TIP3   OH2 6890   1.061   0.251   0.264  0.2172 -0.2622 -0.3091
 2295TIP3    H1 6891   0.989   0.314   0.258 -0.1380 -0.2432  2.7094
 2295TIP3    H2 6892   1.019   0.165   0.254 -0.0138 -0.1934  0.0580
 2296TIP3   OH2 6893   2.318   1.152   4.305  0.3427  0.3853 -0.2574
 2296TIP3    H1 6894   2.373   1.158   4.227 -0.6883  0.2453 -1.0141
 2296TIP3    H2 6895   2.293   1.243   4.323  0.8746  0.4611  0.1474
 2297TIP3   OH2 6896   5.059   2.383   3.734 -0.6279 -0.3123  0.0393
 2297TIP3    H1 6897   5.080   2.468   3.773 -1.5694  0.0454 -0.2262
 2297TIP3    H2 6898   5.013   2.405   3.653 -0.1357 -1.0736 -0.4575
 2298TIP3   OH2 6899   4.340   3.003   1.702  0.5567 -0.0578 -0.0278
 2298TIP3    H1 6900   4.355   2.985   1.609  1.7245 -0.8741  0.2921
 2298TIP3    H2 6901   4.260   2.954   1.723  0.2666  0.1597 -0.6013
 2299TIP3   OH2 6902   0.765   3.541   2.745  0.4945 -0.2797 -0.0746
 2299TIP3    H1 6903   0.796   3.631   2.751 -0.5792  0.2540 -1.8744
 2299TIP3    H2 6904   0.793   3.501   2.828  0.8655  1.7224  0.8387
 2300TIP3   OH2 6905   6.311   3.611   1.545  0.1010  0.5271 -0.4284
 2300TIP3    H1 6906   6.404   3.628   1.563 -0.2245 -0.4761  2.9676
 2300TIP3    H2 6907   6.310   3.524   1.506  0.5878  0.2665  0.1148
 2301TIP3   OH2 6908   2.277   2.954   3.239  0.3406 -0.0347  0.2447
 2301TIP3    H1 6909   2.271   2.984   3.148 -0.4055 -2.2570 -0.4884
 2301TIP3    H2 6910   2.336   3.017   3.281  0.0604  1.5099 -1.5485
 2302TIP3   OH2 6911   1.539   1.044   4.521  0.5322 -0.8513  0.0687
 2302TIP3    H1 6912   1.520   1.100   4.445 -0.2406  0.7732  1.3969
 2302TIP3    H2 6913   1.526   1.101   4.596  1.4323 -2.3801  1.4422
 2303TIP3   OH2 6914   6.001   2.001   4.462  0.2070 -0.0676 -0.1251
 2303TIP3    H1 6915   5.953   2.081   4.483  1.0734 -0.0746  2.1136
 2303TIP3    H2 6916   6.070   2.030   4.402 -0.4539  0.5605 -0.5983
 2304TIP3   OH2 6917   3.134   2.391   5.147  0.0484 -0.5008  0.0418
 2304TIP3    H1 6918   3.126   2.331   5.221 -0.5348 -0.1346  0.2787
 2304TIP3    H2 6919   3.054   2.444   5.150  1.2825  1.4309  0.8403
 2305TIP3   OH2 6920   3.648   3.863   0.342 -0.1599  0.0626  0.0323
 2305TIP3    H1 6921   3.564   3.816   0.335  0.1000 -0.3103 -0.6877
 2305TIP3    H2 6922   3.714   3.795   0.333  0.2689  0.0900  2.3209
 2306TIP3   OH2 6923   3.772   2.539   1.648 -0.0226 -0.4344 -0.4975
 2306TIP3    H1 6924   3.794   2.576   1.563 -0.8391 -0.3924 -0.7040
 2306TIP3    H2 6925   3.681   2.509   1.638 -0.9235  1.5433  0.9924
 2307TIP3   OH2 6926   2.010   2.283   3.732  0.1050 -0.1532  0.1523
 2307TIP3    H1 6927   2.060   2.233   3.668  0.2112 -0.0102  0.1239
 2307TIP3    H2 6928   1.974   2.217   3.791  0.0333 -0.2823 -0.0348
 2308TIP3   OH2 6929   5.421   4.308   3.121  0.0664  0.4329  0.3930
 2308TIP3    H1 6930   5.368   4.386   3.109 -0.6260 -0.0000  0.5572
 2308TIP3    H2 6931   5.398   4.276   3.208 -0.7421 -0.7393 -0.2228
 2309TIP3   OH2 6932   3.686   3.016   2.942  0.2245  0.0422  0.3066
 2309TIP3    H1 6933   3.660   2.924   2.945 -1.3309  0.3432 -1.5928
 2309TIP3    H2 6934   3.719   3.035   3.030  1.4212 -2.5228  0.5119
 2310TIP3   OH2 6935   6.019   2.674   4.046 -0.1356  0.5601  0.2798
 2310TIP3    H1 6936   6.020   2.602   3.982 -2.9407 -1.3006  2.1194
 2310TIP3    H2 6937   5.939   2.722   4.026 -1.0134 -0.0009  2.2696
 2311TIP3   OH2 6938   3.036   0.278   5.157  0.2415 -0.1971 -0.0626
 2311TIP3    H1 6939   3.022   0.372   5.145  2.6036  0.0433 -1.7179
 2311TIP3    H2 6940   3.097   0.272   5.231 -0.7708 -0.5380  0.7669
 2312TIP3   OH2 6941   6.300   4.039   0.410 -0.0404  0.6822 -0.4402
 2312TIP3    H1 6942   6.338   4.024   0.323 -0.5086 -1.0344 -0.3756
 2312TIP3    H2 6943   6.266   3.954   0.437  0.3538  1.0969  1.5619
 2313TIP3   OH2 6944   5.666   2.471   3.571  0.3269 -0.2789 -0.0968
 2313TIP3    H1 6945   5.689   2.494   3.661 -1.8782  0.2520  0.3752
 2313TIP3    H2 6946   5.703   2.541   3.518 -0.2161  0.5813  0.6372
 2314TIP3   OH2 6947   3.917   4.314   1.207  0.2442  0.2477 -0.6770
 2314TIP3    H1 6948   3.994   4.366   1.227  0.5425 -0.2346 -0.5555
 2314TIP3    H2 6949   3.845   4.358   1.253  0.2313  1.3403 -1.7055
 2315TIP3   OH2 6950   0.243   2.035   1.142  0.3970 -0.3322 -0.2226
 2315TIP3    H1 6951   0.177   2.054   1.076 -0.0304 -0.5988  0.1249
 2315TIP3    H2 6952   0.193   2.015   1.221  0.9074 -0.0458  0.1713
 2316TIP3   OH2 6953   2.624   3.545   4.614 -0.2227 -0.0116 -0.1139
 2316TIP3    H1 6954   2.607   3.482   4.544  0.5984 -0.5976  0.1944
 2316TIP3    H2 6955   2.606   3.496   4.695 -0.2995  0.3820  0.1082
 2317TIP3   OH2 6956   4.421   0.123   0.476  0.1317 -0.1257 -0.0762
 2317TIP3    H1 6957   4.490   0.153   0.534  0.8752  0.4834 -1.2320
 2317TIP3    H2 6958   4.460   0.050   0.427 -0.3878 -0.4418 -0.0360
 2318TIP3   OH2 6959   3.670   2.456   2.442  0.0500 -0.5704 -0.1090
 2318TIP3    H1 6960   3.712   2.483   2.524  0.0574 -0.6086 -0.1000
 2318TIP3    H2 6961   3.643   2.366   2.458  1.3917 -1.1017 -0.6511
 2319TIP3   OH2 6962   5.941   1.228   4.492  0.3207  0.0966 -0.5475
 2319TIP3    H1 6963   5.962   1.271   4.575  0.5362  0.3326 -0.7265
 2319TIP3    H2 6964   6.020   1.178   4.471  0.1876 -0.1362 -0.5048
 2320TIP3   OH2 6965   2.954   2.694   5.008  0.1693 -0.6161  0.1455
 2320TIP3    H1 6966   2.890   2.638   5.053 -1.2160  0.0648 -0.9212
 2320TIP3    H2 6967   2.938   2.781   5.044  1.0736 -0.5733  0.4627
 2321TIP3   OH2 6968   0.615   2.594   5.093 -0.1707 -0.3311  0.4245
 2321TIP3    H1 6969   0.571   2.532   5.152 -2.3676  0.6073 -0.1233
 2321TIP3    H2 6970   0.614   2.677   5.140 -0.6147  0.0928 -0.3108
 2322TIP3   OH2 6971   4.972   4.806   0.818 -0.1149 -0.3283 -0.4524
 2322TIP3    H1 6972   4.993   4.723   0.776  0.0375 -0.1483 -0.7387
 2322TIP3    H2 6973   5.026   4.870   0.772 -0.4958 -0.0184 -0.4711
 2323TIP3   OH2 6974   4.171   3.396   4.572 -0.0283  0.7469  0.2656
 2323TIP3    H1 6975   4.157   3.361   4.660 -1.8298 -0.2451 -0.3772
 2323TIP3    H2 6976   4.194   3.488   4.587  2.4229 -0.0334  1.8651
 2324TIP3   OH2 6977   0.778   5.720   4.965 -0.7224 -0.1214  1.4097
 2324TIP3    H1 6978   0.692   5.730   4.925 -0.0732  0.6032  0.1246
 2324TIP3    H2 6979   0.809   5.810   4.980  1.0385 -0.1962 -1.0176
 2325TIP3   OH2 6980   2.071   5.118   0.186 -0.2857  0.1715  0.1709
 2325TIP3    H1 6981   2.061   5.079   0.099  2.6274 -0.9500  0.2282
 2325TIP3    H2 6982   2.092   5.210   0.169  2.6293 -0.5257 -0.5446
 2326TIP3   OH2 6983   1.116   0.405   4.876 -0.7584 -0.6100  0.5602
 2326TIP3    H1 6984   1.198   0.378   4.834 -0.5604  1.5940 -0.5767
 2326TIP3    H2 6985   1.135   0.401   4.969  0.1143 -1.6387  0.3694
 2327TIP3   OH2 6986   6.071   0.093   4.841  0.0463  0.0005  0.2662
 2327TIP3    H1 6987   6.076   0.179   4.799 -0.1238  0.4304  1.0998
 2327TIP3    H2 6988   5.982   0.063   4.822  0.8137 -1.0518 -1.9918
 2328TIP3   OH2 6989   2.309   5.167   3.757 -0.2001 -0.4587  0.1339
 2328TIP3    H1 6990   2.217   5.193   3.760  0.0246  1.0574 -2.4881
 2328TIP3    H2 6991   2.349   5.207   3.834 -1.4448  0.1760  0.4618
 2329TIP3   OH2 6992   4.893   0.766   3.059 -0.2969 -0.3210 -0.3780
 2329TIP3    H1 6993   4.840   0.777   3.138 -0.2163  0.5441 -0.4335
 2329TIP3    H2 6994   4.861   0.685   3.020  0.7606 -1.6406  1.3575
 2330TIP3   OH2 6995   2.014   4.825   1.133 -0.1161 -0.2041  0.7302
 2330TIP3    H1 6996   2.045   4.734   1.131 -0.4060 -0.2998  0.5168
 2330TIP3    H2 6997   2.086   4.876   1.097  0.2001 -0.3028  1.2023
 2331TIP3   OH2 6998   6.179   4.788   0.884  0.0224  0.2305  0.0332
 2331TIP3    H1 6999   6.210   4.697   0.887  1.6671  0.6429 -1.7760
 2331TIP3    H2 7000   6.114   4.788   0.814  1.0957  0.6804 -0.9999
 2332TIP3   OH2 7001   2.034   3.958   0.853 -0.2868 -0.4836  0.2987
 2332TIP3    H1 7002   1.977   3.943   0.928 -2.1018  2.0386 -0.4593
 2332TIP3    H2 7003   1.978   3.947   0.776  1.0530 -1.0491 -0.6487
 2333TIP3   OH2 7004   4.229   2.030   5.150  0.5393 -0.0450  0.5853
 2333TIP3    H1 7005   4.269   2.019   5.236  0.7091  1.2045  0.6951
 2333TIP3    H2 7006   4.137   2.047   5.169  0.7697  1.3148  0.6225
 2334TIP3   OH2 7007   3.064   0.796   0.467  0.0425  0.5621  0.2583
 2334TIP3    H1 7008   3.151   0.769   0.496 -0.5264 -2.4007 -0.4481
 2334TIP3    H2 7009   3.005   0.767   0.537 -0.4559  2.1421  0.5275
 2335TIP3   OH2 7010   4.716   3.530   1.519 -0.1205 -0.2553  0.2349
 2335TIP3    H1 7011   4.644   3.565   1.467  1.0773  0.4274 -1.0233
 2335TIP3    H2 7012   4.764   3.608   1.548 -0.7714 -0.6005  2.4738
 2336TIP3   OH2 7013   0.810   5.967   2.651 -0.2067 -0.3128 -0.1815
 2336TIP3    H1 7014   0.792   5.897   2.588  0.1518 -0.0719 -0.5534
 2336TIP3    H2 7015   0.799   5.925   2.736 -0.0848 -0.8020 -0.3986
 2337TIP3   OH2 7016   5.092   0.226   2.477 -0.0647  0.1560 -0.1523
 2337TIP3    H1 7017   5.184   0.247   2.488 -0.2673  0.5605  0.8528
 2337TIP3    H2 7018   5.083   0.204   2.384  0.7127  1.7195 -0.6152
 2338TIP3   OH2 7019   0.557   5.205   2.011 -0.0290 -0.6552  0.4176
 2338TIP3    H1 7020   0.546   5.237   1.921 -1.0086 -1.0688  0.3750
 2338TIP3    H2 7021   0.491   5.137   2.020  0.7873 -1.3804  1.1073
 2339TIP3   OH2 7022   4.188   1.033   4.015  0.0091  0.3772 -0.8620
 2339TIP3    H1 7023   4.175   0.940   4.033  0.5951  0.2719 -0.9509
 2339TIP3    H2 7024   4.277   1.039   3.980  1.6124  1.4533  2.9018
 2340TIP3   OH2 7025   6.072   0.130   5.117 -0.2290  0.0059 -1.2766
 2340TIP3    H1 7026   6.164   0.153   5.131  0.1607 -2.1097  0.0270
 2340TIP3    H2 7027   6.056   0.150   5.025  1.3235  1.0348 -1.3583
 2341TIP3   OH2 7028   1.784   3.016   2.296 -0.0599 -0.3997 -0.0285
 2341TIP3    H1 7029   1.698   2.975   2.288 -0.5488  0.2136  1.6528
 2341TIP3    H2 7030   1.780   3.092   2.238 -1.6002  1.0317  1.8238
 2342TIP3   OH2 7031   6.075   1.389   1.638  0.4894  0.0886 -0.0082
 2342TIP3    H1 7032   6.068   1.468   1.691  1.7069 -0.4978  1.0850
 2342TIP3    H2 7033   6.112   1.324   1.698  1.5009 -0.7151 -1.4749
 2343TIP3   OH2 7034   2.194   5.647   1.248  0.1188 -0.0137  0.3278
 2343TIP3    H1 7035   2.276   5.696   1.262  0.6393 -0.7189 -0.1491
 2343TIP3    H2 7036   2.194   5.581   1.317  0.1256 -0.2363  0.1148
 2344TIP3   OH2 7037   2.535   0.388   0.216 -0.0149 -0.1452  0.4211
 2344TIP3    H1 7038   2.451   0.391   0.169  0.9784 -2.3510 -1.7531
 2344TIP3    H2 7039   2.511   0.382   0.308 -2.2321 -0.2148 -0.0945
 2345TIP3   OH2 7040   3.829   4.046   1.313  0.5802 -0.2476  0.8987
 2345TIP3    H1 7041   3.857   3.981   1.250 -0.7897 -0.1162  0.1300
 2345TIP3    H2 7042   3.841   4.130   1.268 -0.8239 -0.1795  0.6161
 2346TIP3   OH2 7043   2.529   3.531   1.401  0.6705 -0.2957  0.1798
 2346TIP3    H1 7044   2.593   3.555   1.468  1.0017  2.1070 -0.8901
 2346TIP3    H2 7045   2.578   3.534   1.318 -0.2417 -1.0436 -0.4198
 2347TIP3   OH2 7046   1.485   4.823   2.726 -0.0278  0.1625  0.0102
 2347TIP3    H1 7047   1.522   4.906   2.756  0.4206  0.5548 -1.5426
 2347TIP3    H2 7048   1.554   4.783   2.674 -1.5954  0.8111 -2.7862
 2348TIP3   OH2 7049   5.283   1.101   3.917 -0.7616  0.1182 -1.0643
 2348TIP3    H1 7050   5.367   1.142   3.938 -0.4453 -0.7362 -0.6173
 2348TIP3    H2 7051   5.230   1.173   3.882 -1.2049  1.5682  2.2434
 2349TIP3   OH2 7052   5.833   2.267   3.942 -0.1811  0.0209 -0.2005
 2349TIP3    H1 7053   5.788   2.328   4.002 -0.9730  0.3802 -1.1340
 2349TIP3    H2 7054   5.869   2.200   3.999 -0.8744  0.3845  0.6916
 2350TIP3   OH2 7055   3.423   0.575   2.554  0.0110  0.4697  0.1341
 2350TIP3    H1 7056   3.401   0.667   2.566 -0.0201  0.4485  0.2407
 2350TIP3    H2 7057   3.347   0.536   2.512 -0.1215  0.4162  0.4178
 2351TIP3   OH2 7058   3.055   3.197   3.431  0.5059  0.1056  0.3037
 2351TIP3    H1 7059   3.030   3.225   3.342 -2.1259  4.9732  2.1896
 2351TIP3    H2 7060   3.150   3.196   3.430  0.5660 -0.0868 -2.5795
 2352TIP3   OH2 7061   2.053   4.979   3.331 -0.1410  0.3631  0.4716
 2352TIP3    H1 7062   2.136   5.024   3.312 -0.7256  0.9265 -0.9351
 2352TIP3    H2 7063   2.005   4.982   3.248 -0.4454 -2.4058  0.4358
 2353TIP3   OH2 7064   4.827   5.820   4.391  0.0964  0.3800 -0.9112
 2353TIP3    H1 7065   4.898   5.859   4.340  0.7482 -0.6632 -0.8396
 2353TIP3    H2 7066   4.833   5.862   4.477  0.7024  0.2159 -0.8731
 2354TIP3   OH2 7067   0.286   1.689   3.142  0.1418 -0.0566  0.3038
 2354TIP3    H1 7068   0.238   1.702   3.060  0.9638  0.3039 -0.1352
 2354TIP3    H2 7069   0.219   1.693   3.210 -0.2671  1.9200 -0.1659
 2355TIP3   OH2 7070   5.952   2.889   2.189  0.0170 -0.1163 -0.4282
 2355TIP3    H1 7071   5.948   2.830   2.265  0.4530 -0.8761 -0.9858
 2355TIP3    H2 7072   6.014   2.847   2.129  0.1735  0.8060 -0.9287
 2356TIP3   OH2 7073   4.456   0.130   2.141 -0.5608  0.9786 -0.7424
 2356TIP3    H1 7074   4.521   0.059   2.134 -2.1887 -0.5387 -1.2391
 2356TIP3    H2 7075   4.447   0.145   2.235 -0.1778  0.5569 -0.6319
 2357TIP3   OH2 7076   3.154   0.981   3.819 -0.1585  0.3677 -0.3676
 2357TIP3    H1 7077   3.082   0.995   3.758  0.4312  1.2696 -0.8745
 2357TIP3    H2 7078   3.115   0.929   3.890 -1.2711  0.7420 -0.6784
 2358TIP3   OH2 7079   2.873   1.987   2.179 -0.3664  0.0833 -0.1617
 2358TIP3    H1 7080   2.883   1.920   2.111  0.7385 -1.0714  1.0902
 2358TIP3    H2 7081   2.958   2.031   2.182  0.6679 -1.8175  2.3717
 2359TIP3   OH2 7082   3.385   0.329   0.576 -0.3842  0.5671 -0.0255
 2359TIP3    H1 7083   3.289   0.328   0.574 -0.5732  0.3277  3.0092
 2359TIP3    H2 7084   3.408   0.248   0.622  1.3406  0.2868 -1.3042
 2360TIP3   OH2 7085   2.291   3.781   3.209 -0.4229  0.4573 -0.4745
 2360TIP3    H1 7086   2.243   3.714   3.258  0.8898 -0.8036 -0.8206
 2360TIP3    H2 7087   2.276   3.862   3.257 -0.4145 -0.4667  1.1475
 2361TIP3   OH2 7088   1.909   5.414   1.896  0.1344  0.5791 -0.4265
 2361TIP3    H1 7089   1.834   5.356   1.903 -1.2672  1.9822 -2.5951
 2361TIP3    H2 7090   1.911   5.462   1.979 -0.3953 -0.5589  0.2585
 2362TIP3   OH2 7091   2.836   2.143   2.943  0.5652 -0.2984 -0.2226
 2362TIP3    H1 7092   2.879   2.060   2.923  0.1058 -0.9417  1.2798
 2362TIP3    H2 7093   2.746   2.132   2.913  0.0025 -1.0874  1.5973
 2363TIP3   OH2 7094   2.759   3.660   2.428  0.4714  0.3783  0.2312
 2363TIP3    H1 7095   2.680   3.691   2.472  0.2019  1.6523 -1.0539
 2363TIP3    H2 7096   2.727   3.591   2.369  0.7450 -0.9154  1.5379
 2364TIP3   OH2 7097   0.920   3.648   2.464 -0.0293  0.5632 -0.2776
 2364TIP3    H1 7098   0.985   3.624   2.530  0.2877  3.3475  0.5658
 2364TIP3    H2 7099   0.968   3.648   2.382  0.7500  1.4012  0.1652
 2365TIP3   OH2 7100   3.248   1.239   1.892 -0.1344 -0.3438 -0.1796
 2365TIP3    H1 7101   3.221   1.213   1.980  1.0706  0.0457  0.3268
 2365TIP3    H2 7102   3.317   1.176   1.868  0.7663  0.5935 -0.1208
 2366TIP3   OH2 7103   1.756   5.068   2.161 -0.3254 -0.5155 -0.5850
 2366TIP3    H1 7104   1.789   4.989   2.203 -0.1196  1.3575  3.1772
 2366TIP3    H2 7105   1.751   5.133   2.231  0.2075  3.0898 -3.5549
 2367TIP3   OH2 7106   0.173   3.705   2.190 -0.3081 -0.5799 -0.9854
 2367TIP3    H1 7107   0.138   3.702   2.101  1.1370 -1.4785 -1.5691
 2367TIP3    H2 7108   0.209   3.617   2.204 -0.0597 -0.2866  0.2983
 2368TIP3   OH2 7109   2.858   2.459   5.163 -0.3220 -0.7187  0.3518
 2368TIP3    H1 7110   2.807   2.510   5.226 -1.6035 -2.3244  0.6666
 2368TIP3    H2 7111   2.802   2.453   5.086  0.0675 -1.1561  0.0976
 2369TIP3   OH2 7112   6.174   4.475   0.186 -0.4582  0.0258 -0.4679
 2369TIP3    H1 7113   6.236   4.546   0.170 -1.9179  1.4744  0.0613
 2369TIP3    H2 7114   6.203   4.437   0.269 -1.9048  2.6108  1.3359
 2370TIP3   OH2 7115   0.786   1.723   4.096 -0.4711  0.1543 -0.3981
 2370TIP3    H1 7116   0.846   1.702   4.024  0.7820 -1.1121  0.9520
 2370TIP3    H2 7117   0.744   1.639   4.117 -0.0758  0.2730  0.9674
 2371TIP3   OH2 7118   2.540   4.678   4.248  0.1303  0.4540  0.3335
 2371TIP3    H1 7119   2.561   4.584   4.244  0.3632  0.5251 -0.4438
 2371TIP3    H2 7120   2.518   4.694   4.339  0.6723 -0.2361  0.6007
 2372TIP3   OH2 7121   2.637   2.954   3.109  0.2797  0.6837  0.7043
 2372TIP3    H1 7122   2.584   2.883   3.144 -1.3175  1.5810  0.2068
 2372TIP3    H2 7123   2.654   3.011   3.184  1.0409  0.1267  0.9744
 2373TIP3   OH2 7124   2.920   1.422   2.133 -0.0764  0.3919  0.0223
 2373TIP3    H1 7125   3.002   1.422   2.183  0.2531  0.3562 -0.5009
 2373TIP3    H2 7126   2.941   1.371   2.054 -0.7417 -0.0109  0.1012
 2374TIP3   OH2 7127   0.540   0.715   2.857 -0.3832  0.0877 -0.3308
 2374TIP3    H1 7128   0.459   0.761   2.881  0.0854  1.6020 -1.4505
 2374TIP3    H2 7129   0.513   0.653   2.789 -0.7028  0.1884 -0.3000
 2375TIP3   OH2 7130   2.015   0.566   2.557 -0.6477  0.1718  0.0179
 2375TIP3    H1 7131   2.023   0.626   2.483 -1.3836  1.1134  0.6853
 2375TIP3    H2 7132   1.964   0.493   2.523  0.2941 -0.1162 -0.8121
 2376TIP3   OH2 7133   3.695   2.065   4.411 -0.1650 -0.4835  0.0074
 2376TIP3    H1 7134   3.711   2.150   4.450 -0.5953 -0.0076 -0.8225
 2376TIP3    H2 7135   3.777   2.017   4.423  0.0617  0.0254  0.5189
 2377TIP3   OH2 7136   1.802   5.825   2.073  0.8278  0.0179  0.0579
 2377TIP3    H1 7137   1.786   5.844   2.165  1.0559 -1.8897  0.5201
 2377TIP3    H2 7138   1.831   5.734   2.071  3.4647  0.7567 -1.6053
 2378TIP3   OH2 7139   5.508   3.398   4.526 -0.6093 -0.0499 -0.0582
 2378TIP3    H1 7140   5.476   3.318   4.484  0.5374 -0.2301 -0.6289
 2378TIP3    H2 7141   5.526   3.458   4.453 -0.8453  0.4890  0.3253
 2379TIP3   OH2 7142   2.244   5.406   3.348  0.2582 -0.0233  0.0596
 2379TIP3    H1 7143   2.304   5.332   3.361  0.7637  0.4670  0.5786
 2379TIP3    H2 7144   2.296   5.483   3.371 -0.6001  0.4029  0.6113
 2380TIP3   OH2 7145   5.763   2.993   1.374  0.2636 -0.2334  0.2718
 2380TIP3    H1 7146   5.782   3.016   1.465 -3.2857  1.6229  0.7279
 2380TIP3    H2 7147   5.849   2.978   1.334  2.1385  1.6454  3.2254
 2381TIP3   OH2 7148   2.515   0.736   3.535  0.1887  0.7381  0.5654
 2381TIP3    H1 7149   2.608   0.718   3.528  0.1044 -0.0595  1.3161
 2381TIP3    H2 7150   2.477   0.654   3.567 -1.1556  0.1974 -2.1107
 2382TIP3   OH2 7151   2.540   3.613   4.952  0.4414 -0.0297  0.3353
 2382TIP3    H1 7152   2.503   3.669   5.020  1.5853  1.5476 -0.2806
 2382TIP3    H2 7153   2.574   3.537   4.999  1.6154  1.2388  1.6363
 2383TIP3   OH2 7154   2.800   0.231   3.340 -0.0199 -0.1710  0.2764
 2383TIP3    H1 7155   2.891   0.258   3.353  0.1317 -1.2034  1.6466
 2383TIP3    H2 7156   2.787   0.233   3.245  1.0036  1.2845  0.1381
 2384TIP3   OH2 7157   1.247   4.919   1.969  0.3179  0.1873 -0.1962
 2384TIP3    H1 7158   1.335   4.890   1.992  1.0040  0.1790 -2.5862
 2384TIP3    H2 7159   1.209   4.846   1.921 -0.2982  0.8562 -0.7572
 2385TIP3   OH2 7160   4.425   0.127   4.572  0.4009 -0.6973  0.4002
 2385TIP3    H1 7161   4.502   0.181   4.591  0.1822 -0.1518 -0.2063
 2385TIP3    H2 7162   4.454   0.069   4.501  0.5532 -1.1974  0.8648
 2386TIP3   OH2 7163   3.891   4.046   4.293  0.1286 -0.1996 -0.6020
 2386TIP3    H1 7164   3.870   4.138   4.282 -0.2772 -0.0730  0.9152
 2386TIP3    H2 7165   3.954   4.026   4.224 -0.5747  0.9335 -1.5901
 2387TIP3   OH2 7166   0.905   3.320   2.957 -0.0105 -0.2137  0.1328
 2387TIP3    H1 7167   0.947   3.246   2.913  2.4776  0.0588  1.8186
 2387TIP3    H2 7168   0.954   3.397   2.926 -1.7356  0.6231 -0.6332
 2388TIP3   OH2 7169   6.264   1.316   1.828 -0.2689 -0.1820 -0.2836
 2388TIP3    H1 7170   6.265   1.314   1.924 -3.2882 -1.4570 -0.1667
 2388TIP3    H2 7171   6.285   1.407   1.806  0.3937  0.1663  1.5818
 2389TIP3   OH2 7172   3.258   1.750   1.707 -0.6286  0.1290  0.2789
 2389TIP3    H1 7173   3.316   1.730   1.633 -1.9890  0.9634 -1.0704
 2389TIP3    H2 7174   3.317   1.782   1.776  0.9078 -2.5434  0.3364
 2390TIP3   OH2 7175   3.400   1.496   1.893  0.4773  0.0404 -0.0302
 2390TIP3    H1 7176   3.361   1.492   1.806 -0.5717 -1.7323  0.4609
 2390TIP3    H2 7177   3.359   1.424   1.941  2.0767  0.0783  1.5059
 2391TIP3   OH2 7178   0.317   0.862   2.123  0.3746 -0.1727  0.4647
 2391TIP3    H1 7179   0.268   0.911   2.189  2.4833  1.6223  0.8369
 2391TIP3    H2 7180   0.361   0.930   2.072  1.2511 -1.6401 -0.8023
 2392TIP3   OH2 7181   5.931   4.417   4.647 -0.2614 -0.7383 -0.1190
 2392TIP3    H1 7182   6.012   4.412   4.596  1.5579 -0.0410  2.5273
 2392TIP3    H2 7183   5.901   4.508   4.634  0.0952 -0.6103 -0.0514
 2393TIP3   OH2 7184   3.769   0.260   2.709  0.1346  0.0879 -0.9535
 2393TIP3    H1 7185   3.846   0.225   2.665  2.0671 -0.4695  2.5270
 2393TIP3    H2 7186   3.781   0.355   2.706  1.0305  0.0051 -0.3845
 2394TIP3   OH2 7187   5.255   0.328   4.778 -0.0675 -0.2738 -0.0718
 2394TIP3    H1 7188   5.330   0.373   4.740 -0.6010  0.6161 -0.0934
 2394TIP3    H2 7189   5.194   0.398   4.800 -0.3875 -0.8873  1.0665
 2395TIP3   OH2 7190   6.019   2.845   2.488 -0.1705  0.1000  0.0927
 2395TIP3    H1 7191   5.935   2.801   2.472 -0.4919 -0.3847  2.6710
 2395TIP3    H2 7192   6.038   2.828   2.580  1.9117  1.6887  0.0381
 2396TIP3   OH2 7193   0.034   5.750   1.569  0.1244 -0.2696  0.0266
 2396TIP3    H1 7194  -0.049   5.762   1.523  0.2772  0.7121 -0.0160
 2396TIP3    H2 7195   0.089   5.701   1.508 -0.5514 -1.3315  0.2249
 2397TIP3   OH2 7196   5.992   4.347   4.216 -0.6016 -0.0358  0.0762
 2397TIP3    H1 7197   5.987   4.299   4.133  1.1498  0.4139 -0.3498
 2397TIP3    H2 7198   6.038   4.428   4.194  0.4663 -0.1741  1.5659
 2398TIP3   OH2 7199   1.792   1.454   1.368  0.1395 -0.2981  0.3423
 2398TIP3    H1 7200   1.704   1.481   1.341 -0.2233 -0.2100  1.5833
 2398TIP3    H2 7201   1.840   1.535   1.381 -0.2002 -0.2954  1.6207
 2399TIP3   OH2 7202   0.972   2.321   4.185 -0.2359  0.3778 -0.0035
 2399TIP3    H1 7203   1.066   2.305   4.172 -0.4254 -1.8168  0.8566
 2399TIP3    H2 7204   0.967   2.413   4.211  1.8280  0.2807  0.9781
 2400TIP3   OH2 7205   4.933   3.187   4.251 -0.5793 -0.4427  0.2093
 2400TIP3    H1 7206   4.935   3.213   4.343  2.9500  0.3686  0.0592
 2400TIP3    H2 7207   4.987   3.107   4.248  2.0782  1.2310 -1.4251
 2401TIP3   OH2 7208   1.765   1.297   5.032 -0.7486 -0.4025  0.7509
 2401TIP3    H1 7209   1.782   1.323   4.942 -1.6019  0.1734  0.7492
 2401TIP3    H2 7210   1.682   1.250   5.029 -0.1334 -1.5747  1.0441
 2402TIP3   OH2 7211   1.840   3.886   4.871 -0.2118  0.8159 -0.3429
 2402TIP3    H1 7212   1.826   3.956   4.934 -1.6114  1.0064 -0.8350
 2402TIP3    H2 7213   1.839   3.806   4.923  0.7989  1.0876  0.1373
 2403TIP3   OH2 7214   0.978   2.511   3.563 -0.3315  0.4914 -0.0949
 2403TIP3    H1 7215   0.957   2.473   3.649  0.1937  0.6395  0.0979
 2403TIP3    H2 7216   0.928   2.458   3.501  1.3984 -1.3995  0.0342
 2404TIP3   OH2 7217   4.479   2.641   2.127 -0.3285 -0.3796 -0.3318
 2404TIP3    H1 7218   4.466   2.615   2.218 -0.9239  0.5587 -0.1289
 2404TIP3    H2 7219   4.549   2.585   2.095  0.7520  0.1077  1.0732
 2405TIP3   OH2 7220   1.411   0.286   2.502 -0.8523 -0.1356  0.2618
 2405TIP3    H1 7221   1.353   0.216   2.473 -0.5493  0.2342 -1.3273
 2405TIP3    H2 7222   1.361   0.367   2.485 -1.2322  0.0782  2.1448
 2406TIP3   OH2 7223   5.321   0.871   0.670 -0.1697 -0.4462 -0.4217
 2406TIP3    H1 7224   5.316   0.961   0.639  0.8869  0.4080  1.7350
 2406TIP3    H2 7225   5.375   0.826   0.604  1.4014  1.1091 -0.2667
 2407TIP3   OH2 7226   0.627   4.644   2.885  0.0099 -0.0715 -0.5386
 2407TIP3    H1 7227   0.546   4.609   2.847 -0.4914 -0.1372  0.5760
 2407TIP3    H2 7228   0.679   4.567   2.907 -0.0987 -0.0544 -0.2255
 2408TIP3   OH2 7229   0.377   2.206   3.450  0.2975  0.3231 -0.1858
 2408TIP3    H1 7230   0.354   2.270   3.382  1.0885  0.8375  0.0081
 2408TIP3    H2 7231   0.342   2.123   3.418  2.0945  0.2075 -2.0808
 2409TIP3   OH2 7232   2.139   3.316   2.815 -0.1688  0.0532  0.2428
 2409TIP3    H1 7233   2.111   3.236   2.770 -0.2096  0.5130 -0.5749
 2409TIP3    H2 7234   2.157   3.288   2.905 -0.5322 -0.8015  0.0625
 2410TIP3   OH2 7235   3.295   4.763   4.453  0.4986 -0.0621  0.0860
 2410TIP3    H1 7236   3.264   4.725   4.535  2.1282 -1.1879  0.2343
 2410TIP3    H2 7237   3.216   4.776   4.400 -0.2153 -3.6394  0.0536
 2411TIP3   OH2 7238   0.501   4.776   4.815 -0.5615  0.6937  0.7216
 2411TIP3    H1 7239   0.489   4.866   4.845  0.5244  0.8172  0.8332
 2411TIP3    H2 7240   0.594   4.757   4.831 -0.7254 -0.3819  0.5244
 2412TIP3   OH2 7241   1.216   4.347   2.342 -0.5099  0.6291 -0.2405
 2412TIP3    H1 7242   1.271   4.425   2.336  0.6292 -0.0131  1.1469
 2412TIP3    H2 7243   1.227   4.317   2.433 -1.5609 -0.6869 -0.5116
 2413TIP3   OH2 7244   0.277   0.112   1.582 -0.2585 -0.2333 -0.4837
 2413TIP3    H1 7245   0.294   0.029   1.628  0.4354 -0.0447 -0.3842
 2413TIP3    H2 7246   0.182   0.121   1.583 -0.2225  0.4654  2.1457
 2414TIP3   OH2 7247   5.292   2.298   3.833 -0.1491  0.7999 -0.4195
 2414TIP3    H1 7248   5.272   2.307   3.926  0.9995 -0.5989 -0.0042
 2414TIP3    H2 7249   5.207   2.311   3.789 -1.1605 -0.6693  0.9734
 2415TIP3   OH2 7250   1.853   1.485   0.025 -0.0872  0.0968 -0.3278
 2415TIP3    H1 7251   1.889   1.515   0.108 -0.2239 -1.4286  0.3062
 2415TIP3    H2 7252   1.759   1.480   0.040 -0.3103  1.4846 -1.1382
 2416TIP3   OH2 7253   1.128   2.476   0.964 -0.4210 -0.6293 -0.3543
 2416TIP3    H1 7254   1.193   2.410   0.941 -1.6031 -1.8657 -0.2984
 2416TIP3    H2 7255   1.078   2.489   0.883 -0.9644 -0.7195 -0.0372
 2417TIP3   OH2 7256   0.941   2.674   0.758 -0.2123 -0.0312  0.0589
 2417TIP3    H1 7257   0.894   2.638   0.833  1.7343  0.2691  1.5110
 2417TIP3    H2 7258   0.972   2.598   0.709 -0.7342 -0.2455  0.0611
 2418TIP3   OH2 7259   4.950   3.164   0.178  0.0658  0.1072 -0.2571
 2418TIP3    H1 7260   5.001   3.216   0.116  0.8312 -0.8772 -0.4841
 2418TIP3    H2 7261   4.908   3.097   0.124 -0.4219  0.1091  0.1088
 2419TIP3   OH2 7262   3.461   1.120   4.818  0.5722 -0.5594  0.7219
 2419TIP3    H1 7263   3.389   1.066   4.786  1.9241 -1.0101 -1.7968
 2419TIP3    H2 7264   3.523   1.122   4.746  1.9583  1.9023  1.8734
 2420TIP3   OH2 7265   5.321   1.085   0.513 -0.1915 -0.0417 -0.0799
 2420TIP3    H1 7266   5.394   1.063   0.455 -1.7252 -0.7316 -1.8768
 2420TIP3    H2 7267   5.318   1.181   0.511  1.6455  0.1022  1.3917
 2421TIP3   OH2 7268   0.792   0.273   0.955 -0.2373  0.0688  0.4684
 2421TIP3    H1 7269   0.815   0.180   0.942 -0.7776 -0.3047  1.9899
 2421TIP3    H2 7270   0.703   0.271   0.990 -1.0328  1.2994 -1.3532
 2422TIP3   OH2 7271   5.916   1.240   2.279 -0.0058  0.4178 -0.0738
 2422TIP3    H1 7272   5.915   1.149   2.248  4.5252 -0.2560  1.0831
 2422TIP3    H2 7273   5.878   1.235   2.367 -0.6871 -0.1382 -0.3866
 2423TIP3   OH2 7274   5.239   4.966   1.931  0.0221  0.4427 -0.3248
 2423TIP3    H1 7275   5.300   4.892   1.939 -0.6023 -0.1471 -0.8359
 2423TIP3    H2 7276   5.236   4.983   1.836  0.7623  1.6559 -0.1549
 2424TIP3   OH2 7277   4.315   5.941   0.125  0.3790 -0.2382  0.2035
 2424TIP3    H1 7278   4.312   5.893   0.042  0.2938  0.2873 -0.1032
 2424TIP3    H2 7279   4.224   5.947   0.152  0.0086  2.1998 -1.2150
 2425TIP3   OH2 7280   5.909   4.480   2.670  0.0622  0.4790 -0.0996
 2425TIP3    H1 7281   5.832   4.536   2.657 -0.0833  0.0253 -1.2848
 2425TIP3    H2 7282   5.900   4.411   2.605 -0.5785 -1.8755  2.2903
 2426TIP3   OH2 7283   1.964   4.380   4.088  0.7003 -0.2760  0.3512
 2426TIP3    H1 7284   2.043   4.349   4.132  0.3743 -1.9972 -0.1906
 2426TIP3    H2 7285   1.970   4.343   4.000 -0.7660 -0.5794  0.3539
 2427TIP3   OH2 7286   0.650   4.052   0.692 -0.1843 -0.1107  0.1195
 2427TIP3    H1 7287   0.582   4.114   0.718  0.2446  0.2846  0.3082
 2427TIP3    H2 7288   0.632   4.034   0.600  1.2794  2.3989 -0.7429
 2428TIP3   OH2 7289   4.956   4.125   2.832  0.2542  0.0208  0.4322
 2428TIP3    H1 7290   5.008   4.178   2.892 -0.0126  0.2077  0.4974
 2428TIP3    H2 7291   5.008   4.046   2.819  0.4171  0.0791  0.7305
 2429TIP3   OH2 7292   3.827   3.311   2.430 -0.3734  0.2150 -0.0474
 2429TIP3    H1 7293   3.758   3.251   2.461 -0.2694 -0.7741 -1.6074
 2429TIP3    H2 7294   3.831   3.295   2.336  0.0861  2.2872 -0.4172
 2430TIP3   OH2 7295   5.491   4.302   4.443  0.1727 -0.2565 -0.0187
 2430TIP3    H1 7296   5.519   4.331   4.530 -1.7825 -1.8742  1.2367
 2430TIP3    H2 7297   5.418   4.359   4.421  1.1416  0.6635 -1.0315
 2431TIP3   OH2 7298   1.571   4.888   3.261  0.2686  0.5088  0.1523
 2431TIP3    H1 7299   1.513   4.911   3.189  1.8770 -0.7922 -1.6661
 2431TIP3    H2 7300   1.585   4.970   3.308 -0.1180  1.6141 -1.5678
 2432TIP3   OH2 7301   3.779   5.772   4.669 -0.3322 -0.1832 -0.1408
 2432TIP3    H1 7302   3.773   5.860   4.706 -0.6536 -0.4372  0.4098
 2432TIP3    H2 7303   3.755   5.784   4.577 -0.7663  0.2413  0.0235
 2433TIP3   OH2 7304   4.238   3.421   2.736 -0.1064  0.2755 -0.0727
 2433TIP3    H1 7305   4.165   3.361   2.719  1.1813 -1.3273 -0.2814
 2433TIP3    H2 7306   4.237   3.482   2.662 -2.0323  1.1718  0.6345
 2434TIP3   OH2 7307   5.123   3.439   1.656 -0.0458 -0.7245  0.6700
 2434TIP3    H1 7308   5.049   3.424   1.715 -1.1222  0.2943 -0.3400
 2434TIP3    H2 7309   5.083   3.442   1.569  1.0722  0.5883  0.1708
 2435TIP3   OH2 7310   4.834   3.143   3.783  0.0316 -0.0818 -0.3445
 2435TIP3    H1 7311   4.776   3.130   3.708  1.8255  1.2075 -2.0559
 2435TIP3    H2 7312   4.775   3.151   3.858 -1.7984 -2.5666 -1.3550
 2436TIP3   OH2 7313   1.886   4.599   4.579  0.3411 -0.2519 -0.0643
 2436TIP3    H1 7314   1.925   4.533   4.521  1.4766 -0.3864  0.8222
 2436TIP3    H2 7315   1.815   4.637   4.528  2.6235  1.1617 -2.4195
 2437TIP3   OH2 7316   5.673   5.143   3.302  0.2975  0.3022  0.7408
 2437TIP3    H1 7317   5.709   5.187   3.379  0.4956  3.0456 -0.7920
 2437TIP3    H2 7318   5.747   5.139   3.240  0.0256 -1.4576  0.4726
 2438TIP3   OH2 7319   6.161   2.203   2.748  0.2203 -0.2685 -0.2162
 2438TIP3    H1 7320   6.244   2.166   2.716 -0.2296 -2.2175  0.6928
 2438TIP3    H2 7321   6.186   2.257   2.823  0.5935 -1.9753  0.9404
 2439TIP3   OH2 7322   5.396   4.176   3.369 -0.1208  0.0724  0.0568
 2439TIP3    H1 7323   5.428   4.156   3.457  0.0205 -1.2766 -0.2799
 2439TIP3    H2 7324   5.305   4.145   3.369 -0.5545  1.2688  0.1098
 2440TIP3   OH2 7325   3.267   0.312   0.265 -0.1253 -0.0314  0.2563
 2440TIP3    H1 7326   3.252   0.218   0.278  1.2519 -0.2926  0.1242
 2440TIP3    H2 7327   3.332   0.316   0.196  1.3105  0.9479  1.5982
 2441TIP3   OH2 7328   5.079   5.386   3.984  0.1581  0.4423  0.1191
 2441TIP3    H1 7329   5.148   5.320   3.975  0.7031  0.8337  1.2081
 2441TIP3    H2 7330   5.048   5.400   3.895 -0.2727 -1.5941 -0.1027
 2442TIP3   OH2 7331   4.058   3.361   5.132 -0.3816  0.2591 -1.0579
 2442TIP3    H1 7332   4.108   3.330   5.208  1.6285  4.1626 -0.5224
 2442TIP3    H2 7333   3.969   3.333   5.148  0.5969 -2.0175  0.9485
 2443TIP3   OH2 7334   4.377   5.854   3.435  0.3790  0.1535  0.1200
 2443TIP3    H1 7335   4.449   5.792   3.451 -0.4698 -0.8194  0.2634
 2443TIP3    H2 7336   4.326   5.851   3.516  0.4733  1.2676  0.2340
 2444TIP3   OH2 7337   5.048   5.823   1.817 -0.3176 -0.1046  0.0740
 2444TIP3    H1 7338   5.117   5.888   1.807  0.1367 -0.8723 -2.7941
 2444TIP3    H2 7339   5.091   5.747   1.855 -0.1933  0.2899  0.7282
 2445TIP3   OH2 7340   4.469   0.746   3.954  0.3768  0.3264 -0.0720
 2445TIP3    H1 7341   4.521   0.825   3.959  4.2369 -1.9944  0.5433
 2445TIP3    H2 7342   4.450   0.723   4.045 -1.2388  0.7712 -0.2666
 2446TIP3   OH2 7343   2.405   4.680   3.667  0.0868  0.3390  0.1427
 2446TIP3    H1 7344   2.442   4.661   3.753 -1.1907  0.3225  0.7074
 2446TIP3    H2 7345   2.421   4.774   3.654 -1.7146  0.8801  1.4400
 2447TIP3   OH2 7346   6.217   2.107   4.347  0.4156  0.3423  0.0253
 2447TIP3    H1 7347   6.235   2.046   4.276  1.3799 -0.3268  0.8194
 2447TIP3    H2 7348   6.287   2.092   4.410  0.3518  1.8737  0.5072
 2448TIP3   OH2 7349   2.411   4.377   1.138  0.1387  0.2498 -0.0074
 2448TIP3    H1 7350   2.364   4.455   1.111 -0.5069 -0.0611  0.2085
 2448TIP3    H2 7351   2.388   4.364   1.230  0.8125  0.2102  0.1655
 2449TIP3   OH2 7352   0.886   3.767   3.020  0.4520  1.0138 -0.1290
 2449TIP3    H1 7353   0.879   3.853   3.061  0.9423 -0.0977  2.4826
 2449TIP3    H2 7354   0.921   3.710   3.088 -0.3227 -1.3868 -1.5892
 2450TIP3   OH2 7355   0.256   5.263   3.093  0.0585  0.1064 -0.0443
 2450TIP3    H1 7356   0.176   5.311   3.111 -0.2023 -0.4542  0.3129
 2450TIP3    H2 7357   0.319   5.296   3.158 -0.0415  0.1465  0.0317
 2451TIP3   OH2 7358   2.752   5.291   0.951  0.3324 -0.2995  0.1356
 2451TIP3    H1 7359   2.681   5.316   0.893 -0.0448 -0.9614  0.2941
 2451TIP3    H2 7360   2.724   5.323   1.037  0.8096  0.5279 -0.0087
 2452TIP3   OH2 7361   1.760   4.316   3.220  0.0148 -0.1990 -0.1346
 2452TIP3    H1 7362   1.770   4.233   3.267 -0.1177 -0.1063  0.0603
 2452TIP3    H2 7363   1.846   4.358   3.227  0.1980 -0.4940 -0.5719
 2453TIP3   OH2 7364   2.695   5.039   2.365 -0.4034 -0.1637 -0.2146
 2453TIP3    H1 7365   2.774   4.996   2.398 -0.9607 -0.2044  1.1259
 2453TIP3    H2 7366   2.702   5.031   2.270  2.2027  1.6252 -0.2916
 2454TIP3   OH2 7367   4.837   4.784   4.442  0.9750 -0.3655 -0.0428
 2454TIP3    H1 7368   4.869   4.859   4.492 -0.8773  0.7520 -0.4413
 2454TIP3    H2 7369   4.905   4.767   4.377  1.8668  0.3270  0.6983
 2455TIP3   OH2 7370   3.665   0.354   0.617  0.0282  0.1146  0.5219
 2455TIP3    H1 7371   3.718   0.350   0.538 -0.1660 -2.0942  0.4408
 2455TIP3    H2 7372   3.576   0.339   0.587 -0.2376  0.5996  1.0339
 2456TIP3   OH2 7373   3.224   1.573   2.628  0.2118 -0.4915 -0.6707
 2456TIP3    H1 7374   3.284   1.501   2.648 -0.0758 -1.5798 -3.3087
 2456TIP3    H2 7375   3.159   1.534   2.569 -0.5890  1.6864 -1.3184
 2457TIP3   OH2 7376   5.891   3.505   0.596 -0.6032 -0.6300  0.3360
 2457TIP3    H1 7377   5.839   3.433   0.560  1.0758 -1.7797  0.0654
 2457TIP3    H2 7378   5.978   3.467   0.609  0.4626  1.4684 -0.2051
 2458TIP3   OH2 7379   1.853   2.071   1.087  0.6190  0.3300 -0.2779
 2458TIP3    H1 7380   1.823   2.059   1.177 -0.6601  0.2760 -0.6830
 2458TIP3    H2 7381   1.948   2.062   1.091  0.5164 -0.3594  0.9492
 2459TIP3   OH2 7382   0.753   3.771   2.167  0.6955 -0.1965  0.1809
 2459TIP3    H1 7383   0.682   3.752   2.105 -0.2452  0.7150  0.9307
 2459TIP3    H2 7384   0.832   3.743   2.122  0.1043  0.8805 -1.6437
 2460TIP3   OH2 7385   2.056   0.830   3.227 -0.6208 -0.4444 -0.3036
 2460TIP3    H1 7386   1.969   0.810   3.193 -0.7216  0.0243 -0.3181
 2460TIP3    H2 7387   2.045   0.909   3.279  0.1589  0.8012 -1.9482
 2461TIP3   OH2 7388   3.184   0.992   1.609  0.0139 -0.4730  0.3548
 2461TIP3    H1 7389   3.113   1.028   1.662  0.9584  0.1819  1.2193
 2461TIP3    H2 7390   3.263   1.003   1.663  0.5806 -2.5071  0.0313
 2462TIP3   OH2 7391   4.865   1.267   1.315  0.8376 -0.0717  0.3677
 2462TIP3    H1 7392   4.922   1.322   1.261  0.6825 -0.4732 -0.2169
 2462TIP3    H2 7393   4.924   1.225   1.377  1.0893  0.0411  0.2053
 2463TIP3   OH2 7394   2.942   1.253   1.197 -0.1810 -0.0775  0.0290
 2463TIP3    H1 7395   2.920   1.298   1.116  1.7247  1.2794  0.2003
 2463TIP3    H2 7396   2.943   1.160   1.173 -0.2784  0.2502 -1.3282
 2464TIP3   OH2 7397   2.318   1.367   3.892  0.4368  0.4277 -0.1681
 2464TIP3    H1 7398   2.314   1.453   3.933  2.2186 -0.3920  1.9037
 2464TIP3    H2 7399   2.320   1.385   3.798  0.0991  2.5724  0.1895
 2465TIP3   OH2 7400   3.226   1.099   3.205 -0.0874 -0.2078  0.3219
 2465TIP3    H1 7401   3.319   1.116   3.192 -0.4674  0.4621 -1.8813
 2465TIP3    H2 7402   3.190   1.184   3.230 -0.5028  0.1932 -1.5131
 2466TIP3   OH2 7403   5.807   5.483   4.181 -0.3248  0.4391  0.2586
 2466TIP3    H1 7404   5.728   5.494   4.234  0.1349 -1.1077  1.3250
 2466TIP3    H2 7405   5.801   5.393   4.148  0.0920  0.9215 -1.1991
 2467TIP3   OH2 7406   3.074   3.694   1.077  0.0205  0.1420  0.0186
 2467TIP3    H1 7407   3.064   3.673   0.984 -2.5476 -0.0426  0.2504
 2467TIP3    H2 7408   3.145   3.637   1.107 -0.7787 -1.6821 -1.3164
 2468TIP3   OH2 7409   3.578   4.742   3.709  0.6396  0.2488 -0.2470
 2468TIP3    H1 7410   3.512   4.809   3.695  1.0604  0.7415  0.1135
 2468TIP3    H2 7411   3.563   4.679   3.638 -0.2108  0.3459 -0.1696
 2469TIP3   OH2 7412   0.427   2.240   1.873 -0.4621  0.4031  0.4349
 2469TIP3    H1 7413   0.373   2.163   1.858 -0.0733  0.2940 -0.5374
 2469TIP3    H2 7414   0.517   2.206   1.873 -0.2689  0.8803 -0.3204
 2470TIP3   OH2 7415   0.867   4.979   2.683 -0.0562  0.1392  0.0153
 2470TIP3    H1 7416   0.868   5.075   2.679  0.6865  0.1706  0.7218
 2470TIP3    H2 7417   0.816   4.958   2.761  2.4757  0.0814  1.7852
 2471TIP3   OH2 7418   0.887   1.855   4.905 -0.1887  0.2493  0.2264
 2471TIP3    H1 7419   0.963   1.882   4.853 -0.9937  0.9543 -0.6287
 2471TIP3    H2 7420   0.817   1.915   4.877 -1.1846 -0.6914  0.6367
 2472TIP3   OH2 7421   4.778   0.222   3.681 -0.0412  0.9980  0.5836
 2472TIP3    H1 7422   4.838   0.281   3.726  0.3105  0.7378  0.4620
 2472TIP3    H2 7423   4.701   0.217   3.738 -0.7584  2.8088 -0.1523
 2473TIP3   OH2 7424   5.125   1.760   3.058 -0.2027  0.2791 -0.2021
 2473TIP3    H1 7425   5.137   1.685   3.115 -1.6968  1.0986  1.2511
 2473TIP3    H2 7426   5.033   1.757   3.032 -0.6745  2.2808  0.9771
 2474TIP3   OH2 7427   1.558   1.297   0.374 -0.0250  0.0267  0.5274
 2474TIP3    H1 7428   1.473   1.275   0.413 -0.4596 -0.5458 -0.6688
 2474TIP3    H2 7429   1.594   1.213   0.346  1.2481  0.1907  1.5766
 2475TIP3   OH2 7430   4.727   3.597   1.980  0.6424  0.4511  0.1675
 2475TIP3    H1 7431   4.771   3.633   1.903 -0.4966  1.0738 -0.2146
 2475TIP3    H2 7432   4.654   3.546   1.945 -0.3697  1.3847  0.8186
 2476TIP3   OH2 7433   4.579   3.320   0.688 -0.2827 -0.0836  0.3507
 2476TIP3    H1 7434   4.655   3.327   0.630  0.5144 -0.2740  1.3395
 2476TIP3    H2 7435   4.526   3.397   0.667  1.7549  1.8455  1.8024
 2477TIP3   OH2 7436   5.842   4.632   4.107 -0.1362 -0.0029  0.2923
 2477TIP3    H1 7437   5.831   4.597   4.196  1.8617 -1.6639 -0.0475
 2477TIP3    H2 7438   5.764   4.603   4.060 -0.3984 -0.5996  1.0748
 2478TIP3   OH2 7439   5.671   5.738   1.631  0.0992  0.1622 -0.1389
 2478TIP3    H1 7440   5.601   5.796   1.601 -0.9728 -1.3211 -0.6401
 2478TIP3    H2 7441   5.631   5.686   1.701  1.3927  0.8109  1.1483
 2479TIP3   OH2 7442   0.780   2.356   2.831 -0.1442  0.0730 -0.2417
 2479TIP3    H1 7443   0.731   2.302   2.769  1.2920 -0.1253 -1.2539
 2479TIP3    H2 7444   0.750   2.328   2.917 -1.7170 -0.0972 -0.8090
 2480TIP3   OH2 7445   0.736   5.364   0.068  0.1531  0.0113  0.0267
 2480TIP3    H1 7446   0.669   5.331   0.007  0.4479 -1.3276  0.4076
 2480TIP3    H2 7447   0.738   5.300   0.139  0.4848  1.0600  0.9874
 2481TIP3   OH2 7448   0.342   1.400   3.085  0.2723  0.2221  0.2689
 2481TIP3    H1 7449   0.305   1.337   3.146 -0.5081 -0.6114 -1.0376
 2481TIP3    H2 7450   0.306   1.485   3.113 -1.1265 -0.3220  0.1816
 2482TIP3   OH2 7451   4.325   4.746   5.141  0.3146 -0.1368  0.1488
 2482TIP3    H1 7452   4.243   4.793   5.125 -0.9582 -2.6284 -1.2045
 2482TIP3    H2 7453   4.388   4.787   5.081  0.1213  1.7578  1.1565
 2483TIP3   OH2 7454   6.250   4.537   2.292  0.5497 -0.3327 -0.7607
 2483TIP3    H1 7455   6.340   4.522   2.321  0.0189 -2.7041 -0.0955
 2483TIP3    H2 7456   6.201   4.547   2.373  0.0561 -0.0532 -1.0907
 2484TIP3   OH2 7457   2.701   1.565   1.334 -0.2267  0.4260  0.6955
 2484TIP3    H1 7458   2.726   1.576   1.426 -0.8213  0.9103  0.8110
 2484TIP3    H2 7459   2.618   1.614   1.327 -0.3951  0.0414  0.0052
 2485TIP3   OH2 7460   6.154   5.417   3.001  0.2396  0.0455  0.2407
 2485TIP3    H1 7461   6.064   5.449   2.990 -0.1056 -1.4129 -1.7908
 2485TIP3    H2 7462   6.172   5.368   2.921  2.7049 -0.1032  0.8093
 2486TIP3   OH2 7463   5.070   2.991   2.503 -0.1488  0.5548  0.4393
 2486TIP3    H1 7464   5.035   2.945   2.580 -2.2733  0.7834 -0.3515
 2486TIP3    H2 7465   5.091   3.078   2.536  3.8934 -0.7205  1.9502
 2487TIP3   OH2 7466   2.325   3.282   0.131  0.2592 -0.0745 -0.0058
 2487TIP3    H1 7467   2.301   3.212   0.191 -0.3316 -0.1601 -0.3325
 2487TIP3    H2 7468   2.300   3.362   0.176 -0.3283 -0.1462 -0.1948
 2488TIP3   OH2 7469   1.578   3.044   2.863  0.2137 -0.1514 -0.2240
 2488TIP3    H1 7470   1.655   3.008   2.906 -1.4734  0.3640  3.6424
 2488TIP3    H2 7471   1.532   2.967   2.828  0.2924 -0.9674  1.4003
 2489TIP3   OH2 7472   2.846   4.892   4.892 -0.2138 -0.1485 -0.0079
 2489TIP3    H1 7473   2.871   4.833   4.820 -1.9706 -0.4072 -0.4485
 2489TIP3    H2 7474   2.758   4.863   4.917 -0.5982  1.4769  0.6372
 2490TIP3   OH2 7475   0.390   0.685   1.775  0.2384 -0.2747 -0.4494
 2490TIP3    H1 7476   0.421   0.749   1.710 -1.0068  1.8511  0.9482
 2490TIP3    H2 7477   0.420   0.719   1.859  0.5133 -2.1841  0.2844
 2491TIP3   OH2 7478   3.666   4.447   1.642 -0.3863 -0.2395  0.1269
 2491TIP3    H1 7479   3.677   4.397   1.561 -1.2668 -0.0571 -0.1201
 2491TIP3    H2 7480   3.741   4.422   1.696 -1.4267 -2.7947  0.5162
 2492TIP3   OH2 7481   1.934   0.138   3.016  0.1841  0.5965  1.0238
 2492TIP3    H1 7482   1.894   0.055   2.989 -0.8985  1.4683 -0.1711
 2492TIP3    H2 7483   2.006   0.152   2.955 -0.0784  0.8664  0.7705
 2493TIP3   OH2 7484   5.232   4.981   1.611  0.0410 -0.0048  0.0381
 2493TIP3    H1 7485   5.327   4.983   1.596 -0.3449 -1.0403 -3.2851
 2493TIP3    H2 7486   5.208   5.074   1.620  0.9776  0.6145 -2.8264
 2494TIP3   OH2 7487   2.233   5.903   3.553  0.0126 -0.1848 -0.1652
 2494TIP3    H1 7488   2.160   5.859   3.509 -0.3153  0.7381 -0.5779
 2494TIP3    H2 7489   2.217   5.996   3.537  2.1509 -0.0085 -1.6404
 2495TIP3   OH2 7490   0.653   1.042   3.326  0.4971 -0.1453 -0.0242
 2495TIP3    H1 7491   0.694   0.997   3.251 -3.0313 -2.8774 -0.5368
 2495TIP3    H2 7492   0.603   1.113   3.286  2.1217  1.2578  0.3099
 2496TIP3   OH2 7493   2.412   4.158   0.548 -0.4109 -0.5552 -0.2404
 2496TIP3    H1 7494   2.391   4.130   0.459  0.3722 -2.5733  0.1602
 2496TIP3    H2 7495   2.330   4.194   0.581 -1.1464 -1.2012 -1.2704
 2497TIP3   OH2 7496   1.248   4.897   0.136  0.5016  0.3535  0.3312
 2497TIP3    H1 7497   1.221   4.965   0.074 -1.5091  0.3683  1.1613
 2497TIP3    H2 7498   1.271   4.946   0.215  1.7065  0.2287  0.0811
 2498TIP3   OH2 7499   3.691   4.304   0.685  0.1362  0.1878  0.4663
 2498TIP3    H1 7500   3.733   4.256   0.756  0.4001 -2.3164 -1.2487
 2498TIP3    H2 7501   3.637   4.238   0.640  0.0282  1.6261 -1.6903
 2499TIP3   OH2 7502   0.702   2.743   1.155  0.1919  0.2711  0.4194
 2499TIP3    H1 7503   0.670   2.714   1.240  0.9555  0.3067  0.7288
 2499TIP3    H2 7504   0.623   2.755   1.102 -0.2551 -0.2643  0.9569
 2500TIP3   OH2 7505   1.044   3.636   4.303 -0.6190  0.0762 -0.2951
 2500TIP3    H1 7506   0.991   3.663   4.378  1.0496  1.5167  0.4478
 2500TIP3    H2 7507   0.988   3.576   4.255 -2.3409  0.3375  1.2440
 2501TIP3   OH2 7508   4.874   4.522   4.555 -0.0683 -0.0818 -0.4863
 2501TIP3    H1 7509   4.921   4.574   4.620 -0.4892  1.3390 -1.2800
 2501TIP3    H2 7510   4.834   4.451   4.606 -0.0332  0.7377  0.7243
 2502TIP3   OH2 7511   4.398   5.475   3.635  0.4228  0.1247  0.0552
 2502TIP3    H1 7512   4.453   5.511   3.705 -0.2468 -0.4441  0.8877
 2502TIP3    H2 7513   4.316   5.453   3.678  0.2263 -0.8428 -0.7893
 2503TIP3   OH2 7514   2.545   1.451   0.566  0.0381 -0.2731  0.2487
 2503TIP3    H1 7515   2.636   1.455   0.595 -0.0294  2.5569  0.3731
 2503TIP3    H2 7516   2.534   1.531   0.514 -2.3807 -0.5584  0.2387
 2504TIP3   OH2 7517   2.916   5.909   4.784  0.2518 -0.2086  0.3026
 2504TIP3    H1 7518   2.939   5.835   4.727 -1.3578 -0.5579  0.0576
 2504TIP3    H2 7519   2.847   5.955   4.736 -0.3820  0.1078  1.4891
 2505TIP3   OH2 7520   1.498   0.548   1.547 -0.8246  0.4824  0.4598
 2505TIP3    H1 7521   1.577   0.571   1.597 -0.7120  1.6963 -0.2462
 2505TIP3    H2 7522   1.531   0.504   1.469 -0.9417 -0.3837  0.8872
 2506TIP3   OH2 7523   6.304   5.419   2.764  0.2427 -0.4352 -0.3264
 2506TIP3    H1 7524   6.373   5.485   2.774 -1.2779  1.0733  0.8378
 2506TIP3    H2 7525   6.263   5.439   2.679 -0.5778  0.5225  0.2776
 2507TIP3   OH2 7526   4.701   2.734   3.131  0.1342 -0.1309  0.2031
 2507TIP3    H1 7527   4.722   2.643   3.152  0.3956 -0.0542  0.2872
 2507TIP3    H2 7528   4.657   2.767   3.210  1.5771  0.3056  0.8660
 2508TIP3   OH2 7529   1.281   0.901   4.550 -0.3187  0.4524 -0.2425
 2508TIP3    H1 7530   1.334   0.980   4.553  0.6145 -0.0903 -1.5676
 2508TIP3    H2 7531   1.322   0.846   4.483 -0.7045 -1.3224  0.8830
 2509TIP3   OH2 7532   2.308   4.070   0.277  0.1474  0.0221  0.3288
 2509TIP3    H1 7533   2.323   4.097   0.187  0.7470  0.6097  0.5941
 2509TIP3    H2 7534   2.239   4.004   0.271 -1.6583  1.8515 -0.3196
 2510TIP3   OH2 7535   2.210   4.526   0.834 -0.0315 -0.7899 -0.5171
 2510TIP3    H1 7536   2.272   4.592   0.804 -3.3845  1.5709 -2.9289
 2510TIP3    H2 7537   2.194   4.547   0.926  3.1259 -1.9906  0.4388
 2511TIP3   OH2 7538   2.373   0.349   1.294 -0.7270  0.2094 -0.1673
 2511TIP3    H1 7539   2.348   0.267   1.337  2.1926  0.4637  2.4559
 2511TIP3    H2 7540   2.327   0.417   1.344 -0.4907  0.3094 -0.0827
 2512TIP3   OH2 7541   1.890   0.844   2.149 -0.1006  0.0547 -0.1466
 2512TIP3    H1 7542   1.809   0.834   2.199  0.2365  0.4062  0.4822
 2512TIP3    H2 7543   1.870   0.910   2.083 -0.0749  0.7624  0.5525
 2513TIP3   OH2 7544   3.675   1.473   2.060  0.0199 -0.8771  0.2915
 2513TIP3    H1 7545   3.601   1.469   2.000 -1.4612 -0.5855  1.9981
 2513TIP3    H2 7546   3.649   1.418   2.133  0.2947  1.2784  2.1337
 2514TIP3   OH2 7547   5.784   0.631   1.205 -0.0715 -0.1686 -0.2892
 2514TIP3    H1 7548   5.871   0.631   1.165 -0.4756 -0.4978 -1.2030
 2514TIP3    H2 7549   5.748   0.717   1.183  0.2526  0.2269  0.6504
 2515TIP3   OH2 7550   1.391   3.143   4.380 -0.0630 -0.7355 -0.0525
 2515TIP3    H1 7551   1.426   3.060   4.414  0.3461  0.1324  1.8105
 2515TIP3    H2 7552   1.468   3.189   4.348 -0.1241 -0.6219 -0.0336
 2516TIP3   OH2 7553   4.208   3.488   4.030  0.3098 -0.2959 -0.0900
 2516TIP3    H1 7554   4.182   3.409   3.983  1.9345  0.1166 -1.8313
 2516TIP3    H2 7555   4.131   3.545   4.025 -0.5973 -1.4287  0.4821
 2517TIP3   OH2 7556   2.935   2.567   2.814  0.0817 -0.3749  0.1163
 2517TIP3    H1 7557   2.927   2.643   2.872 -1.4025 -0.7511  0.4459
 2517TIP3    H2 7558   3.010   2.519   2.848 -0.6353 -0.4868  1.6307
 2518TIP3   OH2 7559   4.456   1.892   4.337  0.0311 -0.0794 -0.3000
 2518TIP3    H1 7560   4.445   1.846   4.420  0.9002  0.5354  0.1739
 2518TIP3    H2 7561   4.494   1.977   4.361 -2.3883  1.3029 -1.0709
 2519TIP3   OH2 7562   5.861   5.510   4.794 -0.1637 -0.5588 -0.3456
 2519TIP3    H1 7563   5.880   5.459   4.873 -0.8932 -0.1748  0.0822
 2519TIP3    H2 7564   5.936   5.492   4.736  1.1141  0.2598  0.9703
 2520TIP3   OH2 7565   1.300   2.250   2.443  0.0666 -0.3663  0.0234
 2520TIP3    H1 7566   1.261   2.227   2.527  0.0287 -0.5442 -0.0424
 2520TIP3    H2 7567   1.283   2.174   2.387  1.3452 -0.8585  0.2752
 2521TIP3   OH2 7568   5.828   0.649   1.674  0.2064  0.2757 -0.1332
 2521TIP3    H1 7569   5.814   0.594   1.596 -1.9748 -0.4332  0.6758
 2521TIP3    H2 7570   5.828   0.587   1.747  1.7376  0.9787  0.5023
 2522TIP3   OH2 7571   4.247   3.710   4.435 -0.1447 -0.3884  0.4533
 2522TIP3    H1 7572   4.198   3.728   4.515  0.8575 -0.7526  1.1643
 2522TIP3    H2 7573   4.332   3.750   4.450  0.4259 -1.4082  0.0163
 2523TIP3   OH2 7574   4.748   4.811   4.733  0.7231 -0.4332 -0.6094
 2523TIP3    H1 7575   4.842   4.797   4.722  0.4229 -1.2244 -2.3755
 2523TIP3    H2 7576   4.723   4.748   4.801  1.6260  0.5856  0.7380
 2524TIP3   OH2 7577   0.720   4.219   3.167 -0.4839  0.0018  0.0023
 2524TIP3    H1 7578   0.761   4.296   3.128  2.6600 -1.5741 -0.1960
 2524TIP3    H2 7579   0.626   4.232   3.156 -0.2936  4.7753  1.9652
 2525TIP3   OH2 7580   2.160   2.172   2.117 -0.2647  0.7594 -0.1211
 2525TIP3    H1 7581   2.221   2.225   2.169  0.4384  0.8263 -0.9801
 2525TIP3    H2 7582   2.108   2.237   2.068  0.7994  0.6994 -1.4021
 2526TIP3   OH2 7583   0.823   1.281   3.450 -0.2069 -0.1387  1.0950
 2526TIP3    H1 7584   0.749   1.249   3.400 -1.2703  0.1491  2.4209
 2526TIP3    H2 7585   0.784   1.318   3.529  1.3715 -0.2361  1.9586
 2527TIP3   OH2 7586   2.307   4.412   1.404 -0.0051  0.0995 -0.2056
 2527TIP3    H1 7587   2.221   4.422   1.446 -0.6062 -1.0188 -1.1141
 2527TIP3    H2 7588   2.369   4.411   1.476 -0.5323  2.8230  0.3910
 2528TIP3   OH2 7589   5.708   1.323   3.741 -0.6578  0.0706 -0.6873
 2528TIP3    H1 7590   5.804   1.321   3.730 -0.7565 -0.1602 -1.6115
 2528TIP3    H2 7591   5.687   1.238   3.780 -0.3322  0.7646  1.1125
 2529TIP3   OH2 7592   3.692   2.057   4.060  0.3001 -0.1939  0.4209
 2529TIP3    H1 7593   3.703   2.009   4.142 -1.1153 -3.3994 -1.0964
 2529TIP3    H2 7594   3.673   2.147   4.087  0.1450 -1.0667  3.5845
 2530TIP3   OH2 7595   4.662   0.502   4.185 -0.0878 -0.0301 -0.1254
 2530TIP3    H1 7596   4.629   0.418   4.217 -0.7774 -0.0108 -0.7519
 2530TIP3    H2 7597   4.592   0.565   4.204  0.5910  0.4942  0.7102
 2531TIP3   OH2 7598   3.767   5.568   4.132 -0.0589 -0.4197  0.3022
 2531TIP3    H1 7599   3.731   5.627   4.065 -1.6749  0.1854  1.6326
 2531TIP3    H2 7600   3.850   5.609   4.157 -0.6105  0.6970  0.3839
 2532TIP3   OH2 7601   4.109   4.967   3.237 -0.3266  0.4793  0.2233
 2532TIP3    H1 7602   4.091   4.927   3.152  1.7617  0.4982 -0.2981
 2532TIP3    H2 7603   4.203   4.984   3.236 -0.2007  0.3676  2.5888
 2533TIP3   OH2 7604   3.796   2.614   2.917 -0.6920  0.0942 -0.2427
 2533TIP3    H1 7605   3.778   2.665   2.996  0.3095 -2.2382  1.6204
 2533TIP3    H2 7606   3.737   2.539   2.922  0.2455 -0.7265 -1.0479
 2534TIP3   OH2 7607   5.215   3.951   4.588 -0.3446 -0.3498 -0.2050
 2534TIP3    H1 7608   5.174   4.037   4.595  0.8025  0.0912  1.8974
 2534TIP3    H2 7609   5.240   3.928   4.678 -0.8159 -3.0005 -0.6606
 2535TIP3   OH2 7610   3.300   1.330   3.539 -0.2323 -0.4773 -0.1940
 2535TIP3    H1 7611   3.244   1.372   3.603  0.4933  0.6048 -0.2517
 2535TIP3    H2 7612   3.246   1.324   3.460 -0.6485 -0.5300  0.0903
 2536TIP3   OH2 7613   3.875   4.113   3.075  0.6541  0.0996  0.6074
 2536TIP3    H1 7614   3.795   4.154   3.106  0.2204 -1.0751  1.0831
 2536TIP3    H2 7615   3.856   4.090   2.984  0.6018  0.1739  0.5988
 2537TIP3   OH2 7616   1.329   4.211   0.423  0.2397 -0.2511  0.4212
 2537TIP3    H1 7617   1.363   4.139   0.477 -0.0702  0.5171  1.7034
 2537TIP3    H2 7618   1.295   4.274   0.487  1.6152  1.6320 -0.5986
 2538TIP3   OH2 7619   2.664   4.863   1.691  0.1906  0.4707 -0.4305
 2538TIP3    H1 7620   2.680   4.814   1.610  0.0803  1.6916 -1.2183
 2538TIP3    H2 7621   2.634   4.797   1.754 -2.5460 -0.1293 -2.1927
 2539TIP3   OH2 7622   5.547   1.178   0.081  0.4674 -0.5249  0.4024
 2539TIP3    H1 7623   5.580   1.265   0.057 -1.0385  0.3996  1.4454
 2539TIP3    H2 7624   5.556   1.126   0.002  0.9870  0.7206 -0.3942
 2540TIP3   OH2 7625   3.816   3.886   4.795  0.1784 -0.0634 -0.6289
 2540TIP3    H1 7626   3.894   3.938   4.817  0.8952 -1.6654  0.8095
 2540TIP3    H2 7627   3.745   3.930   4.841  0.8319 -0.5043  0.8431
 2541TIP3   OH2 7628   0.233   2.285   0.759  0.1918 -0.8434  0.3614
 2541TIP3    H1 7629   0.249   2.372   0.794  0.1183  0.1903 -1.9525
 2541TIP3    H2 7630   0.153   2.255   0.802  0.2459  0.2043  1.2145
 2542TIP3   OH2 7631   1.460   4.580   3.626  0.1509  0.3060 -0.7833
 2542TIP3    H1 7632   1.473   4.491   3.659  1.1255  0.8978  0.5015
 2542TIP3    H2 7633   1.541   4.600   3.579  0.3872  0.8935 -0.1413
 2543TIP3   OH2 7634   3.872   4.264   0.949 -0.1579  0.1863 -0.1119
 2543TIP3    H1 7635   3.864   4.170   0.933  0.0051  0.2989 -0.9427
 2543TIP3    H2 7636   3.875   4.273   1.044 -1.3927 -0.5373  0.0070
 2544TIP3   OH2 7637   3.267   4.102   4.904  0.3045 -0.3391  0.3092
 2544TIP3    H1 7638   3.341   4.122   4.848 -0.2504  0.2674 -0.2157
 2544TIP3    H2 7639   3.234   4.018   4.871  0.7122 -0.5735  0.4988
 2545TIP3   OH2 7640   5.871   5.767   4.860  0.6040  0.1523 -0.2564
 2545TIP3    H1 7641   5.800   5.778   4.923  0.2960 -0.1352 -0.5522
 2545TIP3    H2 7642   5.867   5.675   4.834  1.8602 -0.1821  0.6396
 2546TIP3   OH2 7643   0.782   5.031   4.242 -0.2312  0.0059  0.0746
 2546TIP3    H1 7644   0.838   5.062   4.171  0.3276  0.6611  0.7870
 2546TIP3    H2 7645   0.711   5.095   4.246  0.2849  0.5533  0.7617
 2547TIP3   OH2 7646   4.331   4.213   2.721  0.0278  0.1034 -0.4155
 2547TIP3    H1 7647   4.354   4.274   2.791 -1.4995 -0.7558  0.9026
 2547TIP3    H2 7648   4.329   4.127   2.764  0.1257 -0.6027 -1.7713
 2548TIP3   OH2 7649   3.229   2.578   2.414 -0.3180 -0.7534  0.1473
 2548TIP3    H1 7650   3.291   2.577   2.487 -0.5615 -2.3800  0.3668
 2548TIP3    H2 7651   3.143   2.579   2.456 -0.4574  0.2842 -0.1482
 2549TIP3   OH2 7652   2.814   2.313   0.931  0.3240  0.3685 -0.5347
 2549TIP3    H1 7653   2.899   2.273   0.951 -0.1509 -0.8369 -0.8073
 2549TIP3    H2 7654   2.834   2.386   0.873  1.3010  1.0338  0.6074
 2550TIP3   OH2 7655   6.027   0.829   4.209 -0.7773 -0.3957  0.0331
 2550TIP3    H1 7656   5.975   0.818   4.129  0.8276  2.1150 -1.5256
 2550TIP3    H2 7657   5.972   0.882   4.267 -1.7658 -1.8192  0.4288
 2551TIP3   OH2 7658   5.972   5.292   1.699  0.3495  0.6468  0.7644
 2551TIP3    H1 7659   5.961   5.296   1.794  2.1846 -0.4963  1.0716
 2551TIP3    H2 7660   6.000   5.203   1.682  0.3888  0.9401 -0.8251
 2552TIP3   OH2 7661   4.350   3.059   1.098  0.0136 -0.4526  0.0620
 2552TIP3    H1 7662   4.292   2.983   1.089  1.0034 -1.2871  0.5254
 2552TIP3    H2 7663   4.436   3.027   1.071  0.8965 -0.1056  2.2918
 2553TIP3   OH2 7664   3.132   3.672   3.215 -0.4228 -0.7341 -0.1077
 2553TIP3    H1 7665   3.066   3.603   3.214  0.6247 -1.7710 -0.8736
 2553TIP3    H2 7666   3.215   3.625   3.229  0.3299  0.3577 -0.7597
 2554TIP3   OH2 7667   3.992   0.021   4.942  0.3332 -0.2179  0.4380
 2554TIP3    H1 7668   4.056   0.091   4.951  1.4512 -1.1524 -0.0352
 2554TIP3    H2 7669   4.002  -0.009   4.851 -3.0893  1.7863 -0.7861
 2555TIP3   OH2 7670   0.638   5.058   1.057  0.0194  0.1436 -0.3656
 2555TIP3    H1 7671   0.611   5.076   1.147  0.8541 -0.4948  0.0151
 2555TIP3    H2 7672   0.657   5.145   1.020 -0.9308  0.4621 -0.1385
 2556TIP3   OH2 7673   0.099   1.465   4.884  0.0197  0.0088  0.3808
 2556TIP3    H1 7674   0.125   1.511   4.964 -1.8441  0.3581  0.8252
 2556TIP3    H2 7675   0.172   1.405   4.866  1.3234  1.2831  1.2432
 2557TIP3   OH2 7676   1.630   4.088   0.071 -0.3106  0.3876 -0.4058
 2557TIP3    H1 7677   1.569   4.033   0.022 -0.6402  0.0818  0.3403
 2557TIP3    H2 7678   1.576   4.157   0.109 -0.1181  0.3972 -0.1453
 2558TIP3   OH2 7679   5.089   5.882   3.379  0.7347 -0.0165 -0.2786
 2558TIP3    H1 7680   5.044   5.911   3.300 -0.1300 -0.0823  0.1686
 2558TIP3    H2 7681   5.175   5.854   3.350  0.1726 -0.7259 -1.3078
 2559TIP3   OH2 7682   1.121   0.964   0.540 -0.3226  0.5836 -0.1056
 2559TIP3    H1 7683   1.146   1.011   0.620 -0.6585  3.2894 -1.4431
 2559TIP3    H2 7684   1.200   0.918   0.513 -0.0371  0.1274  1.4282
 2560TIP3   OH2 7685   1.222   3.862   3.655 -0.5798  0.4087  0.3751
 2560TIP3    H1 7686   1.161   3.864   3.729 -1.2011 -1.8502  0.0001
 2560TIP3    H2 7687   1.202   3.780   3.610  1.2054  0.7240 -1.1009
 2561TIP3   OH2 7688   4.564   1.096   3.414  0.0187  0.2765  0.2268
 2561TIP3    H1 7689   4.649   1.056   3.433 -0.2232 -0.1631  0.3913
 2561TIP3    H2 7690   4.570   1.120   3.321 -0.7835 -2.6179 -0.6867
 2562TIP3   OH2 7691   2.960   4.093   2.239 -0.0093 -0.1482 -0.4978
 2562TIP3    H1 7692   2.949   4.144   2.158 -0.0119  0.9419  0.1731
 2562TIP3    H2 7693   2.912   4.142   2.305 -1.6068 -2.0199 -0.1908
 2563TIP3   OH2 7694   2.040   0.038   1.542  0.3298 -0.0543  0.1749
 2563TIP3    H1 7695   1.967   0.100   1.553  0.3195  0.4177 -2.0659
 2563TIP3    H2 7696   2.076   0.028   1.630 -1.4424  0.9340  1.0735
 2564TIP3   OH2 7697   0.807   0.921   4.846  0.2757  0.0863  0.0485
 2564TIP3    H1 7698   0.857   0.938   4.926  1.2553  2.5149 -0.9955
 2564TIP3    H2 7699   0.869   0.875   4.789  0.5115  0.8505 -0.3203
 2565TIP3   OH2 7700   2.581   5.929   2.067  0.3111  0.1429  0.1202
 2565TIP3    H1 7701   2.629   5.942   2.148 -0.1944  0.8382  0.3171
 2565TIP3    H2 7702   2.575   5.834   2.058  0.9852  0.0545  0.5204
 2566TIP3   OH2 7703   3.274   3.724   3.554  0.2099 -0.5199 -0.1754
 2566TIP3    H1 7704   3.208   3.655   3.556 -0.7070  0.3025 -0.8185
 2566TIP3    H2 7705   3.356   3.680   3.575 -0.6865 -1.3828  1.6855
 2567TIP3   OH2 7706   3.961   2.941   3.868  0.1300  0.3865 -0.0665
 2567TIP3    H1 7707   3.882   2.936   3.921 -0.1976 -1.6013 -0.6808
 2567TIP3    H2 7708   4.033   2.924   3.929 -0.1199 -0.3314  0.0273
 2568TIP3   OH2 7709   2.618   4.719   1.934 -0.1617  0.6672 -0.2172
 2568TIP3    H1 7710   2.713   4.730   1.939 -0.1066  0.0790  0.0876
 2568TIP3    H2 7711   2.588   4.728   2.025 -0.1951 -0.8592 -0.0514
 2569TIP3   OH2 7712   6.194   4.226   1.927 -0.5025  0.0492  0.3820
 2569TIP3    H1 7713   6.143   4.288   1.980 -0.7304  0.2524 -0.0679
 2569TIP3    H2 7714   6.195   4.145   1.978 -1.1087  0.1064  0.4906
 2570TIP3   OH2 7715   2.215   5.213   4.775 -0.4941 -0.0995 -0.3420
 2570TIP3    H1 7716   2.176   5.133   4.809 -1.7000  0.5921 -0.0119
 2570TIP3    H2 7717   2.145   5.254   4.724  0.3698  0.3257 -1.2276
 2571TIP3   OH2 7718   1.967   2.995   0.798  0.6048  0.4594 -0.2216
 2571TIP3    H1 7719   1.934   3.036   0.718  0.9739 -0.7389 -1.0143
 2571TIP3    H2 7720   2.051   2.957   0.773  1.9405  2.1466  1.3708
 2572TIP3   OH2 7721   3.802   4.560   4.311  0.7659 -0.1794  0.0663
 2572TIP3    H1 7722   3.855   4.572   4.390  0.0714 -1.0404  0.6818
 2572TIP3    H2 7723   3.714   4.588   4.338  0.5767 -0.2330 -0.4889
 2573TIP3   OH2 7724   0.556   5.855   3.629 -0.3986 -0.5335  0.3084
 2573TIP3    H1 7725   0.477   5.868   3.682 -0.2973  0.6110  0.1902
 2573TIP3    H2 7726   0.580   5.943   3.600 -0.8288 -1.1930 -2.2137
 2574TIP3   OH2 7727   1.857   2.323   0.264  0.3159  0.9281  0.1630
 2574TIP3    H1 7728   1.861   2.412   0.301 -0.5847  1.0927 -0.1132
 2574TIP3    H2 7729   1.850   2.266   0.341  0.7161  1.1029  0.3335
 2575TIP3   OH2 7730   0.893   4.293   4.689  0.4994  0.0610 -0.0342
 2575TIP3    H1 7731   0.927   4.263   4.773 -1.1563  0.3087  0.7604
 2575TIP3    H2 7732   0.897   4.216   4.632 -0.9193 -0.8979  1.1049
 2576TIP3   OH2 7733   2.005   2.481   1.494 -0.1668  0.1715 -0.2132
 2576TIP3    H1 7734   1.991   2.557   1.550  0.5194 -0.7676  1.2886
 2576TIP3    H2 7735   1.916   2.449   1.474 -0.4884  1.7207 -1.4369
 2577TIP3   OH2 7736   0.482   0.237   3.231  0.6150 -0.2421  0.7012
 2577TIP3    H1 7737   0.577   0.234   3.220  0.4535  1.5882 -1.7935
 2577TIP3    H2 7738   0.454   0.316   3.185 -1.8387  1.0925  4.0038
 2578TIP3   OH2 7739   2.353   2.854   2.922  0.0035 -0.4629 -0.0542
 2578TIP3    H1 7740   2.303   2.817   2.850 -1.0137 -2.3650  1.5207
 2578TIP3    H2 7741   2.443   2.822   2.909 -0.0119 -0.2078 -0.8249
 2579TIP3   OH2 7742   0.310   3.896   1.086 -0.5250  0.2089 -0.0737
 2579TIP3    H1 7743   0.300   3.989   1.109 -0.2418  0.2950 -0.2984
 2579TIP3    H2 7744   0.269   3.850   1.159 -0.6687  0.5112  0.0414
 2580TIP3   OH2 7745   4.490   2.362   0.805  0.1971 -0.3553  0.0634
 2580TIP3    H1 7746   4.509   2.319   0.888 -0.0207 -2.2380 -0.8068
 2580TIP3    H2 7747   4.407   2.408   0.819  1.3454  1.4154  1.5573
 2581TIP3   OH2 7748   0.029   3.869   0.213  0.2788 -0.3133 -0.5295
 2581TIP3    H1 7749   0.005   3.848   0.122 -0.0216 -0.3932 -0.4344
 2581TIP3    H2 7750  -0.015   3.801   0.265  0.8028 -0.5227 -0.3560
 2582TIP3   OH2 7751   0.704   3.466   0.630 -0.5674 -0.3699 -0.3250
 2582TIP3    H1 7752   0.760   3.398   0.668 -2.4072 -0.8092  1.8368
 2582TIP3    H2 7753   0.719   3.543   0.685 -0.8275  0.0292 -0.8066
 2583TIP3   OH2 7754   0.651   0.656   3.965  0.1902 -0.7221  0.1515
 2583TIP3    H1 7755   0.611   0.682   4.048  0.9407 -0.2719  0.3831
 2583TIP3    H2 7756   0.630   0.563   3.956  0.5920 -0.9130  1.1245
 2584TIP3   OH2 7757   2.055   0.440   1.892 -0.3413  1.0245 -0.3435
 2584TIP3    H1 7758   2.031   0.530   1.873 -1.9111  0.4894 -1.1067
 2584TIP3    H2 7759   2.049   0.395   1.807 -1.3671 -0.1519  0.3240
 2585TIP3   OH2 7760   0.623   1.292   3.212  0.2774 -0.2751 -0.4716
 2585TIP3    H1 7761   0.565   1.348   3.263  0.3996 -0.8353  0.2906
 2585TIP3    H2 7762   0.681   1.353   3.166 -0.9580  0.3013 -1.3291
 2586TIP3   OH2 7763   1.408   5.496   3.700  0.6136  0.6570  0.2584
 2586TIP3    H1 7764   1.465   5.474   3.773  0.2883 -0.1926  0.2721
 2586TIP3    H2 7765   1.319   5.478   3.732  0.5080 -0.2782 -0.5147
 2587TIP3   OH2 7766   6.120   0.095   1.496 -0.1374  0.4320  0.6270
 2587TIP3    H1 7767   6.099   0.003   1.513 -0.0975  0.0078 -1.4071
 2587TIP3    H2 7768   6.213   0.103   1.517  0.3594 -0.5216 -1.0743
 2588TIP3   OH2 7769   6.356   5.384   3.998 -0.0715 -0.2736  0.2230
 2588TIP3    H1 7770   6.404   5.416   3.921 -0.1611  1.6974  0.9049
 2588TIP3    H2 7771   6.264   5.394   3.975 -0.1004  0.7865  0.7139
 2589TIP3   OH2 7772   4.469   3.481   1.633  0.1488 -0.2089  0.0035
 2589TIP3    H1 7773   4.557   3.462   1.600 -0.2056  1.1102 -1.9012
 2589TIP3    H2 7774   4.428   3.395   1.645  1.9976 -0.8847  1.9703
 2590TIP3   OH2 7775   5.431   1.733   0.264  0.0836 -0.4489 -0.1668
 2590TIP3    H1 7776   5.467   1.671   0.201  0.3722 -1.7563  1.2338
 2590TIP3    H2 7777   5.506   1.788   0.290  0.5749 -1.5808  0.9151
 2591TIP3   OH2 7778   2.170   3.206   4.058  0.1091 -0.6253  0.3952
 2591TIP3    H1 7779   2.235   3.164   4.002 -0.2426 -0.3004 -0.2658
 2591TIP3    H2 7780   2.202   3.296   4.068  0.3873 -0.7895  1.0667
 2592TIP3   OH2 7781   0.629   2.306   1.125  0.5674 -0.5284  0.5455
 2592TIP3    H1 7782   0.594   2.270   1.207 -0.2837  0.2814  0.5482
 2592TIP3    H2 7783   0.655   2.229   1.075  2.3227 -1.0121  2.0896
 2593TIP3   OH2 7784   3.262   2.367   3.892  0.5107 -0.4991 -0.3169
 2593TIP3    H1 7785   3.202   2.406   3.955 -0.7395 -0.5449 -1.4356
 2593TIP3    H2 7786   3.216   2.373   3.808  2.3790  0.1817 -1.3702
 2594TIP3   OH2 7787   5.107   2.368   0.136 -0.1403 -0.1249  0.2136
 2594TIP3    H1 7788   5.124   2.460   0.157  3.3504 -0.5469 -0.0896
 2594TIP3    H2 7789   5.117   2.323   0.220  1.3528 -0.5034 -0.1388
 2595TIP3   OH2 7790   5.101   4.014   5.177 -0.3336  0.2139 -0.1037
 2595TIP3    H1 7791   5.166   3.969   5.231 -0.2434  0.4569 -0.0068
 2595TIP3    H2 7792   5.084   3.954   5.105  0.3981  0.3685 -0.4155
 2596TIP3   OH2 7793   5.649   1.156   4.241 -0.1951  0.2810  0.3034
 2596TIP3    H1 7794   5.606   1.219   4.184  0.6931  0.7883  0.1930
 2596TIP3    H2 7795   5.576   1.104   4.277 -0.8357  0.5840 -0.5159
 2597TIP3   OH2 7796   1.961   1.355   2.775 -0.0991 -0.2570  0.2671
 2597TIP3    H1 7797   2.044   1.332   2.732  1.5823  0.6376  2.7709
 2597TIP3    H2 7798   1.941   1.442   2.742 -0.9765 -1.0894 -1.5452
 2598TIP3   OH2 7799   5.425   0.670   1.380 -0.7738  0.1773  0.2577
 2598TIP3    H1 7800   5.500   0.726   1.358 -0.0259 -1.0181 -0.3624
 2598TIP3    H2 7801   5.349   0.720   1.352 -0.0221 -0.0119 -2.3430
 2599TIP3   OH2 7802   0.945   1.382   1.011 -0.4313  0.0153  0.0255
 2599TIP3    H1 7803   0.858   1.341   1.009  0.1001 -1.2446  1.1008
 2599TIP3    H2 7804   0.985   1.357   0.928 -0.5076 -0.8011  0.2193
 2600TIP3   OH2 7805   1.307   0.048   0.582  0.2721 -0.5216  0.2584
 2600TIP3    H1 7806   1.220   0.087   0.594 -0.3105 -0.8107 -2.4343
 2600TIP3    H2 7807   1.341   0.090   0.503  1.4332 -2.3445 -0.2608
 2601TIP3   OH2 7808   0.378   2.976   4.752  0.4101  0.7193  0.3124
 2601TIP3    H1 7809   0.309   3.016   4.699  1.0815 -0.3305 -1.4684
 2601TIP3    H2 7810   0.332   2.934   4.824 -1.0979 -1.4403 -1.7438
 2602TIP3   OH2 7811   5.637   3.010   0.162  0.0171  0.9575  0.3220
 2602TIP3    H1 7812   5.635   3.052   0.248  1.1436 -0.4297  1.0704
 2602TIP3    H2 7813   5.723   2.968   0.158 -0.2734  0.4438 -1.2223
 2603TIP3   OH2 7814   5.080   4.059   0.865  0.4844 -0.7855 -0.2660
 2603TIP3    H1 7815   5.029   3.978   0.865 -0.2703 -0.3215 -0.9347
 2603TIP3    H2 7816   5.165   4.034   0.902  1.2289 -2.4948 -2.8821
 2604TIP3   OH2 7817   4.321   3.948   2.422  0.2796 -0.2661 -0.4899
 2604TIP3    H1 7818   4.345   3.864   2.382 -0.8552  0.3088 -2.5437
 2604TIP3    H2 7819   4.309   3.928   2.515  0.8960 -2.1683 -0.7667
 2605TIP3   OH2 7820   0.594   2.273   4.433  0.1807  0.1295  0.7581
 2605TIP3    H1 7821   0.643   2.273   4.351 -1.0666 -1.2438 -0.0557
 2605TIP3    H2 7822   0.560   2.363   4.440  1.7255  0.7473  0.7085
 2606TIP3   OH2 7823   0.281   1.664   4.749 -0.2749  0.6115  0.1001
 2606TIP3    H1 7824   0.203   1.630   4.792  0.1207 -2.5445 -1.3574
 2606TIP3    H2 7825   0.248   1.703   4.668 -0.5894  2.3713  1.0393
 2607TIP3   OH2 7826   5.810   3.566   2.987  0.0509  0.5206  0.4489
 2607TIP3    H1 7827   5.714   3.569   2.986  0.0112 -0.3023  1.0155
 2607TIP3    H2 7828   5.834   3.537   2.900 -0.3021 -0.9498  0.8064
 2608TIP3   OH2 7829   2.368   2.032   5.063 -0.3573 -0.4330 -0.0031
 2608TIP3    H1 7830   2.380   1.943   5.029  2.3325 -0.2708  0.3353
 2608TIP3    H2 7831   2.398   2.089   4.992  2.5142 -0.0087  1.3942
 2609TIP3   OH2 7832   3.659   0.541   5.033  0.1225  0.3103 -0.5511
 2609TIP3    H1 7833   3.618   0.462   5.070 -1.5253  0.5022 -1.8554
 2609TIP3    H2 7834   3.752   0.530   5.051 -0.2494 -1.1927  0.6527
 2610TIP3   OH2 7835   3.383   2.260   1.008  0.0859 -0.0600 -0.0311
 2610TIP3    H1 7836   3.347   2.184   0.962 -0.9836 -0.3574  1.2030
 2610TIP3    H2 7837   3.339   2.335   0.968 -0.0422 -0.2269 -0.2061
 2611TIP3   OH2 7838   4.778   3.868   2.582  0.2907  0.0710 -0.2431
 2611TIP3    H1 7839   4.803   3.794   2.638  2.8960  0.9544 -0.0933
 2611TIP3    H2 7840   4.756   3.938   2.644  0.6129  0.2631 -0.3449
 2612TIP3   OH2 7841   5.354   4.170   0.281  0.3374  0.1683  0.3655
 2612TIP3    H1 7842   5.333   4.168   0.375 -1.1047 -1.8857  0.0811
 2612TIP3    H2 7843   5.269   4.178   0.238  1.0030  1.3291 -0.7872
 2613TIP3   OH2 7844   1.846   5.071   1.289 -0.2340  0.6484 -0.0953
 2613TIP3    H1 7845   1.882   5.093   1.203  0.3230 -0.6867 -0.2182
 2613TIP3    H2 7846   1.923   5.056   1.344 -0.5931  1.0470  0.5260
 2614TIP3   OH2 7847   1.528   5.271   0.430  0.4919  0.2617  0.2701
 2614TIP3    H1 7848   1.553   5.302   0.517 -0.7120 -1.6169  1.3544
 2614TIP3    H2 7849   1.471   5.340   0.395  1.4821  1.3212  0.6804
 2615TIP3   OH2 7850   1.999   2.009   2.967  0.1793 -0.0313 -0.0128
 2615TIP3    H1 7851   1.949   1.962   3.034 -0.3194 -0.0290 -0.3790
 2615TIP3    H2 7852   2.009   2.098   3.002  0.2627 -0.1347  0.2311
 2616TIP3   OH2 7853   0.711   5.086   1.338  0.0104  0.3924  0.3737
 2616TIP3    H1 7854   0.695   5.067   1.431 -1.0296  0.9101  0.3233
 2616TIP3    H2 7855   0.805   5.075   1.327  0.2436  0.9004  1.6390
 2617TIP3   OH2 7856   3.308   0.513   5.142  0.5568 -0.0490 -0.5985
 2617TIP3    H1 7857   3.349   0.587   5.097  1.5009  0.8287  1.5747
 2617TIP3    H2 7858   3.214   0.530   5.132  0.7505  1.1922 -0.5704
 2618TIP3   OH2 7859   5.569   4.665   0.918  0.7676  0.0635 -0.3871
 2618TIP3    H1 7860   5.485   4.620   0.925  1.5529 -1.3586  0.4521
 2618TIP3    H2 7861   5.574   4.719   0.998  0.6498  0.1743 -0.4537
 2619TIP3   OH2 7862   3.106   3.922   0.648  0.4749  0.5177  0.2171
 2619TIP3    H1 7863   3.119   3.861   0.575 -1.0603  1.4676 -0.9182
 2619TIP3    H2 7864   3.027   3.891   0.692 -1.0719  2.3028 -1.1334
 2620TIP3   OH2 7865   0.068   2.654   1.919  0.2366  0.1392  0.0116
 2620TIP3    H1 7866   0.097   2.564   1.904 -0.2591  0.0943 -0.7333
 2620TIP3    H2 7867   0.145   2.707   1.897  0.3742 -0.0737 -0.0358
 2621TIP3   OH2 7868   2.315   1.191   2.960  0.2506  0.0995 -0.0906
 2621TIP3    H1 7869   2.337   1.098   2.958 -0.0657  0.0309 -0.4002
 2621TIP3    H2 7870   2.359   1.227   2.883  1.0537  0.3619  0.4797
 2622TIP3   OH2 7871   5.113   4.245   4.562  0.5937 -0.0039  0.5328
 2622TIP3    H1 7872   5.164   4.241   4.482 -0.3020 -0.0046 -0.0532
 2622TIP3    H2 7873   5.148   4.321   4.609  0.4421  0.6193 -0.3438
 2623TIP3   OH2 7874   2.883   4.737   4.674  0.4108 -0.0762  0.0513
 2623TIP3    H1 7875   2.922   4.773   4.595  1.2760 -0.1183  0.4440
 2623TIP3    H2 7876   2.824   4.668   4.642  2.4372 -1.6605 -0.4893
 2624TIP3   OH2 7877   1.487   4.257   0.209 -0.1920  0.1426  0.1061
 2624TIP3    H1 7878   1.429   4.221   0.276  1.5517 -0.9158  1.1205
 2624TIP3    H2 7879   1.545   4.316   0.257  0.5659 -0.0011 -0.6093
 2625TIP3   OH2 7880   3.157   1.559   2.247 -0.3596 -0.0784  0.9289
 2625TIP3    H1 7881   3.102   1.630   2.278 -1.7466 -0.5317 -0.3565
 2625TIP3    H2 7882   3.219   1.600   2.187  1.1259  0.5168  2.7915
 2626TIP3   OH2 7883   5.296   1.042   2.000  0.2167  0.3165  0.1811
 2626TIP3    H1 7884   5.382   1.036   2.044 -0.3547 -1.3152  1.1924
 2626TIP3    H2 7885   5.310   1.001   1.915  0.1908 -1.0790  0.8217
 2627TIP3   OH2 7886   5.161   2.710   0.463 -0.0372  0.6318 -0.0901
 2627TIP3    H1 7887   5.198   2.635   0.510 -0.2251  0.7721  0.2919
 2627TIP3    H2 7888   5.235   2.771   0.453 -0.3051  1.2656  1.3860
 2628TIP3   OH2 7889   4.589   2.120   1.662  0.1858 -0.0681 -0.3162
 2628TIP3    H1 7890   4.591   2.099   1.755 -2.1372 -0.3011 -0.2518
 2628TIP3    H2 7891   4.555   2.210   1.659 -0.3702 -0.2896 -0.9379
 2629TIP3   OH2 7892   4.506   0.922   1.672  0.6344 -0.6227  0.2603
 2629TIP3    H1 7893   4.568   0.959   1.736  0.9607 -0.5833 -0.0783
 2629TIP3    H2 7894   4.458   0.998   1.638 -0.6277 -0.7798  1.5743
 2630TIP3   OH2 7895   5.268   3.713   1.154 -0.2423  1.0960 -0.2659
 2630TIP3    H1 7896   5.349   3.753   1.187 -0.4089  0.7329  0.6099
 2630TIP3    H2 7897   5.294   3.671   1.072  1.0262 -0.9133  1.0560
 2631TIP3   OH2 7898   6.198   0.494   1.305 -0.2708 -1.0162 -0.5471
 2631TIP3    H1 7899   6.162   0.556   1.368 -0.7162  0.3419 -2.0508
 2631TIP3    H2 7900   6.137   0.421   1.306 -1.5811  0.0200 -1.0469
 2632TIP3   OH2 7901   6.300   2.113   1.581 -0.4412 -0.9385 -0.3297
 2632TIP3    H1 7902   6.386   2.074   1.599 -0.4671 -1.2803 -0.9244
 2632TIP3    H2 7903   6.290   2.181   1.647  1.8675  1.6266 -2.4015
 2633TIP3   OH2 7904   2.219   2.052   0.712  0.1562  0.6375  0.8434
 2633TIP3    H1 7905   2.274   2.049   0.790  1.9199 -1.6382 -0.3683
 2633TIP3    H2 7906   2.138   2.008   0.738  1.1578 -1.1155  1.1615
 2634TIP3   OH2 7907   5.008   1.803   2.084  0.6363  0.1194 -0.4916
 2634TIP3    H1 7908   4.915   1.810   2.102  0.6038  0.0874 -0.6425
 2634TIP3    H2 7909   5.036   1.893   2.067  0.2362 -0.0526 -2.3421
 2635TIP3   OH2 7910   0.217   1.940   0.738 -0.1972  0.5748  0.5708
 2635TIP3    H1 7911   0.272   1.991   0.679  0.1532  0.7809  1.0587
 2635TIP3    H2 7912   0.128   1.968   0.719 -0.0267  1.2048  0.6670
 2636TIP3   OH2 7913   5.549   2.561   3.212 -0.0651 -0.1795 -0.3457
 2636TIP3    H1 7914   5.492   2.578   3.287 -0.2740  1.5842 -0.8740
 2636TIP3    H2 7915   5.539   2.637   3.156 -0.2973 -1.6777 -2.4500
 2637TIP3   OH2 7916   2.623   2.367   3.347 -0.2700 -0.4563  0.5633
 2637TIP3    H1 7917   2.662   2.405   3.426 -1.0234  1.3517  0.1095
 2637TIP3    H2 7918   2.601   2.277   3.373  1.8444 -0.7458  1.5746
 2638TIP3   OH2 7919   0.455   0.550   1.187  0.3184 -0.1644 -0.4456
 2638TIP3    H1 7920   0.416   0.543   1.274  0.9795  0.2649 -0.1059
 2638TIP3    H2 7921   0.511   0.472   1.180 -0.0666 -0.4252 -0.6639
 2639TIP3   OH2 7922   1.890   2.882   3.450  0.4840  0.1614 -0.2477
 2639TIP3    H1 7923   1.810   2.932   3.440  0.4931  0.1569 -0.3414
 2639TIP3    H2 7924   1.883   2.812   3.386 -0.3072 -0.9789  1.0161
 2640TIP3   OH2 7925   1.567   1.567   4.865  0.1479 -0.0633  0.1086
 2640TIP3    H1 7926   1.635   1.526   4.812 -1.0542 -0.6963 -0.9856
 2640TIP3    H2 7927   1.604   1.653   4.889  0.1750  0.9176 -3.0247
 2641TIP3   OH2 7928   5.588   3.236   3.031 -0.1930 -0.6173  0.6628
 2641TIP3    H1 7929   5.635   3.265   2.953  2.2049 -1.8749  1.5555
 2641TIP3    H2 7930   5.562   3.318   3.074  0.1338  0.1119 -0.4570
 2642TIP3   OH2 7931   5.616   2.841   3.698 -0.0391  0.4545  0.7711
 2642TIP3    H1 7932   5.710   2.838   3.681 -0.6177  0.2924 -3.1762
 2642TIP3    H2 7933   5.608   2.816   3.790  3.6720 -0.7093  0.9352
 2643TIP3   OH2 7934   2.285   4.540   2.569  0.2414  0.6142 -0.0552
 2643TIP3    H1 7935   2.325   4.494   2.495  0.8128  1.8805 -0.5702
 2643TIP3    H2 7936   2.214   4.591   2.531 -0.4800  0.0521  0.5236
 2644TIP3   OH2 7937   4.468   1.288   3.582  0.5814  0.2823  0.2678
 2644TIP3    H1 7938   4.548   1.332   3.612  1.4865 -2.1750  1.6700
 2644TIP3    H2 7939   4.499   1.216   3.527 -0.5704 -1.2520  1.5431
 2645TIP3   OH2 7940   6.317   3.631   1.137  0.3194 -0.1728 -0.4259
 2645TIP3    H1 7941   6.239   3.645   1.191  0.5515 -0.3228 -0.0463
 2645TIP3    H2 7942   6.382   3.691   1.173  0.1560  0.5006 -1.2220
 2646TIP3   OH2 7943   6.139   0.873   0.997 -0.0716  0.0811 -0.2411
 2646TIP3    H1 7944   6.204   0.816   0.956 -0.0572 -0.2233  0.2064
 2646TIP3    H2 7945   6.091   0.911   0.923  1.8342  1.8023 -0.6872
 2647TIP3   OH2 7946   4.467   5.587   1.667 -0.1806 -0.4055 -0.0413
 2647TIP3    H1 7947   4.471   5.557   1.758 -0.3219  0.5640  0.3086
 2647TIP3    H2 7948   4.546   5.553   1.626 -1.1231 -2.6053 -0.1344
 2648TIP3   OH2 7949   5.792   4.191   3.285 -0.1944 -0.0085  0.4777
 2648TIP3    H1 7950   5.753   4.128   3.346  0.7320  1.3520  2.5735
 2648TIP3    H2 7951   5.760   4.276   3.314 -0.6281  0.6130 -1.6867
 2649TIP3   OH2 7952   0.752   3.448   1.426  0.0939  0.7390  0.0549
 2649TIP3    H1 7953   0.705   3.458   1.344  1.6871  1.2521 -0.8474
 2649TIP3    H2 7954   0.702   3.383   1.475 -2.5616  2.5897 -0.0159
 2650TIP3   OH2 7955   5.342   4.325   0.874  0.1677 -0.1858  0.1023
 2650TIP3    H1 7956   5.287   4.391   0.916  0.1794 -0.6834  0.9079
 2650TIP3    H2 7957   5.354   4.358   0.784 -2.5976 -0.7399 -0.5650
 2651TIP3   OH2 7958   4.598   5.598   2.491  0.3960  0.0317 -0.9357
 2651TIP3    H1 7959   4.639   5.574   2.574 -0.4076 -0.2899 -0.6153
 2651TIP3    H2 7960   4.620   5.690   2.479 -0.5676  0.4479  0.3070
 2652TIP3   OH2 7961   3.843   2.894   1.858  0.3526 -0.1033 -0.1360
 2652TIP3    H1 7962   3.901   2.967   1.878  0.9260 -0.8287  0.9033
 2652TIP3    H2 7963   3.841   2.842   1.938  0.1720 -1.3791 -0.9474
 2653TIP3   OH2 7964   2.844   1.229   4.630 -0.1592  0.3256 -0.0895
 2653TIP3    H1 7965   2.938   1.229   4.609 -0.0174 -0.0483  0.5392
 2653TIP3    H2 7966   2.826   1.320   4.655  0.2778  0.1774  0.8240
 2654TIP3   OH2 7967   0.110   1.722   2.923  0.0939 -0.6694 -0.2823
 2654TIP3    H1 7968   0.099   1.817   2.930  1.5918 -0.4901 -0.0748
 2654TIP3    H2 7969   0.049   1.696   2.854  0.2567  0.5521 -0.9123
 2655TIP3   OH2 7970   1.994   4.952   2.394 -0.3031  0.1449  0.3483
 2655TIP3    H1 7971   2.082   4.975   2.364 -0.3587 -2.4076 -2.2309
 2655TIP3    H2 7972   1.947   4.929   2.314 -2.9549  0.1924  1.7843
 2656TIP3   OH2 7973   4.345   3.084   4.062 -0.5559  0.1419 -0.4241
 2656TIP3    H1 7974   4.330   2.995   4.029  0.4293  0.0106 -0.5449
 2656TIP3    H2 7975   4.284   3.138   4.013 -1.0930 -0.4521 -0.4242
 2657TIP3   OH2 7976   3.872   0.327   4.398 -0.1099 -0.3503 -0.9416
 2657TIP3    H1 7977   3.842   0.282   4.477  3.1587  0.2885  0.8663
 2657TIP3    H2 7978   3.856   0.265   4.327  1.3941 -3.1550  0.9816
 2658TIP3   OH2 7979   4.976   2.866   3.331 -0.1125 -0.0349  0.5241
 2658TIP3    H1 7980   4.994   2.949   3.374 -1.3568  1.2522 -1.3192
 2658TIP3    H2 7981   4.902   2.829   3.379 -0.6754  0.7713  0.2874
 2659TIP3   OH2 7982   4.959   2.916   1.101 -0.1470  0.8304 -0.1374
 2659TIP3    H1 7983   4.897   2.948   1.167  0.3491 -2.5944  2.2194
 2659TIP3    H2 7984   5.035   2.974   1.109 -1.0241  1.9108  0.6135
 2660TIP3   OH2 7985   0.651   0.437   2.825 -0.6091 -0.1667  0.2137
 2660TIP3    H1 7986   0.719   0.504   2.813 -1.0109 -0.1338 -2.5170
 2660TIP3    H2 7987   0.689   0.376   2.887  1.0543  0.9701  0.4005
 2661TIP3   OH2 7988   1.121   4.241   3.294  0.0508 -0.5194 -0.3823
 2661TIP3    H1 7989   1.123   4.331   3.263  0.2225  0.4624  2.2171
 2661TIP3    H2 7990   1.040   4.235   3.345  0.6323 -1.4338  0.4892
 2662TIP3   OH2 7991   0.778   5.372   4.004 -0.0917  0.5675 -0.0668
 2662TIP3    H1 7992   0.755   5.442   4.064  0.9788  1.8246 -1.0605
 2662TIP3    H2 7993   0.720   5.385   3.928 -0.9556 -0.5834  0.3689
 2663TIP3   OH2 7994   1.173   4.933   0.949 -0.0774  0.1793  0.1635
 2663TIP3    H1 7995   1.261   4.960   0.922 -0.3205  1.2044  0.3634
 2663TIP3    H2 7996   1.177   4.931   1.045 -0.1354 -0.2356  0.1569
 2664TIP3   OH2 7997   5.826   3.860   4.366  0.0961 -0.1948  0.0445
 2664TIP3    H1 7998   5.791   3.908   4.441 -0.4708 -0.8836  0.2238
 2664TIP3    H2 7999   5.920   3.881   4.366  0.0491  0.0456  0.7650
 2665TIP3   OH2 8000   1.201   2.605   1.712  0.0812 -0.0112  0.0761
 2665TIP3    H1 8001   1.290   2.597   1.678  0.2799  0.9593  0.3257
 2665TIP3    H2 8002   1.187   2.524   1.761  0.4507 -0.6194 -0.7962
 2666TIP3   OH2 8003   5.202   2.681   2.849  0.3570  0.4000  0.0081
 2666TIP3    H1 8004   5.282   2.730   2.871  1.3471 -0.9630 -0.3575
 2666TIP3    H2 8005   5.160   2.733   2.781 -0.5679  2.5636  2.1018
 2667TIP3   OH2 8006   5.361   5.499   2.145  0.1241  0.0397 -0.4625
 2667TIP3    H1 8007   5.447   5.541   2.146  0.5054 -0.5835 -2.4311
 2667TIP3    H2 8008   5.320   5.525   2.228  1.7884  1.1984  0.0396
 2668TIP3   OH2 8009   1.071   3.636   3.188  0.0600 -0.0568 -0.2596
 2668TIP3    H1 8010   1.058   3.548   3.221 -1.8017  0.1636 -0.2824
 2668TIP3    H2 8011   1.085   3.625   3.094  0.1177 -0.3535 -0.2165
 2669TIP3   OH2 8012   1.590   0.100   3.474 -0.0841  0.2431  0.0665
 2669TIP3    H1 8013   1.656   0.132   3.413  1.0899 -1.7899  0.1882
 2669TIP3    H2 8014   1.570   0.176   3.529 -0.5446  1.8887 -2.2171
 2670TIP3   OH2 8015   5.474   4.947   3.335 -0.2457  0.8328 -0.5140
 2670TIP3    H1 8016   5.544   5.012   3.322 -0.3342  0.8008 -1.1703
 2670TIP3    H2 8017   5.506   4.869   3.291  1.7342 -0.9794  3.6387
 2671TIP3   OH2 8018   3.125   4.980   4.586 -0.4140 -0.7400  0.2391
 2671TIP3    H1 8019   3.171   5.005   4.506 -1.0875  1.6088  0.5056
 2671TIP3    H2 8020   3.189   4.994   4.656 -0.4285 -0.9295  0.2916
 2672TIP3   OH2 8021   4.880   0.192   3.292  0.1350  0.0460  0.3101
 2672TIP3    H1 8022   4.836   0.129   3.235  0.1984 -0.0010  0.3131
 2672TIP3    H2 8023   4.915   0.139   3.364  0.9518 -0.0369 -0.1431
 2673TIP3   OH2 8024   6.362   5.973   0.492 -0.1118  0.2910 -0.2228
 2673TIP3    H1 8025   6.415   5.948   0.568  0.2214  1.4306 -0.0589
 2673TIP3    H2 8026   6.274   5.943   0.513  0.2919 -0.8973 -0.1343
 2674TIP3   OH2 8027   4.506   2.788   1.629  0.4223  0.4133 -0.3192
 2674TIP3    H1 8028   4.492   2.865   1.683  0.6579 -0.6763  1.3578
 2674TIP3    H2 8029   4.540   2.722   1.689  0.4245 -0.9453 -1.7434
 2675TIP3   OH2 8030   1.093   5.112   4.479 -0.6672  0.2091  0.1001
 2675TIP3    H1 8031   1.064   5.187   4.530  1.2435 -0.7610  2.8648
 2675TIP3    H2 8032   1.147   5.150   4.409 -1.9330  1.4817 -0.2360
 2676TIP3   OH2 8033   5.532   4.727   3.151 -0.6209  0.2333 -0.6284
 2676TIP3    H1 8034   5.512   4.638   3.122 -0.1489  0.4248 -1.5847
 2676TIP3    H2 8035   5.598   4.758   3.089  0.7011  0.5425  0.8656
 2677TIP3   OH2 8036   3.923   0.829   2.649  0.1871 -0.4158 -0.1228
 2677TIP3    H1 8037   3.955   0.919   2.657  0.7872 -0.6630  0.2482
 2677TIP3    H2 8038   4.001   0.775   2.652 -0.1691 -0.9573 -0.3831
 2678TIP3   OH2 8039   4.802   2.681   0.059  0.0018 -0.2056  0.0172
 2678TIP3    H1 8040   4.893   2.688   0.086 -0.2154  0.6500  0.5655
 2678TIP3    H2 8041   4.785   2.587   0.054  0.9424 -0.3715 -0.2080
 2679TIP3   OH2 8042   0.771   0.290   1.311  0.0632  0.3350 -1.2690
 2679TIP3    H1 8043   0.723   0.275   1.393 -1.3244 -0.6920 -2.2166
 2679TIP3    H2 8044   0.705   0.277   1.243  0.9385  2.2109 -2.5341
 2680TIP3   OH2 8045   2.653   5.371   3.509  0.3308  0.0973  0.0420
 2680TIP3    H1 8046   2.690   5.457   3.530  1.3799 -0.6143  1.2771
 2680TIP3    H2 8047   2.707   5.309   3.558 -0.5282 -1.2617 -0.6641
 2681TIP3   OH2 8048   3.837   3.641   0.273  0.5153 -0.0058  0.1697
 2681TIP3    H1 8049   3.907   3.586   0.237  0.2273  1.0283 -2.1266
 2681TIP3    H2 8050   3.765   3.580   0.288  0.7651 -0.5574 -0.7609
 2682TIP3   OH2 8051   5.946   0.148   0.101 -0.3571  0.6899 -0.3549
 2682TIP3    H1 8052   5.970   0.233   0.066  0.4727  1.0024  0.8994
 2682TIP3    H2 8053   5.976   0.085   0.036 -1.2738  1.3605 -1.4465
 2683TIP3   OH2 8054   5.654   0.309   1.574  0.4583 -0.1422 -0.2698
 2683TIP3    H1 8055   5.596   0.290   1.500 -0.6213  0.2436  0.4538
 2683TIP3    H2 8056   5.727   0.357   1.535  0.2487 -0.5356 -1.1811
 2684TIP3   OH2 8057   1.095   2.178   0.540 -0.1756 -0.2613  0.1350
 2684TIP3    H1 8058   1.086   2.123   0.463 -1.0363  0.0414  0.0059
 2684TIP3    H2 8059   1.143   2.255   0.510  0.6598 -0.7428  0.2190
 2685TIP3   OH2 8060   3.429   4.882   1.206 -0.1367  0.3313 -0.0436
 2685TIP3    H1 8061   3.508   4.888   1.260 -0.2567  2.9691 -0.0586
 2685TIP3    H2 8062   3.454   4.919   1.122 -0.7013 -1.2980 -0.9698
 2686TIP3   OH2 8063   2.196   4.229   2.343 -0.4644  0.3148 -0.1636
 2686TIP3    H1 8064   2.201   4.289   2.268 -0.5983  0.5610  0.0250
 2686TIP3    H2 8065   2.126   4.168   2.319  0.2938 -0.3394 -0.7674
 2687TIP3   OH2 8066   4.937   3.569   3.838  0.0279  0.0503  0.2632
 2687TIP3    H1 8067   4.849   3.603   3.853  0.2137  0.0557  1.4652
 2687TIP3    H2 8068   4.927   3.510   3.763 -1.0993 -0.2981  0.6605
 2688TIP3   OH2 8069   4.410   4.491   0.526 -0.0156 -0.0346  0.1404
 2688TIP3    H1 8070   4.421   4.404   0.488  1.3222 -0.9107  2.3623
 2688TIP3    H2 8071   4.337   4.482   0.587  1.0614 -0.0574  1.4802
 2689TIP3   OH2 8072   0.145   4.238   3.648  0.2636 -0.0460  0.1034
 2689TIP3    H1 8073   0.153   4.311   3.710 -3.3036  1.6072 -1.1095
 2689TIP3    H2 8074   0.107   4.167   3.700  1.1987 -0.1565  0.6717
 2690TIP3   OH2 8075   0.921   0.238   4.288 -0.3844 -0.3834  0.0325
 2690TIP3    H1 8076   0.874   0.249   4.205 -1.2452  2.2823  0.7941
 2690TIP3    H2 8077   1.001   0.289   4.277  0.6333 -1.8964  0.0863
 2691TIP3   OH2 8078   3.246   2.824   1.941 -0.2122 -0.4908 -0.4044
 2691TIP3    H1 8079   3.312   2.892   1.953 -1.5303  0.6965  0.4464
 2691TIP3    H2 8080   3.296   2.743   1.932  1.3421  0.3380  0.4418
 2692TIP3   OH2 8081   2.530   5.239   2.477 -0.6868  0.3656  0.5752
 2692TIP3    H1 8082   2.514   5.310   2.415 -0.3940 -0.3587 -0.3689
 2692TIP3    H2 8083   2.573   5.171   2.424  0.1467 -0.0271  1.7233
 2693TIP3   OH2 8084   6.377   0.661   3.129 -0.1919  0.0066  0.3942
 2693TIP3    H1 8085   6.314   0.705   3.073 -1.8299 -0.9226  1.4336
 2693TIP3    H2 8086   6.363   0.568   3.112  2.1574 -0.2279 -0.6504
 2694TIP3   OH2 8087   2.175   2.285   0.274  0.2462 -0.1225  0.0069
 2694TIP3    H1 8088   2.153   2.307   0.183  2.3667  0.5796 -0.3921
 2694TIP3    H2 8089   2.266   2.255   0.270  0.2905 -0.3307  1.8712
 2695TIP3   OH2 8090   5.592   5.495   4.687 -0.1091 -0.3331 -0.1518
 2695TIP3    H1 8091   5.609   5.412   4.732  1.4687  0.0818  0.0809
 2695TIP3    H2 8092   5.672   5.546   4.701 -1.4018  1.6119  0.5385
 2696TIP3   OH2 8093   5.158   2.620   3.842  0.2149  0.4151 -0.1048
 2696TIP3    H1 8094   5.175   2.695   3.785 -1.4577  2.0582  1.4331
 2696TIP3    H2 8095   5.233   2.616   3.900 -0.2321  1.7202  0.5976
 2697TIP3   OH2 8096   3.714   5.593   1.596 -0.5559 -0.4545 -0.2383
 2697TIP3    H1 8097   3.712   5.526   1.665 -0.5007  1.2512  1.5204
 2697TIP3    H2 8098   3.790   5.647   1.618 -0.8113  0.4039 -1.3902
 2698TIP3   OH2 8099   4.880   5.401   2.239  0.0661  0.0609 -0.1050
 2698TIP3    H1 8100   4.896   5.364   2.153 -1.1352  1.1451 -0.8345
 2698TIP3    H2 8101   4.893   5.328   2.300  0.1974 -0.9033 -1.2636
 2699TIP3   OH2 8102   3.722   2.879   1.168  0.2234 -0.6913 -0.2731
 2699TIP3    H1 8103   3.760   2.873   1.080 -0.4180  0.4170 -0.6299
 2699TIP3    H2 8104   3.628   2.877   1.155  0.1189 -0.6960  0.4089
 2700TIP3   OH2 8105   3.079   0.856   3.221 -0.1199  0.1703 -0.3377
 2700TIP3    H1 8106   3.141   0.927   3.202 -2.3931  2.3387 -0.1546
 2700TIP3    H2 8107   3.022   0.892   3.289 -0.3466 -2.5318  1.0418
 2701TIP3   OH2 8108   0.086   4.003   3.780 -0.2527 -0.3003 -0.2807
 2701TIP3    H1 8109   0.104   4.004   3.874 -1.2931 -0.0514 -0.0681
 2701TIP3    H2 8110   0.155   3.949   3.743  0.7638  0.4114  0.4985
 2702TIP3   OH2 8111   4.584   5.506   3.111 -0.1289 -0.3352 -0.4449
 2702TIP3    H1 8112   4.491   5.519   3.130 -0.1040 -0.1238 -0.4708
 2702TIP3    H2 8113   4.599   5.552   3.029 -0.1135 -0.7903 -0.6988
 2703TIP3   OH2 8114   2.551   4.952   4.529 -0.6822  0.4608 -0.2545
 2703TIP3    H1 8115   2.584   4.902   4.454  0.0976  0.7902 -0.1351
 2703TIP3    H2 8116   2.492   4.891   4.574 -0.4464 -0.0458 -0.6222
 2704TIP3   OH2 8117   3.988   0.589   4.781 -0.2689  0.5027 -0.5581
 2704TIP3    H1 8118   3.986   0.591   4.876 -1.6165  1.2967 -0.5773
 2704TIP3    H2 8119   3.963   0.499   4.758 -1.8791  0.8218 -0.1604
 2705TIP3   OH2 8120   3.305   2.721   1.047 -0.1002  0.6541  0.3250
 2705TIP3    H1 8121   3.318   2.744   1.139  0.4003  1.1879  0.1239
 2705TIP3    H2 8122   3.220   2.760   1.025 -0.8905 -0.6464  0.9253
 2706TIP3   OH2 8123   5.391   4.801   0.286  0.4811 -0.3430  0.6370
 2706TIP3    H1 8124   5.450   4.854   0.233 -0.1954 -0.1908  0.0111
 2706TIP3    H2 8125   5.448   4.754   0.346  1.3172 -0.8908 -0.5516
 2707TIP3   OH2 8126   5.728   4.202   1.896 -0.5219  0.7784  0.5513
 2707TIP3    H1 8127   5.710   4.190   1.989 -1.3013 -0.5023  0.2587
 2707TIP3    H2 8128   5.656   4.255   1.864  0.5393  2.5578  0.9353
 2708TIP3   OH2 8129   3.963   3.080   0.253  0.0799 -0.4461  0.5547
 2708TIP3    H1 8130   3.965   3.000   0.200 -1.4832  0.3322 -0.7650
 2708TIP3    H2 8131   3.993   3.052   0.339  0.5830 -2.2273 -0.1516
 2709TIP3   OH2 8132   2.246   5.010   4.087  0.0541 -0.1808  0.8797
 2709TIP3    H1 8133   2.252   5.100   4.054 -2.2296 -0.4184 -0.3341
 2709TIP3    H2 8134   2.194   5.017   4.167 -1.5407 -0.5592 -0.0818
 2710TIP3   OH2 8135   4.018   4.995   0.058  0.7553 -0.3564  0.7152
 2710TIP3    H1 8136   4.096   4.956   0.019  0.0119 -3.0623  1.7594
 2710TIP3    H2 8137   3.948   4.979  -0.006  0.6233  0.1994  0.7124
 2711TIP3   OH2 8138   3.814   2.138   0.488  0.2913 -0.2447 -0.2419
 2711TIP3    H1 8139   3.728   2.109   0.459  0.7594 -0.0013 -1.9476
 2711TIP3    H2 8140   3.874   2.068   0.459  1.0085  0.8769 -1.5762
 2712TIP3   OH2 8141   4.821   5.111   1.832 -0.7179 -0.1240  0.2534
 2712TIP3    H1 8142   4.832   5.074   1.744 -0.7081 -2.9328  1.3503
 2712TIP3    H2 8143   4.756   5.181   1.820  0.0657  0.2872 -2.1339
 2713TIP3   OH2 8144   3.778   0.758   0.353  0.4590  0.2204 -0.2808
 2713TIP3    H1 8145   3.840   0.760   0.425  1.1304  1.5618 -0.8448
 2713TIP3    H2 8146   3.780   0.668   0.322 -0.7400 -0.6908  2.0873
 2714TIP3   OH2 8147   5.321   5.527   2.716  0.3586 -0.0094  0.1611
 2714TIP3    H1 8148   5.406   5.570   2.728  0.2838  0.2864 -0.3728
 2714TIP3    H2 8149   5.320   5.499   2.625 -0.0097 -0.2496  0.2364
 2715TIP3   OH2 8150   3.953   5.544   1.172  0.4611 -0.0811  0.0109
 2715TIP3    H1 8151   3.878   5.603   1.165  1.7535  1.6840  0.3265
 2715TIP3    H2 8152   3.965   5.510   1.083 -0.2971  0.1314 -0.1775
 2716TIP3   OH2 8153   5.288   1.797   4.789 -0.0920  0.1158 -0.2575
 2716TIP3    H1 8154   5.371   1.816   4.744 -0.2835  0.5755 -0.4276
 2716TIP3    H2 8155   5.277   1.703   4.781  0.1365  0.1260 -0.7246
 2717TIP3   OH2 8156   4.407   5.371   1.097 -0.0454  0.3186  0.7274
 2717TIP3    H1 8157   4.472   5.431   1.060  0.3617  0.5015  1.6955
 2717TIP3    H2 8158   4.366   5.421   1.168  1.3795 -0.9970  2.6048
 2718TIP3   OH2 8159   3.914   1.263   2.148  0.3358  0.7953 -0.3362
 2718TIP3    H1 8160   3.979   1.195   2.129 -0.0675 -0.1489  1.3927
 2718TIP3    H2 8161   3.854   1.261   2.074  0.7271 -0.2670 -0.6385
 2719TIP3   OH2 8162   0.713   2.952   3.844  0.2571 -0.3349  0.1172
 2719TIP3    H1 8163   0.641   2.964   3.905  0.0599  0.3573 -0.2284
 2719TIP3    H2 8164   0.792   2.971   3.895 -0.0072  2.2363 -0.2554
 2720TIP3   OH2 8165   4.036   5.271   1.823  0.1962 -0.1792 -0.5247
 2720TIP3    H1 8166   3.968   5.337   1.833  1.7925  1.5567 -0.6854
 2720TIP3    H2 8167   4.047   5.262   1.729 -1.2318 -2.0573 -0.5736
 2721TIP3   OH2 8168   3.550   0.286   1.742  0.1793  0.2471  0.4487
 2721TIP3    H1 8169   3.617   0.255   1.682  1.1807  4.0545 -0.7085
 2721TIP3    H2 8170   3.467   0.259   1.702  0.9250  0.0276 -1.0104
 2722TIP3   OH2 8171   1.191   3.565   5.077 -0.1962 -0.0252 -1.1453
 2722TIP3    H1 8172   1.153   3.522   5.001  0.5501 -2.8295 -0.0452
 2722TIP3    H2 8173   1.131   3.544   5.149  0.2759  0.6686 -0.5302
 2723TIP3   OH2 8174   1.982   3.707   3.940  0.8412 -0.0269 -0.1709
 2723TIP3    H1 8175   1.998   3.619   3.975 -0.6011 -0.2105  0.1192
 2723TIP3    H2 8176   1.973   3.694   3.846  2.5912  0.1389 -0.3926
 2724TIP3   OH2 8177   3.302   2.759   1.339  0.2622 -0.4510  0.1118
 2724TIP3    H1 8178   3.241   2.715   1.398 -0.5310 -0.3886 -0.6610
 2724TIP3    H2 8179   3.387   2.752   1.384 -0.4966  0.6290  1.8435
 2725TIP3   OH2 8180   0.327   1.091   1.377  0.0157 -0.1644 -0.5346
 2725TIP3    H1 8181   0.232   1.082   1.383 -0.1956  1.4448 -0.9154
 2725TIP3    H2 8182   0.360   1.051   1.457 -1.0166 -0.3237 -0.1698
 2726TIP3   OH2 8183   2.072   5.804   2.733  0.4802  0.2098 -0.2370
 2726TIP3    H1 8184   2.004   5.757   2.779  1.7853  0.9880  2.7239
 2726TIP3    H2 8185   2.045   5.896   2.738  0.1100  0.2437 -2.1018
 2727TIP3   OH2 8186   3.987   0.972   3.146 -0.5978 -0.0464 -0.3708
 2727TIP3    H1 8187   4.066   1.000   3.192 -0.3876  1.0394 -1.3457
 2727TIP3    H2 8188   3.936   1.053   3.134  0.0715  0.0337 -3.3516
 2728TIP3   OH2 8189   1.376   1.953   0.519  0.0586  0.1914 -0.0701
 2728TIP3    H1 8190   1.325   1.879   0.554 -1.2081 -0.1921 -2.5321
 2728TIP3    H2 8191   1.333   2.030   0.555 -0.7377 -0.1951 -0.1605
 2729TIP3   OH2 8192   0.976   1.633   3.881  0.0341 -0.2511  0.3117
 2729TIP3    H1 8193   1.013   1.698   3.822 -1.5807 -1.3567 -2.1072
 2729TIP3    H2 8194   0.967   1.554   3.827  0.1896 -1.9310  2.5960
 2730TIP3   OH2 8195   5.998   1.192   1.464  0.5106 -0.1314  0.3520
 2730TIP3    H1 8196   6.084   1.169   1.429  0.8022  2.0988 -0.5606
 2730TIP3    H2 8197   6.014   1.267   1.520 -0.7004 -0.4728  1.2104
 2731TIP3   OH2 8198   5.805   4.108   2.626 -0.6646  0.5381  0.2371
 2731TIP3    H1 8199   5.790   4.156   2.545 -1.0015 -1.4209 -0.9332
 2731TIP3    H2 8200   5.897   4.123   2.647  0.3107 -1.2876 -2.2338
 2732TIP3   OH2 8201   2.858   4.852   0.761  0.3325  0.4068  0.0182
 2732TIP3    H1 8202   2.851   4.774   0.707  0.1951  1.4214 -1.4793
 2732TIP3    H2 8203   2.768   4.881   0.774  0.3818  0.3274  0.5655
 2733TIP3   OH2 8204   3.557   3.261   4.625  0.6550  0.2750  0.0938
 2733TIP3    H1 8205   3.609   3.340   4.640  1.4017  0.2261 -1.9704
 2733TIP3    H2 8206   3.467   3.292   4.614  0.8047  0.7285  0.1664
 2734TIP3   OH2 8207   0.273   2.767   1.149 -0.5836 -0.2005  0.9855
 2734TIP3    H1 8208   0.334   2.774   1.222  2.2388  0.8528 -1.2894
 2734TIP3    H2 8209   0.247   2.675   1.147  0.3682 -0.5224  2.4717
 2735TIP3   OH2 8210   6.266   0.196   3.243  0.5408  0.2866 -0.8095
 2735TIP3    H1 8211   6.218   0.222   3.165 -0.8450 -0.3282 -0.1808
 2735TIP3    H2 8212   6.347   0.247   3.239  0.1354  0.8613 -2.2166
 2736TIP3   OH2 8213   5.208   0.128   3.089  0.2498 -0.6978  0.3851
 2736TIP3    H1 8214   5.173   0.090   3.170  0.9035 -0.6815  0.6771
 2736TIP3    H2 8215   5.272   0.064   3.059 -0.2873 -0.9016 -0.3505
 2737TIP3   OH2 8216   4.091   4.948   4.117 -0.2961 -0.6245 -0.6186
 2737TIP3    H1 8217   4.043   4.894   4.181  0.1754  0.3182  0.5693
 2737TIP3    H2 8218   4.128   4.884   4.056  0.5604 -1.7268  0.9633
 2738TIP3   OH2 8219   5.431   1.848   1.232  0.1348 -0.5810  0.2302
 2738TIP3    H1 8220   5.380   1.863   1.311 -0.3295  0.7950 -0.2895
 2738TIP3    H2 8221   5.426   1.754   1.217 -2.0840 -0.5273  0.3374
 2739TIP3   OH2 8222   5.030   2.550   3.010  0.0931 -0.2899  0.0254
 2739TIP3    H1 8223   5.097   2.593   2.957 -0.3761  1.0902  0.4846
 2739TIP3    H2 8224   5.057   2.567   3.101  0.2380 -1.5605  0.2299
 2740TIP3   OH2 8225   4.017   2.221   0.202  0.2791  0.4031 -0.1100
 2740TIP3    H1 8226   4.013   2.187   0.113 -1.9845 -0.3602  0.2083
 2740TIP3    H2 8227   4.110   2.235   0.219  0.8107 -0.1318 -2.3131
 2741TIP3   OH2 8228   0.703   3.672   0.201  0.3547 -0.0331  0.2966
 2741TIP3    H1 8229   0.776   3.734   0.198 -0.3874  0.9195  1.0062
 2741TIP3    H2 8230   0.685   3.652   0.109  1.1232  0.1715  0.0876
 2742TIP3   OH2 8231   2.000   5.334   3.259 -0.3785  0.0744 -0.1768
 2742TIP3    H1 8232   2.027   5.257   3.210 -0.3480  0.4625 -0.7783
 2742TIP3    H2 8233   2.077   5.359   3.309 -0.4579 -0.4149  0.2069
 2743TIP3   OH2 8234   0.856   0.347   0.687  0.7188 -0.3867 -0.4285
 2743TIP3    H1 8235   0.835   0.435   0.656 -1.8642 -0.8273 -0.1598
 2743TIP3    H2 8236   0.830   0.347   0.780  0.5699 -1.4382 -0.4555
 2744TIP3   OH2 8237   4.948   1.236   4.644 -0.2429 -0.1513 -0.1225
 2744TIP3    H1 8238   4.918   1.264   4.731  0.9112 -0.8132  0.5145
 2744TIP3    H2 8239   4.889   1.166   4.620 -0.4860 -0.0585  0.1944
 2745TIP3   OH2 8240   2.743   5.233   2.889 -0.1247  0.2166 -0.0610
 2745TIP3    H1 8241   2.770   5.313   2.844  0.6251 -0.0426 -0.0834
 2745TIP3    H2 8242   2.764   5.163   2.827 -1.1198  0.0175 -0.1952
 2746TIP3   OH2 8243   5.020   2.873   2.737 -0.0343  0.0398 -0.2088
 2746TIP3    H1 8244   5.023   2.900   2.829 -0.3404 -0.4646 -0.0449
 2746TIP3    H2 8245   4.940   2.821   2.730  0.8694 -1.3742 -0.3480
 2747TIP3   OH2 8246   3.451   5.343   2.204 -0.0527  0.0898  0.0841
 2747TIP3    H1 8247   3.463   5.432   2.172  0.1762 -0.1641 -0.5583
 2747TIP3    H2 8248   3.475   5.287   2.130 -2.3022 -0.4855 -0.2926
 2748TIP3   OH2 8249   4.958   5.657   5.051 -0.6010  0.2602 -0.4665
 2748TIP3    H1 8250   5.045   5.628   5.025 -1.0650 -0.2374 -1.5287
 2748TIP3    H2 8251   4.901   5.633   4.978 -1.9508 -1.0585  0.9318
 2749TIP3   OH2 8252   0.698   4.509   0.976 -0.2855 -0.2861 -0.1041
 2749TIP3    H1 8253   0.695   4.604   0.969  0.0589 -0.1703  1.0412
 2749TIP3    H2 8254   0.725   4.479   0.889 -0.4654  0.6525 -0.4975
 2750TIP3   OH2 8255   1.191   5.598   4.295  0.5174  0.0340  0.5333
 2750TIP3    H1 8256   1.133   5.593   4.219  1.1397  1.0899 -0.0358
 2750TIP3    H2 8257   1.146   5.658   4.355  1.1237  1.0694 -0.0245
 2751TIP3   OH2 8258   4.987   2.587   4.073 -0.2563 -0.0644 -0.1563
 2751TIP3    H1 8259   4.938   2.668   4.054 -0.2334  0.1757  0.7800
 2751TIP3    H2 8260   5.021   2.560   3.988 -0.9639  0.4560 -0.6230
 2752TIP3   OH2 8261   3.042   0.450   3.990 -0.0774 -0.7345  0.0012
 2752TIP3    H1 8262   3.103   0.461   4.062  0.2059  1.2920 -0.4917
 2752TIP3    H2 8263   2.975   0.390   4.024 -1.0238  1.6235  2.7050
 2753TIP3   OH2 8264   3.498   2.797   1.540 -0.0780 -0.1004  0.5765
 2753TIP3    H1 8265   3.456   2.723   1.585  0.8977 -0.1543  1.4210
 2753TIP3    H2 8266   3.569   2.823   1.598  1.7744 -0.7186 -1.2871
 2754TIP3   OH2 8267   5.602   5.466   2.898 -0.6023  0.1913 -0.0747
 2754TIP3    H1 8268   5.544   5.392   2.913 -0.2640  0.2238  1.5556
 2754TIP3    H2 8269   5.675   5.452   2.959 -0.5423  1.8765  0.2792
 2755TIP3   OH2 8270   0.512   4.315   0.533  0.4546 -0.1851  0.3419
 2755TIP3    H1 8271   0.586   4.370   0.507  0.1533 -0.2479 -0.7199
 2755TIP3    H2 8272   0.506   4.325   0.628  0.4312  1.6154  0.1867
 2756TIP3   OH2 8273   0.228   2.030   1.590  0.0892 -0.1893  0.5199
 2756TIP3    H1 8274   0.218   2.010   1.497  0.8183  1.4308  0.0602
 2756TIP3    H2 8275   0.269   2.116   1.592 -0.9366  0.3178  2.3544
 2757TIP3   OH2 8276   2.975   2.799   1.881 -0.2806  0.5453 -0.1236
 2757TIP3    H1 8277   2.941   2.870   1.936 -0.1958 -0.3086  1.0739
 2757TIP3    H2 8278   3.070   2.804   1.892 -0.3486 -1.3826  2.1844
 2758TIP3   OH2 8279   3.551   3.780   2.628  0.6865 -0.0119 -0.1438
 2758TIP3    H1 8280   3.522   3.792   2.537  3.0058  0.4210 -0.9175
 2758TIP3    H2 8281   3.569   3.686   2.635  2.1286  0.1823 -0.7449
 2759TIP3   OH2 8282   6.216   0.731   2.919  0.3109 -0.6014 -0.9392
 2759TIP3    H1 8283   6.194   0.666   2.852  0.1368 -0.1293 -1.3361
 2759TIP3    H2 8284   6.139   0.786   2.926  0.8358  0.1922 -1.3238
 2760TIP3   OH2 8285   0.711   5.431   1.624 -0.0225 -0.3362  0.3494
 2760TIP3    H1 8286   0.701   5.524   1.603 -0.6776 -0.3129  0.7456
 2760TIP3    H2 8287   0.696   5.386   1.541  0.9924 -0.0573  0.0036
 2761TIP3   OH2 8288   4.870   0.336   1.717 -0.3745 -0.5263 -0.2850
 2761TIP3    H1 8289   4.822   0.397   1.661  0.7533  0.6362 -0.0297
 2761TIP3    H2 8290   4.932   0.391   1.765 -1.6595 -1.3864  2.5481
 2762TIP3   OH2 8291   4.783   3.878   4.528  0.2875  0.4281  0.1383
 2762TIP3    H1 8292   4.867   3.835   4.511  0.6739  1.7233 -1.5426
 2762TIP3    H2 8293   4.798   3.929   4.607 -0.1958 -2.3825  2.1988
 2763TIP3   OH2 8294   4.899   1.493   3.236 -0.1553 -0.1609  0.8267
 2763TIP3    H1 8295   4.854   1.555   3.178 -0.1611  1.2620  2.2844
 2763TIP3    H2 8296   4.914   1.416   3.181 -0.8138  0.8359 -0.8424
 2764TIP3   OH2 8297   5.263   1.996   0.963 -0.1796  0.3351  0.6939
 2764TIP3    H1 8298   5.356   2.016   0.969 -0.0179 -0.0579 -0.4388
 2764TIP3    H2 8299   5.225   2.071   0.917 -0.1689 -0.2105 -0.2190
 2765TIP3   OH2 8300   1.654   3.153   0.433  0.0014  0.3460 -0.2420
 2765TIP3    H1 8301   1.646   3.163   0.528  0.9598 -0.5137 -0.0458
 2765TIP3    H2 8302   1.593   3.216   0.397 -0.5019  0.5744  0.9535
 2766TIP3   OH2 8303   0.880   1.234   1.750 -0.1394 -0.0346 -0.2974
 2766TIP3    H1 8304   0.902   1.326   1.761  0.6958 -0.3684  1.1091
 2766TIP3    H2 8305   0.959   1.194   1.713 -0.1190 -0.3614  0.0881
 2767TIP3   OH2 8306   1.177   1.798   3.020  0.5020 -0.0552 -0.0695
 2767TIP3    H1 8307   1.170   1.893   3.014  4.6146  0.3665 -0.9428
 2767TIP3    H2 8308   1.156   1.768   2.931  0.6484  0.1733 -0.1832
 2768TIP3   OH2 8309   0.930   5.872   3.166 -0.0863  0.7022 -0.1053
 2768TIP3    H1 8310   0.949   5.944   3.226  1.3910  1.7278 -1.7104
 2768TIP3    H2 8311   1.013   5.827   3.155 -0.0163  1.2128 -2.1679
 2769TIP3   OH2 8312   4.492   4.504   2.365 -0.4021  0.0324 -0.3877
 2769TIP3    H1 8313   4.505   4.585   2.317  0.5220  0.0502 -0.1291
 2769TIP3    H2 8314   4.430   4.454   2.311 -0.4402  0.6172 -0.8988
 2770TIP3   OH2 8315   5.860   4.180   0.516  0.2433  0.2200 -0.4987
 2770TIP3    H1 8316   5.846   4.225   0.432 -0.7312  1.8522  0.4747
 2770TIP3    H2 8317   5.955   4.178   0.526  0.3464  0.8596 -1.2136
 2771TIP3   OH2 8318   1.073   4.913   3.449  0.1780  0.1220 -0.2205
 2771TIP3    H1 8319   1.156   4.873   3.478 -0.0765 -0.0292  0.3180
 2771TIP3    H2 8320   1.089   4.938   3.358  0.4836 -0.8343 -0.4399
 2772TIP3   OH2 8321   0.706   0.081   0.664 -0.2787  0.1683  0.3203
 2772TIP3    H1 8322   0.731   0.173   0.654  0.0635  0.1212  0.6792
 2772TIP3    H2 8323   0.647   0.064   0.591  1.2739  0.0954 -0.9674
 2773TIP3   OH2 8324   4.229   1.940   2.589 -0.8502 -0.7491  0.3550
 2773TIP3    H1 8325   4.295   1.870   2.589  1.2635  1.0977  0.5209
 2773TIP3    H2 8326   4.180   1.928   2.508 -0.7775 -2.5923  0.5534
 2774TIP3   OH2 8327   4.563   2.177   0.206 -0.2780  0.0830  0.1106
 2774TIP3    H1 8328   4.648   2.206   0.239  0.1570 -1.8460  0.8438
 2774TIP3    H2 8329   4.542   2.239   0.136  1.5436  0.8260  0.1598
 2775TIP3   OH2 8330   1.990   4.609   2.484 -0.0367 -0.1969 -0.0349
 2775TIP3    H1 8331   1.992   4.669   2.410  2.0699  1.5143  1.3153
 2775TIP3    H2 8332   1.975   4.523   2.445 -0.5174  0.8496 -2.2732
 2776TIP3   OH2 8333   5.699   1.956   1.400 -0.0946 -0.0026  0.6761
 2776TIP3    H1 8334   5.693   2.017   1.473 -0.1493  0.3453  0.3864
 2776TIP3    H2 8335   5.617   1.968   1.352 -0.1489 -0.3761  0.6687
 2777TIP3   OH2 8336   6.272   0.783   2.253  0.3874 -0.3926  0.1081
 2777TIP3    H1 8337   6.278   0.874   2.225 -3.5404  0.7914  2.3368
 2777TIP3    H2 8338   6.346   0.771   2.312  1.4701  1.0519 -0.8982
 2778TIP3   OH2 8339   5.110   2.016   1.665 -0.5857  0.5731 -0.0864
 2778TIP3    H1 8340   5.080   1.931   1.698 -1.4981  0.3191 -1.4888
 2778TIP3    H2 8341   5.037   2.075   1.683  0.1033  1.1269  1.0155
 2779TIP3   OH2 8342   3.282   1.316   2.348 -0.5849  0.3914  0.3082
 2779TIP3    H1 8343   3.258   1.408   2.337  0.7843  0.9475  1.5804
 2779TIP3    H2 8344   3.367   1.308   2.303  0.3041  0.2909  1.9316
 2780TIP3   OH2 8345   1.986   4.860   2.713  0.0359  0.0563 -0.2414
 2780TIP3    H1 8346   1.992   4.847   2.618 -1.7198 -2.7643 -0.0831
 2780TIP3    H2 8347   2.055   4.805   2.749  1.0824  1.5709  0.1763
 2781TIP3   OH2 8348   0.681   5.719   1.588  0.5398 -0.0280  0.4547
 2781TIP3    H1 8349   0.633   5.790   1.631  0.9895 -0.5752  1.9248
 2781TIP3    H2 8350   0.691   5.748   1.497 -1.5553  0.6008  0.3676
 2782TIP3   OH2 8351   5.223   4.508   4.554 -0.1059 -0.8514 -0.2163
 2782TIP3    H1 8352   5.269   4.541   4.477 -1.0898 -1.7909 -1.2473
 2782TIP3    H2 8353   5.179   4.585   4.591  0.3798 -0.3965 -0.5760
 2783TIP3   OH2 8354   3.326   5.960   3.018 -0.3735 -0.1527  0.2061
 2783TIP3    H1 8355   3.397   5.941   2.956  0.1244 -1.1242  1.0456
 2783TIP3    H2 8356   3.252   5.907   2.987 -0.4631  0.1800 -0.1589
 2784TIP3   OH2 8357   4.312   5.209   1.339 -0.9243  0.6336 -0.5360
 2784TIP3    H1 8358   4.364   5.260   1.277  1.7958 -0.2821  0.8163
 2784TIP3    H2 8359   4.346   5.120   1.331 -1.0343  0.3303  1.6385
 2785TIP3   OH2 8360   2.368   4.602   0.293  0.2344 -0.5322  0.0550
 2785TIP3    H1 8361   2.373   4.697   0.292 -0.9938 -0.3623  2.4222
 2785TIP3    H2 8362   2.276   4.582   0.276  0.2691 -1.2084  0.5765
 2786TIP3   OH2 8363   5.329   3.583   4.918 -0.0810 -0.0518  0.0572
 2786TIP3    H1 8364   5.296   3.506   4.965 -1.7064 -0.0608 -1.0074
 2786TIP3    H2 8365   5.269   3.593   4.844 -0.0062  2.3546  0.2583
 2787TIP3   OH2 8366   0.333   4.993   1.091  0.2737 -0.6359 -0.2884
 2787TIP3    H1 8367   0.239   4.980   1.089 -0.0036  0.9036  1.2147
 2787TIP3    H2 8368   0.369   4.906   1.110 -0.9065 -1.0235  0.2211
 2788TIP3   OH2 8369   1.358   4.266   3.420 -0.3976  0.2733  0.2009
 2788TIP3    H1 8370   1.413   4.188   3.413 -0.6624  0.1269 -0.3303
 2788TIP3    H2 8371   1.292   4.255   3.351 -0.4021  0.9962  0.0809
 2789TIP3   OH2 8372   5.318   5.752   4.905 -0.3917 -0.8661  0.1359
 2789TIP3    H1 8373   5.315   5.693   4.830  0.0616 -1.5524  0.6478
 2789TIP3    H2 8374   5.318   5.694   4.981  0.7108 -0.2365  0.6445
 2790TIP3   OH2 8375   1.695   0.088   1.785 -0.7431 -0.1618 -0.0203
 2790TIP3    H1 8376   1.613   0.136   1.786  0.0253  1.2079  1.9277
 2790TIP3    H2 8377   1.731   0.105   1.697 -1.7278  0.6088 -0.2975
 2791TIP3   OH2 8378   5.427   5.463   1.214  0.3485  0.8282 -0.1323
 2791TIP3    H1 8379   5.454   5.489   1.302  0.2349  0.0182  0.1603
 2791TIP3    H2 8380   5.399   5.372   1.225 -1.1030  1.1815 -0.7050
 2792TIP3   OH2 8381   6.255   1.448   2.485  0.2119 -0.3007  0.1869
 2792TIP3    H1 8382   6.307   1.510   2.535 -1.1100  0.4163  0.7249
 2792TIP3    H2 8383   6.178   1.430   2.541 -0.4590 -0.7978 -0.8540
 2793TIP3   OH2 8384   5.200   4.219   4.305  0.4057  0.2585 -0.4970
 2793TIP3    H1 8385   5.220   4.275   4.230 -0.5396  1.2162 -0.0644
 2793TIP3    H2 8386   5.182   4.133   4.267  0.7449  0.5272 -1.2821
 2794TIP3   OH2 8387   1.122   0.034   3.219 -0.5577 -0.4828 -0.1249
 2794TIP3    H1 8388   1.060   0.003   3.286  1.3200 -0.5316  1.6811
 2794TIP3    H2 8389   1.084   0.116   3.188 -2.1899 -1.1691 -0.0569
 2795TIP3   OH2 8390   4.759  -0.008   0.440 -0.8385  0.2571  0.0997
 2795TIP3    H1 8391   4.827  -0.023   0.505  1.4665  0.6088 -2.0795
 2795TIP3    H2 8392   4.704   0.060   0.478  0.9823  1.1423  1.2834
 2796TIP3   OH2 8393   4.174   2.006   2.061  0.3035  0.1416 -0.2750
 2796TIP3    H1 8394   4.228   2.008   1.982  0.6337 -1.4706 -0.1278
 2796TIP3    H2 8395   4.092   2.048   2.036  0.6531  0.2424 -1.2773
 2797TIP3   OH2 8396   3.301   4.049   0.943 -0.2868  0.4976  0.0270
 2797TIP3    H1 8397   3.237   4.117   0.922 -0.1044  0.0760 -2.0875
 2797TIP3    H2 8398   3.362   4.093   1.003 -1.1295  1.6584  0.0809
 2798TIP3   OH2 8399   3.592   1.095   0.136  0.5865 -0.3445  0.2173
 2798TIP3    H1 8400   3.573   1.032   0.205 -2.3038 -1.1295 -1.1172
 2798TIP3    H2 8401   3.554   1.177   0.166  2.0107  0.1299  0.8056
 2799TIP3   OH2 8402   5.237   1.321   1.280 -0.1344  0.1066 -0.5960
 2799TIP3    H1 8403   5.246   1.244   1.336 -1.1570 -0.4625 -1.1830
 2799TIP3    H2 8404   5.177   1.293   1.211  1.0893  0.7804 -1.9881
 2800TIP3   OH2 8405   4.275   5.165   3.502  0.2366 -0.1355 -0.2933
 2800TIP3    H1 8406   4.201   5.225   3.512  1.7536  2.1244 -1.6658
 2800TIP3    H2 8407   4.235   5.078   3.494 -2.2079  0.9255 -0.4448
 2801TIP3   OH2 8408   2.325   5.940   4.272  0.3046 -0.0615 -0.7503
 2801TIP3    H1 8409   2.235   5.911   4.259  0.4381 -0.2874 -1.1794
 2801TIP3    H2 8410   2.367   5.867   4.318 -0.2388  0.8433  1.3061
 2802TIP3   OH2 8411   6.266   3.086   0.624  0.0082 -0.1026 -0.1073
 2802TIP3    H1 8412   6.350   3.087   0.579 -0.8438 -1.4585 -1.8662
 2802TIP3    H2 8413   6.286   3.112   0.714  2.0029  1.3426 -0.9021
 2803TIP3   OH2 8414   5.524   1.221   1.669  0.1011  0.3853 -0.8003
 2803TIP3    H1 8415   5.440   1.194   1.630 -0.3604  0.0614  0.3835
 2803TIP3    H2 8416   5.533   1.313   1.643 -0.9244  0.6055 -0.4591
 2804TIP3   OH2 8417   4.825   1.082   0.752 -0.2992  0.2637  0.2555
 2804TIP3    H1 8418   4.813   1.057   0.661  0.4206 -0.3600  0.3168
 2804TIP3    H2 8419   4.855   1.172   0.749  0.3564  0.0346 -0.1630
 2805TIP3   OH2 8420   4.249   4.992   1.659  0.6618  0.5199 -0.0573
 2805TIP3    H1 8421   4.210   5.076   1.680  0.3934  0.5771 -0.7547
 2805TIP3    H2 8422   4.336   4.995   1.699  0.7868  1.2685 -0.3780
 2806TIP3   OH2 8423   3.094   0.776   4.049  0.4240  0.1902 -0.0688
 2806TIP3    H1 8424   3.176   0.740   4.083  0.1971  0.0829  0.3759
 2806TIP3    H2 8425   3.079   0.728   3.968 -0.8769 -2.1711  1.4479
 2807TIP3   OH2 8426   5.595   3.150   1.899 -0.4983 -0.7406  0.5042
 2807TIP3    H1 8427   5.529   3.082   1.911 -0.9838 -0.1353  1.2959
 2807TIP3    H2 8428   5.669   3.121   1.953 -0.9648 -0.3129  1.3967
 2808TIP3   OH2 8429   2.212   5.927   4.783 -0.0482 -0.4001  0.0268
 2808TIP3    H1 8430   2.123   5.916   4.750 -1.9151  1.0487  4.0152
 2808TIP3    H2 8431   2.247   6.000   4.732 -0.1634 -2.2377 -3.0098
 2809TIP3   OH2 8432   2.169   5.625   3.914  0.1528 -0.7544  0.0355
 2809TIP3    H1 8433   2.117   5.702   3.891  1.9083  0.7597  0.9057
 2809TIP3    H2 8434   2.173   5.575   3.833  2.0174  1.9524 -1.7289
 2810TIP3   OH2 8435   5.588   0.714   4.530  0.0624  0.5416 -0.3491
 2810TIP3    H1 8436   5.515   0.769   4.502 -0.2602 -0.3651 -1.3633
 2810TIP3    H2 8437   5.653   0.722   4.460  0.0086 -0.3568 -0.5126
 2811TIP3   OH2 8438   2.772   4.794   1.398  0.5481  0.9481 -0.2122
 2811TIP3    H1 8439   2.814   4.769   1.316  2.6921 -1.6775  1.5268
 2811TIP3    H2 8440   2.783   4.889   1.403 -1.8768  1.6553 -3.9903
 2812TIP3   OH2 8441   3.992   1.181   4.165 -0.1814  0.0674  0.2785
 2812TIP3    H1 8442   4.019   1.176   4.257 -0.6614 -2.6473  0.3580
 2812TIP3    H2 8443   4.039   1.110   4.122 -2.6692 -1.0610 -0.7893
 2813TIP3   OH2 8444   5.699   3.475   3.545 -0.0353  0.2904  0.2911
 2813TIP3    H1 8445   5.720   3.549   3.488  0.6159 -0.2548 -0.2024
 2813TIP3    H2 8446   5.681   3.514   3.630 -2.2021  1.2522 -0.5185
 2814TIP3   OH2 8447   0.849   1.026   4.183  0.3262  0.1237 -0.0668
 2814TIP3    H1 8448   0.807   0.978   4.254 -2.6424 -0.8638 -2.3397
 2814TIP3    H2 8449   0.826   0.978   4.103  2.4611  1.8898 -1.8941
 2815TIP3   OH2 8450   4.907   3.282   2.155  0.1794  0.1334 -0.1185
 2815TIP3    H1 8451   4.879   3.369   2.183 -3.3946 -0.6544 -0.8134
 2815TIP3    H2 8452   4.875   3.223   2.223  0.1494 -0.8880 -0.9861
 2816TIP3   OH2 8453   4.308   2.794   0.924 -0.0043  0.1333  0.4975
 2816TIP3    H1 8454   4.258   2.748   0.857 -1.9190  1.6462  0.7962
 2816TIP3    H2 8455   4.243   2.818   0.990  1.6380 -0.3931  2.4344
 2817TIP3   OH2 8456   2.123   0.153   2.343 -0.0601 -0.6826 -0.1273
 2817TIP3    H1 8457   2.202   0.206   2.350  0.1651 -1.1886  1.7920
 2817TIP3    H2 8458   2.086   0.174   2.257  1.3794  0.6387 -0.4445
 2818TIP3   OH2 8459   3.398   2.615   2.200  0.1081  0.4051 -0.0884
 2818TIP3    H1 8460   3.345   2.609   2.279  3.7575 -0.6170  2.4931
 2818TIP3    H2 8461   3.454   2.690   2.214 -0.0608  1.0613 -2.4314
 2819TIP3   OH2 8462   3.803   4.425   4.910  0.1307  0.0914  0.0946
 2819TIP3    H1 8463   3.800   4.520   4.896 -1.9488  0.0514 -0.0218
 2819TIP3    H2 8464   3.882   4.396   4.864  0.7451  1.7483  0.0588
 2820TIP3   OH2 8465   3.564   4.601   0.420 -0.0711 -0.5115  0.6239
 2820TIP3    H1 8466   3.557   4.692   0.392  0.6362 -1.5990 -3.7827
 2820TIP3    H2 8467   3.482   4.561   0.392  0.9269 -1.8456 -0.5478
 2821TIP3   OH2 8468   4.527   0.641   1.600  0.3194  0.1764 -0.0782
 2821TIP3    H1 8469   4.503   0.733   1.610  0.1489 -0.0852  2.3811
 2821TIP3    H2 8470   4.597   0.626   1.663  1.4631 -1.0478 -1.5295
 2822TIP3   OH2 8471   3.726   5.781   3.182  0.1381 -0.0247 -0.0169
 2822TIP3    H1 8472   3.733   5.866   3.138  0.3546 -0.1034 -0.1360
 2822TIP3    H2 8473   3.764   5.796   3.269 -3.1477  1.0012  1.4140
 2823TIP3   OH2 8474   1.946   5.503   4.627  0.0477 -0.1392  0.1005
 2823TIP3    H1 8475   2.014   5.546   4.575 -0.0018 -0.4333 -0.2027
 2823TIP3    H2 8476   1.953   5.545   4.713 -1.0200  1.6116 -0.5906
 2824TIP3   OH2 8477   0.606   3.500   3.298  0.4904 -0.8324 -0.5059
 2824TIP3    H1 8478   0.615   3.430   3.233  0.5231 -0.4808 -0.8828
 2824TIP3    H2 8479   0.576   3.575   3.248  2.2834 -0.0203 -0.4615
 2825TIP3   OH2 8480   5.722   5.953   2.508 -0.3191  0.3870 -0.3300
 2825TIP3    H1 8481   5.775   5.875   2.524 -2.1542 -1.1053 -1.0445
 2825TIP3    H2 8482   5.749   6.016   2.575  3.3281  0.3165 -1.5638
 2826TIP3   OH2 8483   0.781   1.957   0.211 -0.1444 -0.6921  0.1818
 2826TIP3    H1 8484   0.858   1.986   0.162  0.6772 -0.6523  1.4536
 2826TIP3    H2 8485   0.748   2.037   0.252 -2.3012 -0.2390 -2.1760
 2827TIP3   OH2 8486   4.655   3.578   3.287  0.0344  0.2916  0.2984
 2827TIP3    H1 8487   4.672   3.585   3.194  0.2983 -1.0969  0.2226
 2827TIP3    H2 8488   4.741   3.587   3.329 -0.0222  0.4253  0.3905
 2828TIP3   OH2 8489   1.131   1.716   1.766  0.1633 -0.1312 -0.5121
 2828TIP3    H1 8490   1.209   1.666   1.743  0.3540 -0.0789  0.0204
 2828TIP3    H2 8491   1.137   1.796   1.715  0.2592 -0.2962 -0.7631
 2829TIP3   OH2 8492   2.386   0.277   5.031 -0.4508 -0.2124  0.6434
 2829TIP3    H1 8493   2.477   0.248   5.033  0.1963  1.5670 -0.4499
 2829TIP3    H2 8494   2.386   0.358   5.082 -1.2632  0.1576  0.0800
 2830TIP3   OH2 8495   6.349   3.754   3.180  0.3632 -0.0263 -0.1006
 2830TIP3    H1 8496   6.407   3.706   3.121  0.0264  0.7813 -1.1320
 2830TIP3    H2 8497   6.291   3.803   3.122 -0.5231  0.1697  0.9098
 2831TIP3   OH2 8498   1.168   5.415   2.011  0.7965 -0.0021  0.0793
 2831TIP3    H1 8499   1.119   5.405   1.929  0.8090 -0.2686  0.1021
 2831TIP3    H2 8500   1.245   5.360   2.000  0.1945 -1.0288  0.7345
 2832TIP3   OH2 8501   1.555   1.178   3.931  0.0931  0.4670  0.1862
 2832TIP3    H1 8502   1.545   1.095   3.884  1.3182  0.2702  0.2173
 2832TIP3    H2 8503   1.526   1.245   3.870  0.3077  0.1019 -0.3254
 2833TIP3   OH2 8504   1.204   0.601   1.423  0.0239 -0.0207 -0.2953
 2833TIP3    H1 8505   1.221   0.625   1.332  1.4811  0.0874 -0.0139
 2833TIP3    H2 8506   1.117   0.638   1.442 -0.6609 -0.7432 -1.8678
 2834TIP3   OH2 8507   0.983   4.818   4.200  0.4027  0.2387 -0.2830
 2834TIP3    H1 8508   0.911   4.876   4.226  0.9982  1.0487 -0.4301
 2834TIP3    H2 8509   0.986   4.752   4.270  0.2845  0.8840  0.3393
 2835TIP3   OH2 8510   2.825   5.068   1.736  0.1819 -0.2410  0.2999
 2835TIP3    H1 8511   2.776   5.149   1.721  0.8403 -0.0160 -0.7629
 2835TIP3    H2 8512   2.763   4.998   1.716 -0.4880 -0.0230  1.5199
 2836TIP3   OH2 8513   4.889   3.763   0.712 -0.0561 -0.0864 -0.4434
 2836TIP3    H1 8514   4.930   3.679   0.690 -1.3597 -0.7380 -0.4932
 2836TIP3    H2 8515   4.809   3.738   0.760  0.7174  1.1788  1.6300
 2837TIP3   OH2 8516   5.816   3.045   3.054  0.0392 -0.0894 -0.4942
 2837TIP3    H1 8517   5.869   3.059   2.976  0.4978  1.1060 -0.0044
 2837TIP3    H2 8518   5.733   3.089   3.035  0.6991  1.5768  0.2246
 2838TIP3   OH2 8519   5.457   5.975   4.824 -0.2004 -0.6485 -0.3764
 2838TIP3    H1 8520   5.412   5.902   4.866 -0.9739 -0.2274 -0.4554
 2838TIP3    H2 8521   5.497   6.023   4.897 -0.9411 -0.3188 -0.1781
 2839TIP3   OH2 8522   0.685   3.167   2.341 -0.2137  0.1847  0.0035
 2839TIP3    H1 8523   0.592   3.190   2.346 -0.3076 -0.3821  1.0531
 2839TIP3    H2 8524   0.729   3.251   2.327 -0.8798  0.4524 -0.5964
 2840TIP3   OH2 8525   2.130   3.329   3.748  0.4200  0.2447  0.0418
 2840TIP3    H1 8526   2.105   3.245   3.785  0.7789 -0.0741 -0.4311
 2840TIP3    H2 8527   2.050   3.361   3.705  0.5853 -0.3800 -0.7448
 2841TIP3   OH2 8528   0.031   2.716   0.315  0.2821 -0.3659 -0.5187
 2841TIP3    H1 8529   0.104   2.713   0.253  0.8758  1.1002  0.0661
 2841TIP3    H2 8530   0.030   2.630   0.355  0.5461 -0.9933 -1.8118
 2842TIP3   OH2 8531   2.681   0.851   4.883  0.3367 -0.2596 -0.1348
 2842TIP3    H1 8532   2.621   0.835   4.810  0.9626  0.3940 -0.8102
 2842TIP3    H2 8533   2.755   0.898   4.844 -0.3084  2.1394  1.2746
 2843TIP3   OH2 8534   0.536   1.776   4.903 -0.0176  0.3220  0.1292
 2843TIP3    H1 8535   0.487   1.724   4.967  0.4347 -0.5532 -0.2188
 2843TIP3    H2 8536   0.501   1.749   4.818  1.2305 -0.5157 -0.1402
 2844TIP3   OH2 8537   2.166   0.116   3.619 -0.2634  0.5351 -0.4030
 2844TIP3    H1 8538   2.128   0.191   3.573 -0.6513 -0.1686 -1.2592
 2844TIP3    H2 8539   2.093   0.081   3.671  0.5307  2.2169  2.0059
 2845TIP3   OH2 8540   1.033   4.514   4.956 -0.2513 -0.0014  0.0148
 2845TIP3    H1 8541   1.037   4.419   4.946 -0.4491 -0.2793  2.0476
 2845TIP3    H2 8542   1.027   4.548   4.867  1.0187 -1.8257 -0.8243
 2846TIP3   OH2 8543   1.342  -0.004   3.480  0.3487  0.3009 -0.1656
 2846TIP3    H1 8544   1.435   0.017   3.473  0.0426  1.9298  0.2477
 2846TIP3    H2 8545   1.298   0.072   3.444 -0.8720  0.5969  1.8048
 2847TIP3   OH2 8546   0.775   0.206   4.038 -0.1283 -0.2358  0.0794
 2847TIP3    H1 8547   0.807   0.169   3.956  1.0070 -0.6512  0.6852
 2847TIP3    H2 8548   0.720   0.280   4.011  1.1746  0.3654 -1.0290
 2848TIP3   OH2 8549   0.055   2.394   3.945 -0.2907  0.7484  0.8213
 2848TIP3    H1 8550  -0.032   2.421   3.975 -0.2713  0.8016  0.8284
 2848TIP3    H2 8551   0.085   2.331   4.011  0.3462  1.9180  1.6734
 2849TIP3   OH2 8552   5.523   4.177   1.342 -0.2970  0.3962  0.3928
 2849TIP3    H1 8553   5.548   4.110   1.406 -1.1433  0.6295  0.9756
 2849TIP3    H2 8554   5.464   4.132   1.281 -0.6893  0.5564  0.6552
 2850TIP3   OH2 8555   1.649   4.732   2.518  0.0682  0.2421 -0.2017
 2850TIP3    H1 8556   1.590   4.753   2.445  0.1822 -1.0882 -0.6990
 2850TIP3    H2 8557   1.730   4.778   2.498  0.5304 -1.0878 -1.6003
 2851TIP3   OH2 8558   1.504   4.857   4.093  0.1187  0.2389 -0.4394
 2851TIP3    H1 8559   1.505   4.938   4.144  0.7316 -1.2805  2.1575
 2851TIP3    H2 8560   1.412   4.845   4.068 -0.0943  1.3316 -0.2210
 2852TIP3   OH2 8561   3.201   3.921   5.146  0.0649 -0.5140  0.0167
 2852TIP3    H1 8562   3.146   3.974   5.089 -0.4995 -0.5516  0.5220
 2852TIP3    H2 8563   3.257   3.872   5.086  0.0548  0.0686 -0.4760
 2853TIP3   OH2 8564   5.002   5.308   2.901  0.4300 -0.0542 -0.0433
 2853TIP3    H1 8565   4.920   5.266   2.877  0.8904 -0.0312 -1.8963
 2853TIP3    H2 8566   5.065   5.235   2.907  0.6617  0.0951 -0.5702
 2854TIP3   OH2 8567   5.029   2.749   0.853 -0.0229  0.2818 -0.3272
 2854TIP3    H1 8568   4.976   2.760   0.932 -0.9153  0.4301 -0.9411
 2854TIP3    H2 8569   5.047   2.655   0.850 -1.9488 -0.1051 -1.1678
 2855TIP3   OH2 8570   2.857   0.716   3.074 -0.3499 -0.6250  0.2229
 2855TIP3    H1 8571   2.860   0.758   2.988 -3.0304  0.1324  0.4118
 2855TIP3    H2 8572   2.847   0.788   3.135 -0.0402 -1.2654  1.0411
 2856TIP3   OH2 8573   3.301   0.612   4.082  0.1054  0.3715  0.3314
 2856TIP3    H1 8574   3.321   0.518   4.077 -2.2809 -0.1593 -0.8733
 2856TIP3    H2 8575   3.387   0.654   4.085  1.2665 -1.8173  0.6137
 2857TIP3   OH2 8576   3.972   3.664   2.795 -0.1633 -0.5119 -0.2506
 2857TIP3    H1 8577   3.962   3.748   2.749 -0.8099 -0.5724 -0.2408
 2857TIP3    H2 8578   3.989   3.600   2.726  1.9590 -0.1479 -0.1247
 2858TIP3   OH2 8579   3.965   4.537   2.140 -0.1527  0.1106 -0.2951
 2858TIP3    H1 8580   3.964   4.614   2.082 -0.0616 -1.1011 -1.9978
 2858TIP3    H2 8581   4.034   4.556   2.203 -0.4178  1.6000 -0.4209
 2859TIP3   OH2 8582   3.670   5.071   0.250 -0.5287 -0.1404  0.4472
 2859TIP3    H1 8583   3.593   5.127   0.260 -0.2731  0.4534 -0.7611
 2859TIP3    H2 8584   3.731   5.123   0.198  0.0916 -1.1879  0.1058
 2860TIP3   OH2 8585   0.455   0.146   0.904 -0.2533 -0.1438 -0.0501
 2860TIP3    H1 8586   0.486   0.056   0.893 -0.8559 -0.5716  1.4889
 2860TIP3    H2 8587   0.364   0.137   0.933  0.0394  0.9048  1.3291
 2861TIP3   OH2 8588   0.661   1.184   3.967 -0.2691  0.0199 -0.0826
 2861TIP3    H1 8589   0.755   1.180   3.952  0.0727 -0.2684  1.8251
 2861TIP3    H2 8590   0.624   1.122   3.904  0.9026 -0.4850 -0.3006
 2862TIP3   OH2 8591   2.334   4.178   0.023 -0.3889  0.0238  0.5686
 2862TIP3    H1 8592   2.384   4.260   0.034  1.2410 -0.7886 -0.4205
 2862TIP3    H2 8593   2.384   4.128  -0.041 -1.3784 -1.7557  1.1221
 2863TIP3   OH2 8594   1.404   4.588   0.885 -0.2269 -0.0398  0.0906
 2863TIP3    H1 8595   1.433   4.551   0.801 -1.4516 -2.4029  0.6188
 2863TIP3    H2 8596   1.429   4.522   0.949 -2.4197  0.0799  1.1381
 2864TIP3   OH2 8597   4.810   1.094   3.699  0.2692 -0.6512 -0.0009
 2864TIP3    H1 8598   4.749   1.020   3.707  0.7462 -0.9836  0.7504
 2864TIP3    H2 8599   4.849   1.102   3.787 -0.1962  0.8661  0.0958
 2865TIP3   OH2 8600   4.136   3.937   0.648 -0.4127 -0.2632  0.5009
 2865TIP3    H1 8601   4.224   3.968   0.629  0.0409 -1.1631  1.0398
 2865TIP3    H2 8602   4.126   3.949   0.742 -1.0531  0.2781  0.3707
 2866TIP3   OH2 8603   3.213   0.071   1.341  0.3346  0.3801  0.0372
 2866TIP3    H1 8604   3.195   0.145   1.283 -2.1440  0.3628  0.6866
 2866TIP3    H2 8605   3.191  -0.006   1.289  1.1317  0.1725 -0.0113
 2867TIP3   OH2 8606   6.323   0.796   1.413  0.4187 -0.3236  0.2046
 2867TIP3    H1 8607   6.256   0.860   1.387  0.2970  0.3871  2.1434
 2867TIP3    H2 8608   6.273   0.725   1.455  0.6336 -1.3604 -1.1997
 2868TIP3   OH2 8609   5.220   5.050   0.287 -0.0320 -0.3089 -0.3671
 2868TIP3    H1 8610   5.186   5.096   0.210  0.8584 -0.5712 -0.9314
 2868TIP3    H2 8611   5.293   4.999   0.254  0.2164 -0.6136  0.6181
 2869TIP3   OH2 8612   0.495   5.474   4.648 -0.3541  0.1730  0.9657
 2869TIP3    H1 8613   0.490   5.526   4.568 -0.6549  1.3541  1.7236
 2869TIP3    H2 8614   0.575   5.422   4.638 -0.7136 -0.1637 -0.3536
 2870TIP3   OH2 8615   5.489   5.899   3.015  0.0957  0.0423 -0.0358
 2870TIP3    H1 8616   5.465   5.961   3.084 -0.1860 -0.1313  0.0245
 2870TIP3    H2 8617   5.448   5.817   3.041  1.3433 -0.4554  0.4351
 2871TIP3   OH2 8618   0.218   2.043   3.634 -0.2690 -0.0203  0.0064
 2871TIP3    H1 8619   0.289   1.985   3.605 -1.8391 -1.9001 -0.2324
 2871TIP3    H2 8620   0.249   2.078   3.718  1.7332  0.7280 -0.9717
 2872TIP3   OH2 8621   4.397   3.819   4.157  0.7252  0.0717  0.0333
 2872TIP3    H1 8622   4.340   3.873   4.104  1.7140  1.3443  0.2148
 2872TIP3    H2 8623   4.342   3.787   4.228  0.1504  0.9759  0.0058
 2873TIP3   OH2 8624   3.001   4.490   0.177  0.3358 -0.1802  0.0318
 2873TIP3    H1 8625   3.063   4.509   0.107 -0.5276  0.4733 -0.5812
 2873TIP3    H2 8626   3.035   4.538   0.253  0.1728  0.8273 -0.5130
 2874TIP3   OH2 8627   5.326   4.077   0.968 -0.0316  0.1453 -0.1224
 2874TIP3    H1 8628   5.323   4.171   0.950 -0.7996 -0.0238 -0.9567
 2874TIP3    H2 8629   5.416   4.051   0.946  0.2050  0.6932  0.1848
 2875TIP3   OH2 8630   5.541   1.544   3.983 -0.3754  0.5343 -0.1121
 2875TIP3    H1 8631   5.578   1.632   3.981 -0.5706  0.6317 -2.5341
 2875TIP3    H2 8632   5.518   1.525   3.892 -2.2497 -1.2308  0.6255
 2876TIP3   OH2 8633   2.637   3.048   5.177  0.4143 -0.2303  0.6647
 2876TIP3    H1 8634   2.601   3.079   5.094 -1.0411 -2.8160  0.2561
 2876TIP3    H2 8635   2.679   2.965   5.156  1.2300 -0.2827  2.3113
 2877TIP3   OH2 8636   1.855   3.525   0.727  0.0591 -0.2538  0.2521
 2877TIP3    H1 8637   1.798   3.525   0.804 -0.5441 -0.7771 -0.1870
 2877TIP3    H2 8638   1.944   3.531   0.763 -0.2428 -0.0227  0.9680
 2878TIP3   OH2 8639   5.744   3.299   0.471  0.1472  0.5443  0.0930
 2878TIP3    H1 8640   5.685   3.256   0.533  0.4001 -1.8313 -1.1883
 2878TIP3    H2 8641   5.691   3.314   0.393  0.6167  0.5270 -0.2383
 2879TIP3   OH2 8642   5.647   5.041   4.891  0.2173  0.0873  0.6075
 2879TIP3    H1 8643   5.552   5.054   4.889  0.0154 -1.2774 -1.1057
 2879TIP3    H2 8644   5.670   5.047   4.984 -1.9342 -2.0240  1.3724
 2880TIP3   OH2 8645   1.731   1.524   4.159 -0.3876 -0.2914 -0.0471
 2880TIP3    H1 8646   1.707   1.541   4.068  0.3208  0.8337 -0.0417
 2880TIP3    H2 8647   1.750   1.430   4.162 -1.9080 -0.6526 -0.6930
 2881TIP3   OH2 8648   5.785   1.139   4.866 -0.6727 -0.4565  0.0894
 2881TIP3    H1 8649   5.877   1.168   4.867 -0.4612 -1.0812 -0.4831
 2881TIP3    H2 8650   5.782   1.066   4.927 -0.9021 -0.1271  0.4776
 2882TIP3   OH2 8651   1.376   2.882   2.747 -0.3875 -0.4324  0.6732
 2882TIP3    H1 8652   1.296   2.857   2.794 -0.6947  3.1899  2.3810
 2882TIP3    H2 8653   1.356   2.968   2.710  2.7175  0.5835  1.1190
 2883TIP3   OH2 8654   1.172   1.549   4.465  0.1805  0.5629  0.4603
 2883TIP3    H1 8655   1.143   1.611   4.398 -1.3695  1.2519  1.7264
 2883TIP3    H2 8656   1.259   1.579   4.490 -0.2516  1.7855  0.5337
 2884TIP3   OH2 8657   0.007   5.607   3.518  0.1650 -0.0562  0.2486
 2884TIP3    H1 8658  -0.074   5.653   3.497  0.5599  1.5460  2.0259
 2884TIP3    H2 8659   0.072   5.675   3.529  1.6540 -1.2863 -0.5674
 2885TIP3   OH2 8660   1.276   3.233   1.781 -0.0170 -0.0993  1.1267
 2885TIP3    H1 8661   1.335   3.185   1.723 -1.6232 -1.8265  0.8310
 2885TIP3    H2 8662   1.300   3.206   1.869  0.0565 -0.3154  1.0407
 2886TIP3   OH2 8663   2.615   2.076   4.395 -0.2014 -1.1389 -0.1653
 2886TIP3    H1 8664   2.578   2.014   4.333  0.6117 -1.1443 -0.6536
 2886TIP3    H2 8665   2.619   2.159   4.347 -0.2916 -0.9528  0.1384
 2887TIP3   OH2 8666   3.977   5.676   1.678 -0.7522  0.0081 -0.3191
 2887TIP3    H1 8667   4.014   5.743   1.735  0.8817 -1.6540  0.6661
 2887TIP3    H2 8668   4.015   5.695   1.592  0.9694 -0.5345  0.2792
 2888TIP3   OH2 8669   3.769   0.539   3.749 -0.0810  0.6904 -0.3860
 2888TIP3    H1 8670   3.737   0.558   3.837  1.0258  1.8895 -0.2123
 2888TIP3    H2 8671   3.706   0.581   3.690 -1.1883 -0.6723 -0.2207
 2889TIP3   OH2 8672   3.429   1.456   3.918  0.4770  0.3798 -0.6006
 2889TIP3    H1 8673   3.510   1.409   3.937  1.6700  2.6452  0.3859
 2889TIP3    H2 8674   3.374   1.392   3.873  2.5246 -1.4599 -0.6795
 2890TIP3   OH2 8675   0.546   2.516   0.278  0.0748  0.3496  0.4959
 2890TIP3    H1 8676   0.559   2.608   0.255 -0.8987  0.3952  0.0837
 2890TIP3    H2 8677   0.585   2.467   0.205 -1.1635  0.4688 -0.2625
 2891TIP3   OH2 8678   0.976   1.293   0.749  0.2019  0.5286 -0.2540
 2891TIP3    H1 8679   1.072   1.296   0.749  0.2193  0.0947 -0.0199
 2891TIP3    H2 8680   0.955   1.214   0.700 -0.0033 -0.0386  0.7195
 2892TIP3   OH2 8681   5.209   2.361   5.103 -0.3728 -0.2525 -0.1320
 2892TIP3    H1 8682   5.233   2.357   5.195 -0.2712 -1.2212 -0.1912
 2892TIP3    H2 8683   5.119   2.394   5.103 -1.0983 -2.1206  0.4488
 2893TIP3   OH2 8684   4.828   3.655   4.796  0.1766 -0.8188  0.5519
 2893TIP3    H1 8685   4.744   3.688   4.763  1.7109  1.6087 -1.3464
 2893TIP3    H2 8686   4.832   3.684   4.887 -0.8909 -0.6526  0.5479
 2894TIP3   OH2 8687   4.670   3.597   0.798 -0.1340  0.2255  0.0967
 2894TIP3    H1 8688   4.674   3.565   0.708  0.2857 -0.1078  0.2291
 2894TIP3    H2 8689   4.579   3.625   0.810  0.3493  2.6952 -1.2357
 2895TIP3   OH2 8690   2.592   1.162   0.921  0.3287  0.4107  0.7619
 2895TIP3    H1 8691   2.586   1.155   1.017 -0.2688  1.2983  0.8064
 2895TIP3    H2 8692   2.519   1.108   0.889  2.1705 -2.2325  0.6517
 2896TIP3   OH2 8693   3.929   3.662   3.670  0.2981  0.1530 -0.4697
 2896TIP3    H1 8694   3.902   3.578   3.707 -1.3305  0.7470 -0.2451
 2896TIP3    H2 8695   4.009   3.684   3.717 -0.4425 -0.2429  1.0460
 2897TIP3   OH2 8696   2.849   5.705   4.086  0.4813  0.5291  0.1391
 2897TIP3    H1 8697   2.812   5.751   4.161  0.0683  0.8452 -0.2585
 2897TIP3    H2 8698   2.880   5.774   4.028 -2.3481  0.4853 -1.6178
 2898TIP3   OH2 8699   0.275   1.035   2.330  0.5519 -0.1388 -0.6207
 2898TIP3    H1 8700   0.210   1.100   2.355  0.5035  0.0165 -1.1335
 2898TIP3    H2 8701   0.338   1.034   2.402 -0.0958 -0.4021 -0.0527
 2899TIP3   OH2 8702   3.042   2.254   4.746 -0.3543 -0.8981 -0.6255
 2899TIP3    H1 8703   3.018   2.191   4.815  1.3559  1.7493  2.6708
 2899TIP3    H2 8704   2.976   2.323   4.753  1.3204  0.7135  0.4209
 2900TIP3   OH2 8705   2.733   5.210   4.882  0.4155 -0.1465  0.2345
 2900TIP3    H1 8706   2.701   5.147   4.817  0.4954 -0.7057  0.7260
 2900TIP3    H2 8707   2.802   5.163   4.929  0.4612  0.3004  0.6216
 2901TIP3   OH2 8708   0.226   4.994   3.690 -0.1584  0.3932  1.1417
 2901TIP3    H1 8709   0.221   5.067   3.752 -3.8513  0.7444  0.6648
 2901TIP3    H2 8710   0.248   5.034   3.607 -0.2574  0.6680  1.2477
 2902TIP3   OH2 8711   1.274   5.267   0.734 -0.3892 -0.2814 -0.1647
 2902TIP3    H1 8712   1.280   5.175   0.712  1.5870 -1.0904  3.0976
 2902TIP3    H2 8713   1.361   5.302   0.719 -1.0192  1.0006 -1.0129
 2903TIP3   OH2 8714   3.317   4.132   3.158  0.3705  0.3345 -0.1004
 2903TIP3    H1 8715   3.289   4.095   3.241  1.4189 -0.8353 -0.2432
 2903TIP3    H2 8716   3.293   4.225   3.164 -0.0697  0.1547  1.2706
 2904TIP3   OH2 8717   2.742   5.648   4.944 -0.9957  0.3584  0.2560
 2904TIP3    H1 8718   2.779   5.664   4.858 -2.3818 -0.0103 -0.4338
 2904TIP3    H2 8719   2.692   5.727   4.964  0.0023  0.8083  1.1349
 2905TIP3   OH2 8720   0.145   3.901   3.424 -0.0123 -0.2702 -0.0811
 2905TIP3    H1 8721   0.110   3.854   3.349  1.3412  1.2008 -1.7556
 2905TIP3    H2 8722   0.094   3.982   3.427  1.8412  1.0369 -1.3809
 2906TIP3   OH2 8723   2.813   5.857   1.612  0.0155  0.3134  0.4047
 2906TIP3    H1 8724   2.841   5.947   1.627 -0.8365  0.4074  1.5619
 2906TIP3    H2 8725   2.749   5.840   1.681 -1.4447 -0.4789 -1.0879
 2907TIP3   OH2 8726   4.017   3.658   4.280  0.4114 -0.2739 -0.1362
 2907TIP3    H1 8727   4.096   3.689   4.326  1.3948 -1.9672 -0.6257
 2907TIP3    H2 8728   4.031   3.683   4.189 -0.3517  0.7780  0.0164
 2908TIP3   OH2 8729   3.982   5.095   3.752  0.0111  0.3374 -0.4031
 2908TIP3    H1 8730   3.927   5.023   3.722 -0.9668  0.8565  0.0904
 2908TIP3    H2 8731   4.033   5.120   3.675  0.0824 -0.6275 -0.6731
 2909TIP3   OH2 8732   5.861   0.346   4.708  0.1383  0.0088  0.1788
 2909TIP3    H1 8733   5.825   0.409   4.770 -0.9970 -0.4513  0.0136
 2909TIP3    H2 8734   5.798   0.345   4.636 -0.4231 -2.0452  0.6383
 2910TIP3   OH2 8735   1.568   1.008   3.686 -0.3289 -0.0703 -0.0933
 2910TIP3    H1 8736   1.559   1.046   3.599 -0.1780 -0.0196 -0.0880
 2910TIP3    H2 8737   1.527   0.922   3.680 -0.3642 -0.0459 -0.1999
 2911TIP3   OH2 8738   1.191   3.437   1.953  0.3322 -0.0978  0.1775
 2911TIP3    H1 8739   1.206   3.372   1.884 -1.4204  0.0360 -0.3892
 2911TIP3    H2 8740   1.135   3.391   2.016  1.6600 -0.1170  1.4014
 2912TIP3   OH2 8741   4.092   2.672   3.859 -0.5456  0.3929 -0.0127
 2912TIP3    H1 8742   4.143   2.596   3.888 -1.3198 -0.4943 -0.8695
 2912TIP3    H2 8743   4.001   2.646   3.876 -0.9218  0.4660 -1.7830
 2913TIP3   OH2 8744   1.429   1.712   2.870  0.4903  0.5999 -0.1575
 2913TIP3    H1 8745   1.405   1.766   2.945  1.4787  1.8289 -0.6729
 2913TIP3    H2 8746   1.363   1.731   2.804  0.5725  0.8396 -0.1734
 2914TIP3   OH2 8747   2.405   2.200   4.828 -0.2273  0.4876 -0.1047
 2914TIP3    H1 8748   2.428   2.190   4.735 -0.4933 -2.4653  0.0732
 2914TIP3    H2 8749   2.343   2.273   4.829  0.0285  0.7971 -2.1823
 2915TIP3   OH2 8750   5.245   4.771   2.874 -1.0023  0.2809  0.5502
 2915TIP3    H1 8751   5.259   4.678   2.894 -2.2537 -0.2449 -0.7482
 2915TIP3    H2 8752   5.199   4.805   2.951  2.8611  0.9126  2.8152
 2916TIP3   OH2 8753   6.105   5.006   4.420 -0.0254  0.2129  0.7437
 2916TIP3    H1 8754   6.011   5.024   4.409  0.4682  3.1396  0.3807
 2916TIP3    H2 8755   6.130   5.060   4.495  1.5103  0.0324  0.3828
 2917TIP3   OH2 8756   3.545   4.315   1.013 -0.0467  0.2134  0.1599
 2917TIP3    H1 8757   3.505   4.361   0.940  0.9761  0.6819 -0.1216
 2917TIP3    H2 8758   3.563   4.383   1.078  1.9842  0.3628 -0.4832
 2918TIP3   OH2 8759   0.158   4.967   0.626  0.2174 -0.2536 -0.0293
 2918TIP3    H1 8760   0.175   5.057   0.655  0.6992 -0.3194 -0.0979
 2918TIP3    H2 8761   0.167   4.915   0.706  0.5407 -0.3119 -0.1016
 2919TIP3   OH2 8762   2.702   1.556   0.227 -0.1104 -0.7269  0.6939
 2919TIP3    H1 8763   2.731   1.579   0.315 -2.8835 -1.0050  1.7699
 2919TIP3    H2 8764   2.714   1.461   0.222  0.8414 -0.6049  0.4170
 2920TIP3   OH2 8765   0.727   3.741   5.048  0.0766 -0.0328  0.1345
 2920TIP3    H1 8766   0.713   3.773   5.137  0.6927  0.2189  0.1462
 2920TIP3    H2 8767   0.667   3.791   4.994 -1.1106 -0.9676  0.5491
 2921TIP3   OH2 8768   3.092   3.181   0.561 -0.1206  1.0087 -0.2859
 2921TIP3    H1 8769   3.075   3.201   0.469 -0.9115  1.5667 -0.0353
 2921TIP3    H2 8770   3.180   3.144   0.562 -0.6601 -0.4152 -1.4639
 2922TIP3   OH2 8771   0.141   5.164   4.570  0.1824 -0.8963 -0.0495
 2922TIP3    H1 8772   0.215   5.168   4.509  0.3036 -0.3853  0.1233
 2922TIP3    H2 8773   0.142   5.075   4.603  0.3487 -1.0703 -0.5103
 2923TIP3   OH2 8774   6.327   3.365   1.444  0.4426  0.0503  0.4067
 2923TIP3    H1 8775   6.340   3.283   1.492 -0.4121 -0.6967 -0.5968
 2923TIP3    H2 8776   6.349   3.343   1.354 -0.9518  0.5819 -0.0871
 2924TIP3   OH2 8777   5.683   2.992   5.015  0.3307  0.2005 -0.1732
 2924TIP3    H1 8778   5.604   3.021   4.969  0.1288  0.5881  0.4208
 2924TIP3    H2 8779   5.685   3.042   5.096 -0.1881 -1.6012  1.0307
 2925TIP3   OH2 8780   1.666   5.119   4.768 -0.5395 -0.0970  0.0439
 2925TIP3    H1 8781   1.594   5.135   4.706 -1.9606 -0.3994  1.5385
 2925TIP3    H2 8782   1.699   5.032   4.746 -0.3169  0.2290 -0.9438
 2926TIP3   OH2 8783   0.578   1.733   4.363  0.3082 -0.0258 -0.0949
 2926TIP3    H1 8784   0.544   1.648   4.393  0.4182  0.2929  0.9707
 2926TIP3    H2 8785   0.501   1.783   4.338  0.2514 -0.4803 -0.8629
 2927TIP3   OH2 8786   1.252   2.928   1.481 -0.1687  0.2238 -0.4101
 2927TIP3    H1 8787   1.307   2.972   1.416  0.0018 -0.8059 -0.9878
 2927TIP3    H2 8788   1.312   2.901   1.550 -0.2747  0.8893 -0.0512
 2928TIP3   OH2 8789   4.542   5.254   1.903 -0.1539  0.2127 -0.1411
 2928TIP3    H1 8790   4.547   5.349   1.895 -1.1711  0.2285 -0.7366
 2928TIP3    H2 8791   4.475   5.228   1.839  0.5024 -0.9565 -0.3729
 2929TIP3   OH2 8792   4.683   3.637   2.414  0.1357 -0.1109 -1.0448
 2929TIP3    H1 8793   4.732   3.710   2.452  0.6517 -0.6069 -0.7530
 2929TIP3    H2 8794   4.668   3.663   2.323  2.2383 -0.5899 -1.5855
 2930TIP3   OH2 8795   4.303   5.757   4.634 -0.2623  0.4685  0.1807
 2930TIP3    H1 8796   4.368   5.687   4.631  2.0657  2.4940 -0.3126
 2930TIP3    H2 8797   4.235   5.730   4.573  1.8030 -0.2562 -1.9549
 2931TIP3   OH2 8798   4.803   4.507   0.982  0.1028 -0.4120  0.4806
 2931TIP3    H1 8799   4.846   4.508   1.067 -1.6820 -2.2634  1.4948
 2931TIP3    H2 8800   4.737   4.437   0.989 -0.2556 -0.4784 -2.3458
 2932TIP3   OH2 8801   2.019   5.269   4.564 -0.1919  0.3086  0.3849
 2932TIP3    H1 8802   2.018   5.364   4.569 -0.9185  0.4006 -1.0279
 2932TIP3    H2 8803   1.927   5.243   4.568  0.0701 -0.4479  2.1580
 2933TIP3   OH2 8804   1.659   2.961   4.804 -0.0720  0.6783 -0.6878
 2933TIP3    H1 8805   1.742   3.003   4.783  0.0769  0.2176 -1.0470
 2933TIP3    H2 8806   1.668   2.934   4.895 -0.5159  2.2126 -0.1702
 2934TIP3   OH2 8807   0.737   2.190   0.378 -0.3736  0.2141 -0.6158
 2934TIP3    H1 8808   0.771   2.161   0.463 -1.0836  1.3309  0.0807
 2934TIP3    H2 8809   0.779   2.274   0.363 -2.2457  1.3238 -0.0323
 2935TIP3   OH2 8810   4.596   1.281   4.297  0.2405  0.2638 -0.3028
 2935TIP3    H1 8811   4.627   1.329   4.220 -1.9768  0.1425 -1.3451
 2935TIP3    H2 8812   4.563   1.198   4.261  0.2006 -0.2796  0.9384
 2936TIP3   OH2 8813   2.952   1.794   2.010  0.1375  0.0999 -0.2557
 2936TIP3    H1 8814   2.963   1.828   1.921 -0.6266  3.1053  0.6640
 2936TIP3    H2 8815   2.897   1.717   1.999  0.4514  0.1196 -2.4324
 2937TIP3   OH2 8816   4.194   4.793   3.921 -0.0678  0.4966  0.1065
 2937TIP3    H1 8817   4.205   4.708   3.962 -0.6025  0.3992  0.0622
 2937TIP3    H2 8818   4.205   4.776   3.827  0.6048  0.6185  0.1637
 2938TIP3   OH2 8819   3.142   2.041   2.453 -0.1173 -0.2125  0.0982
 2938TIP3    H1 8820   3.108   2.124   2.421  1.0305 -0.0011 -0.6224
 2938TIP3    H2 8821   3.227   2.031   2.410  0.6081 -0.8573  1.5857
 2939TIP3   OH2 8822   0.543   4.670   2.396 -0.4248  0.1256  0.0301
 2939TIP3    H1 8823   0.514   4.580   2.411  0.5000 -0.0798  0.7290
 2939TIP3    H2 8824   0.599   4.690   2.471 -0.6706  1.3129 -0.0828
 2940TIP3   OH2 8825   1.127   2.871   3.960 -0.0930  0.5065 -0.2286
 2940TIP3    H1 8826   1.167   2.828   3.884 -0.2708  1.6682 -1.0210
 2940TIP3    H2 8827   1.191   2.863   4.030  1.2192  1.6398 -1.2465
 2941TIP3   OH2 8828   0.998   5.897   0.881  0.2942 -0.2100 -0.4097
 2941TIP3    H1 8829   1.030   5.870   0.967  0.8809 -1.1059 -0.8954
 2941TIP3    H2 8830   0.981   5.815   0.835 -0.3766  0.2642 -1.0274
 2942TIP3   OH2 8831   1.331   1.783   0.026 -0.0497 -0.0332 -0.1170
 2942TIP3    H1 8832   1.303   1.835   0.102  0.6736 -0.0297  0.1550
 2942TIP3    H2 8833   1.289   1.826  -0.049 -2.0637 -0.9766  0.4141
 2943TIP3   OH2 8834   1.106   4.836   4.546 -0.0246  0.5878  0.1956
 2943TIP3    H1 8835   1.083   4.927   4.527 -0.2664  0.1716 -1.8089
 2943TIP3    H2 8836   1.145   4.805   4.465 -0.9532 -1.4040  0.4577
 2944TIP3   OH2 8837   2.742   4.388   2.874 -0.1117  1.0081  0.1472
 2944TIP3    H1 8838   2.699   4.312   2.914  1.0910  0.8978  1.3227
 2944TIP3    H2 8839   2.790   4.353   2.799 -0.4117  0.7934  0.0551
 2945TIP3   OH2 8840   1.606   1.422   0.072 -0.2759 -0.1682  0.2218
 2945TIP3    H1 8841   1.567   1.426   0.160 -1.7272 -0.9350 -0.3524
 2945TIP3    H2 8842   1.544   1.468   0.016 -0.2900 -1.2624 -0.7017
 2946TIP3   OH2 8843   5.224   0.179   1.490  0.0095 -0.3594  0.1594
 2946TIP3    H1 8844   5.260   0.224   1.414 -1.3115  2.8612  1.2636
 2946TIP3    H2 8845   5.300   0.162   1.546  0.5021  1.6383  0.1855
 2947TIP3   OH2 8846   2.379   0.009   4.777  0.4518  0.5996  0.2846
 2947TIP3    H1 8847   2.398   0.051   4.693 -1.8528 -0.1272 -0.6734
 2947TIP3    H2 8848   2.337   0.077   4.829 -1.2791  0.1669 -0.4712
 2948TIP3   OH2 8849   1.048   3.098   1.729  0.1463 -0.3776 -0.2056
 2948TIP3    H1 8850   1.059   3.005   1.750 -0.3134 -0.7944 -1.6616
 2948TIP3    H2 8851   1.128   3.140   1.760  0.4996 -1.3122  0.1767
 2949TIP3   OH2 8852   3.170   1.196   2.809 -0.0914  0.1309 -0.3224
 2949TIP3    H1 8853   3.245   1.221   2.755  0.8798  1.5724  1.6022
 2949TIP3    H2 8854   3.095   1.235   2.765  0.5006  0.2458 -1.2704
 2950TIP3   OH2 8855   0.554   0.276   1.114  0.1894 -0.5362 -0.3033
 2950TIP3    H1 8856   0.499   0.242   1.185  1.2418 -0.1417  0.7321
 2950TIP3    H2 8857   0.522   0.232   1.036 -1.1213 -0.8515  0.3842
 2951TIP3   OH2 8858   1.747   2.730   1.336  0.5495  0.0733  0.3664
 2951TIP3    H1 8859   1.760   2.824   1.350 -0.1400 -0.0255  1.8700
 2951TIP3    H2 8860   1.714   2.698   1.420 -0.1740 -1.3401 -0.4262
 2952TIP3   OH2 8861   4.889   0.417   0.871 -0.0117  0.4500 -0.2411
 2952TIP3    H1 8862   4.904   0.511   0.861  0.6177  0.1127 -3.5062
 2952TIP3    H2 8863   4.976   0.378   0.868 -0.3710 -0.3443 -0.5605
 2953TIP3   OH2 8864   2.898   5.375   1.284 -0.5355 -0.3966  0.0075
 2953TIP3    H1 8865   2.859   5.290   1.262  1.5334 -1.2293 -0.7290
 2953TIP3    H2 8866   2.939   5.404   1.203 -0.0806  0.6551  0.5975
 2954TIP3   OH2 8867   6.140   4.338   3.911 -0.1511 -0.4719 -0.0161
 2954TIP3    H1 8868   6.155   4.373   3.823 -0.6869  0.7813  0.3640
 2954TIP3    H2 8869   6.196   4.391   3.967 -0.6931 -0.4711  0.5357
 2955TIP3   OH2 8870   5.707   0.485   0.481 -0.4363  0.2168 -0.4698
 2955TIP3    H1 8871   5.741   0.562   0.436 -1.6114  0.5021 -0.8951
 2955TIP3    H2 8872   5.761   0.413   0.449 -0.4286  0.6078 -1.3693
 2956TIP3   OH2 8873   0.777   3.956   4.046  0.3075  0.4111  0.3193
 2956TIP3    H1 8874   0.776   4.049   4.069 -0.0120  1.0432 -1.9692
 2956TIP3    H2 8875   0.770   3.955   3.950  3.4426 -1.8803 -0.0413
 2957TIP3   OH2 8876   1.080   5.728   4.509  0.3526  0.4524 -0.1507
 2957TIP3    H1 8877   1.152   5.674   4.541  0.3842 -0.1594 -1.1869
 2957TIP3    H2 8878   1.002   5.688   4.546  0.4355  0.1168 -0.3237
 2958TIP3   OH2 8879   1.204   5.929   3.080  0.1301  0.3695  0.2156
 2958TIP3    H1 8880   1.168   5.891   3.000 -1.5606 -0.3828  1.2839
 2958TIP3    H2 8881   1.296   5.902   3.080  0.2265  0.5473 -1.5381
 2959TIP3   OH2 8882   5.767   1.959   1.792 -0.1614  0.3344 -0.0907
 2959TIP3    H1 8883   5.674   1.954   1.772  0.2210 -2.1072 -1.7413
 2959TIP3    H2 8884   5.774   2.023   1.863 -2.7935  2.2714 -1.4491
 2960TIP3   OH2 8885   3.521   1.517   4.904  0.9088 -0.4255  0.1951
 2960TIP3    H1 8886   3.534   1.512   4.809  2.1842  1.1259  0.2388
 2960TIP3    H2 8887   3.455   1.586   4.916 -0.5587 -1.8201  0.3938
 2961TIP3   OH2 8888   4.108   4.658   0.994 -0.1382 -0.1199  0.2961
 2961TIP3    H1 8889   4.040   4.613   0.943 -0.2123 -1.5884  1.6042
 2961TIP3    H2 8890   4.181   4.669   0.932 -0.2530 -1.7841 -0.1867
 2962TIP3   OH2 8891   2.616   5.970   0.864  0.6444 -0.2377 -0.2341
 2962TIP3    H1 8892   2.657   5.946   0.781 -1.4650  1.1478 -1.7846
 2962TIP3    H2 8893   2.557   5.897   0.884  0.5036 -0.1773 -0.4281
 2963TIP3   OH2 8894   4.271   4.758   1.420 -0.3423  0.3387  0.2755
 2963TIP3    H1 8895   4.267   4.715   1.506  1.6901  0.9546  0.7370
 2963TIP3    H2 8896   4.218   4.837   1.430 -2.3218 -0.8997  0.0879
 2964TIP3   OH2 8897   4.730   4.384   0.172  0.3095 -0.2243 -0.0686
 2964TIP3    H1 8898   4.768   4.302   0.141  1.6850  0.9226 -1.5901
 2964TIP3    H2 8899   4.690   4.422   0.094  0.2291  0.8457  0.4838
 2965TIP3   OH2 8900   4.895   3.825   2.147 -0.0832 -0.2030 -0.2355
 2965TIP3    H1 8901   4.961   3.861   2.206  0.7815 -0.2929 -1.1292
 2965TIP3    H2 8902   4.888   3.733   2.174 -1.2033  0.2159  1.0539
 2966TIP3   OH2 8903   2.452   1.937   3.164  0.0176  0.1450  0.0272
 2966TIP3    H1 8904   2.444   2.018   3.113  2.0596 -0.4038 -1.3172
 2966TIP3    H2 8905   2.498   1.876   3.105 -2.2939 -2.3709  0.6041
 2967TIP3   OH2 8906   0.886   4.026   3.430 -0.0753  0.3682  0.2829
 2967TIP3    H1 8907   0.842   3.942   3.442 -0.1559  0.3909  0.1449
 2967TIP3    H2 8908   0.931   4.041   3.513  0.9926 -0.4185 -0.1344
 2968TIP3   OH2 8909   3.458   3.799   1.698 -0.3999 -0.5008  0.6864
 2968TIP3    H1 8910   3.470   3.724   1.641 -0.6715 -0.1848  0.2029
 2968TIP3    H2 8911   3.398   3.856   1.650  2.2439  1.5406 -0.4506
 2969TIP3   OH2 8912   0.853   0.055   0.296  0.4286 -0.1760  0.1668
 2969TIP3    H1 8913   0.902   0.024   0.372 -0.2158  1.3197  1.2286
 2969TIP3    H2 8914   0.806  -0.023   0.264 -0.8040 -0.4560  2.4673
 2970TIP3   OH2 8915   3.878   3.833   3.471 -0.2851  0.0154 -0.0384
 2970TIP3    H1 8916   3.879   3.751   3.521 -1.3756  0.2207  0.3391
 2970TIP3    H2 8917   3.961   3.876   3.495 -0.1875 -0.4951  0.5734
 2971TIP3   OH2 8918   3.464   4.361   1.792 -0.0274  0.6909 -0.5739
 2971TIP3    H1 8919   3.477   4.267   1.792 -0.7180  0.5568  1.1811
 2971TIP3    H2 8920   3.532   4.396   1.735  1.1108 -0.7547 -0.1268
 2972TIP3   OH2 8921   1.913   3.844   1.074 -0.4450  0.2216  0.5984
 2972TIP3    H1 8922   1.982   3.802   1.125  1.6864  3.4601  0.6981
 2972TIP3    H2 8923   1.885   3.919   1.127  1.1465  3.1368 -2.2830
 2973TIP3   OH2 8924   3.265   0.304   1.931  0.0809 -0.2361 -0.5720
 2973TIP3    H1 8925   3.243   0.386   1.887  0.2635  0.2827  0.2836
 2973TIP3    H2 8926   3.356   0.289   1.908 -0.2160 -0.7127 -1.5056
 2974TIP3   OH2 8927   0.220   3.746   0.589 -0.3928 -0.1435 -0.0049
 2974TIP3    H1 8928   0.257   3.658   0.592 -1.8373 -0.7508  1.7265
 2974TIP3    H2 8929   0.208   3.770   0.681 -0.1820  1.8083 -0.4476
 2975TIP3   OH2 8930   5.133   1.440   1.517  0.5588 -0.0176 -0.5100
 2975TIP3    H1 8931   5.117   1.355   1.558  1.1444  1.0846  2.2611
 2975TIP3    H2 8932   5.228   1.447   1.510  0.6799  1.1968  1.3780
 2976TIP3   OH2 8933   6.264   1.635   1.165  0.0174  0.2140 -0.7990
 2976TIP3    H1 8934   6.320   1.577   1.113  0.1784 -0.1105 -0.2689
 2976TIP3    H2 8935   6.310   1.644   1.249 -1.0046 -0.5386 -0.1304
 2977TIP3   OH2 8936   4.358   4.429   1.899 -0.4912 -0.2637  0.1276
 2977TIP3    H1 8937   4.392   4.396   1.982 -0.1132 -0.3784 -0.0735
 2977TIP3    H2 8938   4.311   4.509   1.923 -3.4076 -2.0609  0.9696
 2978TIP3   OH2 8939   5.078   3.728   1.643 -0.6263  0.1210 -0.7017
 2978TIP3    H1 8940   5.082   3.657   1.707  0.0951  0.4964 -0.3168
 2978TIP3    H2 8941   5.134   3.699   1.571  1.6170  1.2614  0.4759
 2979TIP3   OH2 8942   0.966   3.200   1.173 -0.2388  0.5137 -0.1792
 2979TIP3    H1 8943   0.962   3.110   1.141  0.9999  0.6473 -0.7614
 2979TIP3    H2 8944   1.012   3.193   1.257 -1.8367  0.3937  0.7269
 2980TIP3   OH2 8945   6.047   5.023   1.626  0.4916  0.2592  0.1080
 2980TIP3    H1 8946   6.127   5.031   1.677 -0.5853  0.3983  1.8587
 2980TIP3    H2 8947   5.992   4.963   1.677 -1.3617  1.8835  0.1170
 2981TIP3   OH2 8948   0.159   1.263   2.857  0.1936  0.1974 -0.2065
 2981TIP3    H1 8949   0.239   1.226   2.895  0.8653  0.6329 -1.1655
 2981TIP3    H2 8950   0.184   1.352   2.830 -0.0932 -0.2611 -2.1246
 2982TIP3   OH2 8951   2.394   5.494   1.778 -0.3497 -0.1771  0.0767
 2982TIP3    H1 8952   2.373   5.550   1.703  0.2436  0.3497  0.2980
 2982TIP3    H2 8953   2.421   5.411   1.738  1.4136  0.5740 -0.3796
 2983TIP3   OH2 8954   3.234   4.483   1.725  0.1309 -0.2588  0.6694
 2983TIP3    H1 8955   3.263   4.469   1.635  0.7941  2.0138  0.4817
 2983TIP3    H2 8956   3.311   4.466   1.778  0.4782  0.9226  0.5703
 2984TIP3   OH2 8957   5.973   3.203   5.058 -0.5429  0.3764  0.0240
 2984TIP3    H1 8958   5.973   3.158   5.142 -0.3925  1.2819  0.5208
 2984TIP3    H2 8959   6.049   3.168   5.011 -0.5587 -0.0435  0.3100
 2985TIP3   OH2 8960   4.827   2.234   0.249 -0.0034 -0.4010 -0.5735
 2985TIP3    H1 8961   4.862   2.312   0.294  0.5543  0.3712 -2.2682
 2985TIP3    H2 8962   4.872   2.161   0.291 -0.8688  0.1196  1.3631
 2986TIP3   OH2 8963   0.367   1.548   2.662  0.1004  0.5049  0.0797
 2986TIP3    H1 8964   0.374   1.571   2.755 -1.1292  1.1547  0.0338
 2986TIP3    H2 8965   0.423   1.612   2.618  0.2979  0.5099  0.3321
 2987TIP3   OH2 8966   5.709   4.574   4.371 -0.4498  0.2623  0.1844
 2987TIP3    H1 8967   5.664   4.499   4.409 -0.1521  0.0660  0.1495
 2987TIP3    H2 8968   5.750   4.618   4.445 -0.4999  0.3095  0.1849
 2988TIP3   OH2 8969   0.322   4.534   3.087 -0.6219 -0.0343 -0.0172
 2988TIP3    H1 8970   0.291   4.498   3.170 -0.4417 -0.2693 -0.0503
 2988TIP3    H2 8971   0.248   4.584   3.053 -0.6766  0.1100  0.3120
 2989TIP3   OH2 8972   6.181   5.773   2.343 -0.8073 -0.4301  0.3554
 2989TIP3    H1 8973   6.102   5.755   2.394 -1.1548  0.6995  0.2448
 2989TIP3    H2 8974   6.227   5.841   2.394 -0.4030 -0.3697 -0.0825
 2990TIP3   OH2 8975   5.818   0.019   1.468 -0.6016 -0.9475  0.1152
 2990TIP3    H1 8976   5.723   0.034   1.471 -0.6638 -0.9783 -1.2366
 2990TIP3    H2 8977   5.835  -0.014   1.381  0.6812 -0.8639  0.3063
 2991TIP3   OH2 8978   3.660   0.131   1.174 -0.0627  0.3203  0.0141
 2991TIP3    H1 8979   3.742   0.130   1.223 -1.5846  0.7255  2.7259
 2991TIP3    H2 8980   3.682   0.176   1.092  2.2569  0.9723  0.9122
 2992TIP3   OH2 8981   0.234   0.573   0.971 -0.1528  0.1184  0.1990
 2992TIP3    H1 8982   0.168   0.505   0.959  2.8255 -3.0034 -0.0138
 2992TIP3    H2 8983   0.266   0.561   1.060  0.5146  1.1755  0.1244
 2993TIP3   OH2 8984   6.065   2.425   1.702  0.2756  0.3719  0.0297
 2993TIP3    H1 8985   6.094   2.349   1.753 -0.8311 -1.0822 -1.4295
 2993TIP3    H2 8986   6.124   2.428   1.626 -2.2910 -1.7617 -2.2184
 2994TIP3   OH2 8987   1.161   0.408   0.928  0.2341  0.1513  0.7750
 2994TIP3    H1 8988   1.104   0.422   1.004  0.5735  2.7742  0.6130
 2994TIP3    H2 8989   1.112   0.445   0.855  1.1265  0.2209  0.2115
 2995TIP3   OH2 8990   3.997   1.088   1.055 -0.2686  0.0290  0.7666
 2995TIP3    H1 8991   3.917   1.056   1.097 -1.0846 -0.6856 -1.2449
 2995TIP3    H2 8992   3.986   1.069   0.962  2.5780 -0.8427  0.4860
 2996TIP3   OH2 8993   2.803   2.615   3.831 -0.2679  0.0133 -0.3865
 2996TIP3    H1 8994   2.777   2.643   3.919  0.2575 -0.9154  0.0721
 2996TIP3    H2 8995   2.866   2.681   3.802 -0.4134  0.2998 -0.0590
 2997TIP3   OH2 8996   5.636   1.480   0.099 -1.3866 -0.0151  0.1556
 2997TIP3    H1 8997   5.560   1.499   0.045 -0.8698  0.0427 -0.5688
 2997TIP3    H2 8998   5.601   1.464   0.187 -1.8395  5.3254  1.2360
 2998TIP3   OH2 8999   3.879   1.866   2.440  0.2170 -0.1562  0.1002
 2998TIP3    H1 9000   3.863   1.772   2.439 -0.2580 -0.0923  0.7357
 2998TIP3    H2 9001   3.972   1.875   2.423 -0.0153 -0.6538 -1.6076
 2999TIP3   OH2 9002   3.470   4.044   2.393 -0.1770  0.9110 -0.1920
 2999TIP3    H1 9003   3.532   4.072   2.460  0.1082  1.4292 -0.6677
 2999TIP3    H2 9004   3.489   4.099   2.317 -0.5227  0.3601 -0.6909
 3000TIP3   OH2 9005   1.128   1.314   0.307 -0.2132  0.3801  0.0549
 3000TIP3    H1 9006   1.047   1.359   0.331  1.5778  4.2541 -0.4557
 3000TIP3    H2 9007   1.179   1.311   0.388  0.6223  1.5680 -0.3905
 3001TIP3   OH2 9008   6.093   3.093   1.515 -0.4078 -0.5105  0.1528
 3001TIP3    H1 9009   6.110   3.100   1.421  1.7163  0.6859  0.5535
 3001TIP3    H2 9010   6.180   3.092   1.555 -1.2704 -0.2213  2.1510
 3002TIP3   OH2 9011   6.263   2.005   3.582 -0.3303 -0.4219  0.1828
 3002TIP3    H1 9012   6.203   1.944   3.626  0.0926 -0.9500  0.0501
 3002TIP3    H2 9013   6.350   1.969   3.600 -0.1152 -0.2967 -0.5499
 3003TIP3   OH2 9014   4.551   0.696   2.779  0.2103  0.0605  0.7666
 3003TIP3    H1 9015   4.538   0.631   2.711 -0.1974 -0.3425  1.2231
 3003TIP3    H2 9016   4.463   0.723   2.804  0.3768  1.1925  0.2118
 3004TIP3   OH2 9017   4.612   2.515   4.364  0.1316 -0.1278 -0.2237
 3004TIP3    H1 9018   4.644   2.596   4.325  1.6992 -1.3788 -1.7213
 3004TIP3    H2 9019   4.582   2.540   4.452 -1.2786  2.3803 -1.3083
 3005TIP3   OH2 9020   5.292   5.026   2.474  0.0015  0.2025 -0.0777
 3005TIP3    H1 9021   5.241   5.010   2.553  1.4109 -2.6998  0.3574
 3005TIP3    H2 9022   5.235   4.998   2.402  0.2513 -1.2975  0.2779
 3006TIP3   OH2 9023   3.740   0.869   3.067  0.5854  1.0379  0.1088
 3006TIP3    H1 9024   3.722   0.802   3.000 -1.1718  0.4661  1.0963
 3006TIP3    H2 9025   3.818   0.837   3.112 -0.9663 -1.1594  1.4609
 3007TIP3   OH2 9026   2.484   4.402   4.292  0.3053  0.3261  0.0302
 3007TIP3    H1 9027   2.399   4.399   4.248  0.1594 -0.0368  0.3287
 3007TIP3    H2 9028   2.532   4.328   4.254  0.8091  1.0543 -0.7753
 3008TIP3   OH2 9029   3.423   4.826   0.552  0.1206  0.7172 -0.0418
 3008TIP3    H1 9030   3.466   4.876   0.621 -1.9205  0.4178  1.5373
 3008TIP3    H2 9031   3.334   4.862   0.547 -0.6857 -1.1679 -0.4653
 3009TIP3   OH2 9032   4.650   1.191   3.175 -0.5706  0.0441  0.4686
 3009TIP3    H1 9033   4.652   1.284   3.153  1.0314  0.6116  2.7568
 3009TIP3    H2 9034   4.740   1.161   3.164 -0.8041 -0.9309  1.0217
 3010TIP3   OH2 9035   5.878   2.022   2.661  0.0896  0.3256  0.4952
 3010TIP3    H1 9036   5.872   1.968   2.740  0.3581 -0.9627 -0.3334
 3010TIP3    H2 9037   5.947   1.980   2.609 -1.4122 -0.0358 -1.3003
 3011TIP3   OH2 9038   1.306   0.326   1.499  0.3343 -0.0470 -0.0022
 3011TIP3    H1 9039   1.363   0.250   1.501  0.1625 -0.1689  1.0104
 3011TIP3    H2 9040   1.249   0.312   1.424  2.0516  0.4153 -1.4369
 3012TIP3   OH2 9041   5.934   4.865   2.723 -0.1343  0.2537 -0.2301
 3012TIP3    H1 9042   5.897   4.945   2.761  0.9347  0.0339  1.3714
 3012TIP3    H2 9043   6.004   4.897   2.666 -0.0705  0.4954 -0.0208
 3013TIP3   OH2 9044   5.182   2.596   4.850 -0.0244  0.2313  0.3571
 3013TIP3    H1 9045   5.100   2.548   4.867  1.2291 -1.0573  3.4364
 3013TIP3    H2 9046   5.244   2.528   4.824  0.6925  0.8597  0.4004
 3014TIP3   OH2 9047   0.682   6.000   0.040 -0.0552  0.2749 -0.1168
 3014TIP3    H1 9048   0.616   5.943   0.080  1.4097 -0.4903  1.3457
 3014TIP3    H2 9049   0.755   5.997   0.101  0.8143  2.2042 -0.9903
 3015TIP3   OH2 9050   1.444   2.078   3.059 -0.3665 -0.0310 -0.1758
 3015TIP3    H1 9051   1.404   2.072   2.972 -0.9758 -1.6298  0.1707
 3015TIP3    H2 9052   1.521   2.132   3.046  0.4660 -1.5303 -2.0966
 3016TIP3   OH2 9053   6.150   1.252   2.102 -0.1677  0.6454 -0.3507
 3016TIP3    H1 9054   6.059   1.242   2.130  0.4202 -0.0651  1.4876
 3016TIP3    H2 9055   6.174   1.341   2.129  0.1548  0.2410  0.7817
 3017TIP3   OH2 9056   4.616   3.321   2.912 -0.0636 -0.3707 -0.1683
 3017TIP3    H1 9057   4.525   3.351   2.916 -0.0213 -0.3110  0.5210
 3017TIP3    H2 9058   4.610   3.226   2.923  0.0688 -0.1840  2.0220
 3018TIP3   OH2 9059   5.578   0.489   3.348 -0.3432 -0.4194 -0.3948
 3018TIP3    H1 9060   5.484   0.501   3.334 -0.6702 -1.8768  0.3904
 3018TIP3    H2 9061   5.615   0.487   3.260 -1.2233 -1.0938 -0.7687
 3019TIP3   OH2 9062   5.643   5.346   1.401  0.4902  0.5090 -0.2665
 3019TIP3    H1 9063   5.581   5.346   1.473  0.9049 -0.3839  0.0960
 3019TIP3    H2 9064   5.657   5.439   1.382  1.6452  0.8450  1.9186
 3020TIP3   OH2 9065   0.153   1.225   1.685  0.0128 -0.3178  0.4252
 3020TIP3    H1 9066   0.242   1.258   1.699 -0.3017  0.8989 -0.3644
 3020TIP3    H2 9067   0.099   1.303   1.675 -0.4038 -0.9287 -3.7662
 3021TIP3   OH2 9068   4.543   5.535   1.926 -0.1282 -0.2364 -0.3569
 3021TIP3    H1 9069   4.522   5.628   1.913 -0.1764 -0.3178 -0.8653
 3021TIP3    H2 9070   4.586   5.532   2.011  0.3422  0.3263 -0.5729
 3022TIP3   OH2 9071   3.095   5.750   4.995 -0.0860  0.0023  0.0865
 3022TIP3    H1 9072   3.186   5.775   4.979  0.6136 -2.0378  0.6038
 3022TIP3    H2 9073   3.044   5.809   4.939  1.5463  0.9702 -0.4628
 3023TIP3   OH2 9074   5.992   3.868   2.197  0.5557 -0.5881  0.0542
 3023TIP3    H1 9075   6.038   3.907   2.271  0.3172 -0.1457 -0.0318
 3023TIP3    H2 9076   5.961   3.784   2.231  0.0021 -0.1642  0.6191
 3024TIP3   OH2 9077   4.441   4.271   2.983  0.4892  0.4011 -0.0396
 3024TIP3    H1 9078   4.486   4.187   2.981  1.4717  0.8946  0.2329
 3024TIP3    H2 9079   4.495   4.329   2.928  1.5797  1.6274  2.1514
 3025TIP3   OH2 9080   1.791   4.251   1.725 -0.2766 -0.6066  0.7974
 3025TIP3    H1 9081   1.852   4.281   1.658 -0.3218  1.7763  1.7347
 3025TIP3    H2 9082   1.723   4.204   1.675 -0.4717  1.3332 -0.9189
 3026TIP3   OH2 9083   5.756   0.380   0.164  0.1828  0.3786  0.1446
 3026TIP3    H1 9084   5.691   0.328   0.117  0.7320  0.8332 -1.1783
 3026TIP3    H2 9085   5.783   0.325   0.237  1.1204 -1.4513 -1.4903
 3027TIP3   OH2 9086   4.804   2.130   0.596 -0.1208 -0.1421 -0.0831
 3027TIP3    H1 9087   4.814   2.218   0.631  1.7653 -0.4233  0.2353
 3027TIP3    H2 9088   4.851   2.074   0.658  0.3192 -1.1159 -1.2396
 3028TIP3   OH2 9089   5.391   5.884   3.648  0.4271 -1.0017 -0.4324
 3028TIP3    H1 9090   5.387   5.788   3.649  2.0503 -1.0963  0.5912
 3028TIP3    H2 9091   5.475   5.904   3.607  0.8175 -0.0767  0.7611
 3029TIP3   OH2 9092   2.840   0.292   2.740 -0.4797 -0.8044  0.1163
 3029TIP3    H1 9093   2.893   0.244   2.676 -0.7558  0.0888 -0.7990
 3029TIP3    H2 9094   2.899   0.359   2.774 -0.8962 -0.0542 -0.6215
 3030TIP3   OH2 9095   6.199   5.751   0.685 -0.0182  0.3356 -0.4307
 3030TIP3    H1 9096   6.106   5.729   0.672  0.6612 -2.5400 -1.0265
 3030TIP3    H2 9097   6.206   5.770   0.779 -0.9542 -0.9743 -0.0647
 3031TIP3   OH2 9098   3.504   4.544   1.998 -0.0222  0.2866  0.0952
 3031TIP3    H1 9099   3.483   4.481   1.930 -0.7385  1.3308 -0.6749
 3031TIP3    H2 9100   3.492   4.630   1.957  2.2280  0.9638  0.7052
 3032TIP3   OH2 9101   3.086   3.922   4.866 -0.3864  0.0699 -0.2797
 3032TIP3    H1 9102   3.011   3.931   4.925 -0.8337 -1.0475 -0.6444
 3032TIP3    H2 9103   3.054   3.956   4.782 -0.8625 -1.3809 -0.7111
 3033TIP3   OH2 9104   6.329   3.584   4.881  0.3079  0.3702  0.0644
 3033TIP3    H1 9105   6.264   3.623   4.939 -0.4461  0.6716 -0.9745
 3033TIP3    H2 9106   6.363   3.657   4.830  1.4444  0.2111  0.5490
 3034TIP3   OH2 9107   5.836   4.976   4.695 -0.4138  0.2481  0.1543
 3034TIP3    H1 9108   5.892   5.041   4.653  0.1743 -0.0045  0.5464
 3034TIP3    H2 9109   5.794   5.024   4.767  0.5245  0.0404  0.8585
 3035TIP3   OH2 9110   2.696   3.228   0.719 -0.1474 -0.1436 -0.2264
 3035TIP3    H1 9111   2.649   3.198   0.797 -1.1147  1.0156 -0.3346
 3035TIP3    H2 9112   2.766   3.283   0.754 -1.5908  1.7797 -0.1505
 3036TIP3   OH2 9113   3.239   1.430   1.084 -0.0287  0.3917 -0.2200
 3036TIP3    H1 9114   3.253   1.335   1.089  1.6122  0.4420 -2.4185
 3036TIP3    H2 9115   3.163   1.439   1.027  1.9527  0.3635 -3.0480
 3037TIP3   OH2 9116   1.136   5.797   4.894 -0.0175  0.6746 -0.3988
 3037TIP3    H1 9117   1.117   5.829   4.806 -1.3550 -0.9311 -0.7421
 3037TIP3    H2 9118   1.219   5.750   4.885 -0.8425 -0.7188 -1.1869
 3038TIP3   OH2 9119   4.366   2.572   3.854  0.1017  0.4954  0.8825
 3038TIP3    H1 9120   4.373   2.480   3.827  0.1207  0.9418 -0.7537
 3038TIP3    H2 9121   4.392   2.572   3.946 -2.8776 -1.5991  1.8803
 3039TIP3   OH2 9122   3.652   4.214   0.186 -0.0407 -1.1634  0.4204
 3039TIP3    H1 9123   3.649   4.298   0.139 -0.3364 -0.3001  1.9159
 3039TIP3    H2 9124   3.568   4.210   0.233  0.9578 -1.1058  2.3005
 3040TIP3   OH2 9125   4.068   4.353   3.000  0.2200  0.3284 -0.3457
 3040TIP3    H1 9126   4.048   4.440   3.033  0.2831 -0.2127  1.2033
 3040TIP3    H2 9127   4.009   4.295   3.049  1.7971 -0.7362  0.3527
 3041TIP3   OH2 9128   4.176   3.102   3.579  0.5500  0.2149  0.1007
 3041TIP3    H1 9129   4.210   3.190   3.561  1.7405  0.0278  1.2328
 3041TIP3    H2 9130   4.248   3.058   3.625 -0.4100 -0.9973  0.4938
 3042TIP3   OH2 9131   0.762   1.827   1.254  0.0615 -0.1550 -0.0714
 3042TIP3    H1 9132   0.771   1.920   1.274 -0.0964 -0.1193 -0.1736
 3042TIP3    H2 9133   0.826   1.784   1.312  0.0351  0.0037  0.0757
 3043TIP3   OH2 9134   4.063   4.963   3.505  0.3431 -0.9121 -0.2780
 3043TIP3    H1 9135   3.972   4.933   3.513 -0.4406  1.3849  0.1871
 3043TIP3    H2 9136   4.074   4.977   3.411 -0.5232  0.8021 -0.1536
 3044TIP3   OH2 9137   5.418   2.495   3.694 -0.2845 -0.1488 -0.0353
 3044TIP3    H1 9138   5.491   2.466   3.639 -0.7426 -0.1617 -0.6450
 3044TIP3    H2 9139   5.382   2.414   3.731 -0.5778 -0.2309 -0.4896
 3045TIP3   OH2 9140   4.196   2.422   1.400  0.1083  0.0546 -0.3148
 3045TIP3    H1 9141   4.107   2.454   1.418 -0.0944  0.5516 -1.9841
 3045TIP3    H2 9142   4.250   2.501   1.397  0.1867 -0.0191 -1.3828
 3046TIP3   OH2 9143   4.267   0.464   4.684 -0.0959  0.1899 -0.5165
 3046TIP3    H1 9144   4.249   0.381   4.640  0.7898  0.3004 -1.1094
 3046TIP3    H2 9145   4.221   0.529   4.631  0.0282  0.1911 -0.6229
 3047TIP3   OH2 9146   0.970   2.085   3.499  0.2494  0.0385 -0.3304
 3047TIP3    H1 9147   0.931   2.009   3.455 -0.4113 -0.5040  1.1171
 3047TIP3    H2 9148   0.900   2.118   3.555  1.1899  0.4024  0.6565
 3048TIP3   OH2 9149   3.247   5.291   5.179  0.0506  0.6036  0.3564
 3048TIP3    H1 9150   3.157   5.287   5.147  0.2401 -0.4177 -0.0642
 3048TIP3    H2 9151   3.293   5.222   5.132  2.0636  3.6050 -2.5221
 3049TIP3   OH2 9152   5.129   2.233   1.241  0.2732  0.0872  0.3544
 3049TIP3    H1 9153   5.132   2.297   1.312 -2.1606  0.0145  0.6132
 3049TIP3    H2 9154   5.114   2.285   1.162 -1.1677 -0.0735  0.4934
 3050TIP3   OH2 9155   5.956   0.763   3.362 -0.1728  0.0990  0.3079
 3050TIP3    H1 9156   5.874   0.784   3.408 -0.2558  1.0733 -0.2732
 3050TIP3    H2 9157   5.939   0.677   3.323 -0.0983 -0.7721  2.0576
 3051TIP3   OH2 9158   4.294   0.364   0.439 -0.1831  0.0299  0.1288
 3051TIP3    H1 9159   4.327   0.427   0.374  0.4281  0.2673  0.6575
 3051TIP3    H2 9160   4.315   0.279   0.401  0.7170  0.1739  0.2788
 3052TIP3   OH2 9161   0.810   1.942   2.143 -0.3404  0.2145  0.3229
 3052TIP3    H1 9162   0.817   1.910   2.233  2.4504  0.4321  0.2759
 3052TIP3    H2 9163   0.812   2.038   2.152 -1.8599  0.2887  0.0911
 3053TIP3   OH2 9164   4.983   3.925   0.019 -0.2142 -0.4284 -0.3407
 3053TIP3    H1 9165   4.915   3.878  -0.030  0.3361  0.1087 -1.6922
 3053TIP3    H2 9166   5.020   3.859   0.078 -1.2519 -0.9735 -0.2764
 3054TIP3   OH2 9167   1.536   0.478   4.920  0.1384 -0.0774  0.7376
 3054TIP3    H1 9168   1.618   0.438   4.890  0.0233  0.7437 -0.8027
 3054TIP3    H2 9169   1.468   0.427   4.877 -0.0602  0.7178  0.0832
 3055TIP3   OH2 9170   3.207   3.166   1.888 -0.2095 -0.6747 -0.1124
 3055TIP3    H1 9171   3.125   3.136   1.925 -0.8105  0.2266 -0.6653
 3055TIP3    H2 9172   3.219   3.113   1.809  0.2407 -1.4570  0.4612
 3056TIP3   OH2 9173   3.459   0.900   2.258 -0.0044 -0.3049  0.1764
 3056TIP3    H1 9174   3.412   0.954   2.321 -0.2327 -1.4354  0.9855
 3056TIP3    H2 9175   3.522   0.850   2.310  0.1174 -0.9278 -0.5421
 3057TIP3   OH2 9176   0.855   4.327   0.063 -0.3162  0.7277 -0.0496
 3057TIP3    H1 9177   0.929   4.328   0.002  0.4609 -0.3599  0.8388
 3057TIP3    H2 9178   0.785   4.282   0.014 -0.3072  1.4997 -0.7884
 3058TIP3   OH2 9179   5.963   3.463   3.189  0.2581 -0.0200  0.3972
 3058TIP3    H1 9180   6.012   3.398   3.138  0.8799 -0.0319  0.9934
 3058TIP3    H2 9181   5.896   3.495   3.128  1.3940  0.4510 -0.6519
 3059TIP3   OH2 9182   6.015   1.635   4.507 -0.7240  0.3434 -0.8952
 3059TIP3    H1 9183   6.014   1.648   4.412 -0.2095  0.7686 -0.8448
 3059TIP3    H2 9184   6.102   1.664   4.535 -1.0318  0.6590 -0.2355
 3060TIP3   OH2 9185   2.985   4.549   5.034  0.3797 -0.7823  0.1014
 3060TIP3    H1 9186   2.931   4.470   5.025 -0.6707 -0.3559  2.0242
 3060TIP3    H2 9187   3.068   4.518   5.071  0.9543 -1.2579 -1.5074
 3061TIP3   OH2 9188   5.170   1.860   3.523  0.1920 -1.1580  0.1065
 3061TIP3    H1 9189   5.213   1.787   3.478  1.5973  0.8987 -2.0979
 3061TIP3    H2 9190   5.090   1.876   3.473  1.1378  0.3431 -0.9948
 3062TIP3   OH2 9191   2.982   3.031   1.999  0.0318  0.1670 -0.2609
 3062TIP3    H1 9192   2.976   2.998   2.089  1.1029  0.0404 -0.2259
 3062TIP3    H2 9193   2.908   3.091   1.991 -0.5418 -0.4192  0.4487
 3063TIP3   OH2 9194   0.404   3.279   4.143  0.3360  0.1055 -0.1781
 3063TIP3    H1 9195   0.363   3.195   4.123  2.6809 -0.9609 -0.8015
 3063TIP3    H2 9196   0.469   3.259   4.210  0.5502  1.5500  0.0857
 3064TIP3   OH2 9197   4.558   2.567   0.617 -0.3809 -0.2537 -0.0871
 3064TIP3    H1 9198   4.538   2.514   0.695 -1.1004  0.7238  0.4183
 3064TIP3    H2 9199   4.485   2.550   0.557 -0.7209  0.2875  0.1580
 3065TIP3   OH2 9200   1.637   0.804   3.998 -0.4261  0.2362  0.4700
 3065TIP3    H1 9201   1.686   0.796   3.915 -0.7906  1.8773  0.0491
 3065TIP3    H2 9202   1.696   0.853   4.055 -1.3497  1.8577  0.1026
 3066TIP3   OH2 9203   3.285   5.284   0.669 -0.6994  0.1308 -0.6055
 3066TIP3    H1 9204   3.254   5.299   0.758  1.9466  0.3116  0.3904
 3066TIP3    H2 9205   3.332   5.364   0.646  0.7340 -0.8287 -1.1698
 3067TIP3   OH2 9206   5.025   1.589   4.108 -0.3538 -0.0968  0.3757
 3067TIP3    H1 9207   5.095   1.620   4.051  0.0919 -0.5102  0.6911
 3067TIP3    H2 9208   5.047   1.622   4.195 -0.9687  0.4333  0.3390
 3068TIP3   OH2 9209   4.354   5.928   4.396  0.0011  0.3945 -0.5433
 3068TIP3    H1 9210   4.266   5.966   4.385  0.6264  2.0928 -0.0409
 3068TIP3    H2 9211   4.360   5.907   4.489 -0.1967 -0.6080 -0.7489
 3069TIP3   OH2 9212   5.193   4.830   5.088 -0.0503 -0.2483 -0.3347
 3069TIP3    H1 9213   5.175   4.873   5.172 -0.1937 -1.4597  0.2687
 3069TIP3    H2 9214   5.195   4.737   5.108  3.0294 -0.4485 -1.0817
 3070TIP3   OH2 9215   0.629   3.070   0.633  0.0319  0.1930  0.0127
 3070TIP3    H1 9216   0.680   3.001   0.591  1.1774  1.1970 -0.2924
 3070TIP3    H2 9217   0.635   3.144   0.573 -1.8441  0.3439 -0.0562
 3071TIP3   OH2 9218   4.289   1.360   4.179 -0.1134  0.1365  0.3067
 3071TIP3    H1 9219   4.296   1.418   4.254 -0.1951 -1.8606  1.9544
 3071TIP3    H2 9220   4.266   1.275   4.217  0.6044 -1.1248 -1.9035
 3072TIP3   OH2 9221   3.863   1.745   4.916  0.0180  0.2391 -0.4431
 3072TIP3    H1 9222   3.958   1.758   4.921 -0.1388  1.4168 -0.1466
 3072TIP3    H2 9223   3.842   1.757   4.824  0.1606 -0.0298 -0.5109
 3073TIP3   OH2 9224   3.882   4.437   1.827 -0.3771  0.0295  0.0645
 3073TIP3    H1 9225   3.968   4.402   1.853  0.6443  1.9452 -0.5722
 3073TIP3    H2 9226   3.879   4.524   1.867 -1.7347  0.2727 -0.5308
 3074TIP3   OH2 9227   4.622   5.667   1.358  0.7319  0.1422  0.2016
 3074TIP3    H1 9228   4.666   5.601   1.412  1.5162  1.0812  0.7304
 3074TIP3    H2 9229   4.648   5.751   1.396 -2.8670  0.7731  1.6558
 3075TIP3   OH2 9230   1.672   4.664   0.531  0.0243 -0.0757  0.0213
 3075TIP3    H1 9231   1.613   4.656   0.457  1.6177  0.3895 -1.3800
 3075TIP3    H2 9232   1.733   4.591   0.521  0.7961  0.5037  0.3433
 3076TIP3   OH2 9233   0.231   0.377   4.085  0.2604 -0.0036  0.6757
 3076TIP3    H1 9234   0.317   0.392   4.125  1.1670 -3.0507  0.1621
 3076TIP3    H2 9235   0.230   0.432   4.008  0.5622  2.1602  2.1238
 3077TIP3   OH2 9236   1.100   5.538   3.253 -0.1532  0.5220 -0.0999
 3077TIP3    H1 9237   1.101   5.476   3.181 -1.2626 -0.9857  1.1103
 3077TIP3    H2 9238   1.189   5.574   3.255  0.8670 -1.7873 -0.2380
 3078TIP3   OH2 9239   2.546   2.427   4.279  0.0509  0.0538  0.3245
 3078TIP3    H1 9240   2.521   2.455   4.191  1.0664  3.4095  0.9588
 3078TIP3    H2 9241   2.633   2.389   4.268  0.1880  0.4887 -0.1304
 3079TIP3   OH2 9242   5.845   0.796   4.012 -0.4519 -0.4708 -0.1625
 3079TIP3    H1 9243   5.804   0.883   4.019 -1.3214 -0.8726 -0.2051
 3079TIP3    H2 9244   5.777   0.741   3.974  0.3408 -1.0082 -0.8361
 3080TIP3   OH2 9245   3.164   3.922   1.239 -0.1287  0.0397  0.1759
 3080TIP3    H1 9246   3.137   3.893   1.152  1.0135  1.1575 -0.5777
 3080TIP3    H2 9247   3.238   3.865   1.262  0.2417  0.4261 -0.0460
 3081TIP3   OH2 9248   1.848   3.298   4.901 -0.1878  0.4987 -0.4528
 3081TIP3    H1 9249   1.859   3.218   4.953 -0.9786  1.2041  0.8638
 3081TIP3    H2 9250   1.806   3.268   4.820 -0.8753 -0.3826  0.2049
 3082TIP3   OH2 9251   4.115   1.511   4.828 -0.0526 -0.0884 -0.3718
 3082TIP3    H1 9252   4.121   1.603   4.853  0.1571 -0.5076  1.1658
 3082TIP3    H2 9253   4.071   1.469   4.901  1.6564 -1.5675 -0.1278
 3083TIP3   OH2 9254   2.684   2.785   5.143 -0.0629  0.6182 -0.6397
 3083TIP3    H1 9255   2.635   2.723   5.090 -0.1380  0.4412 -0.3653
 3083TIP3    H2 9256   2.660   2.763   5.233  1.0390  0.0881 -0.4627
 3084TIP3   OH2 9257   5.469   5.741   2.484  0.1307  0.0072  0.1262
 3084TIP3    H1 9258   5.544   5.683   2.473  3.1744  3.9230 -2.0298
 3084TIP3    H2 9259   5.403   5.705   2.425  0.5342 -2.9437  1.2749
 3085TIP3   OH2 9260   2.960   4.372   3.753 -0.0058 -0.5203 -0.2001
 3085TIP3    H1 9261   2.983   4.464   3.754  0.5570 -0.6256  2.3530
 3085TIP3    H2 9262   2.865   4.371   3.743 -0.0940  0.3645  0.4874
 3086TIP3   OH2 9263   4.718   5.137   2.374 -0.0131  0.0111 -0.1503
 3086TIP3    H1 9264   4.747   5.214   2.423  0.3333 -0.9144  1.1506
 3086TIP3    H2 9265   4.635   5.112   2.414 -0.5238  0.1572 -1.0852
 3087TIP3   OH2 9266   4.858   0.978   4.713 -0.4713  0.2636  0.0214
 3087TIP3    H1 9267   4.843   0.972   4.618 -0.0111 -1.9379  0.0253
 3087TIP3    H2 9268   4.953   0.971   4.722 -0.6240 -1.3894  0.7003
 3088TIP3   OH2 9269   4.673   0.551   2.985  0.5724  0.2022 -0.3385
 3088TIP3    H1 9270   4.641   0.611   2.918  1.2213  0.3383 -0.5338
 3088TIP3    H2 9271   4.594   0.515   3.025  0.1510  1.9251  0.4787
 3089TIP3   OH2 9272   4.994   5.501   1.914 -0.4640 -0.0958  0.1626
 3089TIP3    H1 9273   5.002   5.408   1.934 -3.2993 -0.5049 -0.0750
 3089TIP3    H2 9274   4.976   5.503   1.820 -0.7665  0.6572  0.2331
 3090TIP3   OH2 9275   0.335   4.457   2.055 -0.2466 -0.2570 -1.1138
 3090TIP3    H1 9276   0.398   4.391   2.084 -2.2361 -0.2584  4.5362
 3090TIP3    H2 9277   0.381   4.540   2.064  0.1668 -0.4906 -1.0403
 3091TIP3   OH2 9278   1.187   2.591   3.050  0.2056 -0.0427  0.6678
 3091TIP3    H1 9279   1.127   2.542   2.994 -0.4284 -0.5628  1.7633
 3091TIP3    H2 9280   1.265   2.604   2.996 -1.0632  1.1317 -1.0006
 3092TIP3   OH2 9281   2.898   1.865   2.855  0.2173  0.2935  0.3031
 3092TIP3    H1 9282   2.823   1.847   2.799 -0.2882 -2.9005  1.7534
 3092TIP3    H2 9283   2.974   1.858   2.797 -0.4181 -0.2713 -0.4772
 3093TIP3   OH2 9284   3.787   2.648   4.589 -0.0176  0.1215  0.4371
 3093TIP3    H1 9285   3.829   2.724   4.630  1.4951 -2.0077  3.1895
 3093TIP3    H2 9286   3.696   2.652   4.618  0.0293  0.9352  0.4901
 3094TIP3   OH2 9287   3.153   2.431   3.644 -0.8430  0.5776  0.6706
 3094TIP3    H1 9288   3.199   2.417   3.561 -0.3418  0.8955  0.8892
 3094TIP3    H2 9289   3.141   2.525   3.650 -0.8226  0.5623  0.9914
 3095TIP3   OH2 9290   2.033   4.618   1.417 -0.0636  0.2561 -0.5753
 3095TIP3    H1 9291   2.041   4.560   1.493 -2.0379 -0.1791 -0.6375
 3095TIP3    H2 9292   2.108   4.678   1.424  1.1900 -1.3525  0.3077
 3096TIP3   OH2 9293   3.930   2.475   3.939  0.6532 -0.0747  0.3039
 3096TIP3    H1 9294   3.936   2.448   4.031  0.3757 -0.3270  0.2494
 3096TIP3    H2 9295   3.959   2.398   3.890 -3.1191 -1.5024  0.0036
 3097TIP3   OH2 9296   1.886   2.464   1.882 -0.4348  0.4223 -0.0470
 3097TIP3    H1 9297   1.976   2.471   1.915 -0.7117 -2.7260  1.8373
 3097TIP3    H2 9298   1.841   2.540   1.919  1.0592  1.1063  0.4541
 3098TIP3   OH2 9299   1.538   3.345   0.830  0.0298  0.2321 -0.4636
 3098TIP3    H1 9300   1.472   3.413   0.845  0.2156  0.0729  1.3381
 3098TIP3    H2 9301   1.621   3.388   0.847  0.1761 -0.3182  0.2769
 3099TIP3   OH2 9302   0.380   0.825   3.679 -0.2260  0.4842 -0.3172
 3099TIP3    H1 9303   0.461   0.841   3.630 -0.0008  1.1822  0.2660
 3099TIP3    H2 9304   0.310   0.858   3.621 -0.0571  0.2661 -0.6446
 3100TIP3   OH2 9305   1.406   1.966   4.505  0.3336 -0.1608 -0.5045
 3100TIP3    H1 9306   1.490   1.929   4.533  0.9145  1.2919 -0.2618
 3100TIP3    H2 9307   1.343   1.896   4.523  0.8841  0.0654  2.9973
 3101TIP3   OH2 9308   4.375   5.733   4.203  0.4134  0.1003  0.1131
 3101TIP3    H1 9309   4.449   5.737   4.143  1.5824  0.4320  1.5235
 3101TIP3    H2 9310   4.393   5.801   4.268  0.2554 -1.5682  1.9880
 3102TIP3   OH2 9311   6.028   2.482   3.858  0.4869  0.2761 -0.4225
 3102TIP3    H1 9312   6.056   2.398   3.894 -0.7610  0.4136  0.9360
 3102TIP3    H2 9313   5.979   2.459   3.779  1.7158 -0.1346 -1.0934
 3103TIP3   OH2 9314   0.352   0.949   1.151  0.1519 -0.1997  0.0467
 3103TIP3    H1 9315   0.279   0.899   1.186 -0.3938  0.2281 -0.4544
 3103TIP3    H2 9316   0.363   1.022   1.212  0.5797 -0.6041  0.4655
 3104TIP3   OH2 9317   6.051   4.021   4.655 -0.1254  0.3801 -0.4003
 3104TIP3    H1 9318   5.982   3.976   4.704  0.4143  0.3036  0.3104
 3104TIP3    H2 9319   6.084   4.087   4.716 -0.1562  1.0024 -1.0432
 3105TIP3   OH2 9320   5.139   1.292   3.118 -0.0547  0.3286 -0.0914
 3105TIP3    H1 9321   5.056   1.328   3.088 -0.7447  0.7150  2.0655
 3105TIP3    H2 9322   5.146   1.207   3.074 -1.2953  0.5572 -0.7694
 3106TIP3   OH2 9323   3.707   0.007   3.531 -0.3603 -0.1423  0.8024
 3106TIP3    H1 9324   3.678   0.095   3.506  0.9159  0.4427  1.2429
 3106TIP3    H2 9325   3.627  -0.042   3.546 -1.1130  0.6542 -0.4177
 3107TIP3   OH2 9326   2.388   0.140   1.784 -0.3728 -0.3055 -0.1233
 3107TIP3    H1 9327   2.414   0.052   1.757 -0.1093 -0.4914  0.6932
 3107TIP3    H2 9328   2.360   0.129   1.875  0.3578  0.5772  0.2268
 3108TIP3   OH2 9329   2.615   1.823   0.199 -0.3150  0.0452  0.1314
 3108TIP3    H1 9330   2.583   1.783   0.118  1.4332  0.6908 -0.9347
 3108TIP3    H2 9331   2.672   1.757   0.238  0.6771  0.5606 -0.3976
 3109TIP3   OH2 9332   1.707   3.427   5.133  0.2159  0.0457  0.3171
 3109TIP3    H1 9333   1.694   3.373   5.055  0.9911  0.3811 -0.0494
 3109TIP3    H2 9334   1.622   3.423   5.178 -0.2238 -0.2032 -0.5023
 3110TIP3   OH2 9335   1.569   2.107   3.451 -0.2027  0.6602  0.2612
 3110TIP3    H1 9336   1.648   2.068   3.414  0.2607 -1.4996  3.0972
 3110TIP3    H2 9337   1.602   2.175   3.510 -0.4461  0.1918  0.9569
 3111TIP3   OH2 9338   3.559   2.288   4.957  0.4012 -0.4854  0.6073
 3111TIP3    H1 9339   3.562   2.192   4.950 -0.3048 -0.5094  0.5666
 3111TIP3    H2 9340   3.573   2.305   5.050  0.6076 -0.6236  0.6028
 3112TIP3   OH2 9341   4.039   0.802   2.906 -0.2433 -0.1371  0.5214
 3112TIP3    H1 9342   4.049   0.858   2.984 -2.5441 -1.1728  1.6600
 3112TIP3    H2 9343   3.970   0.844   2.855 -1.4520 -1.4415  1.0075
 3113TIP3   OH2 9344   3.016   0.406   4.784 -0.5827  0.3395  0.5386
 3113TIP3    H1 9345   2.989   0.494   4.756 -1.3217 -0.1234 -0.2601
 3113TIP3    H2 9346   3.057   0.420   4.869 -1.9652  1.2836  1.0921
 3114TIP3   OH2 9347   2.360   4.450   3.300  0.5282  0.2823 -0.4351
 3114TIP3    H1 9348   2.388   4.431   3.390  0.3685 -0.5123 -0.5469
 3114TIP3    H2 9349   2.437   4.432   3.247 -0.2915 -2.6284 -0.8299
 3115TIP3   OH2 9350   4.847   5.425   3.176 -0.2275  0.6359 -0.7997
 3115TIP3    H1 9351   4.766   5.461   3.141  0.0665  2.1593 -0.0282
 3115TIP3    H2 9352   4.836   5.330   3.172 -1.1491  0.7784 -2.7243
 3116TIP3   OH2 9353   2.575   2.053   2.377 -0.1601 -0.0961  0.0172
 3116TIP3    H1 9354   2.629   2.066   2.299 -0.6127 -1.5198 -0.5753
 3116TIP3    H2 9355   2.613   2.112   2.443  1.1096  0.1052 -0.8568
 3117TIP3   OH2 9356   1.471   0.170   0.386 -0.2273  0.1606  0.8488
 3117TIP3    H1 9357   1.417   0.220   0.325 -1.5815 -2.3834 -0.2144
 3117TIP3    H2 9358   1.550   0.149   0.336 -0.4183 -0.1722  0.6813
 3118TIP3   OH2 9359   0.418   3.197   1.879  0.4409  0.1144  0.4263
 3118TIP3    H1 9360   0.372   3.162   1.803  0.0012  0.4296  0.5424
 3118TIP3    H2 9361   0.480   3.129   1.903  0.4753 -0.0529 -0.1192
 3119TIP3   OH2 9362   4.996   4.456   2.024  0.2267  0.0436 -0.6165
 3119TIP3    H1 9363   4.989   4.541   2.069  0.7834  0.9305 -2.1296
 3119TIP3    H2 9364   5.088   4.451   1.997  0.0789 -0.8165 -0.9866
 3120TIP3   OH2 9365   1.799   1.431   4.762  0.1815  0.4523  0.0425
 3120TIP3    H1 9366   1.891   1.428   4.737  0.0100  0.9250 -0.6666
 3120TIP3    H2 9367   1.751   1.414   4.681 -0.3576  0.1139  0.4244
 3121TIP3   OH2 9368   1.100   4.618   2.184  0.6405 -0.2790  0.4563
 3121TIP3    H1 9369   1.083   4.527   2.208  0.7522  0.1463  2.2811
 3121TIP3    H2 9370   1.053   4.630   2.101  0.3231 -1.8837  0.3675
 3122TIP3   OH2 9371   5.671   5.550   4.400 -0.2343  0.5967  0.0528
 3122TIP3    H1 9372   5.740   5.612   4.422  1.0704 -0.3903 -1.1152
 3122TIP3    H2 9373   5.614   5.549   4.477  1.2532  1.1551  1.1953
 3123TIP3   OH2 9374   5.068   1.319   2.091 -0.1276 -0.3935 -0.4706
 3123TIP3    H1 9375   5.125   1.372   2.036  0.4055  0.3289  0.7602
 3123TIP3    H2 9376   4.986   1.369   2.095 -0.0489 -0.2747 -0.3295
 3124TIP3   OH2 9377   1.438   2.189   3.907  0.3730 -0.1395  0.3963
 3124TIP3    H1 9378   1.531   2.180   3.888  0.3862 -0.3743  0.5657
 3124TIP3    H2 9379   1.405   2.099   3.912 -0.6150 -0.1138 -3.2163
 3125TIP3   OH2 9380   5.800   5.213   4.031 -0.3551  0.0504 -0.5530
 3125TIP3    H1 9381   5.791   5.188   3.939 -0.0017 -1.6924 -0.1429
 3125TIP3    H2 9382   5.729   5.167   4.075 -0.0817  0.3012  0.1534
 3126TIP3   OH2 9383   1.029   2.120   2.938  0.2805  0.2181  0.2384
 3126TIP3    H1 9384   0.938   2.146   2.955 -0.6047 -1.6407 -1.3022
 3126TIP3    H2 9385   1.025   2.074   2.854  2.6829  0.1368  0.1142
 3127TIP3   OH2 9386   0.533   2.616   3.020 -0.1356 -0.2063 -0.0083
 3127TIP3    H1 9387   0.599   2.619   3.090 -1.3371  0.5007  1.1471
 3127TIP3    H2 9388   0.571   2.667   2.949  0.1054  1.1889  1.0720
 3128TIP3   OH2 9389   1.241   2.423   3.455 -0.0779  0.2105  0.0897
 3128TIP3    H1 9390   1.235   2.339   3.502 -0.2084 -1.1693 -2.2286
 3128TIP3    H2 9391   1.159   2.468   3.475  0.5238  0.3873  2.3574
 3129TIP3   OH2 9392   5.611   5.628   1.375 -0.1802 -0.0135  0.3126
 3129TIP3    H1 9393   5.640   5.654   1.462 -0.8719 -1.0305  0.8597
 3129TIP3    H2 9394   5.623   5.707   1.321  1.1990  0.3191  1.0797
 3130TIP3   OH2 9395   5.316   2.764   2.284  0.6776  0.0015 -0.0827
 3130TIP3    H1 9396   5.356   2.759   2.197  0.1880  0.2498 -0.3241
 3130TIP3    H2 9397   5.222   2.762   2.268  0.5751  0.6328  0.4007
 3131TIP3   OH2 9398   3.696   1.173   2.989  0.2120 -0.3760  0.2454
 3131TIP3    H1 9399   3.705   1.113   2.915 -1.1815 -0.1442 -0.1391
 3131TIP3    H2 9400   3.784   1.178   3.027  0.7366 -1.2435 -0.8098
 3132TIP3   OH2 9401   1.151   0.780   0.892 -0.1822 -0.4843 -0.2217
 3132TIP3    H1 9402   1.238   0.819   0.891  0.6605 -2.2553  0.0868
 3132TIP3    H2 9403   1.093   0.850   0.924  1.6914 -0.3291  3.2774
 3133TIP3   OH2 9404   5.482   1.981   1.747 -0.3258  0.2931  0.0539
 3133TIP3    H1 9405   5.434   2.018   1.821 -0.1206 -1.6746  1.2293
 3133TIP3    H2 9406   5.423   1.915   1.710  0.0984  0.3250 -0.7092
 3134TIP3   OH2 9407   5.016   5.247   1.994  0.0424  0.1961 -0.2141
 3134TIP3    H1 9408   5.061   5.174   2.037  0.5890  0.8797  0.3980
 3134TIP3    H2 9409   4.941   5.206   1.951 -0.5201 -0.5350  1.3653
 3135TIP3   OH2 9410   1.931   1.744   4.017 -0.0696 -0.2056  0.1273
 3135TIP3    H1 9411   1.928   1.790   3.932  3.1884 -0.4085 -0.2018
 3135TIP3    H2 9412   1.945   1.814   4.081  0.2558 -0.3035  0.1643
 3136TIP3   OH2 9413   2.169   5.355   1.305 -0.3851  0.2510  0.0849
 3136TIP3    H1 9414   2.147   5.342   1.212  0.3397  2.3745 -0.4477
 3136TIP3    H2 9415   2.084   5.359   1.349 -0.9421  2.4897 -1.0360
 3137TIP3   OH2 9416   3.450   5.896   3.272  0.0916 -0.0084 -0.2159
 3137TIP3    H1 9417   3.528   5.840   3.271  1.4712  1.8155 -0.2072
 3137TIP3    H2 9418   3.443   5.930   3.183  1.0735  2.0821  0.4400
 3138TIP3   OH2 9419   1.103   2.262   3.914 -0.6329 -0.1609  0.2612
 3138TIP3    H1 9420   1.170   2.310   3.866 -0.1961 -1.7134 -0.7621
 3138TIP3    H2 9421   1.134   2.259   4.004 -0.0570  0.3662  0.0863
 3139TIP3   OH2 9422   2.867   5.680   1.916 -0.0955 -0.8046  0.1682
 3139TIP3    H1 9423   2.953   5.673   1.875  0.2123 -3.0348  1.0543
 3139TIP3    H2 9424   2.808   5.635   1.856 -0.6587  0.5356 -0.3338
 3140TIP3   OH2 9425   3.860   3.177   1.673 -0.1718 -0.4266 -0.3217
 3140TIP3    H1 9426   3.922   3.141   1.735  1.3754  0.8870 -1.0439
 3140TIP3    H2 9427   3.790   3.214   1.727 -0.2372 -1.6852  0.5017
 3141TIP3   OH2 9428   6.056   4.214   2.662  0.1845 -0.3748 -0.6620
 3141TIP3    H1 9429   6.008   4.225   2.580  1.8235  0.7570 -1.5207
 3141TIP3    H2 9430   6.118   4.287   2.664  0.6942 -0.7963  1.2324
 3142TIP3   OH2 9431   3.458   0.763   1.996 -0.4394 -0.0286  0.1998
 3142TIP3    H1 9432   3.512   0.684   1.990 -2.0748 -1.2064  0.2752
 3142TIP3    H2 9433   3.458   0.784   2.090 -0.9900 -0.7132  0.3719
 3143TIP3   OH2 9434   3.403   0.954   4.480  0.0622  0.0914 -0.5554
 3143TIP3    H1 9435   3.463   1.015   4.438 -0.6541  0.2946 -1.3027
 3143TIP3    H2 9436   3.443   0.937   4.565  0.4016  1.4142 -0.4231
 3144TIP3   OH2 9437   5.387   3.672   4.369 -0.5147  0.0500  0.0512
 3144TIP3    H1 9438   5.327   3.625   4.427 -0.8153 -0.1065 -0.3824
 3144TIP3    H2 9439   5.437   3.729   4.427 -2.8612  2.1676  0.1683
 3145TIP3   OH2 9440   3.279   1.562   4.362  0.0809 -0.1972  0.6799
 3145TIP3    H1 9441   3.229   1.632   4.404 -1.7267 -0.6133 -0.6449
 3145TIP3    H2 9442   3.316   1.602   4.283 -0.9754 -0.6842 -0.0939
 3146TIP3   OH2 9443   3.862   4.992   1.777 -0.0916  0.4213 -0.8468
 3146TIP3    H1 9444   3.767   4.993   1.763 -0.0465 -0.0609 -1.1973
 3146TIP3    H2 9445   3.880   5.077   1.817 -0.4504  1.2092 -2.2557
 3147TIP3   OH2 9446   3.574   0.450   0.373 -0.4044 -0.1901 -0.8815
 3147TIP3    H1 9447   3.543   0.533   0.337 -0.8380  0.8276  1.6333
 3147TIP3    H2 9448   3.495   0.399   0.387 -0.5018  0.3520  0.7089
 3148TIP3   OH2 9449   1.813   0.395   3.213  0.5898  0.1308  0.5132
 3148TIP3    H1 9450   1.810   0.393   3.117  2.7111  0.1899  0.4118
 3148TIP3    H2 9451   1.833   0.305   3.239  1.3138  0.3709  0.8168
 3149TIP3   OH2 9452   0.308   4.806   2.805  0.4235  0.1704 -0.3611
 3149TIP3    H1 9453   0.215   4.799   2.826  0.2855  1.9924 -0.2060
 3149TIP3    H2 9454   0.341   4.717   2.813 -1.3852 -0.5897 -0.8172
 3150TIP3   OH2 9455   5.840   4.031   4.044  0.5658  0.1037 -0.0557
 3150TIP3    H1 9456   5.785   4.077   4.108  1.7583  1.3506  0.1302
 3150TIP3    H2 9457   5.783   4.016   3.969 -0.0044  1.4626  0.0826
 3151TIP3   OH2 9458   4.837   2.401   1.393 -0.2758  0.4072  0.0322
 3151TIP3    H1 9459   4.927   2.433   1.395 -0.0938 -0.1169  0.5424
 3151TIP3    H2 9460   4.831   2.353   1.310 -0.6384  1.9669 -0.8770
 3152TIP3   OH2 9461   1.513   5.949   2.210 -0.2941  0.2476 -0.2699
 3152TIP3    H1 9462   1.488   6.026   2.158  1.6805  0.7385 -0.5698
 3152TIP3    H2 9463   1.540   5.884   2.145  1.6524  0.6662  0.0472
 3153TIP3   OH2 9464   4.339   0.614   0.862 -0.0978 -0.8109 -0.0230
 3153TIP3    H1 9465   4.373   0.532   0.826  0.3352 -0.3686 -0.6575
 3153TIP3    H2 9466   4.320   0.668   0.785 -2.0132 -0.9310  0.3196
 3154TIP3   OH2 9467   4.674   4.872   2.671 -0.2082 -0.4040 -0.4409
 3154TIP3    H1 9468   4.752   4.893   2.619  1.8145 -4.6655  0.4673
 3154TIP3    H2 9469   4.701   4.887   2.761  0.2774 -3.4594  0.0043
 3155TIP3   OH2 9470   0.067   5.334   1.082 -0.3169  0.1569  0.1854
 3155TIP3    H1 9471   0.149   5.318   1.036 -0.2284  1.2149 -0.0664
 3155TIP3    H2 9472   0.093   5.370   1.167 -0.4969 -1.1419  0.8200
 3156TIP3   OH2 9473   5.384   1.232   4.496  0.1333  0.0667 -0.2233
 3156TIP3    H1 9474   5.429   1.260   4.575 -1.1333 -0.7386  0.8283
 3156TIP3    H2 9475   5.351   1.313   4.457  0.4672  0.4405  0.2648
 3157TIP3   OH2 9476   5.334   4.192   2.366  0.0831  0.4971 -0.3057
 3157TIP3    H1 9477   5.396   4.228   2.303  0.0969  0.6851 -0.1843
 3157TIP3    H2 9478   5.352   4.239   2.448 -0.1695  0.5027 -0.2519
 3158TIP3   OH2 9479   0.492   1.454   4.990 -0.0139 -0.0255  0.3937
 3158TIP3    H1 9480   0.455   1.541   5.003  0.0698 -0.2429  2.2959
 3158TIP3    H2 9481   0.532   1.432   5.074  0.0452 -1.8656 -0.0829
 3159TIP3   OH2 9482   5.708   3.503   1.894  0.2808  0.2444  0.5197
 3159TIP3    H1 9483   5.687   3.471   1.806 -0.0293 -0.2108  0.7541
 3159TIP3    H2 9484   5.645   3.572   1.911  0.1048  0.0809  0.5294
 3160TIP3   OH2 9485   2.509   2.913   2.647  0.1933 -0.1016 -0.2332
 3160TIP3    H1 9486   2.544   3.001   2.631  0.2941  0.1790  1.3520
 3160TIP3    H2 9487   2.582   2.866   2.687  0.2498 -1.0332 -1.3950
 3161TIP3   OH2 9488   2.319   2.786   3.437 -0.1153 -0.0601 -0.5416
 3161TIP3    H1 9489   2.281   2.826   3.359 -1.9198 -1.2410 -0.3128
 3161TIP3    H2 9490   2.393   2.734   3.403 -1.1469 -0.9274 -1.5736
 3162TIP3   OH2 9491   0.099   1.510   1.559 -0.0373  0.1918 -0.0463
 3162TIP3    H1 9492   0.092   1.587   1.502  0.3144 -0.2340 -0.6788
 3162TIP3    H2 9493   0.188   1.478   1.546  0.0636  0.1077  0.7898
 3163TIP3   OH2 9494   2.350   4.868   4.699  0.5009  0.2335 -0.2106
 3163TIP3    H1 9495   2.372   4.792   4.753 -1.0206  1.2379  1.9606
 3163TIP3    H2 9496   2.255   4.875   4.704  0.5636  2.0293 -0.6901
 3164TIP3   OH2 9497   6.100   3.675   3.566 -0.3311  0.2344  0.3169
 3164TIP3    H1 9498   6.062   3.680   3.653  1.1852  1.8494  0.9526
 3164TIP3    H2 9499   6.079   3.587   3.535  1.9010 -1.7021  3.6402
 3165TIP3   OH2 9500   0.896   2.404   3.824 -0.0235  0.1909 -0.3393
 3165TIP3    H1 9501   0.874   2.477   3.883 -0.8563  1.5663 -2.2354
 3165TIP3    H2 9502   0.967   2.358   3.868 -1.0715  0.7185  2.0474
 3166TIP3   OH2 9503   3.850   3.121   4.404 -0.2250  0.9532 -0.5883
 3166TIP3    H1 9504   3.843   3.182   4.477 -0.1618  0.0348  0.2069
 3166TIP3    H2 9505   3.935   3.079   4.416 -0.6390  0.0874 -0.6144
 3167TIP3   OH2 9506   3.278   5.535   1.902  0.2557  0.5105 -0.0556
 3167TIP3    H1 9507   3.212   5.555   1.836  0.1007 -0.6991 -0.2964
 3167TIP3    H2 9508   3.351   5.497   1.852 -0.3749 -1.6534  0.5271
 3168TIP3   OH2 9509   6.186   2.334   4.473  0.5538  0.1761  0.3605
 3168TIP3    H1 9510   6.195   2.413   4.418  2.7775 -1.4867 -1.8951
 3168TIP3    H2 9511   6.197   2.261   4.412  0.7469 -1.8815  2.7053
 3169TIP3   OH2 9512   4.871   1.034   3.051  0.0951  0.6130  0.3644
 3169TIP3    H1 9513   4.883   1.068   2.962  0.7158 -0.9230 -0.1743
 3169TIP3    H2 9514   4.838   0.945   3.039 -0.4260  0.6027  1.6989
 3170TIP3   OH2 9515   1.012   1.740   1.334 -0.1752 -0.3391 -0.2756
 3170TIP3    H1 9516   0.989   1.652   1.303 -0.7351 -0.4453  0.4291
 3170TIP3    H2 9517   1.045   1.785   1.256  0.5151 -1.3036 -0.5628
 3171TIP3   OH2 9518   0.688   5.293   4.560 -0.1879 -0.1218  0.3041
 3171TIP3    H1 9519   0.737   5.211   4.570 -0.5763 -0.2706  1.0435
 3171TIP3    H2 9520   0.696   5.314   4.467  1.7364  0.1365  0.4669
 3172TIP3   OH2 9521   3.120   2.459   4.115  1.0180  0.5412 -0.2785
 3172TIP3    H1 9522   3.105   2.460   4.210 -1.3178  0.7865 -0.5905
 3172TIP3    H2 9523   3.106   2.549   4.088 -1.9424 -0.1077 -1.2652
 3173TIP3   OH2 9524   4.069   2.623   3.012 -0.5348 -0.2961  0.3457
 3173TIP3    H1 9525   3.979   2.625   2.981 -0.0514 -1.1660 -1.2036
 3173TIP3    H2 9526   4.115   2.566   2.951  1.3252  1.0238  0.4101
 3174TIP3   OH2 9527   0.806   4.614   4.375  0.0051  0.5574 -0.2673
 3174TIP3    H1 9528   0.750   4.621   4.297  0.2684  1.1733 -0.4116
 3174TIP3    H2 9529   0.790   4.695   4.423 -0.0546  0.2385  0.2568
 3175TIP3   OH2 9530   4.373   3.283   3.598  0.4682  0.5654  0.1761
 3175TIP3    H1 9531   4.416   3.253   3.678  1.0259 -1.5427 -0.8289
 3175TIP3    H2 9532   4.420   3.362   3.573  0.1470  1.3897  2.0034
 3176TIP3   OH2 9533   5.908   1.404   2.913  0.2136  0.3842 -0.3228
 3176TIP3    H1 9534   5.820   1.437   2.897  0.2599  1.1203  0.8301
 3176TIP3    H2 9535   5.951   1.473   2.963  1.5130  0.1050 -1.0150
 3177TIP3   OH2 9536   4.388   4.409   4.922  0.2597  0.3309  0.5785
 3177TIP3    H1 9537   4.461   4.406   4.983 -0.6071 -0.0231  1.6273
 3177TIP3    H2 9538   4.318   4.452   4.971 -0.5579 -0.2594 -0.0485
 3178TIP3   OH2 9539   4.980   4.195   0.652  0.0214 -0.5817  0.1624
 3178TIP3    H1 9540   5.021   4.163   0.732 -1.2286 -0.7333  0.7690
 3178TIP3    H2 9541   4.886   4.194   0.671 -0.2411  0.2910 -0.9766
 3179TIP3   OH2 9542   4.497   1.758   3.327 -0.3431 -0.4444 -0.0581
 3179TIP3    H1 9543   4.482   1.826   3.392  0.9695  0.5527 -0.7572
 3179TIP3    H2 9544   4.520   1.805   3.247 -3.3138 -1.5404 -1.7304
 3180TIP3   OH2 9545   1.910   3.734   3.621 -0.1410 -0.2850 -0.7604
 3180TIP3    H1 9546   1.979   3.778   3.572 -0.8324  0.1879 -1.3277
 3180TIP3    H2 9547   1.830   3.754   3.573 -1.1481  1.8233  1.6312
 3181TIP3   OH2 9548   1.426   2.713   0.255 -0.2024 -0.2088  0.6693
 3181TIP3    H1 9549   1.381   2.777   0.200 -0.3226 -1.0777 -0.2735
 3181TIP3    H2 9550   1.447   2.641   0.196  1.1959 -0.4339  1.4074
 3182TIP3   OH2 9551   5.488   0.994   3.301  0.0206 -0.5260  0.2268
 3182TIP3    H1 9552   5.503   1.042   3.219 -2.1001  0.8996  0.5794
 3182TIP3    H2 9553   5.552   1.031   3.362  0.0452  0.1191 -0.1753
 3183TIP3   OH2 9554   3.289   1.052   2.418 -0.0213 -0.4518 -0.4346
 3183TIP3    H1 9555   3.198   1.076   2.402 -0.4346  0.8207  3.0450
 3183TIP3    H2 9556   3.330   1.134   2.448  1.6810 -1.5054  0.2359
 3184TIP3   OH2 9557   0.583   4.306   4.224  0.0875  0.1552  0.3597
 3184TIP3    H1 9558   0.522   4.378   4.242  0.1556  0.6393 -1.1897
 3184TIP3    H2 9559   0.621   4.285   4.309 -2.1678 -0.1226  1.3589
 3185TIP3   OH2 9560   6.138   0.149   3.558  0.2440 -0.0598 -0.7789
 3185TIP3    H1 9561   6.107   0.216   3.497 -0.5136 -2.1276 -2.8272
 3185TIP3    H2 9562   6.226   0.176   3.582  0.2625  1.2172 -2.1819
 3186TIP3   OH2 9563   2.291   1.388   3.612 -0.9292  0.6468 -0.1510
 3186TIP3    H1 9564   2.304   1.474   3.572  2.2401 -0.5860 -2.2129
 3186TIP3    H2 9565   2.276   1.329   3.538  0.2614 -1.0333  0.8705
 3187TIP3   OH2 9566   4.742   0.175   4.041 -0.3192 -0.0358 -0.2027
 3187TIP3    H1 9567   4.754   0.138   4.129 -0.9171 -0.6769 -0.3790
 3187TIP3    H2 9568   4.823   0.222   4.024  0.1636 -0.6432  0.3428
 3188TIP3   OH2 9569   1.807   0.506   1.635  0.2629 -0.1502 -0.2851
 3188TIP3    H1 9570   1.870   0.558   1.686 -1.0377  0.9006  0.3203
 3188TIP3    H2 9571   1.816   0.537   1.545 -0.9697  1.7097  0.1687
 3189TIP3   OH2 9572   0.558   0.239   4.872 -0.7618  0.1696 -0.4821
 3189TIP3    H1 9573   0.472   0.271   4.843 -0.8650  0.8408  0.5150
 3189TIP3    H2 9574   0.581   0.296   4.945  1.0810  0.7523 -1.4549
 3190TIP3   OH2 9575   5.541   1.933   0.993  0.0344 -0.5574  0.7321
 3190TIP3    H1 9576   5.485   1.894   1.060 -0.2633  0.8393  1.3477
 3190TIP3    H2 9577   5.625   1.946   1.036 -0.1460  0.3108  0.8579
 3191TIP3   OH2 9578   2.482   0.495   2.836 -0.5519  0.2277 -0.3776
 3191TIP3    H1 9579   2.414   0.518   2.772  0.3533  0.5874 -1.2429
 3191TIP3    H2 9580   2.455   0.539   2.917  0.5225  3.6107 -1.6770
 3192TIP3   OH2 9581   5.572   5.719   3.244  0.2415  0.3479  0.3025
 3192TIP3    H1 9582   5.509   5.664   3.197  0.6139 -2.6563  2.9063
 3192TIP3    H2 9583   5.519   5.786   3.287 -0.6101  0.4419 -0.8629
 3193TIP3   OH2 9584   2.588   0.909   2.971 -0.2363 -0.3629 -0.3247
 3193TIP3    H1 9585   2.657   0.890   2.908 -0.6806  0.8055 -1.1837
 3193TIP3    H2 9586   2.523   0.958   2.922 -0.5650  0.6448  1.0578
 3194TIP3   OH2 9587   0.461   1.579   2.910  0.0223  0.3044  0.0948
 3194TIP3    H1 9588   0.424   1.543   2.990 -1.3456 -0.5401 -0.8845
 3194TIP3    H2 9589   0.457   1.674   2.923  1.8715  0.2042  1.8962
 3195TIP3   OH2 9590   5.742   2.815   0.442  0.2351  0.2761  0.0709
 3195TIP3    H1 9591   5.806   2.778   0.380  1.5547 -0.2689  1.6862
 3195TIP3    H2 9592   5.775   2.904   0.459 -1.9623  1.7173 -2.4548
 3196TIP3   OH2 9593   1.312   4.267   1.050  0.0710 -0.0401  0.0693
 3196TIP3    H1 9594   1.398   4.306   1.065  0.5007 -0.8243 -0.2891
 3196TIP3    H2 9595   1.311   4.188   1.105 -0.9491  0.6606  1.1156
 3197TIP3   OH2 9596   0.509   5.849   1.106 -0.0625  0.6356 -0.7002
 3197TIP3    H1 9597   0.556   5.785   1.158 -0.5124 -0.8121 -1.9762
 3197TIP3    H2 9598   0.567   5.925   1.101  1.4089 -0.4629 -0.8593
 3198TIP3   OH2 9599   4.467   0.090   2.666  0.2613  0.7857  0.2326
 3198TIP3    H1 9600   4.421   0.131   2.592  0.2772 -0.1613 -0.3244
 3198TIP3    H2 9601   4.511   0.014   2.627 -0.1178 -0.0021  1.3137
 3199TIP3   OH2 9602   3.144   2.826   0.472 -0.5394 -0.7881  0.4905
 3199TIP3    H1 9603   3.111   2.736   0.480 -2.4139 -0.0648  1.7106
 3199TIP3    H2 9604   3.143   2.860   0.561 -1.0792  0.8334 -0.0925
 3200TIP3   OH2 9605   2.291   0.811   1.259 -0.0968  0.9214 -0.2860
 3200TIP3    H1 9606   2.307   0.885   1.318  1.6049  0.4855 -0.1468
 3200TIP3    H2 9607   2.224   0.843   1.199 -2.0256  1.3145  1.9219
 3201TIP3   OH2 9608   3.375   0.461   3.736 -0.5479  0.6372 -0.2395
 3201TIP3    H1 9609   3.421   0.539   3.769 -1.1902  0.6333  0.7289
 3201TIP3    H2 9610   3.366   0.476   3.642  1.4126  0.6308 -0.4545
 3202TIP3   OH2 9611   5.707   0.051   3.490  0.1551 -0.2773  0.0087
 3202TIP3    H1 9612   5.681   0.050   3.398  2.1854 -0.8650 -0.6216
 3202TIP3    H2 9613   5.696   0.142   3.517 -1.3728 -0.2870 -0.5093
 3203TIP3   OH2 9614   3.167   0.772   1.166  0.3591 -0.0098  0.0611
 3203TIP3    H1 9615   3.144   0.768   1.258 -0.1323 -3.1337 -0.0948
 3203TIP3    H2 9616   3.262   0.758   1.164  0.2599 -0.6975  0.0668
 3204TIP3   OH2 9617   3.218   3.070   3.167  0.3057 -0.1258 -0.2686
 3204TIP3    H1 9618   3.138   3.021   3.147  0.1735 -0.2765  0.5813
 3204TIP3    H2 9619   3.269   3.011   3.223  0.5292  0.3805  0.0675
 3205TIP3   OH2 9620   2.042   4.590   2.163 -0.1614 -0.1552 -0.1052
 3205TIP3    H1 9621   2.020   4.502   2.133  0.4192 -1.0022  1.7974
 3205TIP3    H2 9622   2.136   4.598   2.144 -0.2653  0.1787 -0.5059
 3206TIP3   OH2 9623   2.387   3.713   1.180  0.1858  0.5630  0.2078
 3206TIP3    H1 9624   2.404   3.690   1.272  0.3517 -0.3436 -0.0311
 3206TIP3    H2 9625   2.292   3.720   1.174  0.1719  0.5989  0.4408
 3207TIP3   OH2 9626   4.058   5.662   0.267  0.1084 -0.0369 -0.2534
 3207TIP3    H1 9627   4.096   5.602   0.203  0.2716  0.1376 -0.3213
 3207TIP3    H2 9628   4.011   5.605   0.328  0.2714 -0.2349 -0.3097
 3208TIP3   OH2 9629   3.904   1.530   0.079  0.0204  0.3997 -0.3850
 3208TIP3    H1 9630   3.821   1.576   0.078 -1.2366 -1.7153 -1.7870
 3208TIP3    H2 9631   3.909   1.491   0.167  0.1491  1.5207  0.1180
 3209TIP3   OH2 9632   6.062   1.568   0.892 -0.4070  0.3303  0.1119
 3209TIP3    H1 9633   6.089   1.544   0.804 -0.4640 -0.1461  0.2208
 3209TIP3    H2 9634   6.144   1.576   0.941 -0.3792  0.5342  0.0342
 3210TIP3   OH2 9635   0.252   1.626   3.900 -0.3781 -0.4494  0.6637
 3210TIP3    H1 9636   0.324   1.659   3.954  0.3118  0.9881 -1.0581
 3210TIP3    H2 9637   0.233   1.539   3.937 -0.8460  0.9287  4.0234
 3211TIP3   OH2 9638   1.580   5.116   0.121 -0.0306 -0.0219  0.6427
 3211TIP3    H1 9639   1.516   5.082   0.059 -1.6075  1.4704  1.3767
 3211TIP3    H2 9640   1.650   5.152   0.067 -0.3474 -0.6323 -0.1897
 3212TIP3   OH2 9641   4.356   2.365   1.075  0.2229  0.2499  0.2468
 3212TIP3    H1 9642   4.421   2.418   1.120 -0.7115  0.7755  1.0113
 3212TIP3    H2 9643   4.284   2.357   1.138  0.4550 -2.1947  0.2969
 3213TIP3   OH2 9644   3.758   1.183   3.436 -0.2646 -0.1337  0.5038
 3213TIP3    H1 9645   3.670   1.178   3.475 -1.2503 -0.3396 -1.5719
 3213TIP3    H2 9646   3.770   1.276   3.416 -0.7531 -0.3041 -0.6907
 3214TIP3   OH2 9647   0.985   2.575   4.247 -0.5851 -0.4184  0.2175
 3214TIP3    H1 9648   0.934   2.603   4.322 -1.0404  0.4900 -0.4134
 3214TIP3    H2 9649   1.076   2.590   4.272 -0.6798 -1.0222  0.9386
 3215TIP3   OH2 9650   0.394   3.029   5.075  0.1950  0.0776 -0.3821
 3215TIP3    H1 9651   0.384   2.935   5.059  1.7177  0.2099 -2.5829
 3215TIP3    H2 9652   0.488   3.045   5.065  0.4098  1.4563  2.6615
 3216TIP3   OH2 9653   5.710   4.688   0.204 -0.5500 -0.3766 -0.4279
 3216TIP3    H1 9654   5.675   4.720   0.287  1.1375  0.3318  0.0470
 3216TIP3    H2 9655   5.666   4.605   0.190 -3.5667  1.1134 -0.6707
 3217TIP3   OH2 9656   1.049   2.430   2.535  0.0822  0.4047  0.7925
 3217TIP3    H1 9657   1.118   2.481   2.495 -0.9476  0.8724 -0.4826
 3217TIP3    H2 9658   0.987   2.494   2.569 -2.1957  0.1976 -2.5233
 3218TIP3   OH2 9659   6.238   1.318   0.861  0.2612  0.0610 -0.4174
 3218TIP3    H1 9660   6.309   1.372   0.894 -1.3788  0.7645  2.2835
 3218TIP3    H2 9661   6.202   1.275   0.939  0.7934 -4.2284 -2.2529
 3219TIP3   OH2 9662   1.634   1.425   3.462  0.0480  0.1526  0.0510
 3219TIP3    H1 9663   1.617   1.338   3.498 -1.6350  0.5158  0.2592
 3219TIP3    H2 9664   1.674   1.409   3.377 -1.9977 -0.9349 -0.7881
 3220TIP3   OH2 9665   3.380   2.147   4.430  0.4371  0.1417 -0.5563
 3220TIP3    H1 9666   3.448   2.190   4.482  1.3264  0.4239 -1.9014
 3220TIP3    H2 9667   3.423   2.071   4.392 -1.5024 -3.1964  3.1110
 3221TIP3   OH2 9668   2.628   5.195   4.053 -0.5199 -0.2575  0.1825
 3221TIP3    H1 9669   2.629   5.113   4.003 -0.1348  0.9028 -1.8290
 3221TIP3    H2 9670   2.638   5.167   4.144  0.0728 -2.4155 -0.4709
 3222TIP3   OH2 9671   1.117   1.146   1.589  0.0962  0.7940  0.6053
 3222TIP3    H1 9672   1.091   1.055   1.607 -1.2066  1.1939  0.9058
 3222TIP3    H2 9673   1.085   1.163   1.500  0.0725  1.0513  0.6625
 3223TIP3   OH2 9674   5.499   0.128   0.624 -0.1102 -0.0305  0.2332
 3223TIP3    H1 9675   5.535   0.102   0.539 -0.1253  1.2399 -0.1751
 3223TIP3    H2 9676   5.575   0.160   0.673 -0.4718  1.6605 -0.2494
 3224TIP3   OH2 9677   0.408   4.388   0.980  0.0792 -0.1938  0.5162
 3224TIP3    H1 9678   0.344   4.454   1.008  0.6863  0.2833  0.8028
 3224TIP3    H2 9679   0.475   4.389   1.048  1.2819  0.5610 -0.6385
 3225TIP3   OH2 9680   6.008   1.439   2.638  0.1010  0.1781  0.1124
 3225TIP3    H1 9681   5.992   1.410   2.728  0.2658 -2.5450 -0.6555
 3225TIP3    H2 9682   5.929   1.415   2.590  0.0171  1.6025 -0.5199
 3226TIP3   OH2 9683   0.806   3.304   4.448  0.8614  0.4387  0.0514
 3226TIP3    H1 9684   0.839   3.315   4.359  2.3436 -1.0925  0.3758
 3226TIP3    H2 9685   0.876   3.336   4.504  0.0317  1.1769  0.7083
 3227TIP3   OH2 9686   3.108   1.691   3.995 -0.3599  0.3723 -0.0996
 3227TIP3    H1 9687   3.182   1.661   4.048  0.4782  1.0957 -0.8312
 3227TIP3    H2 9688   3.032   1.679   4.052  0.3852  0.1467  0.8829
 3228TIP3   OH2 9689   5.647   3.193   3.744 -0.7484  0.1928 -0.1432
 3228TIP3    H1 9690   5.719   3.182   3.682  0.7575  0.0700  1.5488
 3228TIP3    H2 9691   5.586   3.123   3.723 -0.0161 -0.1656 -1.1410
 3229TIP3   OH2 9692   0.219   1.081   3.775  0.3556  0.7888  0.0515
 3229TIP3    H1 9693   0.135   1.045   3.746  0.0545  0.4317  1.2994
 3229TIP3    H2 9694   0.269   1.004   3.802  2.0772  0.6916 -2.9074
 3230TIP3   OH2 9695   0.433   0.414   3.032  0.4401  0.6472  0.4148
 3230TIP3    H1 9696   0.357   0.446   2.985 -0.9957 -2.8504 -0.0032
 3230TIP3    H2 9697   0.504   0.415   2.968 -0.1960  0.5973 -0.2960
 3231TIP3   OH2 9698   4.091   2.269   1.133 -0.7057 -0.4623  0.5342
 3231TIP3    H1 9699   4.066   2.325   1.207  1.3970 -1.4909  2.1535
 3231TIP3    H2 9700   4.088   2.326   1.057 -3.7603  0.4579  1.1879
 3232TIP3   OH2 9701   2.666   2.843   1.928  0.2824  0.1600  0.0823
 3232TIP3    H1 9702   2.670   2.896   1.848  1.2067  0.6244  0.4224
 3232TIP3    H2 9703   2.635   2.904   1.995 -0.3850 -0.2015  0.1124
 3233TIP3   OH2 9704   1.000   5.667   2.157  0.4917 -0.1590 -0.0620
 3233TIP3    H1 9705   1.001   5.730   2.229 -0.1046 -0.3768  0.1492
 3233TIP3    H2 9706   0.910   5.634   2.156  0.7427 -0.8562 -0.2997
 3234TIP3   OH2 9707   3.545   4.035   1.112  0.4168  0.0360  0.7675
 3234TIP3    H1 9708   3.553   3.982   1.033 -0.9989 -0.2017  0.7417
 3234TIP3    H2 9709   3.558   4.125   1.083  0.8014 -0.1306  0.4279
 3235TIP3   OH2 9710   5.915   0.398   4.010 -0.9316 -0.1008 -0.3178
 3235TIP3    H1 9711   5.975   0.431   4.077 -0.4293 -1.0565 -0.2833
 3235TIP3    H2 9712   5.970   0.385   3.933 -1.5172  1.0487 -0.9585
 3236TIP3   OH2 9713   1.742   3.474   4.155  0.1839  0.5014 -0.4028
 3236TIP3    H1 9714   1.705   3.539   4.214  0.8324  0.8258 -0.3382
 3236TIP3    H2 9715   1.680   3.401   4.157 -0.4416  1.0298 -0.3178
 3237TIP3   OH2 9716   2.120   1.988   3.832  0.1874  0.4087  0.2416
 3237TIP3    H1 9717   2.162   1.904   3.816 -2.5542 -0.5777 -2.7561
 3237TIP3    H2 9718   2.146   2.042   3.758  0.1532  1.4944  0.9972
 3238TIP3   OH2 9719   3.729   5.748   1.155  0.0128  0.1908  0.0932
 3238TIP3    H1 9720   3.687   5.707   1.079 -0.5050  0.1683  0.3894
 3238TIP3    H2 9721   3.674   5.723   1.229 -0.1902  1.2460  0.3089
 3239TIP3   OH2 9722   3.273   5.426   1.018  0.8243 -0.0470  0.3364
 3239TIP3    H1 9723   3.270   5.484   0.942  2.6420 -0.1419  0.1585
 3239TIP3    H2 9724   3.366   5.411   1.034  0.4331 -1.8438  1.2053
 3240TIP3   OH2 9725   4.369   3.482   4.241 -0.0809 -0.6884  0.5400
 3240TIP3    H1 9726   4.302   3.450   4.302 -2.5344  3.2141  0.2576
 3240TIP3    H2 9727   4.325   3.482   4.156  0.8013  0.4966  0.0575
 3241TIP3   OH2 9728   5.863   5.323   1.074 -0.0462  0.2841  0.5691
 3241TIP3    H1 9729   5.905   5.362   0.997 -1.2900  0.6272  0.0318
 3241TIP3    H2 9730   5.929   5.330   1.143 -0.1343  3.3725  0.4980
 3242TIP3   OH2 9731   6.164   2.888   0.353 -0.2754 -0.3583 -0.1534
 3242TIP3    H1 9732   6.198   2.975   0.375  0.1276 -0.6488  0.3736
 3242TIP3    H2 9733   6.239   2.829   0.364 -0.8463 -0.9514  0.6697
 3243TIP3   OH2 9734   1.348   3.103   0.292 -0.2136 -0.4325  0.2368
 3243TIP3    H1 9735   1.368   3.065   0.378  1.1575  1.6115  0.8807
 3243TIP3    H2 9736   1.256   3.128   0.298  0.5114  2.1819  2.1976
 3244TIP3   OH2 9737   2.910   2.918   4.111  0.1062 -0.3721  0.1360
 3244TIP3    H1 9738   2.902   2.887   4.021  2.1230  1.7051 -0.8625
 3244TIP3    H2 9739   2.997   2.889   4.139  0.6440  1.3330  0.3640
 3245TIP3   OH2 9740   0.753   2.562   0.496  0.2255 -0.2551 -0.0992
 3245TIP3    H1 9741   0.819   2.521   0.440  0.1524  0.0486 -0.4109
 3245TIP3    H2 9742   0.670   2.548   0.449  0.3040  0.9828 -0.6317
 3246TIP3   OH2 9743   1.865   3.459   0.461  0.1462 -0.1274  0.8038
 3246TIP3    H1 9744   1.932   3.397   0.434  1.3486  1.4779 -0.0964
 3246TIP3    H2 9745   1.866   3.454   0.557  0.6201 -1.0595  0.7624
 3247TIP3   OH2 9746   4.377   1.690   0.249  0.5553 -0.4543  0.6762
 3247TIP3    H1 9747   4.316   1.700   0.322  0.6367 -0.5114  0.7530
 3247TIP3    H2 9748   4.434   1.767   0.256  1.0265 -0.8353  1.1189
 3248TIP3   OH2 9749   4.243   0.209   3.069 -0.2890  0.0985  0.2380
 3248TIP3    H1 9750   4.310   0.206   3.137 -2.6351  2.4339  2.9532
 3248TIP3    H2 9751   4.161   0.192   3.116 -2.0351  1.7170 -1.9950
 3249TIP3   OH2 9752   3.042   5.481   4.030 -0.3657 -0.0304 -0.1387
 3249TIP3    H1 9753   3.056   5.413   4.096 -0.7894 -0.0563 -0.0728
 3249TIP3    H2 9754   2.947   5.486   4.020 -0.3529  0.7098  0.0228
 3250TIP3   OH2 9755   0.269   0.502   1.422 -0.3128  0.2194 -0.1095
 3250TIP3    H1 9756   0.193   0.445   1.424 -0.3398  0.2771  0.7558
 3250TIP3    H2 9757   0.319   0.479   1.500 -1.3565  2.7716  1.4401
 3251TIP3   OH2 9758   6.087   4.719   3.046 -0.3868  0.0375  0.3663
 3251TIP3    H1 9759   6.123   4.642   3.091 -0.6131  1.0607  2.4061
 3251TIP3    H2 9760   6.021   4.753   3.106  0.4407  2.4292  0.0075
 3252TIP3   OH2 9761   4.427   1.075   4.192 -0.5441  0.1390 -0.0083
 3252TIP3    H1 9762   4.473   1.030   4.121 -0.9421  0.0768 -0.2311
 3252TIP3    H2 9763   4.335   1.070   4.168 -0.7441 -0.4414  0.8292
 3253TIP3   OH2 9764   5.989   4.650   1.937  0.2549  0.8165 -0.2716
 3253TIP3    H1 9765   6.050   4.685   2.002  1.4603 -0.6469 -0.5392
 3253TIP3    H2 9766   5.935   4.587   1.985  0.2710  0.6910 -0.4160
 3254TIP3   OH2 9767   2.646   5.641   2.098  0.5751 -0.4899 -0.1503
 3254TIP3    H1 9768   2.739   5.659   2.109  0.8445 -1.2806 -0.9557
 3254TIP3    H2 9769   2.644   5.565   2.039 -0.5915  0.0410 -0.8263
 3255TIP3   OH2 9770   3.813   4.300   2.154 -0.5130  0.8228  0.1235
 3255TIP3    H1 9771   3.843   4.390   2.139 -0.0717  0.8572  1.1889
 3255TIP3    H2 9772   3.876   4.263   2.216 -1.5622  0.2673  0.8770
 3256TIP3   OH2 9773   0.344   0.103   2.240 -0.0035 -0.3126 -0.0136
 3256TIP3    H1 9774   0.303   0.147   2.314 -0.3089 -1.0110  0.2445
 3256TIP3    H2 9775   0.420   0.157   2.219 -0.5746  0.5385  0.0432
 3257TIP3   OH2 9776   3.600   3.428   1.019  0.0928 -0.2361  0.2887
 3257TIP3    H1 9777   3.563   3.436   1.106 -0.1356 -1.2922  0.2994
 3257TIP3    H2 9778   3.624   3.517   0.995  0.2702  0.0501  1.4753
 3258TIP3   OH2 9779   3.020   4.692   2.918  0.4132  0.9987 -0.5589
 3258TIP3    H1 9780   2.976   4.741   2.849  0.3198 -0.4087 -1.5548
 3258TIP3    H2 9781   2.978   4.721   2.999 -1.9860  0.1611 -1.4083
 3259TIP3   OH2 9782   3.239   4.862   2.039 -0.2061 -0.0547 -0.5603
 3259TIP3    H1 9783   3.333   4.844   2.043 -0.1656  0.2372 -0.0143
 3259TIP3    H2 9784   3.224   4.924   2.111 -0.6943  0.4378 -1.0797
 3260TIP3   OH2 9785   6.306   0.340   0.601 -0.0935 -0.3022 -0.1640
 3260TIP3    H1 9786   6.285   0.260   0.553  1.7770 -0.3765 -0.9070
 3260TIP3    H2 9787   6.377   0.316   0.661  0.6077  0.8167 -0.5025
 3261TIP3   OH2 9788   2.940   5.244   3.075  0.3635  0.4550 -0.2308
 3261TIP3    H1 9789   2.885   5.308   3.121  0.7178  0.7096 -0.1559
 3261TIP3    H2 9790   2.897   5.232   2.991 -0.0944  0.2578  0.0260
 3262TIP3   OH2 9791   3.116   4.719   4.833 -0.1310  0.2126 -0.0257
 3262TIP3    H1 9792   3.049   4.709   4.901 -0.1445  0.5084  0.0073
 3262TIP3    H2 9793   3.072   4.691   4.752  0.0719 -0.7248  0.1735
 3263TIP3   OH2 9794   3.536   5.567   0.481  0.3560  0.5266  0.0892
 3263TIP3    H1 9795   3.602   5.606   0.424 -0.0739 -0.2747 -0.9957
 3263TIP3    H2 9796   3.586   5.509   0.538  0.7341  0.9026  0.1465
 3264TIP3   OH2 9797   3.902   0.774   3.330 -0.3064  0.2727  0.1312
 3264TIP3    H1 9798   3.987   0.819   3.336  0.5861 -1.5088  1.7704
 3264TIP3    H2 9799   3.841   0.832   3.376  0.5484  0.4316  1.0980
 3265TIP3   OH2 9800   1.123   3.495   0.697  0.1033  0.5708 -0.0402
 3265TIP3    H1 9801   1.069   3.479   0.619 -1.2026  0.2995  0.8940
 3265TIP3    H2 9802   1.069   3.466   0.770  1.6503 -0.0108  0.9304
 3266TIP3   OH2 9803   4.259   3.024   4.980  0.5559  0.8299  0.0277
 3266TIP3    H1 9804   4.200   2.950   4.998  2.4129 -0.6739  0.2493
 3266TIP3    H2 9805   4.250   3.081   5.057 -0.9182  0.8933 -0.1546
 3267TIP3   OH2 9806   6.019   2.748   2.744  0.2306 -0.3058  0.2201
 3267TIP3    H1 9807   5.963   2.682   2.786  0.2492  0.1795  1.0239
 3267TIP3    H2 9808   6.105   2.736   2.783  0.2929  0.0345  0.1943
 3268TIP3   OH2 9809   5.563   4.686   4.762 -0.0588 -0.7490 -0.3352
 3268TIP3    H1 9810   5.497   4.734   4.712 -1.5232 -0.1146  2.0274
 3268TIP3    H2 9811   5.563   4.728   4.848  1.2031 -2.7125  0.7007
 3269TIP3   OH2 9812   0.309   4.052   3.152  0.9691  0.0960  0.3298
 3269TIP3    H1 9813   0.357   3.973   3.177 -0.9841 -1.3308 -0.1555
 3269TIP3    H2 9814   0.296   4.099   3.234  0.3499 -1.1780  1.0004
 3270TIP3   OH2 9815   1.389   5.445   4.145 -0.7723 -0.4455  0.0535
 3270TIP3    H1 9816   1.348   5.522   4.185 -0.6141  0.1197 -0.8335
 3270TIP3    H2 9817   1.327   5.374   4.161 -1.6678  0.1962 -0.4435
 3271TIP3   OH2 9818   4.682   5.353   0.018  0.8593 -0.3472  0.1106
 3271TIP3    H1 9819   4.673   5.269   0.061  2.7193 -0.1355  1.0356
 3271TIP3    H2 9820   4.731   5.407   0.080  0.5288  1.1250 -0.8375
 3272TIP3   OH2 9821   2.568   2.650   0.468 -0.3022  0.7090 -0.2437
 3272TIP3    H1 9822   2.486   2.605   0.491 -0.0978  0.7395  0.5891
 3272TIP3    H2 9823   2.542   2.740   0.448 -0.6897  0.2919 -1.7252
 3273TIP3   OH2 9824   2.340   3.205   0.406 -0.0945 -0.5719 -0.0851
 3273TIP3    H1 9825   2.427   3.167   0.396 -0.2996 -0.7930 -1.1115
 3273TIP3    H2 9826   2.351   3.271   0.475  0.5752 -1.4998  0.7247
 3274TIP3   OH2 9827   6.322   4.942   1.831  0.1047  0.1647 -0.3857
 3274TIP3    H1 9828   6.361   4.987   1.906 -0.3592  1.5382 -0.9428
 3274TIP3    H2 9829   6.302   4.854   1.864  2.0327 -0.0278  0.4232
 3275TIP3   OH2 9830   3.865   5.748   4.914  0.2324 -0.5500 -0.6913
 3275TIP3    H1 9831   3.814   5.751   4.834 -1.0849  3.7972  0.0045
 3275TIP3    H2 9832   3.950   5.787   4.890 -0.1450  0.7086 -0.0835
 3276TIP3   OH2 9833   3.474   4.057   1.811  0.1834  0.5297 -0.1218
 3276TIP3    H1 9834   3.382   4.084   1.815 -0.1796 -0.7398  1.3072
 3276TIP3    H2 9835   3.471   3.969   1.774  0.7428  0.1991  0.6065
 3277TIP3   OH2 9836   2.732   1.250   0.679  0.2105 -0.0351 -0.0490
 3277TIP3    H1 9837   2.772   1.337   0.669 -0.3442  0.0620 -1.6450
 3277TIP3    H2 9838   2.702   1.248   0.770 -0.3698  1.7190 -0.1656
 3278TIP3   OH2 9839   1.859   0.575   3.817  0.6237  0.0015 -0.5301
 3278TIP3    H1 9840   1.934   0.608   3.865  1.6643  0.5529 -2.4270
 3278TIP3    H2 9841   1.809   0.654   3.794 -0.2872 -0.3212  0.2906
 3279TIP3   OH2 9842   1.538   1.830   3.535 -0.4516  0.4960  0.3140
 3279TIP3    H1 9843   1.505   1.768   3.470  0.9578  0.5276 -0.4722
 3279TIP3    H2 9844   1.501   1.914   3.510 -1.5329  0.1730  0.7690
 3280TIP3   OH2 9845   0.259   5.127   3.971 -0.0954 -0.4882 -0.2397
 3280TIP3    H1 9846   0.334   5.173   4.008 -0.0898  0.4764 -1.4253
 3280TIP3    H2 9847   0.189   5.140   4.035  0.6233 -1.0905  0.6995
 3281TIP3   OH2 9848   3.931   0.612   0.872  0.0108 -0.3043 -0.1814
 3281TIP3    H1 9849   3.842   0.577   0.876 -0.1942  0.2583  0.3581
 3281TIP3    H2 9850   3.939   0.666   0.951  0.8542 -0.4069 -0.1922
 3282TIP3   OH2 9851   1.617   4.823   3.849 -0.7519  0.8653  0.3818
 3282TIP3    H1 9852   1.563   4.814   3.928  0.4680 -0.5280  1.1076
 3282TIP3    H2 9853   1.561   4.869   3.787 -2.9742 -0.9183  0.9082
 3283TIP3   OH2 9854   5.367   3.439   0.316 -0.0607 -0.3261 -0.3800
 3283TIP3    H1 9855   5.327   3.412   0.399 -1.3065 -0.2192 -0.9139
 3283TIP3    H2 9856   5.417   3.518   0.337  2.1179 -1.9469  0.8341
 3284TIP3   OH2 9857   4.092   4.546   1.248  0.3954  0.0679 -0.0438
 3284TIP3    H1 9858   4.044   4.606   1.306  1.3619  0.9032 -0.0859
 3284TIP3    H2 9859   4.080   4.583   1.161  0.6714 -0.0205 -0.1191
 3285TIP3   OH2 9860   2.001   4.955   0.427  0.0937  0.3874  0.4517
 3285TIP3    H1 9861   1.988   4.943   0.521 -0.0835 -0.2960  0.3480
 3285TIP3    H2 9862   2.000   4.866   0.391  0.7414  0.6038 -0.1222
 3286TIP3   OH2 9863   3.090   3.518   0.837 -0.3046 -0.0524 -0.1811
 3286TIP3    H1 9864   3.177   3.490   0.866 -0.3875  0.9433  1.1549
 3286TIP3    H2 9865   3.089   3.503   0.743  1.0217 -0.8375 -0.0838
 3287TIP3   OH2 9866   4.264   0.920   4.541 -0.5279  0.3844 -0.2272
 3287TIP3    H1 9867   4.206   0.884   4.608 -0.2966  0.1379 -0.1565
 3287TIP3    H2 9868   4.228   0.888   4.458  1.4929 -2.8105 -0.0533
 3288TIP3   OH2 9869   4.181   1.780   3.170 -0.0482 -0.4454  0.7627
 3288TIP3    H1 9870   4.219   1.721   3.235  0.3069 -1.2756 -0.1787
 3288TIP3    H2 9871   4.106   1.820   3.215 -0.6131 -1.9885  1.2713
 3289TIP3   OH2 9872   3.862   4.070   2.783 -0.4595 -0.8605  0.1607
 3289TIP3    H1 9873   3.869   4.011   2.707 -2.0870  0.0455 -0.7398
 3289TIP3    H2 9874   3.872   4.158   2.747  3.1726 -0.4744  1.6522
 3290TIP3   OH2 9875   2.347   5.518   0.929  0.2660 -0.0173  0.3522
 3290TIP3    H1 9876   2.397   5.439   0.950  0.9296  0.0330 -0.9053
 3290TIP3    H2 9877   2.414   5.584   0.910 -0.2494  0.1109 -1.1518
 3291TIP3   OH2 9878   0.518   5.729   4.838  0.0873  0.5314 -0.1628
 3291TIP3    H1 9879   0.491   5.650   4.793  2.3557 -0.3253 -0.1556
 3291TIP3    H2 9880   0.459   5.735   4.914  0.0237 -1.3000 -0.0179
 3292TIP3   OH2 9881   2.074   3.377   3.130  0.4950 -0.0043  0.4052
 3292TIP3    H1 9882   2.028   3.442   3.077 -1.2589 -0.9843  0.6532
 3292TIP3    H2 9883   2.060   3.405   3.220 -0.4273 -0.7778  0.5228
 3293TIP3   OH2 9884   2.272   0.363   3.156 -0.2773 -0.3452  0.5732
 3293TIP3    H1 9885   2.231   0.443   3.191 -0.9797 -0.8797  0.9994
 3293TIP3    H2 9886   2.261   0.371   3.061 -0.0614  0.2108  0.5893
 3294TIP3   OH2 9887   1.523   4.934   2.076 -0.6939  0.5324  0.2667
 3294TIP3    H1 9888   1.521   4.879   2.154 -0.6780 -2.3987 -1.6514
 3294TIP3    H2 9889   1.585   5.004   2.098  0.0496 -0.7253  2.5305
 3295TIP3   OH2 9890   5.725   3.284   4.006  0.0047 -0.1796  0.6303
 3295TIP3    H1 9891   5.653   3.287   4.069 -1.0244  1.0281 -0.5421
 3295TIP3    H2 9892   5.685   3.258   3.924  1.1588 -0.8097  0.2446
 3296TIP3   OH2 9893   4.571   0.282   0.052  0.4811 -0.4922 -0.1152
 3296TIP3    H1 9894   4.600   0.212  -0.006  0.7759 -0.1352 -0.3977
 3296TIP3    H2 9895   4.624   0.271   0.131 -1.3119 -2.2354  0.9307
 3297TIP3   OH2 9896   0.109   4.350   0.948  0.0067 -0.2457  0.4838
 3297TIP3    H1 9897   0.038   4.310   0.899  2.5976 -2.0856 -2.1584
 3297TIP3    H2 9898   0.104   4.443   0.927 -2.8495  0.1282  2.2709
 3298TIP3   OH2 9899   0.060   2.300   1.218  0.1873 -0.3069 -0.1205
 3298TIP3    H1 9900   0.060   2.226   1.156  0.4748 -0.5167  0.1254
 3298TIP3    H2 9901   0.128   2.359   1.185  1.2696 -1.0366  0.7033
 3299TIP3   OH2 9902   4.534   0.296   4.313 -0.2211  0.1234  0.7115
 3299TIP3    H1 9903   4.452   0.344   4.306  0.1951  0.6297 -1.4608
 3299TIP3    H2 9904   4.519   0.214   4.265 -0.6089 -1.5762  3.5439
 3300TIP3   OH2 9905   3.311   5.397   2.824 -0.2408  0.1618 -0.1064
 3300TIP3    H1 9906   3.282   5.417   2.735  0.7560 -0.6008 -0.6293
 3300TIP3    H2 9907   3.354   5.477   2.854  1.2696 -0.2348 -1.1208
 3301TIP3   OH2 9908   1.037   5.075   0.687 -0.0818  0.3772  0.0386
 3301TIP3    H1 9909   1.016   4.986   0.716 -0.6232  0.7552  0.8627
 3301TIP3    H2 9910   1.122   5.067   0.644 -1.1985 -0.9755 -2.1168
 3302TIP3   OH2 9911   2.415   1.712   2.319 -0.6115  0.2426 -0.0577
 3302TIP3    H1 9912   2.378   1.800   2.328  0.5380  0.9948 -1.9876
 3302TIP3    H2 9913   2.461   1.714   2.235  1.2080 -1.5572  0.8037
 3303TIP3   OH2 9914   5.842   4.514   0.619 -0.5879  0.1269  0.1136
 3303TIP3    H1 9915   5.767   4.467   0.583  0.6735 -1.5197 -0.5215
 3303TIP3    H2 9916   5.912   4.500   0.555  0.6849  0.2836  1.4194
 3304TIP3   OH2 9917   2.946   3.708   3.776 -0.1401 -0.2244 -0.0092
 3304TIP3    H1 9918   2.956   3.716   3.682 -0.7722 -0.7109 -0.1235
 3304TIP3    H2 9919   2.989   3.786   3.812 -0.6727  0.4175 -0.7445
 3305TIP3   OH2 9920   0.097   3.710   4.424 -0.2745 -0.4038  0.2300
 3305TIP3    H1 9921   0.166   3.743   4.481  1.0673 -1.3516 -0.7806
 3305TIP3    H2 9922   0.053   3.788   4.390  0.2194  0.2029  0.9653
 3306TIP3   OH2 9923   3.700   4.604   2.179 -0.4326  0.4557 -0.3911
 3306TIP3    H1 9924   3.637   4.581   2.111 -0.5344 -0.8839  0.1262
 3306TIP3    H2 9925   3.785   4.576   2.144 -0.4287  0.1574 -0.1468
 3307TIP3   OH2 9926   0.279   5.191   3.448 -0.6009 -0.4458  0.5433
 3307TIP3    H1 9927   0.289   5.105   3.406 -0.3091 -1.3845  2.3921
 3307TIP3    H2 9928   0.204   5.231   3.404 -1.0812 -1.8767 -0.0186
 3308TIP3   OH2 9929   4.022   0.797   0.518 -0.6785  0.0672  0.0905
 3308TIP3    H1 9930   4.015   0.873   0.577 -0.6390  0.9646 -1.0183
 3308TIP3    H2 9931   4.076   0.734   0.566 -0.4862  0.8488  0.9314
 3309TIP3   OH2 9932   5.547   3.770   0.729 -0.8381  0.2667 -0.3426
 3309TIP3    H1 9933   5.616   3.795   0.668 -1.2323  1.4014 -0.3466
 3309TIP3    H2 9934   5.467   3.772   0.677 -0.9374 -0.6380 -0.2393
 3310TIP3   OH2 9935   3.559   3.895   3.797  0.5743 -0.5079  0.0594
 3310TIP3    H1 9936   3.630   3.953   3.769 -0.1565  1.0144  1.2370
 3310TIP3    H2 9937   3.604   3.817   3.829  1.6642  0.0195 -0.1344
 3311TIP3   OH2 9938   1.798   3.814   4.600  0.0782  0.0353 -0.6267
 3311TIP3    H1 9939   1.828   3.850   4.683 -1.4277  0.8446 -0.4081
 3311TIP3    H2 9940   1.704   3.831   4.598 -0.0845 -0.8176 -2.0784
 3312TIP3   OH2 9941   4.218   0.997   1.824 -0.2476  0.2117 -0.3211
 3312TIP3    H1 9942   4.136   1.018   1.868 -0.1834  1.6842 -0.8664
 3312TIP3    H2 9943   4.193   0.981   1.733 -0.0027  0.1066 -0.3715
 3313TIP3   OH2 9944   3.755   2.780   3.141 -0.1059  0.3305 -0.1141
 3313TIP3    H1 9945   3.679   2.834   3.162  0.1974  1.1054 -0.9253
 3313TIP3    H2 9946   3.801   2.770   3.224  0.0585  1.7109 -0.0185
 3314TIP3   OH2 9947   0.989   0.547   4.315 -0.6060  0.3644 -0.2479
 3314TIP3    H1 9948   0.920   0.553   4.381 -0.8250 -0.5372 -0.3792
 3314TIP3    H2 9949   0.988   0.632   4.271  0.4970  1.5450  1.8358
 3315TIP3   OH2 9950   5.264   3.720   5.189 -0.5480 -0.4890  1.1716
 3315TIP3    H1 9951   5.195   3.661   5.220  0.4091 -0.8744  2.6399
 3315TIP3    H2 9952   5.252   3.722   5.094 -0.6997 -2.9718  1.0774
 3316TIP3   OH2 9953   4.565   5.541   0.953  0.1429 -0.9323  0.1709
 3316TIP3    H1 9954   4.648   5.493   0.952  1.7731  1.6331 -1.5010
 3316TIP3    H2 9955   4.547   5.560   0.861 -0.9168  0.7209  0.6649
 3317TIP3   OH2 9956   2.309   2.734   2.682  0.1911  0.5343  0.3714
 3317TIP3    H1 9957   2.285   2.700   2.595 -1.3070  0.1738  0.9027
 3317TIP3    H2 9958   2.383   2.792   2.665 -0.0404  0.4311 -1.1482
 3318TIP3   OH2 9959   4.588   1.466   1.463  0.0160  0.0746  0.6153
 3318TIP3    H1 9960   4.654   1.524   1.425 -0.3181  0.3809  0.4989
 3318TIP3    H2 9961   4.536   1.438   1.388 -0.8016  0.8724  0.8703
 3319TIP3   OH2 9962   0.907   1.333   4.980 -0.4002  0.1807  0.1686
 3319TIP3    H1 9963   0.839   1.288   4.929  0.2113 -2.1980  1.2967
 3319TIP3    H2 9964   0.919   1.417   4.935 -2.7330 -0.1004 -1.1526
 3320TIP3   OH2 9965   4.271   2.847   0.492  0.8731 -0.2807 -0.0894
 3320TIP3    H1 9966   4.348   2.812   0.538  1.3512  0.0951 -0.5999
 3320TIP3    H2 9967   4.261   2.936   0.527  0.8403 -0.2287 -0.2341
 3321TIP3   OH2 9968   3.493   1.835   3.749 -0.1721 -0.0500 -0.2490
 3321TIP3    H1 9969   3.521   1.835   3.841  1.1068 -0.6623 -0.6102
 3321TIP3    H2 9970   3.441   1.755   3.740 -0.5579  0.1662 -0.0035
 3322TIP3   OH2 9971   1.703   4.202   2.961  0.2014  0.3011 -0.0607
 3322TIP3    H1 9972   1.789   4.191   2.920  0.0738  0.0096 -0.2571
 3322TIP3    H2 9973   1.722   4.243   3.045  0.5824 -0.2089  0.1085
 3323TIP3   OH2 9974   1.784   3.509   3.084 -0.6137  0.3145 -0.5285
 3323TIP3    H1 9975   1.793   3.423   3.124  0.1704  0.8427  0.4768
 3323TIP3    H2 9976   1.732   3.559   3.148  1.1560  1.3509  0.1775
 3324TIP3   OH2 9977   0.321   1.254   0.688 -0.1411  0.2311  0.0921
 3324TIP3    H1 9978   0.290   1.173   0.649 -0.8955  0.5186  0.0752
 3324TIP3    H2 9979   0.413   1.237   0.710 -0.5534 -0.9556  0.9848
 3325TIP3   OH2 9980   1.705   0.172   5.103  0.2075  0.0182 -0.1988
 3325TIP3    H1 9981   1.735   0.239   5.041  0.7277 -0.5305 -0.5614
 3325TIP3    H2 9982   1.765   0.099   5.088 -1.4656 -1.2360 -1.1197
 3326TIP3   OH2 9983   3.538   4.645   4.404 -0.0125  0.3419 -0.2763
 3326TIP3    H1 9984   3.534   4.556   4.440  0.5099 -0.8630 -2.9779
 3326TIP3    H2 9985   3.448   4.677   4.412 -0.6880 -1.2240 -1.0328
 3327TIP3   OH2 9986   5.844   5.145   3.071  0.2162 -0.4925  0.1899
 3327TIP3    H1 9987   5.923   5.102   3.104  2.4643  1.3577 -2.2523
 3327TIP3    H2 9988   5.819   5.094   2.994 -0.1854 -0.3304  0.2084
 3328TIP3   OH2 9989   3.692   1.266   3.737 -0.5320 -0.2170  0.2381
 3328TIP3    H1 9990   3.758   1.198   3.741 -0.6495 -0.4646 -1.2467
 3328TIP3    H2 9991   3.623   1.230   3.681 -1.4901  0.3908  0.9898
 3329TIP3   OH2 9992   0.863   0.676   4.570 -0.5416 -0.0832 -0.4035
 3329TIP3    H1 9993   0.934   0.692   4.632 -0.5033  2.5850 -1.0063
 3329TIP3    H2 9994   0.804   0.617   4.616 -0.4585  1.6789  2.2118
 3330TIP3   OH2 9995   5.774   5.248   3.709  0.0901  0.1877 -0.4960
 3330TIP3    H1 9996   5.827   5.174   3.738 -0.5361  0.1637  0.6830
 3330TIP3    H2 9997   5.685   5.224   3.736 -0.2629  0.9271 -0.9962
 3331TIP3   OH2 9998   4.483   2.414   3.150 -0.8371  0.3036 -0.1333
 3331TIP3    H1 9999   4.470   2.362   3.229 -2.2711  0.0928 -0.4733
 3331TIP3    H210000   4.422   2.488   3.160  0.6385  1.5644  0.0053
 3332TIP3   OH210001   5.858   3.070   1.669  0.6097  0.4481 -0.5446
 3332TIP3    H110002   5.944   3.066   1.625  0.2022  0.4958 -1.3721
 3332TIP3    H210003   5.865   3.006   1.740  0.9326 -0.4419 -1.3478
 3333TIP3   OH210004   3.917   0.264   1.770 -0.0304  0.3252 -0.7483
 3333TIP3    H110005   3.927   0.177   1.809 -1.0217  0.5219 -0.0462
 3333TIP3    H210006   3.892   0.246   1.679  1.1069 -0.1164 -1.0004
 3334TIP3   OH210007   6.050   5.329   2.635  0.0352 -0.5031  0.0565
 3334TIP3    H110008   6.092   5.307   2.718 -2.0197 -1.1579  1.0060
 3334TIP3    H210009   5.957   5.334   2.657 -0.5613 -0.6419 -2.2156
 3335TIP3   OH210010   4.753   2.753   4.348  0.4418 -0.0762  0.5472
 3335TIP3    H110011   4.772   2.830   4.400 -0.0650  2.3916 -2.6105
 3335TIP3    H210012   4.835   2.702   4.351  2.0055  2.2494  0.1559
 3336TIP3   OH210013   6.018   1.320   4.767 -1.0560 -0.0482 -0.2472
 3336TIP3    H110014   6.104   1.327   4.808 -0.2715 -0.0141 -1.8083
 3336TIP3    H210015   5.978   1.405   4.780 -0.1596  0.5022 -0.9162
 3337TIP3   OH210016   5.041   2.973   2.219 -0.4905 -0.0193 -0.7800
 3337TIP3    H110017   5.039   2.879   2.205 -1.0969 -0.0551 -0.4849
 3337TIP3    H210018   5.025   2.984   2.313 -0.7766  0.3895 -0.8707
 3338TIP3   OH210019   4.365   5.044   4.857  0.0633  0.5404 -0.0965
 3338TIP3    H110020   4.428   4.989   4.904  0.3134  0.2384 -0.7643
 3338TIP3    H210021   4.351   4.998   4.774 -1.9486 -0.0012  0.5145
 3339TIP3   OH210022   1.420   3.065   4.720  0.3454 -0.3444 -0.6754
 3339TIP3    H110023   1.501   3.022   4.748  0.8152  1.0673  0.2360
 3339TIP3    H210024   1.386   3.107   4.800 -1.1947 -0.7421 -1.0814
 3340TIP3   OH210025   1.960   4.189   3.002  0.1428 -0.1445  0.3011
 3340TIP3    H110026   1.990   4.268   3.047 -1.3401  0.6219  0.0242
 3340TIP3    H210027   2.039   4.150   2.966  0.8540  1.4672  0.0460
 3341TIP3   OH210028   2.417   1.548   3.169  0.1504 -0.0163 -0.3625
 3341TIP3    H110029   2.438   1.592   3.086 -3.3053  1.3561 -0.6490
 3341TIP3    H210030   2.473   1.591   3.234 -0.3294  2.1282 -1.2945
 3342TIP3   OH210031   5.227   1.644   0.416  0.3864  0.2464 -0.2053
 3342TIP3    H110032   5.300   1.674   0.361 -0.9350 -0.1647 -2.2749
 3342TIP3    H210033   5.166   1.718   0.417 -0.8682 -0.7231 -1.6632
 3343TIP3   OH210034   1.814   4.786   1.343 -0.3004 -0.0073  0.1746
 3343TIP3    H110035   1.901   4.767   1.378  0.4513  1.5942 -0.7103
 3343TIP3    H210036   1.820   4.877   1.313 -2.4578  0.3133  0.6063
 3344TIP3   OH210037   1.828   5.950   0.622  0.2369  0.4460  0.0440
 3344TIP3    H110038   1.779   5.998   0.688 -0.3604 -0.0467 -0.0315
 3344TIP3    H210039   1.887   5.893   0.673  0.4545  0.7535  0.1384
 3345TIP3   OH210040   5.284   2.374   4.307  0.1359  0.1408  0.8966
 3345TIP3    H110041   5.318   2.301   4.359 -1.0693  0.5910  2.3914
 3345TIP3    H210042   5.250   2.436   4.372  2.1652  2.6278 -0.2277
 3346TIP3   OH210043   5.803   2.170   1.092 -0.0379  0.0888  0.3407
 3346TIP3    H110044   5.830   2.139   1.005 -0.3317 -0.7244  0.5286
 3346TIP3    H210045   5.843   2.107   1.153  0.4680  0.8602  0.8209
 3347TIP3   OH210046   5.860   5.128   4.421 -0.0280  0.1944 -0.2441
 3347TIP3    H110047   5.894   5.208   4.382 -0.0448  0.2258 -0.1957
 3347TIP3    H210048   5.879   5.137   4.515  1.3704 -0.5511 -0.4324
 3348TIP3   OH210049   0.284   4.691   3.698  0.4850  0.0161 -0.0776
 3348TIP3    H110050   0.378   4.707   3.690  0.4028  0.3341 -0.4246
 3348TIP3    H210051   0.245   4.778   3.706  0.3583 -0.1707  1.7361
 3349TIP3   OH210052   4.336   3.155   4.559 -0.3402  0.0105  0.4899
 3349TIP3    H110053   4.405   3.165   4.494 -1.3023 -1.0834 -0.7478
 3349TIP3    H210054   4.289   3.239   4.558 -0.6026 -0.1444 -0.5400
 3350TIP3   OH210055   4.973   5.000   1.158 -0.0260  0.0623  0.2418
 3350TIP3    H110056   5.046   5.042   1.203  0.2620 -2.1023  1.9912
 3350TIP3    H210057   5.005   4.912   1.136 -1.2303 -0.0056 -1.4154
 3351TIP3   OH210058   3.041   1.441   0.885  0.2291  0.4965  0.1639
 3351TIP3    H110059   2.961   1.402   0.923  1.4085 -0.6695  1.5658
 3351TIP3    H210060   3.012   1.524   0.848 -1.6931 -0.0323  0.3659
 3352TIP3   OH210061   0.242   3.057   0.687  0.2857  0.0645 -0.2144
 3352TIP3    H110062   0.322   3.023   0.726  0.0316 -3.2365 -2.1369
 3352TIP3    H210063   0.173   3.037   0.750  0.7861  2.7190  1.3458
 3353TIP3   OH210064   3.509   4.496   1.219 -0.2996 -0.0317  0.0265
 3353TIP3    H110065   3.438   4.553   1.188 -0.3452 -0.6059 -0.9638
 3353TIP3    H210066   3.589   4.547   1.203 -0.4200  0.2278  0.2409
 3354TIP3   OH210067   5.632   3.812   2.210 -0.6063 -0.0681  0.0686
 3354TIP3    H110068   5.638   3.907   2.218 -1.1024 -0.0498  0.2696
 3354TIP3    H210069   5.612   3.797   2.118 -1.4471  0.0814  0.2111
 3355TIP3   OH210070   3.252   0.203   3.257  0.2343  0.0292  0.0140
 3355TIP3    H110071   3.236   0.146   3.331  0.3840 -1.4589 -1.0628
 3355TIP3    H210072   3.252   0.145   3.181 -2.1147  1.7402 -1.4592
 3356TIP3   OH210073   2.382   3.876   3.993 -0.4763 -0.2983 -1.0280
 3356TIP3    H110074   2.458   3.933   4.000 -1.0544  0.2953  1.2908
 3356TIP3    H210075   2.307   3.936   3.988 -1.0539 -0.7758  0.9187
 3357TIP3   OH210076   1.228   0.564   1.730  0.2573 -0.1122  0.3456
 3357TIP3    H110077   1.262   0.513   1.804 -0.5620 -0.1887  0.6754
 3357TIP3    H210078   1.213   0.651   1.765  0.2755 -0.0331  0.1573
 3358TIP3   OH210079   4.813   0.722   0.429  0.6705  0.0958 -0.1243
 3358TIP3    H110080   4.768   0.638   0.427  0.5751  0.1652 -1.9788
 3358TIP3    H210081   4.897   0.703   0.471  1.2919 -1.2766 -1.9087
 3359TIP3   OH210082   4.757   1.672   4.447  0.3867  0.0724  0.0148
 3359TIP3    H110083   4.742   1.676   4.353  1.0571 -0.6298 -0.1267
 3359TIP3    H210084   4.850   1.690   4.457  0.6306 -1.3028  0.4188
 3360TIP3   OH210085   1.440   0.355   4.377 -0.3080  0.0218 -0.3469
 3360TIP3    H110086   1.477   0.436   4.340  1.6710 -1.0868 -0.9282
 3360TIP3    H210087   1.355   0.382   4.413  0.2134  2.3159 -0.6685
 3361TIP3   OH210088   4.171   5.460   3.778  0.3326  0.2628 -0.2244
 3361TIP3    H110089   4.132   5.403   3.844 -1.3196  2.1958  0.5768
 3361TIP3    H210090   4.147   5.548   3.805  1.1251  1.2389 -2.4622
 3362TIP3   OH210091   2.698   3.207   1.449  0.2447  0.3897 -0.3385
 3362TIP3    H110092   2.706   3.296   1.485  0.0450  0.3343 -0.1595
 3362TIP3    H210093   2.784   3.191   1.409  0.1598  0.8042 -0.7005
 3363TIP3   OH210094   4.296   2.086   3.905  0.1118 -0.0999 -0.8527
 3363TIP3    H110095   4.202   2.071   3.894  0.1472 -1.1468  0.0253
 3363TIP3    H210096   4.322   2.020   3.970  1.0834  1.4583  0.3987
 3364TIP3   OH210097   1.595   2.730   3.198  0.6816  0.8189  0.1078
 3364TIP3    H110098   1.626   2.646   3.232 -0.0537  0.1158 -0.9061
 3364TIP3    H210099   1.512   2.710   3.156  1.0049  1.8516 -1.0819
 3365TIP3   OH210100   3.730   1.647   3.738 -0.5281  0.1613  0.0704
 3365TIP3    H110101   3.816   1.685   3.754 -0.7038  0.0518  1.3171
 3365TIP3    H210102   3.679   1.718   3.699  1.0986 -0.6794 -4.1243
 3366TIP3   OH210103   6.318   0.844   4.333  0.0672  0.2068  0.3530
 3366TIP3    H110104   6.297   0.934   4.355 -0.1055  0.0553  0.8324
 3366TIP3    H210105   6.239   0.810   4.291  0.2599  0.3851 -0.1474
 3367TIP3   OH210106   3.172   2.740   2.963  0.1319  0.5994  0.0382
 3367TIP3    H110107   3.209   2.770   3.045 -0.7093  2.0551 -0.0760
 3367TIP3    H210108   3.077   2.735   2.979 -0.0825  1.1958 -0.8934
 3368TIP3   OH210109   4.829   2.027   1.903  0.1102  0.2792  0.3327
 3368TIP3    H110110   4.816   2.078   1.982 -1.2619  2.1297 -1.0067
 3368TIP3    H210111   4.760   1.961   1.906  0.1467  0.2553  0.7203
 3369TIP3   OH210112   3.473   0.152   3.742 -0.1772  0.3187  0.5793
 3369TIP3    H110113   3.528   0.198   3.805  2.8165 -0.6744 -1.1107
 3369TIP3    H210114   3.515   0.168   3.657 -2.0193 -1.2525 -0.7218
 3370TIP3   OH210115   2.262   0.648   4.347  0.1579  0.4950  0.0818
 3370TIP3    H110116   2.333   0.687   4.296  0.0210 -0.8584 -1.2128
 3370TIP3    H210117   2.254   0.703   4.425  2.5402  0.7500  0.2032
 3371TIP3   OH210118   4.466   4.405   1.011  0.4209 -0.0277 -0.0588
 3371TIP3    H110119   4.392   4.349   0.987 -0.4234  1.0220  0.0220
 3371TIP3    H210120   4.537   4.344   1.029 -0.7119 -1.1374  0.8699
 3372TIP3   OH210121   2.453   5.284   0.963 -0.1315 -0.0714  0.1133
 3372TIP3    H110122   2.488   5.228   1.032 -2.7029  0.1107  1.6984
 3372TIP3    H210123   2.391   5.229   0.917 -1.3290  0.9044  0.5157
 3373TIP3   OH210124   3.174   0.682   2.150 -0.3498  0.5705  0.1205
 3373TIP3    H110125   3.233   0.608   2.167 -1.1606  0.2350  1.5671
 3373TIP3    H210126   3.184   0.698   2.056  1.8881  0.3945  0.2602
 3374TIP3   OH210127   0.249   2.016   5.159  0.7659  0.4942 -0.0628
 3374TIP3    H110128   0.169   2.028   5.108  0.7412  0.3758 -0.0534
 3374TIP3    H210129   0.320   2.038   5.098  0.7114  0.9440  0.0376
 3375TIP3   OH210130   1.058   5.919   2.308 -0.3223  0.2880 -0.2146
 3375TIP3    H110131   1.146   5.937   2.340  0.9803 -2.2764 -2.0454
 3375TIP3    H210132   1.052   5.967   2.225 -0.0382 -0.7640 -0.8558
 3376TIP3   OH210133   4.304   1.446   2.461 -0.4960 -0.2384 -0.4669
 3376TIP3    H110134   4.281   1.376   2.400 -1.1537 -0.8136  0.4144
 3376TIP3    H210135   4.346   1.512   2.407 -0.2862 -1.1110 -1.3942
 3377TIP3   OH210136   6.304   4.677   3.953 -0.0604 -0.5839  0.3624
 3377TIP3    H110137   6.383   4.681   4.008 -0.7696 -0.0184  1.3843
 3377TIP3    H210138   6.237   4.639   4.010 -0.3191 -1.9318 -0.7922
 3378TIP3   OH210139   0.697   2.754   2.868 -0.3212  0.7550  0.2930
 3378TIP3    H110140   0.767   2.712   2.818 -0.7240 -0.5275  0.7827
 3378TIP3    H210141   0.721   2.847   2.869  0.7385  0.5065 -0.5595
 3379TIP3   OH210142   2.528   1.849   2.649 -0.1352  0.6280 -0.3186
 3379TIP3    H110143   2.471   1.820   2.720 -0.5601  1.1422 -0.4500
 3379TIP3    H210144   2.507   1.792   2.576 -1.7773  1.9595 -0.9297
 3380TIP3   OH210145   2.659   3.702   3.797  0.3273 -0.4047  0.5947
 3380TIP3    H110146   2.752   3.680   3.795  0.0315 -1.7070  0.2273
 3380TIP3    H210147   2.650   3.773   3.733  0.7039 -1.8313 -1.1066
 3381TIP3   OH210148   3.611   2.013   4.940  0.0168 -0.4993  0.3014
 3381TIP3    H110149   3.612   1.925   4.903  0.6926 -0.8412  1.0865
 3381TIP3    H210150   3.677   2.010   5.010 -0.2971  0.4874  0.6575
 3382TIP3   OH210151   4.110   3.282   4.813 -0.3062  0.0236  0.3633
 3382TIP3    H110152   4.127   3.196   4.850  1.4227  0.7827  1.4411
 3382TIP3    H210153   4.122   3.343   4.886 -0.4906  1.2580 -0.6024
 3383TIP3   OH210154   1.087   1.633   1.032  0.4395 -0.2794  0.4848
 3383TIP3    H110155   1.008   1.685   1.022  1.1265  0.4864 -1.5107
 3383TIP3    H210156   1.056   1.547   1.060 -1.0143  0.2579  0.5805
 3384TIP3   OH210157   0.816   3.167   4.766 -0.3212  0.3038  0.9622
 3384TIP3    H110158   0.833   3.109   4.692 -1.0212  2.2824 -0.8507
 3384TIP3    H210159   0.721   3.181   4.765 -0.1460  1.6396  1.2046
 3385TIP3   OH210160   4.777   0.504   4.492  0.0346  0.5276 -0.4928
 3385TIP3    H110161   4.698   0.535   4.448 -0.0728  1.7061  0.4954
 3385TIP3    H210162   4.758   0.413   4.515 -0.9007  0.7041 -0.5611
 3386TIP3   OH210163   0.732   1.797   0.637  0.8507 -0.1860  0.4531
 3386TIP3    H110164   0.666   1.808   0.568  0.2304 -0.5399  0.9822
 3386TIP3    H210165   0.776   1.715   0.616  0.8977 -0.1209  0.2924
 3387TIP3   OH210166   2.090   1.962   1.972 -0.3001  0.2117 -0.3175
 3387TIP3    H110167   2.086   1.876   2.015  0.7014 -0.3237 -1.2279
 3387TIP3    H210168   2.117   2.022   2.041  2.4654 -0.8270 -0.3678
 3388TIP3   OH210169   0.367   1.744   1.668 -0.7865  0.7945 -0.3537
 3388TIP3    H110170   0.387   1.791   1.586  0.6845  1.7495  0.4976
 3388TIP3    H210171   0.440   1.683   1.679 -0.6444  1.1180  0.5620
 3389TIP3   OH210172   3.559   5.754   0.754 -0.1637  0.2766 -0.7919
 3389TIP3    H110173   3.479   5.806   0.757 -1.1521 -1.2379  0.5842
 3389TIP3    H210174   3.585   5.755   0.661 -1.4163  1.2804 -1.1597
 3390TIP3   OH210175   5.073   0.543   4.884  0.2445  0.4772  0.7698
 3390TIP3    H110176   5.158   0.576   4.914  0.6884 -0.1137  0.1952
 3390TIP3    H210177   5.043   0.607   4.820  2.1310 -1.2413 -1.9961
 3391TIP3   OH210178   2.263   2.617   3.676  0.6500 -0.5465 -0.2686
 3391TIP3    H110179   2.317   2.539   3.661 -1.1589 -1.7266 -1.0666
 3391TIP3    H210180   2.305   2.685   3.623  2.4739 -0.8297  0.7233
 3392TIP3   OH210181   3.041   5.684   3.836  0.2935  0.1387  0.7438
 3392TIP3    H110182   3.039   5.767   3.884  1.0804  0.2179  0.6492
 3392TIP3    H210183   3.024   5.617   3.903 -2.4855  0.4708  0.4961
 3393TIP3   OH210184   4.471   1.144   2.156 -0.0771  0.6448  0.4585
 3393TIP3    H110185   4.507   1.075   2.211  0.5045  1.6426  1.3717
 3393TIP3    H210186   4.458   1.103   2.071  1.4297 -0.2684  0.6390
 3394TIP3   OH210187   1.784   5.788   0.894  0.1327  0.2828 -0.2394
 3394TIP3    H110188   1.848   5.770   0.963  1.0012 -0.8654 -1.3070
 3394TIP3    H210189   1.788   5.883   0.883  1.6297  0.2429 -0.2342
 3395TIP3   OH210190   6.065   1.533   5.036 -0.2604  0.3519  0.4979
 3395TIP3    H110191   6.117   1.458   5.005 -0.2834  0.3366  0.4966
 3395TIP3    H210192   6.026   1.570   4.957 -1.5329 -0.5838  0.6482
 3396TIP3   OH210193   4.841   0.759   0.172  0.1147  0.0631 -0.0313
 3396TIP3    H110194   4.773   0.702   0.137 -1.1260  1.2796  0.3466
 3396TIP3    H210195   4.830   0.756   0.267  1.2836 -0.5543  0.1064
 3397TIP3   OH210196   5.147   3.541   0.177  0.3461  0.2338  0.0986
 3397TIP3    H110197   5.227   3.497   0.204  0.7508  1.1956  0.5078
 3397TIP3    H210198   5.079   3.473   0.182  1.2505 -0.7954 -1.0128
 3398TIP3   OH210199   1.833   0.705   3.173  1.1475 -0.2473 -0.0998
 3398TIP3    H110200   1.783   0.655   3.108  0.6563 -1.2391  1.0091
 3398TIP3    H210201   1.825   0.654   3.253  0.5407  1.6902  1.1227
 3399TIP3   OH210202   1.369   1.734   5.018 -0.2133 -0.2943 -0.1519
 3399TIP3    H110203   1.428   1.747   4.944 -0.7105 -1.1466 -0.7211
 3399TIP3    H210204   1.416   1.769   5.094 -0.3769  2.1979 -1.1107
 3400TIP3   OH210205   1.323   3.269   3.324 -0.0531 -0.5265  0.1201
 3400TIP3    H110206   1.409   3.305   3.303 -0.3295  0.6851  0.9511
 3400TIP3    H210207   1.335   3.174   3.321  1.3114 -0.3711  0.2220
 3401TIP3   OH210208   5.312   5.779   0.212 -0.2056 -0.1233  0.2827
 3401TIP3    H110209   5.222   5.793   0.183 -0.6663  0.5987  1.9654
 3401TIP3    H210210   5.351   5.867   0.212  0.5936 -0.4639 -0.6826
 3402TIP3   OH210211   3.638   5.530   4.949 -0.4160 -0.2134 -0.1056
 3402TIP3    H110212   3.576   5.516   4.877  0.5753  1.6973 -1.4187
 3402TIP3    H210213   3.724   5.514   4.910  0.1068  0.3565  0.7743
 3403TIP3   OH210214   4.050   5.325   3.542 -0.0058 -0.0419 -0.1086
 3403TIP3    H110215   4.000   5.394   3.498 -0.6286  0.7087  1.6710
 3403TIP3    H210216   4.072   5.363   3.627  1.5592 -1.2551  0.0690
 3404TIP3   OH210217   2.892   3.321   0.895  0.0783 -0.5423  0.3714
 3404TIP3    H110218   2.947   3.395   0.868  1.8915 -1.9940 -0.1750
 3404TIP3    H210219   2.879   3.333   0.989  0.9764  0.0974  0.4245
 3405TIP3   OH210220   2.375   4.185   3.404  0.1609 -0.5991  0.6733
 3405TIP3    H110221   2.456   4.137   3.422  0.2730 -0.3637  0.7958
 3405TIP3    H210222   2.404   4.274   3.383 -0.1059 -0.3688  1.2750
 3406TIP3   OH210223   4.145   0.466   3.018 -0.3872 -0.5887  0.0032
 3406TIP3    H110224   4.061   0.461   2.973  1.0489 -0.5913 -2.9299
 3406TIP3    H210225   4.176   0.376   3.024 -0.3750 -0.5488  0.6759
 3407TIP3   OH210226   0.168   5.818   4.579 -0.2697  0.5653  0.0511
 3407TIP3    H110227   0.195   5.822   4.671 -0.7066  1.9499  0.1483
 3407TIP3    H210228   0.157   5.910   4.553 -1.0954  0.1675 -1.1101
 3408TIP3   OH210229   3.605   3.492   5.003  0.1356 -0.6196  0.2815
 3408TIP3    H110230   3.518   3.525   5.025  0.4822  1.3204 -0.9844
 3408TIP3    H210231   3.662   3.524   5.073  0.0032 -1.0681  0.5999
 3409TIP3   OH210232   6.315   0.711   4.010  0.2787  1.1211 -0.0313
 3409TIP3    H110233   6.388   0.771   3.991  0.9077  0.4138  0.1183
 3409TIP3    H210234   6.250   0.729   3.942  1.2425  0.6842 -1.0927
 3410TIP3   OH210235   6.372   2.101   1.003 -0.1852  0.3686 -0.6586
 3410TIP3    H110236   6.298   2.160   0.989 -0.5195 -0.4117 -2.4239
 3410TIP3    H210237   6.337   2.013   0.987  0.9288 -0.0883 -0.7084
 3411TIP3   OH210238   4.473   5.758   1.104  0.8477  0.4581 -0.2172
 3411TIP3    H110239   4.510   5.728   1.187  1.9450  1.2141 -0.4219
 3411TIP3    H210240   4.513   5.700   1.038  1.5396  1.1482 -0.4170
 3412TIP3   OH210241   2.995   5.453   1.537 -0.3870  0.3149  0.3896
 3412TIP3    H110242   3.062   5.390   1.510 -1.9272 -2.5878  2.7537
 3412TIP3    H210243   2.922   5.438   1.476  0.0743  1.6860 -0.5774
 3413TIP3   OH210244   1.966   0.967   4.664 -0.5108  0.2042 -0.1435
 3413TIP3    H110245   1.948   0.989   4.756  1.4496  0.4939  0.2063
 3413TIP3    H210246   2.050   1.009   4.645  0.0243 -1.3855 -1.5142
 3414TIP3   OH210247   2.887   2.820   0.313  0.2606 -0.6168 -0.3097
 3414TIP3    H110248   2.849   2.882   0.376 -0.6584  0.2846 -1.6760
 3414TIP3    H210249   2.909   2.743   0.365 -2.2763 -0.6917  0.8262
 3415TIP3   OH210250   0.879   2.354   3.374 -0.3332  0.2917 -0.1827
 3415TIP3    H110251   0.807   2.291   3.381  1.0729 -1.3893 -0.2463
 3415TIP3    H210252   0.951   2.304   3.335  0.6830  2.0996 -0.7602
 3416TIP3   OH210253   4.244   2.500   0.742 -0.6619 -0.3079 -0.1657
 3416TIP3    H110254   4.208   2.469   0.659 -0.1040 -0.9482 -0.1818
 3416TIP3    H210255   4.210   2.589   0.752  0.4043  0.3304 -1.8009
 3417TIP3   OH210256   5.326   4.278   3.832 -0.1817 -1.1806  0.0082
 3417TIP3    H110257   5.357   4.195   3.865  0.9761 -1.0651 -0.7338
 3417TIP3    H210258   5.331   4.269   3.736  0.4463 -0.1031 -0.0788
 3418TIP3   OH210259   2.543   0.802   1.129  0.1067 -0.2994  0.0210
 3418TIP3    H110260   2.475   0.774   1.190 -0.4553  0.4991 -0.2203
 3418TIP3    H210261   2.575   0.885   1.164  1.5215 -1.0431  0.5524
 3419TIP3   OH210262   4.473   3.376   2.221  0.9690  0.8064  0.1079
 3419TIP3    H110263   4.426   3.457   2.199 -0.5529  0.1757  0.8552
 3419TIP3    H210264   4.480   3.329   2.138  0.1484  0.8678 -0.0048
 3420TIP3   OH210265   2.117   2.042   1.015 -0.2411 -0.0111 -0.1610
 3420TIP3    H110266   2.199   2.086   1.036  0.4087 -2.0360  2.0138
 3420TIP3    H210267   2.143   1.959   0.974 -1.0937 -1.1379  1.4613
 3421TIP3   OH210268   0.040   3.116   2.430  0.5242  0.1893  0.0427
 3421TIP3    H110269  -0.024   3.086   2.366  1.8174 -1.1674 -0.6823
 3421TIP3    H210270   0.030   3.055   2.504  0.9833 -0.0619 -0.0958
 3422TIP3   OH210271   3.242   3.999   2.024  0.1204 -0.6039 -0.5516
 3422TIP3    H110272   3.315   3.945   2.053  1.4817  0.2586 -2.1635
 3422TIP3    H210273   3.174   3.937   1.998 -0.0913 -1.4130  1.6668
 3423TIP3   OH210274   5.073   3.555   0.670 -0.6806 -0.1192  0.9710
 3423TIP3    H110275   5.100   3.489   0.606 -3.5833  1.1760 -1.8829
 3423TIP3    H210276   5.133   3.629   0.655 -1.4583  0.2531 -0.5421
 3424TIP3   OH210277   0.978   1.284   4.192  0.5138  0.0131 -0.0868
 3424TIP3    H110278   0.914   1.213   4.187  0.7540 -0.2016 -0.1336
 3424TIP3    H210279   1.001   1.302   4.101  0.1147  0.4617 -0.1022
 3425TIP3   OH210280   4.142   0.105   4.079 -0.0867 -0.0075 -0.0222
 3425TIP3    H110281   4.139   0.199   4.094  0.4779 -0.1420  0.9854
 3425TIP3    H210282   4.050   0.080   4.071 -0.1957  0.8918 -2.1826
 3426TIP3   OH210283   4.699   0.154   4.915  0.8177 -0.0784 -0.0948
 3426TIP3    H110284   4.664   0.102   4.843  1.4529 -0.0439 -0.4296
 3426TIP3    H210285   4.656   0.239   4.906  0.9176 -0.0651 -0.4530
 3427TIP3   OH210286   1.544   2.286   1.744 -0.0098  0.3252 -0.2893
 3427TIP3    H110287   1.550   2.338   1.824  0.0455 -0.5225  0.2714
 3427TIP3    H210288   1.495   2.342   1.683 -1.8662  0.2113  1.0078
 3428TIP3   OH210289   3.427   4.114   0.393  0.5132 -0.0155 -0.5593
 3428TIP3    H110290   3.493   4.049   0.367 -0.4223 -0.4670 -1.9565
 3428TIP3    H210291   3.400   4.086   0.480  0.8326 -0.9307 -0.7332
 3429TIP3   OH210292   3.929   3.487   1.501  0.3444 -0.5567  0.0665
 3429TIP3    H110293   3.899   3.415   1.446  0.1136  0.5293 -1.3132
 3429TIP3    H210294   4.015   3.510   1.464 -0.7748  1.6435 -1.4082
 3430TIP3   OH210295   4.015   1.075   0.158 -0.7287  0.0584 -0.5071
 3430TIP3    H110296   4.081   1.007   0.145 -0.5445 -0.0053  0.6877
 3430TIP3    H210297   4.064   1.154   0.177 -0.9716  0.2214 -0.5525
 3431TIP3   OH210298   1.149   1.145   2.183  0.5581  0.3676  0.0131
 3431TIP3    H110299   1.073   1.188   2.221 -0.5167 -0.4850 -1.0933
 3431TIP3    H210300   1.188   1.211   2.125 -2.1490 -0.5075 -3.1309
 3432TIP3   OH210301   5.529   4.812   5.081 -0.6555 -0.6316  0.3067
 3432TIP3    H110302   5.486   4.727   5.085  1.3728 -1.6692  3.5790
 3432TIP3    H210303   5.526   4.845   5.170  1.5894  1.1539 -0.1679
 3433TIP3   OH210304   0.025   0.395   0.932 -0.6983  0.6483 -0.2811
 3433TIP3    H110305   0.082   0.329   0.893 -0.0777  1.9987 -1.7768
 3433TIP3    H210306  -0.031   0.346   0.992  0.5443 -1.0360 -0.4326
 3434TIP3   OH210307   4.027   0.210   1.428  0.1345 -0.0542  0.1080
 3434TIP3    H110308   4.114   0.225   1.465 -0.0884  0.2423  0.5192
 3434TIP3    H210309   4.031   0.249   1.341  0.7148 -0.8990 -0.2595
 3435TIP3   OH210310   5.319   2.701   1.497  0.7346 -0.2526 -0.9033
 3435TIP3    H110311   5.267   2.774   1.462  1.3439  0.9994  0.6636
 3435TIP3    H210312   5.407   2.738   1.509  0.9257 -1.0595  0.4188
 3436TIP3   OH210313   5.215   3.359   0.555  0.1507 -0.2158  0.2213
 3436TIP3    H110314   5.142   3.301   0.577  0.2370  0.4508  2.5826
 3436TIP3    H210315   5.276   3.349   0.628  1.7384  0.3446 -0.9883
 3437TIP3   OH210316   2.332   0.557   4.807  0.1252  0.0836 -0.0372
 3437TIP3    H110317   2.355   0.472   4.769  0.8849  0.5410 -0.6206
 3437TIP3    H210318   2.385   0.620   4.760 -1.0610  0.9977 -0.2021
 3438TIP3   OH210319   5.729   0.806   0.999  0.4503  0.7262  0.0429
 3438TIP3    H110320   5.727   0.713   0.976  1.1681  0.2900  1.6503
 3438TIP3    H210321   5.661   0.845   0.944  0.6172 -0.6121 -1.1797
 3439TIP3   OH210322   0.012   2.151   0.393 -0.3888  0.2995  0.1921
 3439TIP3    H110323   0.083   2.167   0.331  0.9315  0.6519  1.7329
 3439TIP3    H210324  -0.030   2.071   0.361  0.8057 -0.0049 -0.6733
 3440TIP3   OH210325   6.096   0.876   4.556 -0.5867 -0.3243  1.0390
 3440TIP3    H110326   6.187   0.857   4.574 -0.6234  0.4772  2.1618
 3440TIP3    H210327   6.098   0.952   4.497 -0.5264 -0.3815  0.9681
 3441TIP3   OH210328   5.513   3.305   4.185  0.2231  0.0703 -0.1041
 3441TIP3    H110329   5.581   3.289   4.249 -0.7376 -0.1661  0.8794
 3441TIP3    H210330   5.442   3.246   4.209 -0.9771  1.4489 -0.1126
 3442TIP3   OH210331   4.748   3.800   1.319  0.0557  0.4511 -0.3714
 3442TIP3    H110332   4.727   3.848   1.239 -2.2630 -1.0510 -0.7668
 3442TIP3    H210333   4.791   3.864   1.375  0.0453  2.0556 -2.1063
 3443TIP3   OH210334   5.961   1.777   3.319 -0.1540  0.1261  0.6429
 3443TIP3    H110335   5.898   1.833   3.364  0.0135  0.6484  0.2273
 3443TIP3    H210336   6.040   1.831   3.310 -0.6494  0.5839 -1.6103
 3444TIP3   OH210337   1.441   1.287   1.240  0.0849 -0.5864  0.4033
 3444TIP3    H110338   1.366   1.301   1.299 -0.9876 -1.2271 -0.7633
 3444TIP3    H210339   1.488   1.371   1.242 -0.2634 -0.3877  1.6667
 3445TIP3   OH210340   0.147   5.667   2.224 -0.4678 -0.0315 -0.1024
 3445TIP3    H110341   0.210   5.622   2.281 -1.2655 -1.2513 -0.1390
 3445TIP3    H210342   0.202   5.721   2.167  0.6424 -1.6169 -0.6282
 3446TIP3   OH210343   2.802   0.673   5.055  0.2687 -0.0502  0.1051
 3446TIP3    H110344   2.769   0.586   5.032 -2.2482  0.7045  0.5177
 3446TIP3    H210345   2.778   0.728   4.980  0.7732  0.5289  0.3633
 3447TIP3   OH210346   1.087   3.642   3.577  0.5289 -0.2035  0.2617
 3447TIP3    H110347   1.057   3.617   3.489 -1.4714 -1.2160  1.1608
 3447TIP3    H210348   1.020   3.606   3.636  1.0041  1.7676  2.1055
 3448TIP3   OH210349   2.560   5.117   1.969 -0.0844 -0.0607 -0.1150
 3448TIP3    H110350   2.640   5.091   2.014 -0.9876  0.5079  1.9834
 3448TIP3    H210351   2.507   5.038   1.967 -1.0720  0.4465  2.2938
 3449TIP3   OH210352   3.311   1.375   0.399 -0.3395 -0.3622  0.5902
 3449TIP3    H110353   3.353   1.413   0.476 -0.2877  1.0695 -0.1180
 3449TIP3    H210354   3.252   1.308   0.434  0.7683 -0.7539  1.7565
 3450TIP3   OH210355   1.583   0.374   1.328  0.2300 -0.2044 -0.6179
 3450TIP3    H110356   1.522   0.425   1.275 -0.2895 -0.3446 -0.1606
 3450TIP3    H210357   1.659   0.362   1.272 -0.2271 -0.1657 -1.2530
 3451TIP3   OH210358   1.366   3.215   0.994  0.2065 -0.5461 -0.7294
 3451TIP3    H110359   1.303   3.208   0.923  1.1512 -0.5165 -1.5889
 3451TIP3    H210360   1.436   3.271   0.960 -0.0563  0.7572  0.7721
 3452TIP3   OH210361   3.126   5.778   2.643 -0.7308 -0.3917  0.1891
 3452TIP3    H110362   3.194   5.825   2.595 -0.3303 -1.3571 -0.2153
 3452TIP3    H210363   3.048   5.833   2.634 -1.0565 -1.1699 -2.7618
 3453TIP3   OH210364   0.561   2.675   3.876 -0.5750  0.3711  0.5008
 3453TIP3    H110365   0.639   2.656   3.824 -0.1945  1.3471  0.6893
 3453TIP3    H210366   0.503   2.721   3.816 -0.8579 -0.0292  0.4645
 3454TIP3   OH210367   0.900   4.025   1.094 -0.4377 -0.7852  0.0411
 3454TIP3    H110368   0.850   3.970   1.034 -0.4266 -1.4428  0.6260
 3454TIP3    H210369   0.836   4.057   1.157 -0.4161 -0.2463 -0.2057
 3455TIP3   OH210370   6.027   1.786   4.882  0.6804  0.2962 -0.0881
 3455TIP3    H110371   5.979   1.796   4.964 -2.2299 -0.5588 -1.5477
 3455TIP3    H210372   6.040   1.875   4.850 -0.9795  0.5644 -0.1284
 3456TIP3   OH210373   6.075   0.557   4.970  0.4489 -0.4440  0.5016
 3456TIP3    H110374   6.010   0.509   5.022  0.7472 -1.8168 -0.3353
 3456TIP3    H210375   6.024   0.624   4.924  0.0796  0.3143  1.9853
 3457TIP3   OH210376   0.615   3.648   3.004  0.2747 -0.0952 -0.1453
 3457TIP3    H110377   0.692   3.697   2.977  0.6045  0.1051  1.0985
 3457TIP3    H210378   0.559   3.646   2.926  1.6920 -0.5799 -1.1729
 3458TIP3   OH210379   3.027   5.574   2.957  0.3796 -0.1446 -0.4221
 3458TIP3    H110380   2.996   5.606   3.041  1.7782  1.7127 -0.5665
 3458TIP3    H210381   3.122   5.580   2.962  0.4736  1.5566 -2.6747
 3459TIP3   OH210382   5.898   0.015   3.673 -0.3043 -0.0409  0.4438
 3459TIP3    H110383   5.980   0.037   3.628 -0.0853 -1.6655 -0.0192
 3459TIP3    H210384   5.829   0.047   3.614 -0.0050 -1.1448 -0.5543
 3460TIP3   OH210385   3.664   2.215   3.756  0.4423 -0.7322  0.5976
 3460TIP3    H110386   3.750   2.202   3.715 -0.1775 -1.1876 -0.5967
 3460TIP3    H210387   3.670   2.170   3.840  2.2045  1.3660  1.7166
 3461TIP3   OH210388   1.852   4.839   0.670  0.3201 -0.3374 -0.2580
 3461TIP3    H110389   1.884   4.773   0.730 -1.1714  0.0562  1.0453
 3461TIP3    H210390   1.805   4.790   0.603 -0.0237 -0.6640  0.2133
 3462TIP3   OH210391   2.375   5.034   2.244  0.0717  0.2322  0.0488
 3462TIP3    H110392   2.324   5.093   2.299  1.8519  0.3983  1.5823
 3462TIP3    H210393   2.385   5.081   2.161 -2.5656  0.0080 -0.5060
 3463TIP3   OH210394   0.552   0.390   0.400 -0.1682 -0.6007  0.0976
 3463TIP3    H110395   0.540   0.348   0.485  0.4660 -1.1158 -0.0573
 3463TIP3    H210396   0.489   0.461   0.399 -0.2696 -0.6709  0.9497
 3464TIP3   OH210397   3.448   2.109   3.199 -0.3125  1.0632  0.6991
 3464TIP3    H110398   3.425   2.016   3.199  1.6721  0.5066  0.1271
 3464TIP3    H210399   3.493   2.123   3.283  1.4176  0.9020 -0.1637
 3465TIP3   OH210400   0.217   1.055   4.511 -0.1724  0.0435  0.1627
 3465TIP3    H110401   0.245   1.006   4.589 -1.0189  0.7562  0.9336
 3465TIP3    H210402   0.123   1.041   4.507 -0.1256 -0.0378 -0.7870
 3466TIP3   OH210403   0.586   5.779   3.991 -0.0921 -0.6104  0.3707
 3466TIP3    H110404   0.554   5.865   4.016 -2.0483 -1.1233 -0.1710
 3466TIP3    H210405   0.507   5.729   3.970  1.0187 -2.3603  0.1018
 3467TIP3   OH210406   4.025   2.135   0.767 -0.0188 -0.6943 -0.2908
 3467TIP3    H110407   4.083   2.179   0.705 -0.1755 -0.6760 -0.4229
 3467TIP3    H210408   4.069   2.051   0.785  0.6294 -0.2045  0.4869
 3468TIP3   OH210409   5.610   0.956   3.993  0.1446 -0.0414 -0.8457
 3468TIP3    H110410   5.577   1.043   4.015  1.8194  0.6367 -0.8239
 3468TIP3    H210411   5.626   0.959   3.899  0.0124 -0.4057 -0.8821
 3469TIP3   OH210412   4.959   0.668   0.912 -0.3142  0.5764  0.3065
 3469TIP3    H110413   4.885   0.716   0.950 -0.4552  2.5586 -2.2352
 3469TIP3    H210414   5.029   0.733   0.904  0.6448 -0.4747 -0.2247
 3470TIP3   OH210415   4.576   2.047   1.244  0.2573 -0.2145 -0.2907
 3470TIP3    H110416   4.545   2.025   1.332 -1.4808  0.8784 -0.5769
 3470TIP3    H210417   4.496   2.070   1.196  1.3467  0.9091 -1.6432
 3471TIP3   OH210418   5.749   5.283   0.741  0.5337  0.2385 -0.0743
 3471TIP3    H110419   5.787   5.252   0.658  1.2930 -0.7163  0.5959
 3471TIP3    H210420   5.821   5.330   0.783 -0.0852  1.3881 -0.2852
 3472TIP3   OH210421   1.851   4.105   5.052  0.4444 -0.3997  0.4566
 3472TIP3    H110422   1.932   4.114   5.003  1.4122  1.2017  2.2030
 3472TIP3    H210423   1.828   4.194   5.077 -1.6795 -0.8540  0.3285
 3473TIP3   OH210424   6.290   5.040   1.261 -0.0002  0.2284  0.6594
 3473TIP3    H110425   6.266   5.112   1.320 -0.2769  0.1344  0.6637
 3473TIP3    H210426   6.210   4.989   1.253 -0.3389  0.9498 -0.8380
 3474TIP3   OH210427   2.825   3.046   2.846  0.1014  0.4020 -0.6969
 3474TIP3    H110428   2.917   3.032   2.868  0.6197  1.1697 -2.2549
 3474TIP3    H210429   2.802   3.129   2.889  0.0452  0.0787 -0.0904
 3475TIP3   OH210430   5.727   2.750   2.905  0.7247 -0.3141  0.6369
 3475TIP3    H110431   5.820   2.769   2.918  1.1908 -0.1206 -2.3033
 3475TIP3    H210432   5.725   2.657   2.884  0.7757  0.2531 -2.3794
 3476TIP3   OH210433   0.673   1.967   2.474  0.0335 -0.4658 -0.7370
 3476TIP3    H110434   0.675   2.028   2.400 -1.8063  1.4312  0.6366
 3476TIP3    H210435   0.754   1.984   2.522  0.6487 -0.8193 -1.6379
 3477TIP3   OH210436   3.227   4.160   4.585  0.0845  0.0577  0.2675
 3477TIP3    H110437   3.229   4.221   4.512  1.2105  1.5212  1.4542
 3477TIP3    H210438   3.141   4.118   4.579  0.5100 -0.5767 -2.4084
 3478TIP3   OH210439   2.661   2.293   4.883 -0.2176  0.3285 -0.3123
 3478TIP3    H110440   2.568   2.276   4.899 -0.0513  0.1847  0.5635
 3478TIP3    H210441   2.705   2.211   4.906  0.2067  0.6707  0.1314
 3479TIP3   OH210442   5.193   3.092   3.502  0.5518  0.0418  0.3449
 3479TIP3    H110443   5.114   3.133   3.468  0.8089 -0.5131 -1.0039
 3479TIP3    H210444   5.263   3.152   3.479  0.6670 -0.0794  0.3785
 3480TIP3   OH210445   5.004   5.355   4.941  0.3321  0.3403 -0.3595
 3480TIP3    H110446   4.919   5.386   4.910 -0.2306  0.7192  1.4238
 3480TIP3    H210447   4.984   5.275   4.989  0.8744  0.7639  0.6084
 3481TIP3   OH210448   5.895   1.902   1.171 -0.5344 -0.6089  0.1529
 3481TIP3    H110449   5.856   1.912   1.258 -1.9625 -1.4657 -0.3644
 3481TIP3    H210450   5.907   1.807   1.161 -0.2795 -0.5064 -0.5526
 3482TIP3   OH210451   1.152   3.274   4.151 -0.1656  0.7078 -0.7424
 3482TIP3    H110452   1.083   3.232   4.100 -1.0833  1.2939 -0.0122
 3482TIP3    H210453   1.176   3.208   4.217 -0.0077  0.4891 -1.0186
 3483TIP3   OH210454   3.609   4.594   5.081 -0.0182 -0.2215  0.0522
 3483TIP3    H110455   3.561   4.657   5.134 -0.4886  0.4090 -1.1042
 3483TIP3    H210456   3.623   4.638   4.998  0.4776 -1.2970 -0.4484
 3484TIP3   OH210457   1.949   1.629   2.667  0.0019 -0.6471 -0.1918
 3484TIP3    H110458   1.895   1.591   2.598 -0.9801 -2.0543  1.3003
 3484TIP3    H210459   1.887   1.675   2.724  0.7181 -0.0096  0.0930
 3485TIP3   OH210460   5.418   0.627   0.821 -0.5221 -0.3701 -0.4663
 3485TIP3    H110461   5.433   0.705   0.767  0.3190  0.4711  0.8990
 3485TIP3    H210462   5.501   0.579   0.816 -0.6513 -0.5955 -0.4133
 3486TIP3   OH210463   2.006   1.592   3.679 -0.4356  0.1052 -0.0804
 3486TIP3    H110464   2.035   1.554   3.596 -0.7249 -2.2865  0.8428
 3486TIP3    H210465   1.911   1.598   3.669 -0.7043 -1.9700  0.6863
 3487TIP3   OH210466   1.241   1.184   3.378  0.1860 -0.1870  0.0975
 3487TIP3    H110467   1.157   1.147   3.352  0.2353 -1.7757  1.9851
 3487TIP3    H210468   1.235   1.194   3.473  1.4428  1.5383  0.0464
 3488TIP3   OH210469   3.817   2.752   0.700  0.4036  0.0639 -0.1387
 3488TIP3    H110470   3.815   2.657   0.697  0.5492  0.0313  0.7335
 3488TIP3    H210471   3.747   2.780   0.641  1.3210 -0.5515 -1.5805
 3489TIP3   OH210472   0.412   1.829   3.661  0.0319 -0.1648 -0.2215
 3489TIP3    H110473   0.356   1.757   3.693  0.0645 -0.3566 -0.5974
 3489TIP3    H210474   0.497   1.814   3.703  0.1294 -0.5270 -0.5467
 3490TIP3   OH210475   2.995   4.598   1.782  0.1880  0.3975  0.1413
 3490TIP3    H110476   3.077   4.563   1.747 -0.8875 -0.2226 -1.9610
 3490TIP3    H210477   2.932   4.584   1.711 -1.4635  1.9552  1.2334
 3491TIP3   OH210478   3.846   1.448   0.672  0.0274 -0.2938 -0.4892
 3491TIP3    H110479   3.853   1.526   0.617 -0.5783 -0.1637 -0.3905
 3491TIP3    H210480   3.806   1.479   0.753 -1.6095 -0.9620 -1.0160
 3492TIP3   OH210481   3.314   4.346   0.565  0.1445  0.5152  0.3676
 3492TIP3    H110482   3.371   4.324   0.491 -1.1553  0.3254 -0.6208
 3492TIP3    H210483   3.237   4.386   0.524 -0.7964  0.0016  1.5877
 3493TIP3   OH210484   1.374   2.027   2.783 -0.5674  0.3287 -0.8559
 3493TIP3    H110485   1.319   2.105   2.776 -0.3425  0.3948 -2.2025
 3493TIP3    H210486   1.328   1.961   2.730 -0.6689 -0.4090  0.1228
 3494TIP3   OH210487   5.936   1.626   1.194  0.1184  0.4695  0.0802
 3494TIP3    H110488   6.017   1.616   1.145  0.4989 -2.4741  1.1024
 3494TIP3    H210489   5.963   1.620   1.286 -1.0691  1.3972  0.5158
 3495TIP3   OH210490   4.651   4.596   4.925 -0.5339  0.7221 -0.1118
 3495TIP3    H110491   4.659   4.512   4.880 -0.3448  0.5185  0.3019
 3495TIP3    H210492   4.567   4.632   4.894 -1.0008  0.0186  0.3187
 3496TIP3   OH210493   5.480   5.384   0.816  0.2636 -0.8418  1.0778
 3496TIP3    H110494   5.549   5.447   0.835  0.0519 -0.2285 -0.1268
 3496TIP3    H210495   5.524   5.316   0.765  0.1705 -0.9227  1.1054
 3497TIP3   OH210496   2.083   4.878   4.674 -0.6635 -0.1802 -0.2475
 3497TIP3    H110497   2.031   4.803   4.704 -2.5898  0.0835 -2.5948
 3497TIP3    H210498   2.046   4.953   4.721 -0.4635 -0.3596  0.2019
 3498TIP3   OH210499   0.799   0.981   3.094 -0.3416  0.2581 -0.4411
 3498TIP3    H110500   0.852   0.977   3.014 -1.1560  0.1537 -0.9885
 3498TIP3    H210501   0.745   0.902   3.090  0.3625 -0.2933  0.7528
 3499TIP3   OH210502   2.061   5.106   2.896  0.2872 -0.3686 -0.4782
 3499TIP3    H110503   2.129   5.145   2.951 -0.4313 -1.8971  1.6329
 3499TIP3    H210504   2.110   5.050   2.835  1.0216 -1.9429  1.4157
 3500TIP3   OH210505   1.472   3.635   3.535 -0.3025  0.1523 -0.1676
 3500TIP3    H110506   1.466   3.728   3.560 -0.4165  0.3167 -0.7964
 3500TIP3    H210507   1.417   3.590   3.598 -0.8997  0.6061 -0.3576
 3501TIP3   OH210508   2.676   5.546   1.273 -0.1546 -0.6240  0.2904
 3501TIP3    H110509   2.760   5.500   1.271  1.2423  1.7762  0.3188
 3501TIP3    H210510   2.611   5.477   1.284  1.5733 -2.8374 -2.3134
 3502TIP3   OH210511   0.800   4.554   1.648 -0.2717  0.5441  0.4983
 3502TIP3    H110512   0.727   4.615   1.657 -0.9815 -0.2245  0.1152
 3502TIP3    H210513   0.875   4.609   1.625 -1.4090  1.0521 -2.3213
 3503TIP3   OH210514   3.635   2.968   0.122  0.6997 -0.0835  0.0792
 3503TIP3    H110515   3.669   3.056   0.137  2.4318 -0.9591  1.7107
 3503TIP3    H210516   3.679   2.913   0.187 -1.1037 -2.0057 -0.1935
 3504TIP3   OH210517   3.225   5.803   1.961  0.1431 -0.3105  0.6046
 3504TIP3    H110518   3.296   5.804   1.897 -1.2424 -0.0278 -0.9933
 3504TIP3    H210519   3.221   5.712   1.993  0.5970 -0.5417  0.0004
 3505TIP3   OH210520   3.323   4.353   2.965  0.4977 -0.0002 -0.0579
 3505TIP3    H110521   3.385   4.343   2.892  0.0233  1.8203 -0.7681
 3505TIP3    H210522   3.364   4.418   3.022  1.0465 -1.6994  1.5530
 3506TIP3   OH210523   3.632   1.123   4.467  0.4216 -0.1356 -0.2874
 3506TIP3    H110524   3.654   1.113   4.559 -1.6684 -1.5517  0.1250
 3506TIP3    H210525   3.575   1.200   4.464  0.4698 -0.1030 -0.3918
 3507TIP3   OH210526   4.902   3.569   1.274  0.2804 -0.4656 -0.4658
 3507TIP3    H110527   4.852   3.640   1.314 -0.9504  0.1755 -2.9347
 3507TIP3    H210528   4.912   3.595   1.182  1.5488 -2.5623 -0.9989
 3508TIP3   OH210529   4.088   1.016   5.187  0.2683  0.0268 -1.1663
 3508TIP3    H110530   4.121   0.930   5.160  1.3520  0.0625 -0.0302
 3508TIP3    H210531   4.007   1.027   5.138  1.0329 -0.8597 -2.6904
 3509TIP3   OH210532   3.090   1.346   1.392 -1.2360  0.7081  0.4639
 3509TIP3    H110533   3.146   1.418   1.363 -2.8626  1.9027  0.2128
 3509TIP3    H210534   3.042   1.319   1.314 -1.6637  0.2742  0.8656
 3510TIP3   OH210535   4.868   0.520   1.481  0.7399  0.1025 -0.6761
 3510TIP3    H110536   4.823   0.588   1.431 -1.1125 -1.3865 -1.2027
 3510TIP3    H210537   4.869   0.444   1.422  0.7605 -0.9520  0.6266
 3511TIP3   OH210538   3.498   3.139   1.343 -0.0312 -0.1218 -0.0873
 3511TIP3    H110539   3.503   3.082   1.266 -1.3646 -0.9707  0.4150
 3511TIP3    H210540   3.410   3.126   1.376  0.7262 -0.2921  1.9893
 3512TIP3   OH210541   3.122   4.179   2.810  0.3167  0.0386  0.0201
 3512TIP3    H110542   3.171   4.209   2.733 -1.5090 -0.3005 -1.3545
 3512TIP3    H210543   3.123   4.084   2.803 -1.7847  0.0362 -0.9370
 3513TIP3   OH210544   1.105   4.103   4.066  0.3458 -0.2674  0.4559
 3513TIP3    H110545   1.019   4.144   4.070  0.4491 -0.0240  0.1886
 3513TIP3    H210546   1.166   4.177   4.064  0.4957 -0.4126 -1.2039
 3514TIP3   OH210547   1.557   4.067   0.497 -0.0574  0.1671 -0.0819
 3514TIP3    H110548   1.628   4.027   0.447 -0.1468 -0.1395  0.0313
 3514TIP3    H210549   1.490   3.998   0.502  0.9207 -0.7249  2.5308
 3515TIP3   OH210550   4.888   3.375   3.610 -0.5126  0.0447  0.1208
 3515TIP3    H110551   4.899   3.449   3.551 -0.1719  1.5792  2.0302
 3515TIP3    H210552   4.796   3.380   3.638 -0.6691 -0.6639 -0.2467
 3516TIP3   OH210553   0.939   5.633   1.077 -0.5758 -0.0867  0.5864
 3516TIP3    H110554   0.937   5.551   1.127  0.4949 -0.3009  0.3242
 3516TIP3    H210555   0.981   5.608   0.994 -1.4195  0.4671 -0.0197
 3517TIP3   OH210556   3.888   2.009   5.042  0.6016  0.1294 -0.0013
 3517TIP3    H110557   3.898   1.918   5.015 -0.2299 -0.0139  0.1510
 3517TIP3    H210558   3.927   2.060   4.971  1.0004 -0.3348 -0.1235
 3518TIP3   OH210559   2.476   4.185   2.240  0.8972 -0.2153 -0.0723
 3518TIP3    H110560   2.410   4.115   2.240  1.7406 -1.0375  1.0535
 3518TIP3    H210561   2.448   4.243   2.311  1.7812 -0.9630  0.8988
 3519TIP3   OH210562   2.170   2.500   1.252 -0.0800  0.2664  0.0151
 3519TIP3    H110563   2.111   2.466   1.320  1.1730  0.1265  1.0704
 3519TIP3    H210564   2.151   2.594   1.249  0.8877  0.5514  1.6674
 3520TIP3   OH210565   5.130   1.729   2.305 -0.3665  0.4202  0.6415
 3520TIP3    H110566   5.197   1.788   2.340  0.2776 -0.2148  0.4927
 3520TIP3    H210567   5.097   1.773   2.227  0.5131  0.3305  0.2115
 3521TIP3   OH210568   2.843   3.839   0.720 -0.1061  0.1427 -0.5358
 3521TIP3    H110569   2.833   3.763   0.662  0.3937  0.5647 -1.1761
 3521TIP3    H210570   2.788   3.906   0.680 -2.4365 -0.5509  1.2786
 3522TIP3   OH210571   1.358   5.846   3.456  0.4450  0.3769  0.7686
 3522TIP3    H110572   1.375   5.767   3.406  0.6739  0.9965 -0.1589
 3522TIP3    H210573   1.266   5.866   3.441  0.3663  0.2438  1.0676
 3523TIP3   OH210574   5.919   3.202   2.303 -0.3726  0.7954 -0.2840
 3523TIP3    H110575   5.947   3.267   2.238 -0.1178  0.1354 -0.8416
 3523TIP3    H210576   5.909   3.121   2.254 -1.0878  0.4906  0.3301
 3524TIP3   OH210577   6.180   5.181   3.847  0.2408 -0.0571  0.1897
 3524TIP3    H110578   6.189   5.145   3.935  0.7001 -0.5190 -0.0395
 3524TIP3    H210579   6.227   5.120   3.791 -1.4698 -0.7071 -0.6211
 3525TIP3   OH210580   6.233   5.491   4.320 -0.2158 -0.4442 -0.0431
 3525TIP3    H110581   6.286   5.430   4.371  1.2797  0.6569 -0.2163
 3525TIP3    H210582   6.253   5.577   4.358  0.8842  0.4202 -2.3792
 3526TIP3   OH210583   6.216   5.920   3.719 -0.2523  0.3524  0.2165
 3526TIP3    H110584   6.220   5.856   3.790  1.1635  0.8333  0.6097
 3526TIP3    H210585   6.183   5.871   3.644  1.9362 -1.2008  0.1804
 3527TIP3   OH210586   2.018   2.226   4.968 -0.4563 -0.0526  0.3202
 3527TIP3    H110587   2.075   2.246   5.042 -0.9764 -0.3283  0.8022
 3527TIP3    H210588   2.056   2.147   4.929 -0.2365  0.0377  0.3529
 3528TIP3   OH210589   5.604   4.770   2.121 -0.3271 -0.4162  0.3855
 3528TIP3    H110590   5.638   4.790   2.208 -0.5184 -2.4311  0.9732
 3528TIP3    H210591   5.545   4.843   2.101  1.2092  1.0779  1.0639
 3529TIP3   OH210592   3.284   2.850   3.451  0.4127  0.1292 -0.1974
 3529TIP3    H110593   3.332   2.768   3.459 -0.9264 -0.6331  0.5013
 3529TIP3    H210594   3.339   2.915   3.494  0.9286 -0.6667  0.3657
 3530TIP3   OH210595   1.774   5.885   3.666  0.6203 -0.1092  0.1439
 3530TIP3    H110596   1.792   5.814   3.605  1.9836 -0.8725  1.3659
 3530TIP3    H210597   1.711   5.941   3.620  0.6576 -1.2946 -1.4388
 3531TIP3   OH210598   3.977   1.201   4.927 -0.1545 -0.1334 -0.0095
 3531TIP3    H110599   3.969   1.272   4.991 -1.2013 -1.8187  1.8287
 3531TIP3    H210600   4.058   1.221   4.879  0.1797  1.6737  1.1977
 3532TIP3   OH210601   5.515   5.034   0.165 -0.8664 -0.1364  0.0471
 3532TIP3    H110602   5.501   5.129   0.159 -0.3657 -0.1175 -1.0866
 3532TIP3    H210603   5.554   5.010   0.080 -0.8494 -1.3319  0.3754
 3533TIP3   OH210604   3.062   3.273   0.292  0.1681 -0.7760 -0.2710
 3533TIP3    H110605   3.074   3.181   0.269 -0.6287 -0.7996 -0.6233
 3533TIP3    H210606   3.010   3.309   0.220 -1.5246 -0.6063  0.9750
 3534TIP3   OH210607   2.315   0.921   4.700  0.4189  0.1328  0.0588
 3534TIP3    H110608   2.280   0.834   4.677 -0.8187  0.1928  1.4885
 3534TIP3    H210609   2.409   0.907   4.711  0.1683 -1.1582  0.7434
 3535TIP3   OH210610   2.144   3.041   0.223 -0.0227 -0.0991 -0.3954
 3535TIP3    H110611   2.059   3.079   0.247  0.9222  0.8616  1.6756
 3535TIP3    H210612   2.166   2.984   0.296 -0.0033 -2.4081 -2.0824
 3536TIP3   OH210613   6.295   1.876   4.193 -0.3097 -0.0098 -0.1754
 3536TIP3    H110614   6.258   1.808   4.250 -2.8778  0.3922 -1.1869
 3536TIP3    H210615   6.313   1.831   4.111  0.4743  0.0318 -0.0338
 3537TIP3   OH210616   1.264   4.059   2.827  0.0168 -0.1980 -0.0668
 3537TIP3    H110617   1.214   4.046   2.908  1.3819 -0.2561  0.7933
 3537TIP3    H210618   1.355   4.065   2.856  0.4289  0.8841 -1.5002
 3538TIP3   OH210619   0.338   2.693   4.650  0.2405 -0.1849 -0.3716
 3538TIP3    H110620   0.415   2.651   4.689 -0.3218  0.4565  1.5295
 3538TIP3    H210621   0.270   2.625   4.651 -0.2839  0.3067  1.4890
 3539TIP3   OH210622   1.734   5.325   3.385  0.5677 -0.0757 -0.0861
 3539TIP3    H110623   1.662   5.368   3.339  1.3060  0.5307 -0.6926
 3539TIP3    H210624   1.813   5.359   3.344  1.2036 -0.9981  0.3357
 3540TIP3   OH210625   0.921   5.619   4.748  0.0217  0.3732  0.3188
 3540TIP3    H110626   0.871   5.657   4.821  1.1183 -0.4598  1.5557
 3540TIP3    H210627   1.008   5.602   4.785 -0.1915 -2.6881 -0.3058
 3541TIP3   OH210628   5.146   1.389   0.828 -0.2917  0.4597  0.6507
 3541TIP3    H110629   5.105   1.473   0.843 -1.4769 -0.0065  0.0934
 3541TIP3    H210630   5.120   1.364   0.740  0.7226 -0.1181  0.4989
 3542TIP3   OH210631   2.066   0.853   2.355 -0.1703 -0.3795 -0.2273
 3542TIP3    H110632   1.995   0.895   2.405 -0.4568 -1.5008  0.3362
 3542TIP3    H210633   2.024   0.827   2.273 -0.0656  0.1765 -0.4577
 3543TIP3   OH210634   0.264   2.191   2.430  0.1464  0.1161 -0.5381
 3543TIP3    H110635   0.306   2.131   2.492  0.7850 -1.6177 -2.5599
 3543TIP3    H210636   0.313   2.273   2.439  1.8589 -0.8678 -0.5084
 3544TIP3   OH210637   4.407   3.277   2.473  0.1890  0.4690 -0.0785
 3544TIP3    H110638   4.440   3.322   2.396  2.7097 -3.3741 -1.5849
 3544TIP3    H210639   4.368   3.197   2.439 -0.3885 -0.4609  2.5176
 3545TIP3   OH210640   2.470   4.431   3.581 -0.1697 -0.6958 -0.2586
 3545TIP3    H110641   2.447   4.519   3.611 -1.5361 -1.4640  1.0997
 3545TIP3    H210642   2.564   4.435   3.564  0.1398  0.5985  1.4801
 3546TIP3   OH210643   4.956   4.240   1.221  0.6893 -0.1832  0.2464
 3546TIP3    H110644   4.993   4.219   1.307 -0.1368 -0.5714  0.5215
 3546TIP3    H210645   4.907   4.161   1.197  0.7970 -0.0235 -0.5206
 3547TIP3   OH210646   1.251   0.675   3.414 -0.3905 -0.2129 -0.5342
 3547TIP3    H110647   1.279   0.737   3.347  1.3828 -0.0661  0.2808
 3547TIP3    H210648   1.285   0.590   3.386 -0.6868 -0.3755 -0.4143
 3548TIP3   OH210649   3.047   1.164   0.305  0.1876  0.2019  0.0858
 3548TIP3    H110650   3.060   1.171   0.400 -0.0885  1.2939  0.0463
 3548TIP3    H210651   3.055   1.070   0.288  1.1634  0.0843  1.0563
 3549TIP3   OH210652   3.642   2.527   0.754 -0.3628 -0.8007 -0.1253
 3549TIP3    H110653   3.665   2.542   0.662  0.3904 -0.3476  0.1272
 3549TIP3    H210654   3.659   2.434   0.768 -0.7037 -0.9210 -0.5066
 3550TIP3   OH210655   0.905   3.032   0.849  0.0422 -0.8624  0.2086
 3550TIP3    H110656   0.837   2.970   0.876 -0.9445  0.7777  1.6570
 3550TIP3    H210657   0.982   3.008   0.901 -0.2796 -0.9666  0.6342
 3551TIP3   OH210658   4.496   4.818   0.381  0.1898 -0.0836 -0.0015
 3551TIP3    H110659   4.436   4.844   0.450  0.9379  2.0655 -0.0876
 3551TIP3    H210660   4.582   4.813   0.425  0.6271  1.0584 -0.6816
 3552TIP3   OH210661   5.131   2.050   4.004  0.4301 -0.1721 -0.0608
 3552TIP3    H110662   5.128   2.045   3.909  0.4474 -0.5591 -0.0420
 3552TIP3    H210663   5.141   2.143   4.023  0.9938 -0.1499 -0.4516
 3553TIP3   OH210664   3.916   3.162   0.703 -0.1537 -0.0424  0.6134
 3553TIP3    H110665   3.842   3.170   0.764 -1.6798 -3.6345 -0.4821
 3553TIP3    H210666   3.992   3.147   0.759 -0.5710  1.6099  1.7014
 3554TIP3   OH210667   5.688   2.486   1.548  0.0177  0.0970 -0.9333
 3554TIP3    H110668   5.740   2.522   1.620 -1.3411 -0.4059  0.3214
 3554TIP3    H210669   5.598   2.508   1.569 -0.4265 -0.2206 -2.3942
 3555TIP3   OH210670   2.047   1.174   2.448  0.1018  0.0432  0.3801
 3555TIP3    H110671   2.020   1.264   2.431  3.7140  0.9653 -1.4709
 3555TIP3    H210672   2.140   1.180   2.469  0.2889 -3.2138  1.0784
 3556TIP3   OH210673   6.292   5.526   5.117 -0.2005 -0.1821  0.6661
 3556TIP3    H110674   6.198   5.528   5.134 -0.5886 -2.3906 -0.8197
 3556TIP3    H210675   6.300   5.540   5.023  0.7234 -2.1920  0.3894
 3557TIP3   OH210676   5.960   1.020   1.143 -0.8153 -0.0604  0.2037
 3557TIP3    H110677   6.004   0.963   1.081 -0.5463  0.7512 -0.3638
 3557TIP3    H210678   5.876   1.040   1.103 -0.5843  0.5798  0.0172
 3558TIP3   OH210679   0.673   0.100   2.032  0.1005 -0.3170  0.2451
 3558TIP3    H110680   0.595   0.044   2.038  0.8173 -1.2235  1.7265
 3558TIP3    H210681   0.742   0.050   2.076  1.8532 -0.0467 -1.9828
 3559TIP3   OH210682   6.228   4.635   5.159 -0.2896 -0.5662  0.1708
 3559TIP3    H110683   6.279   4.559   5.186 -0.1949 -0.3049  0.7251
 3559TIP3    H210684   6.138   4.603   5.156  0.0108 -1.4236 -2.1772
 3560TIP3   OH210685   4.470   0.100   0.851 -0.4020 -0.1329 -0.4391
 3560TIP3    H110686   4.452   0.194   0.858 -3.0591 -0.6680  4.3666
 3560TIP3    H210687   4.390   0.063   0.815 -0.7747 -0.7849  1.0017
 3561TIP3   OH210688   2.904   1.549   4.471  0.1798 -0.2553  0.2041
 3561TIP3    H110689   2.887   1.627   4.418  1.9944 -0.5186 -0.8308
 3561TIP3    H210690   2.873   1.477   4.416  3.7061 -0.6945 -1.4674
 3562TIP3   OH210691   3.569   3.429   1.298 -0.0930  0.2373  0.0207
 3562TIP3    H110692   3.618   3.347   1.307 -1.4510 -0.4937  1.1808
 3562TIP3    H210693   3.488   3.414   1.348 -0.3202  2.3262  0.3632
 3563TIP3   OH210694   6.121   5.498   1.836 -0.4142  0.2575 -0.0614
 3563TIP3    H110695   6.101   5.524   1.926 -0.0539 -0.1858  0.1474
 3563TIP3    H210696   6.121   5.581   1.787 -0.8815  0.4679  0.2897
 3564TIP3   OH210697   4.951   5.465   0.462 -0.6433  0.1526  0.0844
 3564TIP3    H110698   4.963   5.423   0.547 -1.3639 -2.5128 -1.0325
 3564TIP3    H210699   5.030   5.518   0.451  0.6559 -1.4050  1.3601
 3565TIP3   OH210700   5.649   2.128   0.370 -0.5303 -0.1565 -0.2197
 3565TIP3    H110701   5.729   2.168   0.334  0.4956 -1.2290  0.7756
 3565TIP3    H210702   5.613   2.079   0.296  0.9281 -1.4050 -0.1617
 3566TIP3   OH210703   5.342   0.335   3.433  0.4254 -0.0744  0.0677
 3566TIP3    H110704   5.305   0.254   3.468  1.3765 -1.0253 -1.0008
 3566TIP3    H210705   5.403   0.305   3.365  1.5929  1.5003  0.3731
 3567TIP3   OH210706   1.315   2.522   2.459  0.6703 -0.8407 -0.4561
 3567TIP3    H110707   1.376   2.574   2.406  0.4256 -0.5312 -0.4329
 3567TIP3    H210708   1.338   2.431   2.439 -1.0716 -0.8053 -3.0605
 3568TIP3   OH210709   1.593   3.388   3.564  0.2573 -0.3204 -0.9735
 3568TIP3    H110710   1.585   3.373   3.658 -0.0810 -1.6000 -1.1799
 3568TIP3    H210711   1.541   3.466   3.547  0.1006 -0.2364 -0.1464
 3569TIP3   OH210712   5.327   4.558   4.318  0.1205  0.0388  0.2262
 3569TIP3    H110713   5.369   4.644   4.314  0.8481 -0.2808  0.8567
 3569TIP3    H210714   5.302   4.540   4.227 -0.2237  0.9987  0.1137
 3570TIP3   OH210715   6.150   5.174   2.853 -0.0483  0.2481  0.1096
 3570TIP3    H110716   6.238   5.211   2.849 -0.1297  0.3427 -1.5877
 3570TIP3    H210717   6.164   5.083   2.880  0.3470  0.8093  1.9717
 3571TIP3   OH210718   3.021   1.998   0.695  0.3092  0.2092  0.1108
 3571TIP3    H110719   2.926   2.003   0.689  0.3237  0.3666  0.0149
 3571TIP3    H210720   3.040   1.998   0.789  0.0437 -2.9154  0.2723
 3572TIP3   OH210721   1.368   0.766   1.217 -0.3520 -0.4846 -0.0346
 3572TIP3    H110722   1.376   0.795   1.308  2.6833 -0.1302 -0.3130
 3572TIP3    H210723   1.318   0.835   1.174  0.1939  0.5122  0.8999
 3573TIP3   OH210724   1.613   2.317   4.404  0.1950  0.4601  0.1861
 3573TIP3    H110725   1.694   2.331   4.452 -0.4783  3.0289  0.7355
 3573TIP3    H210726   1.637   2.329   4.312  0.6165  0.0439  0.2339
 3574TIP3   OH210727   1.125   4.110   3.039 -0.4013 -0.0865 -0.5071
 3574TIP3    H110728   1.136   4.153   3.124  0.8469  0.4424 -0.9166
 3574TIP3    H210729   1.038   4.071   3.043  0.1996 -1.3658  1.5840
 3575TIP3   OH210730   5.498   0.706   0.551  0.0399  0.1887 -0.0216
 3575TIP3    H110731   5.483   0.730   0.460 -0.5116  0.0026  0.0136
 3575TIP3    H210732   5.532   0.616   0.547 -1.3925 -0.3866  0.0094
 3576TIP3   OH210733   5.902   0.268   4.252 -0.0680  0.3120 -0.0166
 3576TIP3    H110734   5.940   0.304   4.172  1.6400 -0.9729  0.1542
 3576TIP3    H210735   5.839   0.334   4.281  1.9721  2.5737 -0.3973
 3577TIP3   OH210736   2.367   0.608   0.105  0.1923  0.0522 -0.4190
 3577TIP3    H110737   2.356   0.690   0.056  0.1011 -0.8560 -1.9725
 3577TIP3    H210738   2.303   0.615   0.177  1.0400  1.8476  0.2257
 3578TIP3   OH210739   1.827   2.285   1.699  0.1048  0.6056  0.2344
 3578TIP3    H110740   1.736   2.299   1.674  0.1968  0.5322 -0.1520
 3578TIP3    H210741   1.842   2.346   1.771  0.5521  2.6798 -1.5051
 3579TIP3   OH210742   3.906   1.883   4.417  0.0444  0.5586  0.4060
 3579TIP3    H110743   3.928   1.819   4.350  1.1041  2.0219 -0.7147
 3579TIP3    H210744   3.972   1.952   4.408 -0.3765  1.2898  2.3096
 3580TIP3   OH210745   3.146   2.126   0.485 -0.4807 -0.1965  0.5933
 3580TIP3    H110746   3.152   2.213   0.525  0.0942 -0.5571  1.3075
 3580TIP3    H210747   3.095   2.075   0.546 -1.7199 -0.1016 -0.3201
 3581TIP3   OH210748   2.606   2.424   3.868 -0.0919 -0.3463 -0.0950
 3581TIP3    H110749   2.683   2.368   3.859  0.1043 -0.0053 -0.5890
 3581TIP3    H210750   2.641   2.513   3.866 -0.3457 -0.1904  1.1750
 3582TIP3   OH210751   3.101   1.857   2.666  0.2550 -0.6929  0.6458
 3582TIP3    H110752   3.143   1.777   2.636  0.8919 -0.4063  0.7514
 3582TIP3    H210753   3.135   1.925   2.608 -0.0246 -0.4457  0.7675
 3583TIP3   OH210754   5.036   3.321   4.855  0.2708  0.0883  0.1280
 3583TIP3    H110755   4.942   3.322   4.872 -0.2132 -1.3434 -2.0375
 3583TIP3    H210756   5.064   3.412   4.869 -0.8078  0.0067  3.5650
 3584TIP3   OH210757   4.881   1.910   2.632 -0.8096 -0.0373  0.0231
 3584TIP3    H110758   4.913   1.974   2.567 -3.2182  1.1278 -0.1274
 3584TIP3    H210759   4.942   1.917   2.705  0.7681  0.1372 -1.2550
 3585TIP3   OH210760   0.051   3.512   0.586 -0.3710 -0.4143  0.4112
 3585TIP3    H110761   0.040   3.549   0.674 -1.6086  0.6102 -0.1517
 3585TIP3    H210762   0.061   3.587   0.529 -0.4199 -1.0426 -0.4383
 3586TIP3   OH210763   1.070   4.274   1.296 -0.5087 -0.0590 -0.2034
 3586TIP3    H110764   1.020   4.284   1.214  1.5564  0.3739 -1.4926
 3586TIP3    H210765   1.052   4.355   1.344  0.1084  0.8109 -1.3631
 3587TIP3   OH210766   2.452   2.147   2.986  0.1635  0.0159 -0.3669
 3587TIP3    H110767   2.513   2.133   2.914  0.6363 -1.9396  0.3671
 3587TIP3    H210768   2.367   2.158   2.944  0.6596  0.4820 -1.2751
 3588TIP3   OH210769   2.443   0.911   0.242 -0.1040  0.2050  0.4082
 3588TIP3    H110770   2.431   0.883   0.151  0.2808  0.9827  0.1078
 3588TIP3    H210771   2.421   0.834   0.294  0.6294 -0.5475 -0.3755
 3589TIP3   OH210772   5.043   2.279   1.854 -0.4287  0.6008 -0.6828
 3589TIP3    H110773   5.073   2.295   1.765  0.5525 -1.8142 -0.8687
 3589TIP3    H210774   4.981   2.207   1.847 -1.6433  1.4685  0.4474
 3590TIP3   OH210775   4.828   4.512   4.029 -0.8115 -0.4207  0.3555
 3590TIP3    H110776   4.847   4.517   4.123 -2.8520 -1.1822  0.8567
 3590TIP3    H210777   4.766   4.584   4.014 -0.3859 -0.2122 -0.4517
 3591TIP3   OH210778   0.064   1.201   2.413 -0.2698 -0.0491 -0.3627
 3591TIP3    H110779   0.059   1.173   2.504  1.8879 -1.9831 -0.7449
 3591TIP3    H210780   0.058   1.297   2.417 -0.5426 -0.1014  1.7590
 3592TIP3   OH210781   4.381   0.121   5.038 -0.5652  0.0462  0.4317
 3592TIP3    H110782   4.424   0.203   5.063 -0.8588  0.1871  0.4879
 3592TIP3    H210783   4.305   0.149   4.986 -1.5364 -0.1048  1.7115
 3593TIP3   OH210784   2.817   5.595   0.374  0.2283 -0.0150  0.7555
 3593TIP3    H110785   2.868   5.514   0.373 -0.8513 -0.7206 -0.7797
 3593TIP3    H210786   2.778   5.598   0.462  0.7132 -0.8837  1.0047
 3594TIP3   OH210787   1.562   2.748   3.506 -0.0566 -0.0893 -0.3902
 3594TIP3    H110788   1.538   2.740   3.599  2.4598 -0.3801  0.2961
 3594TIP3    H210789   1.630   2.815   3.504  0.0900 -0.2488 -2.0202
 3595TIP3   OH210790   1.352   5.643   2.055 -0.6593 -0.1095  0.1178
 3595TIP3    H110791   1.402   5.722   2.038 -2.1347  0.7783 -0.2483
 3595TIP3    H210792   1.418   5.574   2.061  0.5441  0.8876 -1.0690
 3596TIP3   OH210793   0.291   4.520   5.148  0.4618 -0.2016 -0.0412
 3596TIP3    H110794   0.200   4.491   5.145 -0.0182  1.2912 -1.6240
 3596TIP3    H210795   0.342   4.439   5.154 -0.9340 -1.0651  0.8897
 3597TIP3   OH210796   1.681   3.750   0.622  0.5711 -0.4426  0.3308
 3597TIP3    H110797   1.718   3.672   0.663  0.1046  0.2658  2.2099
 3597TIP3    H210798   1.592   3.725   0.597  0.8352 -0.8637 -0.1952
 3598TIP3   OH210799   3.077   0.635   5.025  0.6461  0.4949 -0.0283
 3598TIP3    H110800   2.993   0.658   5.065 -0.7653 -0.0492 -2.4873
 3598TIP3    H210801   3.120   0.720   5.013  0.3837  0.8063  1.0710
 3599TIP3   OH210802   0.186   4.672   1.412 -0.0122 -0.6581 -0.2579
 3599TIP3    H110803   0.105   4.653   1.365 -0.3228 -1.8908  0.7286
 3599TIP3    H210804   0.201   4.596   1.467  0.3208  0.7215  1.6787
 3600TIP3   OH210805   0.787   2.857   0.514  0.4090 -0.3726  0.0079
 3600TIP3    H110806   0.780   2.763   0.532 -0.7966 -0.3862 -0.4517
 3600TIP3    H210807   0.870   2.865   0.467  0.3802 -1.2591 -0.2174
 3601TIP3   OH210808   4.449   3.059   3.738 -0.5279 -0.5862 -0.5347
 3601TIP3    H110809   4.506   3.056   3.815 -0.2017  0.5412 -0.7142
 3601TIP3    H210810   4.507   3.045   3.664 -0.9430 -2.3476 -0.5565
 3602TIP3   OH210811   3.840   2.317   3.565 -0.8023  0.4094 -0.1123
 3602TIP3    H110812   3.892   2.387   3.604 -0.6922  0.5481 -0.5051
 3602TIP3    H210813   3.902   2.245   3.552 -1.3278 -0.5552  2.2223
 3603TIP3   OH210814   3.014   3.250   3.810  0.2148 -0.3255  0.0682
 3603TIP3    H110815   2.929   3.286   3.837  0.2515 -0.5035  0.4275
 3603TIP3    H210816   3.079   3.311   3.845  0.2301 -0.0823 -0.3772
 3604TIP3   OH210817   3.647   3.879   0.024 -0.2558 -0.0069  0.3900
 3604TIP3    H110818   3.662   3.910   0.113 -1.4662 -1.1313  1.0163
 3604TIP3    H210819   3.730   3.837   0.000 -0.3858 -0.9920  1.5650
 3605TIP3   OH210820   2.199   2.789   1.306  0.2739  0.2844  0.1531
 3605TIP3    H110821   2.175   2.862   1.362  1.9009  2.1388 -1.4070
 3605TIP3    H210822   2.272   2.746   1.350 -0.4502 -0.1973  0.8992
 3606TIP3   OH210823   3.188   3.993   2.357  0.0985 -0.7064 -0.0597
 3606TIP3    H110824   3.133   4.027   2.287 -1.2668 -0.9143  0.8637
 3606TIP3    H210825   3.277   4.010   2.329 -0.4317 -0.3937 -1.6357
 3607TIP3   OH210826   6.240   2.057   2.960  0.2031  0.6111 -0.3895
 3607TIP3    H110827   6.171   2.000   2.993  0.3605  1.1499  0.8978
 3607TIP3    H210828   6.201   2.099   2.882 -1.5541  2.1521  1.2213
 3608TIP3   OH210829   0.608   1.498   1.419  0.1744 -0.5057  0.0726
 3608TIP3    H110830   0.635   1.420   1.466  0.1387 -0.2128  0.5850
 3608TIP3    H210831   0.635   1.571   1.475  1.5739 -0.0905 -1.0759
 3609TIP3   OH210832   0.154   1.697   1.319  0.1690 -0.4871 -0.3934
 3609TIP3    H110833   0.132   1.790   1.311 -0.9164 -0.7748 -0.9742
 3609TIP3    H210834   0.237   1.688   1.273 -0.1905  0.0401 -1.1683
 3610TIP3   OH210835   0.886  -0.007   4.472 -0.1775  0.1399  0.0461
 3610TIP3    H110836   0.930   0.056   4.529  0.1809 -1.9088  2.2136
 3610TIP3    H210837   0.843   0.046   4.406 -0.8798  2.7246  2.3912
 3611TIP3   OH210838   5.560   0.725   5.020 -0.0586  0.3646 -0.2056
 3611TIP3    H110839   5.567   0.776   4.939 -0.2383 -0.1145 -0.5266
 3611TIP3    H210840   5.647   0.729   5.059  0.5971 -1.0714 -1.4467
 3612TIP3   OH210841   3.166   3.701   1.990 -0.1838 -0.5331  0.3140
 3612TIP3    H110842   3.112   3.708   2.068 -1.3740 -0.8977 -0.4575
 3612TIP3    H210843   3.181   3.607   1.980  1.7288 -0.3821  1.2447
 3613TIP3   OH210844   1.903   2.278   0.802  0.0644 -0.4576 -0.4244
 3613TIP3    H110845   1.932   2.227   0.877 -1.6678  0.9855  1.3240
 3613TIP3    H210846   1.955   2.359   0.806 -1.1551  0.3104  0.2034
 3614TIP3   OH210847   1.067   5.199   2.181 -0.0015  0.0377  0.0415
 3614TIP3    H110848   1.078   5.289   2.149 -0.0524  0.0068 -0.0607
 3614TIP3    H210849   1.145   5.184   2.236 -1.0207  0.8854  1.8050
 3615TIP3   OH210850   4.046   2.410   3.222  0.4198  0.0466 -0.5711
 3615TIP3    H110851   3.976   2.352   3.253  1.7023 -0.0960  2.3375
 3615TIP3    H210852   4.000   2.478   3.172 -1.4975 -1.4065 -0.9321
 3616TIP3   OH210853   0.933   1.584   4.844 -0.3137  0.1760 -0.3620
 3616TIP3    H110854   0.900   1.673   4.854  1.2574  0.8797 -1.0589
 3616TIP3    H210855   0.907   1.559   4.755 -2.1305 -0.7068  0.3734
 3617TIP3   OH210856   5.113   4.280   5.109  0.3156  0.4567 -0.2908
 3617TIP3    H110857   5.204   4.272   5.080  0.5590  0.1247  0.5288
 3617TIP3    H210858   5.083   4.190   5.118  0.2398  0.5409  0.4165
 3618TIP3   OH210859   1.486   1.845   3.203  0.3831 -0.1802 -0.1803
 3618TIP3    H110860   1.395   1.816   3.208  0.2836  0.0798 -0.4683
 3618TIP3    H210861   1.481   1.935   3.170  0.7583 -0.2503 -0.4379
 3619TIP3   OH210862   0.756   0.237   4.681 -0.1083 -0.1310  0.7766
 3619TIP3    H110863   0.832   0.180   4.692  0.0858  0.2292  1.3463
 3619TIP3    H210864   0.700   0.217   4.756 -0.5836 -0.4035  0.3541
 3620TIP3   OH210865   2.057   4.436   4.395 -0.1991 -0.0585  0.0877
 3620TIP3    H110866   2.019   4.493   4.328  0.4839  0.6776  0.3230
 3620TIP3    H210867   2.115   4.492   4.445  2.7715 -1.5351 -1.4574
 3621TIP3   OH210868   3.614   0.928   4.693 -0.3109 -0.3106 -0.0002
 3621TIP3    H110869   3.696   0.899   4.653  0.0453  1.3838 -0.5769
 3621TIP3    H210870   3.597   0.863   4.761  1.2002 -1.0372 -0.2632
 3622TIP3   OH210871   1.747   3.879   3.419 -0.2688  0.3182  0.4571
 3622TIP3    H110872   1.791   3.899   3.337  1.9687  1.3674  1.8122
 3622TIP3    H210873   1.676   3.943   3.424 -1.1863 -0.5275 -1.1702
 3623TIP3   OH210874   3.245   3.062   2.732  0.0608 -0.0546 -0.1945
 3623TIP3    H110875   3.256   2.969   2.752 -1.3292 -0.1827  0.0359
 3623TIP3    H210876   3.319   3.105   2.776  0.4951 -1.0051  0.0203
 3624TIP3   OH210877   2.336   2.609   2.387  0.2695 -0.3988 -0.0587
 3624TIP3    H110878   2.403   2.557   2.343  0.8210 -1.4225  1.8401
 3624TIP3    H210879   2.339   2.694   2.344  3.0747 -0.2820  0.1681
 3625TIP3   OH210880   5.278   2.090   5.030  0.6058 -0.1305 -0.0944
 3625TIP3    H110881   5.260   2.184   5.034 -0.7719 -0.2991 -1.2485
 3625TIP3    H210882   5.351   2.083   4.968 -1.5860  0.0110 -2.8682
 3626TIP3   OH210883   4.631   4.590   3.185  0.1637  0.1490 -0.7218
 3626TIP3    H110884   4.681   4.522   3.140  0.9091  0.5093 -0.4566
 3626TIP3    H210885   4.557   4.608   3.127 -0.1590 -1.0221 -0.7018
 3627TIP3   OH210886   4.030   5.932   0.175  0.3562  0.0631  0.6330
 3627TIP3    H110887   4.001   5.900   0.089  0.0663  1.5688  0.1284
 3627TIP3    H210888   4.052   5.853   0.224 -1.7140 -0.9832 -0.0128
 3628TIP3   OH210889   4.509   5.865   0.598  0.0667  0.1438  0.1011
 3628TIP3    H110890   4.473   5.791   0.548 -0.2386 -0.0414  0.5939
 3628TIP3    H210891   4.477   5.942   0.552 -1.2836 -0.0122  0.7561
 3629TIP3   OH210892   1.354   1.873   2.398 -0.1477  0.0229 -0.4434
 3629TIP3    H110893   1.293   1.928   2.348 -0.2403  0.6850  0.3768
 3629TIP3    H210894   1.439   1.888   2.356 -0.2962  0.2297 -0.6747
 3630TIP3   OH210895   3.510   5.897   4.154  0.3912  0.3854 -0.1802
 3630TIP3    H110896   3.558   5.824   4.191 -0.2963 -0.1088 -0.2500
 3630TIP3    H210897   3.524   5.969   4.215 -2.4454 -0.9541  2.2714
 3631TIP3   OH210898   2.877   5.465   2.731  0.5067  0.0591 -0.2294
 3631TIP3    H110899   2.936   5.419   2.671  0.4071  1.0204 -1.0872
 3631TIP3    H210900   2.935   5.515   2.788  0.5425  1.3605 -1.3632
 3632TIP3   OH210901   1.215   2.097   1.733 -0.1405 -0.3100 -0.4448
 3632TIP3    H110902   1.279   2.027   1.724 -0.4165 -0.8128  1.1309
 3632TIP3    H210903   1.134   2.053   1.758 -1.0461  0.3500 -2.0417
 3633TIP3   OH210904   5.603   1.958   2.591 -0.0664 -0.0664 -0.2270
 3633TIP3    H110905   5.689   1.940   2.629 -0.7315 -1.0552  0.8860
 3633TIP3    H210906   5.552   1.996   2.663 -1.2882 -1.7560 -0.1478
 3634TIP3   OH210907   4.832   0.905   4.424 -0.0028 -0.1756 -0.2042
 3634TIP3    H110908   4.741   0.918   4.399 -0.2302 -1.2890  0.0227
 3634TIP3    H210909   4.856   0.820   4.388  1.3421  0.6153 -1.3254
 3635TIP3   OH210910   5.392   0.135   4.239  0.1236  0.0674 -0.2334
 3635TIP3    H110911   5.397   0.217   4.189 -1.0818 -0.1572 -0.7725
 3635TIP3    H210912   5.482   0.104   4.245  0.6562  1.6254  0.3230
 3636TIP3   OH210913   0.449   0.359   4.238  0.3491 -0.3719  0.0621
 3636TIP3    H110914   0.489   0.278   4.272 -0.0761  0.1455  1.9095
 3636TIP3    H210915   0.484   0.428   4.294 -1.9171  0.2795  0.7608
 3637TIP3   OH210916   4.247   2.770   2.457  0.1732 -0.0116 -0.1210
 3637TIP3    H110917   4.306   2.800   2.387  1.4729 -0.0677  0.9239
 3637TIP3    H210918   4.303   2.759   2.533 -0.8632 -1.8577  0.4419
 3638TIP3   OH210919   2.896   4.007   3.193 -0.4697 -0.6228  0.0917
 3638TIP3    H110920   2.981   3.976   3.223  0.3669  0.8010 -0.6876
 3638TIP3    H210921   2.840   3.929   3.193  1.1315 -1.8213 -0.4458
 3639TIP3   OH210922   6.148   2.737   2.081 -0.2380 -0.9966 -0.7096
 3639TIP3    H110923   6.238   2.762   2.102 -0.4112 -0.2363 -0.8400
 3639TIP3    H210924   6.153   2.697   1.994  0.1638 -2.1968 -0.1586
 3640TIP3   OH210925   0.129   4.539   0.278 -0.0167 -0.2849  0.4236
 3640TIP3    H110926   0.091   4.602   0.339  3.7816  1.9259  0.8412
 3640TIP3    H210927   0.074   4.461   0.286 -4.7392  2.6353  0.2531
 3641TIP3   OH210928   0.867   1.778   2.923  0.0312  0.5092  0.4584
 3641TIP3    H110929   0.949   1.800   2.879  0.5089 -1.0033  0.5561
 3641TIP3    H210930   0.803   1.769   2.852  0.1478  0.7892  0.3143
 3642TIP3   OH210931   3.682   5.578   0.933  0.0613 -0.0044 -0.1112
 3642TIP3    H110932   3.640   5.642   0.875 -0.7079 -2.5726 -2.5755
 3642TIP3    H210933   3.762   5.553   0.887  1.3136  0.4411  1.7060
 3643TIP3   OH210934   4.519   0.997   5.117 -0.0188  0.0221  0.0670
 3643TIP3    H110935   4.444   1.055   5.107 -1.3483 -1.7946 -1.0223
 3643TIP3    H210936   4.513   0.936   5.044  3.7216  0.9997 -1.3156
 3644TIP3   OH210937   0.433   3.118   3.875 -0.2346 -0.0504 -0.0291
 3644TIP3    H110938   0.442   3.048   3.939  0.8627 -0.6591 -0.8225
 3644TIP3    H210939   0.507   3.177   3.893  0.1549 -0.2892 -0.7881
 3645TIP3   OH210940   5.324   6.000   3.954 -0.3956  0.2800  0.0537
 3645TIP3    H110941   5.259   5.951   4.004  0.8457 -0.0774  1.4146
 3645TIP3    H210942   5.309   5.976   3.863 -1.6984 -0.3238  0.4161
 3646TIP3   OH210943   4.279   4.417   4.668 -0.0380  0.1362 -0.1455
 3646TIP3    H110944   4.319   4.426   4.754 -0.8946 -0.4154  0.3199
 3646TIP3    H210945   4.195   4.374   4.684  0.6594 -1.8863 -1.4511
 3647TIP3   OH210946   3.213   1.857   1.405  0.1935  0.3939 -0.5573
 3647TIP3    H110947   3.188   1.789   1.342  1.6537 -0.2170 -0.5113
 3647TIP3    H210948   3.141   1.859   1.468 -1.3230  1.0217 -2.2118
 3648TIP3   OH210949   2.362   1.482   0.783 -0.3177 -0.1302  0.0228
 3648TIP3    H110950   2.417   1.445   0.714 -0.7335  0.5820 -0.7282
 3648TIP3    H210951   2.337   1.568   0.749  0.7388  0.9125  1.7522
 3649TIP3   OH210952   4.918   1.457   1.893 -0.4165  0.3047 -0.3275
 3649TIP3    H110953   5.008   1.485   1.874  0.8539 -2.1318  1.4445
 3649TIP3    H210954   4.872   1.467   1.809  1.6251  1.1548 -1.4391
 3650TIP3   OH210955   2.795   1.385   1.018  0.6874 -0.3027  0.1767
 3650TIP3    H110956   2.703   1.362   1.007  1.0510 -1.8600  0.0823
 3650TIP3    H210957   2.796   1.481   1.022 -0.9299 -0.2589  0.2450
 3651TIP3   OH210958   0.852   3.006   4.559  0.2526  0.3548  0.0917
 3651TIP3    H110959   0.792   2.957   4.504  1.8978 -0.5164 -1.0236
 3651TIP3    H210960   0.927   3.025   4.502  1.1175  1.2281  1.4572
 3652TIP3   OH210961   3.466   5.219   4.312 -0.1427 -0.4190  0.4229
 3652TIP3    H110962   3.553   5.202   4.347  0.5088  2.1835  0.2122
 3652TIP3    H210963   3.480   5.276   4.237 -1.9496 -1.1845 -0.5551
 3653TIP3   OH210964   0.415   5.447   1.446  0.0505  0.2540 -0.1401
 3653TIP3    H110965   0.333   5.491   1.467  0.6795  0.6785  1.5913
 3653TIP3    H210966   0.388   5.359   1.418 -0.9871  0.3062  0.6219
 3654TIP3   OH210967   0.477   5.933   2.113  0.0756 -0.0740 -0.6724
 3654TIP3    H110968   0.468   5.869   2.043  0.5633  0.1352 -0.9400
 3654TIP3    H210969   0.407   5.913   2.174  0.0875 -0.7182 -0.8637
 3655TIP3   OH210970   1.625   1.535   2.957 -0.0972 -0.1988 -0.3161
 3655TIP3    H110971   1.645   1.444   2.936 -1.0405 -0.5199  0.1615
 3655TIP3    H210972   1.544   1.554   2.910  0.3814  0.5709 -0.8549
 3656TIP3   OH210973   3.663   1.294   2.524 -0.6977 -0.1133 -0.6901
 3656TIP3    H110974   3.720   1.237   2.473  0.5795 -1.8612  2.4515
 3656TIP3    H210975   3.723   1.356   2.567 -0.8599 -2.2643  3.0227
 3657TIP3   OH210976   0.118   2.805   3.580 -0.2859  0.0091 -0.3895
 3657TIP3    H110977   0.163   2.816   3.663 -2.2068 -0.9896  0.8595
 3657TIP3    H210978   0.170   2.739   3.533  0.6183  0.3183  0.1573
 3658TIP3   OH210979   4.196   4.193   4.375  0.5068 -0.1584 -0.3862
 3658TIP3    H110980   4.176   4.129   4.307 -0.3890 -1.5839  1.1382
 3658TIP3    H210981   4.204   4.141   4.455  0.6730  1.5485  0.7570
 3659TIP3   OH210982   0.527   5.607   2.097  0.0606  0.2692 -0.5267
 3659TIP3    H110983   0.438   5.598   2.062 -0.7585 -0.2116  1.4773
 3659TIP3    H210984   0.515   5.601   2.192  2.3417 -0.5928 -0.2332
 3660TIP3   OH210985   0.272   0.468   2.805  1.0367 -0.6079  0.1822
 3660TIP3    H110986   0.190   0.466   2.754  1.3223 -0.3935 -0.2900
 3660TIP3    H210987   0.332   0.519   2.751  1.2386 -0.0674  0.8977
 3661TIP3   OH210988   3.544   4.822   2.439  0.0790 -0.1339 -0.3699
 3661TIP3    H110989   3.548   4.780   2.525  1.6509  0.1313 -0.2867
 3661TIP3    H210990   3.476   4.774   2.392 -0.6445 -0.4319  0.9320
 3662TIP3   OH210991   1.346   0.589   0.170 -0.0206  0.1943 -0.2099
 3662TIP3    H110992   1.441   0.580   0.177  0.0535  0.1870 -1.1702
 3662TIP3    H210993   1.318   0.618   0.257  0.6164 -1.7441  0.7018
 3663TIP3   OH210994   1.391   5.229   2.768 -0.3997  0.2037 -0.2811
 3663TIP3    H110995   1.363   5.288   2.838 -0.6538  0.3666 -0.5154
 3663TIP3    H210996   1.316   5.171   2.754 -0.5033  0.4327 -0.6915
 3664TIP3   OH210997   4.303   2.303   4.179 -0.3374  0.4910  0.2218
 3664TIP3    H110998   4.276   2.250   4.104  0.9474  0.1568 -0.0127
 3664TIP3    H210999   4.391   2.273   4.201 -1.7757 -1.6805  3.9093
 3665TIP3   OH211000   4.856   1.470   0.181 -0.0120 -0.6372  0.5924
 3665TIP3    H111001   4.793   1.430   0.121  0.3146  1.2907 -1.1662
 3665TIP3    H211002   4.804   1.533   0.231  0.0231 -1.0883  1.2081
 3666TIP3   OH211003   5.037   3.472   1.993  0.4205  0.3041  0.2445
 3666TIP3    H111004   4.962   3.425   1.957 -0.9619  2.2987  0.3200
 3666TIP3    H211005   5.010   3.493   2.082  1.7676 -0.3171  0.8204
 3667TIP3   OH211006   1.185   1.605   0.457  0.2954  0.3573 -0.3981
 3667TIP3    H111007   1.196   1.598   0.362  0.9916  2.4730 -0.5179
 3667TIP3    H211008   1.274   1.608   0.492  0.0788  1.6207  0.1144
 3668TIP3   OH211009   0.079   2.022   4.553 -0.2258  0.6871  0.1060
 3668TIP3    H111010   0.171   2.005   4.533 -0.4263 -0.5037  0.1271
 3668TIP3    H211011   0.081   2.098   4.611  0.8792 -0.2410  1.3591
 3669TIP3   OH211012   2.424   1.571   4.583  0.6174 -0.4440  0.1980
 3669TIP3    H111013   2.491   1.634   4.559  0.6902 -0.6042 -0.0205
 3669TIP3    H211014   2.353   1.586   4.520  1.7288 -2.4251 -1.6772
 3670TIP3   OH211015   3.097   0.448   1.767  0.1524  0.3631  0.2365
 3670TIP3    H111016   3.052   0.380   1.718  0.9111 -0.2128  0.3095
 3670TIP3    H211017   3.163   0.481   1.706 -0.4298  1.2772  0.0885
 3671TIP3   OH211018   3.482   5.553   4.416  0.3133  0.0757  0.1704
 3671TIP3    H111019   3.449   5.641   4.426  1.5621  0.5596  0.2450
 3671TIP3    H211020   3.418   5.509   4.361 -0.2293  1.0801 -0.0144
 3672TIP3   OH211021   6.174   2.119   4.040  0.7374  0.2113  0.2469
 3672TIP3    H111022   6.113   2.053   4.070 -0.8428  0.1574 -2.7295
 3672TIP3    H211023   6.241   2.071   3.992  1.6244  0.5120  1.1417
 3673TIP3   OH211024   4.617   5.872   2.784  0.6833 -0.9287 -0.6063
 3673TIP3    H111025   4.611   5.826   2.868 -0.4256 -0.2981 -0.3300
 3673TIP3    H211026   4.540   5.844   2.735  0.9402 -0.7321 -1.1360
 3674TIP3   OH211027   1.379   5.376   0.207 -0.9206  0.5950  0.5387
 3674TIP3    H111028   1.315   5.442   0.234  1.5000  2.7197  1.5294
 3674TIP3    H211029   1.431   5.419   0.140 -0.6080 -1.1279 -0.3703
 3675TIP3   OH211030   0.413   4.557   2.746  0.1585  0.0178  0.3055
 3675TIP3    H111031   0.429   4.537   2.654 -2.2781  0.7576 -0.3747
 3675TIP3    H211032   0.334   4.507   2.767 -0.5304  1.4774  1.3343
 3676TIP3   OH211033   5.673   1.459   2.783 -0.3320  0.4054  0.4383
 3676TIP3    H111034   5.607   1.493   2.843 -0.3369  1.9267 -0.3687
 3676TIP3    H211035   5.648   1.494   2.697  1.2006  0.5657  0.0273
 3677TIP3   OH211036   4.259   2.673   1.951 -0.4225 -0.1108 -0.4920
 3677TIP3    H111037   4.300   2.639   2.030 -0.7083 -0.0846 -0.3289
 3677TIP3    H211038   4.306   2.632   1.878  0.2828  0.3799 -0.3174
 3678TIP3   OH211039   5.374   0.976   5.049 -0.1575  0.4302 -0.0297
 3678TIP3    H111040   5.443   1.041   5.039  0.5504 -0.4548 -1.2395
 3678TIP3    H211041   5.411   0.912   5.110 -0.6119  0.8345  0.6818
 3679TIP3   OH211042   0.156   0.606   4.979 -0.7440  0.4736  0.3766
 3679TIP3    H111043   0.232   0.660   4.962 -0.9695  1.1245  1.3366
 3679TIP3    H211044   0.190   0.531   5.028 -0.5307  0.0770 -0.3705
 3680TIP3   OH211045   0.435   5.327   4.091  1.0999  1.0144 -0.0475
 3680TIP3    H111046   0.395   5.412   4.070  0.3603  0.1815 -2.3227
 3680TIP3    H211047   0.505   5.317   4.026 -1.1756 -1.6310 -2.4141
 3681TIP3   OH211048   3.123   4.928   4.196  0.2435 -0.0610 -0.2519
 3681TIP3    H111049   3.172   4.901   4.119 -0.4016 -0.6325 -0.4699
 3681TIP3    H211050   3.042   4.965   4.162 -0.0012 -0.2162  0.1534
 3682TIP3   OH211051   0.722   5.595   4.143  0.3569 -0.0727  0.6526
 3682TIP3    H111052   0.753   5.654   4.211 -1.2720  0.9639  0.5370
 3682TIP3    H211053   0.679   5.652   4.080 -1.8208 -1.4258  0.8394
 3683TIP3   OH211054   3.040   1.796   2.395  0.7941  0.3504  1.0363
 3683TIP3    H111055   2.946   1.788   2.411  0.7841 -0.0790  0.8032
 3683TIP3    H211056   3.063   1.883   2.426 -0.0607  1.2585 -0.7136
 3684TIP3   OH211057   3.668   0.654   0.012 -0.5368 -0.2714  0.3166
 3684TIP3    H111058   3.745   0.620   0.059  0.2159  0.0574 -0.6483
 3684TIP3    H211059   3.664   0.602  -0.068 -1.4182 -0.3790  0.4221
 3685TIP3   OH211060   2.573   3.038   1.244 -0.3339 -0.0691 -0.2107
 3685TIP3    H111061   2.558   2.949   1.276 -0.6295 -0.0953 -0.4134
 3685TIP3    H211062   2.578   3.091   1.323 -1.1426 -0.1205 -0.1203
 3686TIP3   OH211063   0.463   0.329   0.690  0.0029  0.9397  0.2115
 3686TIP3    H111064   0.468   0.419   0.722  2.2861  0.4888  1.3601
 3686TIP3    H211065   0.492   0.276   0.765 -0.9756 -0.7405 -0.5439
 3687TIP3   OH211066   2.905   0.983   4.794  0.3567  0.1197  0.0474
 3687TIP3    H111067   2.942   1.004   4.880 -0.3105  0.7179  0.1937
 3687TIP3    H211068   2.864   1.064   4.764 -0.0959 -0.2945 -0.4871
 3688TIP3   OH211069   0.544   1.549   1.157 -0.1867  0.4344  0.0611
 3688TIP3    H111070   0.574   1.545   1.248 -0.6789 -0.1628  0.2068
 3688TIP3    H211071   0.537   1.642   1.137  0.0678  0.5682  0.5843
 3689TIP3   OH211072   4.812   0.038   4.654  0.1664 -0.4749 -0.2978
 3689TIP3    H111073   4.772   0.118   4.622  0.5834 -1.5336 -3.8468
 3689TIP3    H211074   4.739  -0.014   4.689 -0.0944  1.3407  2.1157
 3690TIP3   OH211075   0.364   0.045   3.411 -0.3700  0.0185  0.5137
 3690TIP3    H111076   0.269   0.032   3.422 -0.5324 -1.4972 -1.8017
 3690TIP3    H211077   0.370   0.120   3.351 -0.2451 -0.9052 -0.6819
 3691TIP3   OH211078   0.679   3.371   4.962 -0.1126 -0.0315 -0.3873
 3691TIP3    H111079   0.610   3.437   4.965 -2.1722 -2.0086 -1.4367
 3691TIP3    H211080   0.669   3.330   4.876  1.1435 -1.6875  0.2002
 3692TIP3   OH211081   4.641   0.489   1.812  0.1507  0.4454  0.1946
 3692TIP3    H111082   4.559   0.443   1.792  0.0128  1.2346 -1.2030
 3692TIP3    H211083   4.693   0.426   1.861 -1.2618 -0.0926  1.0573
 3693TIP3   OH211084   2.490   1.775   1.106  0.2728 -0.4718 -0.3575
 3693TIP3    H111085   2.449   1.718   1.171  0.4562  0.1906  0.3524
 3693TIP3    H211086   2.465   1.864   1.132  2.4229 -0.0182  0.3151
 3694TIP3   OH211087   0.288   5.252   0.101  0.0220  0.4521  0.3333
 3694TIP3    H111088   0.255   5.311   0.034 -1.2152 -1.6384 -1.0207
 3694TIP3    H211089   0.383   5.262   0.098  0.0677 -0.1244 -2.2969
 3695TIP3   OH211090   5.253   1.506   4.800 -0.1659 -0.1014 -0.0381
 3695TIP3    H111091   5.335   1.474   4.761 -0.1858  0.6845 -0.7442
 3695TIP3    H211092   5.185   1.477   4.740 -0.3476 -0.2007  0.2141
 3696TIP3   OH211093   0.324   5.811   3.793 -0.0236  0.0586  0.5993
 3696TIP3    H111094   0.305   5.902   3.774 -3.0048 -0.3023  1.3759
 3696TIP3    H211095   0.296   5.799   3.884 -0.2963 -1.7689  0.3109
 3697TIP3   OH211096   2.225   2.125   2.829 -0.0505  0.2287 -0.7382
 3697TIP3    H111097   2.187   2.051   2.875  0.8012  1.2521  1.7443
 3697TIP3    H211098   2.266   2.086   2.751 -0.6243 -1.7122 -0.1271
 3698TIP3   OH211099   4.175   4.148   3.457 -0.2668 -0.3107 -0.7667
 3698TIP3    H111100   4.175   4.110   3.369  0.5039 -0.8478 -0.5386
 3698TIP3    H211101   4.146   4.077   3.514  0.3636 -0.3105 -0.4401
 3699TIP3   OH211102   4.103   2.792   5.009  0.0687  0.6525  0.5756
 3699TIP3    H111103   4.104   2.738   5.089  0.8607  0.7048  0.6094
 3699TIP3    H211104   4.054   2.740   4.946  0.3757  0.1183  0.7688
 3700TIP3   OH211105   5.092   2.535   1.163 -0.1551  0.0396  0.2054
 3700TIP3    H111106   5.018   2.558   1.107 -0.3394  1.0031  0.8324
 3700TIP3    H211107   5.076   2.582   1.245 -0.2998 -1.9470  1.3820
 3701TIP3   OH211108   5.155   1.348   3.807 -0.1006  0.2613 -0.3208
 3701TIP3    H111109   5.148   1.434   3.766 -2.2539 -0.3880 -1.4898
 3701TIP3    H211110   5.087   1.296   3.764  0.0351 -1.5491  1.5264
 3702TIP3   OH211111   3.349   3.113   0.559 -0.4340  0.1942 -0.1357
 3702TIP3    H111112   3.353   3.017   0.555  1.5158  0.1681  1.1940
 3702TIP3    H211113   3.420   3.142   0.502  0.3847  0.7471  1.1142
 3703TIP3   OH211114   5.829   3.576   4.833 -0.1737  0.3554 -0.1307
 3703TIP3    H111115   5.878   3.494   4.823 -2.3426 -1.1027  0.5260
 3703TIP3    H211116   5.757   3.569   4.771  0.1282  2.2555 -0.7694
 3704TIP3   OH211117   2.810   1.617   1.600 -0.5626  0.0027  0.3127
 3704TIP3    H111118   2.743   1.610   1.668  0.5142  1.4355  1.5826
 3704TIP3    H211119   2.892   1.595   1.644  0.1898  1.2072 -0.4235
 3705TIP3   OH211120   3.904   5.119   0.397 -0.4127  0.1354 -0.6033
 3705TIP3    H111121   3.830   5.075   0.354  0.6712 -0.2160 -2.2139
 3705TIP3    H211122   3.868   5.151   0.479 -2.5235  0.4807 -1.5825
 3706TIP3   OH211123   1.613   1.563   3.922 -0.0383  0.3392  0.4433
 3706TIP3    H111124   1.669   1.576   3.845  1.1153 -1.2501  0.9559
 3706TIP3    H211125   1.527   1.596   3.895  0.3086 -0.2568 -1.5716
 3707TIP3   OH211126   2.824   0.866   2.499 -0.1109 -0.1443  0.1556
 3707TIP3    H111127   2.773   0.861   2.418  0.7090  0.9365 -0.4619
 3707TIP3    H211128   2.898   0.807   2.484 -0.5618 -0.8212  0.5818
 3708TIP3   OH211129   3.625   4.646   3.954  0.1733  0.3136 -0.2501
 3708TIP3    H111130   3.718   4.668   3.944  0.7198 -1.8242 -0.3611
 3708TIP3    H211131   3.585   4.672   3.871  0.8531  0.3704 -0.5718
 3709TIP3   OH211132   4.660   4.212   4.993 -0.0790  0.0121  0.2869
 3709TIP3    H111133   4.574   4.206   5.035 -0.4396  1.8818 -0.1056
 3709TIP3    H211134   4.718   4.162   5.051 -1.1483 -0.0784  1.3303
 3710TIP3   OH211135   1.907   1.714   1.419  0.5726  0.2557 -0.8281
 3710TIP3    H111136   1.904   1.723   1.514 -1.2271 -0.0218 -0.8247
 3710TIP3    H211137   1.870   1.796   1.385  1.0860  0.3027 -1.2814
 3711TIP3   OH211138   3.193   0.600   3.577 -0.2861 -0.0508  0.6429
 3711TIP3    H111139   3.166   0.530   3.518  0.5517 -0.5133  0.7836
 3711TIP3    H211140   3.216   0.673   3.520 -1.3206  0.1774  0.5008
 3712TIP3   OH211141   4.317   5.606   3.113  0.3552  0.3617  0.0400
 3712TIP3    H111142   4.299   5.613   3.207  2.3120  1.7306  0.3870
 3712TIP3    H211143   4.313   5.696   3.081  1.8940  0.2161 -0.6944
 3713TIP3   OH211144   0.296   5.576   0.937 -0.2030 -0.0346 -0.4042
 3713TIP3    H111145   0.347   5.652   0.908  2.9430 -0.7072  2.6593
 3713TIP3    H211146   0.343   5.544   1.014 -2.4889 -3.9615 -0.3841
 3714TIP3   OH211147   3.437   2.788   0.418 -0.1018 -0.2239 -0.4601
 3714TIP3    H111148   3.453   2.709   0.367  0.1113 -2.6492  3.0445
 3714TIP3    H211149   3.341   2.794   0.424 -0.1748  0.7874 -2.0148
 3715TIP3   OH211150   1.682   4.703   4.390  0.1139 -0.3082 -0.0711
 3715TIP3    H111151   1.612   4.645   4.361 -1.0821  1.5514 -1.1383
 3715TIP3    H211152   1.723   4.733   4.309  0.1167  1.0079  0.3951
 3716TIP3   OH211153   2.565   4.612   1.446 -0.1210 -0.0118  0.0715
 3716TIP3    H111154   2.579   4.567   1.530  1.5257  0.0443 -0.1380
 3716TIP3    H211155   2.646   4.660   1.431 -1.3542  2.0629 -0.3332
 3717TIP3   OH211156   4.034   4.267   4.680  0.5896  0.3047  0.6335
 3717TIP3    H111157   4.105   4.202   4.680  0.4303  0.1276  0.9125
 3717TIP3    H211158   3.954   4.215   4.691  0.4852  0.5740  1.1861
 3718TIP3   OH211159   3.630   1.672   4.372 -0.3696  0.0718 -0.7964
 3718TIP3    H111160   3.605   1.619   4.296  1.4222 -0.6260 -0.9657
 3718TIP3    H211161   3.719   1.643   4.392  0.1694  2.0832 -0.0521
 3719TIP3   OH211162   3.312   4.851   4.020  0.1684  0.2819 -0.0477
 3719TIP3    H111163   3.329   4.767   3.977  0.6299 -0.0140  0.6806
 3719TIP3    H211164   3.363   4.846   4.102 -0.4122  0.9581  0.3626
 3720TIP3   OH211165   1.173   2.342   1.857  0.3592 -0.2383  0.0693
 3720TIP3    H111166   1.185   2.258   1.813 -1.4979 -0.3223 -0.3372
 3720TIP3    H211167   1.192   2.323   1.949 -0.8488 -1.3291  0.1207
 3721TIP3   OH211168   4.075   4.062   1.869 -0.3135  0.8726 -0.5291
 3721TIP3    H111169   4.119   4.012   1.937  1.0562  1.4765 -0.9492
 3721TIP3    H211170   4.098   4.153   1.887 -3.0225  1.4824  0.4181
 3722TIP3   OH211171   4.623   1.235   0.314 -0.1734 -0.1218 -0.8666
 3722TIP3    H111172   4.613   1.263   0.405 -0.1217 -0.3119 -0.8016
 3722TIP3    H211173   4.709   1.193   0.311  0.2843  0.8249 -1.2481
 3723TIP3   OH211174   1.327   0.303   0.198 -0.2808 -0.2258  0.2335
 3723TIP3    H111175   1.242   0.287   0.238  0.8087 -0.3664  2.6709
 3723TIP3    H211176   1.323   0.393   0.167 -1.7434 -0.6571 -0.9527
 3724TIP3   OH211177   3.461   5.364   1.394 -0.2488  0.0857  0.1539
 3724TIP3    H111178   3.502   5.332   1.474 -1.4795 -0.8005  0.4606
 3724TIP3    H211179   3.400   5.294   1.368 -0.2192  0.5538 -1.2990
 3725TIP3   OH211180   0.774   2.967   1.695  0.2793  0.3845 -0.4068
 3725TIP3    H111181   0.762   3.032   1.764 -0.3736 -0.6822  0.5211
 3725TIP3    H211182   0.868   2.945   1.699  0.2873  0.4775  0.0065
 3726TIP3   OH211183   2.652   3.706   1.586  0.9902  0.0821  0.1056
 3726TIP3    H111184   2.566   3.748   1.594  0.4763 -0.2608 -2.6621
 3726TIP3    H211185   2.714   3.778   1.591  0.3177  0.7738 -1.0499
 3727TIP3   OH211186   3.884   0.671   4.306  0.4263 -0.3087  0.3367
 3727TIP3    H111187   3.855   0.757   4.277  0.0048 -0.3133  0.7410
 3727TIP3    H211188   3.882   0.617   4.226  0.9667  0.1238  0.0264
 3728TIP3   OH211189   2.940   3.176  -0.006 -0.3363  0.0071 -0.5479
 3728TIP3    H111190   3.035   3.178  -0.017 -0.2990  0.8356 -0.1504
 3728TIP3    H211191   2.922   3.088   0.026  0.7762  0.9761  3.2796
 3729TIP3   OH211192   4.670   0.552   0.047  0.2824  0.0315 -0.1639
 3729TIP3    H111193   4.672   0.590  -0.041 -1.0227 -1.7926 -1.0587
 3729TIP3    H211194   4.628   0.466   0.035 -3.9603  1.3458  2.8604
 3730TIP3   OH211195   3.784   0.110   4.188 -0.2645  0.1880  0.1444
 3730TIP3    H111196   3.811   0.124   4.097 -1.4386 -1.8408 -0.5945
 3730TIP3    H211197   3.690   0.126   4.188 -0.2196  0.5376  1.1160
 3731TIP3   OH211198   1.707   5.454   0.214 -0.1614  0.0308 -0.4053
 3731TIP3    H111199   1.650   5.478   0.141 -0.3055  0.5769 -0.1167
 3731TIP3    H211200   1.795   5.474   0.183 -0.3165  1.4822  0.0265
 3732TIP3   OH211201   6.096   5.033   3.178  0.3407 -1.0386 -0.2981
 3732TIP3    H111202   6.146   4.999   3.103 -0.4360 -1.4093 -0.6624
 3732TIP3    H211203   6.136   5.117   3.197  1.8892 -1.8358  0.1860
 3733TIP3   OH211204   0.905   3.347   1.659 -0.2687  0.4104  0.4300
 3733TIP3    H111205   0.815   3.322   1.639 -0.2989  1.6239 -1.1383
 3733TIP3    H211206   0.950   3.264   1.673 -1.3664 -0.2737  0.0438
 3734TIP3   OH211207   2.783   2.574   0.836 -1.0168 -0.5159 -0.5305
 3734TIP3    H111208   2.783   2.549   0.743 -2.1865  1.2651 -1.0767
 3734TIP3    H211209   2.726   2.651   0.839 -0.2475  0.0269  1.5342
 3735TIP3   OH211210   1.666   0.397   1.899 -0.4117 -0.0785 -0.0498
 3735TIP3    H111211   1.703   0.480   1.929 -0.1795  0.4023 -1.5586
 3735TIP3    H211212   1.732   0.361   1.839 -1.2404 -0.5088 -0.7375
 3736TIP3   OH211213   0.719   3.885   0.911  0.0441  0.3092  0.2068
 3736TIP3    H111214   0.645   3.837   0.948  0.1464  0.3042  0.4016
 3736TIP3    H211215   0.681   3.931   0.836 -0.0265 -0.1763 -0.0635
 3737TIP3   OH211216   6.143   5.142   2.050 -0.5725  0.3862 -0.0813
 3737TIP3    H111217   6.193   5.171   1.974 -1.1540 -1.8525 -1.4178
 3737TIP3    H211218   6.054   5.174   2.033 -0.8793 -0.7814 -0.7963
 3738TIP3   OH211219   0.238   3.850   1.889 -0.2641 -0.2884 -0.0476
 3738TIP3    H111220   0.221   3.757   1.894 -0.6212 -0.2275 -0.1245
 3738TIP3    H211221   0.176   3.883   1.824 -0.8291  0.1673  0.6971
 3739TIP3   OH211222   5.012   4.516   3.827 -0.2834 -0.6147  0.1037
 3739TIP3    H111223   4.960   4.511   3.907  0.7410 -0.0959  0.8100
 3739TIP3    H211224   5.030   4.424   3.805 -2.8731 -0.9340 -1.1082
 3740TIP3   OH211225   2.499   5.734   1.350 -0.4788 -0.1511 -0.0285
 3740TIP3    H111226   2.539   5.658   1.308 -0.1742  0.5804 -1.1077
 3740TIP3    H211227   2.570   5.797   1.359 -0.9374  0.3758 -0.0445
 3741TIP3   OH211228   1.635   2.018   0.573  0.0377 -0.5114  0.1236
 3741TIP3    H111229   1.543   2.002   0.554  0.1376 -0.3395 -0.4969
 3741TIP3    H211230   1.642   2.006   0.668 -0.5007 -1.1220  0.0912
 3742TIP3   OH211231   1.617   4.516   2.666 -0.0527  0.2677 -0.3351
 3742TIP3    H111232   1.650   4.593   2.620  0.0316  0.5350  0.1697
 3742TIP3    H211233   1.603   4.546   2.756 -0.1221 -0.2778 -0.1621
 3743TIP3   OH211234   1.087   3.174   2.417 -0.2461  0.2091  0.1140
 3743TIP3    H111235   1.151   3.222   2.470  0.2642 -2.0811  1.7235
 3743TIP3    H211236   1.014   3.156   2.478  0.1247 -2.0337 -0.0214
 3744TIP3   OH211237   2.932   0.289   1.599 -0.2028 -0.2095 -0.1266
 3744TIP3    H111238   2.906   0.364   1.544 -2.9741  0.3954  1.8157
 3744TIP3    H211239   2.868   0.288   1.670  2.5408 -1.6151  2.5359
 3745TIP3   OH211240   2.717   1.101   3.477 -0.3758  0.1938  0.1039
 3745TIP3    H111241   2.648   1.166   3.468  0.0214  0.6533  0.3842
 3745TIP3    H211242   2.712   1.072   3.568 -3.5354 -3.5158 -0.9592
 3746TIP3   OH211243   4.788   5.901   1.847 -0.1381 -0.2708 -0.0788
 3746TIP3    H111244   4.761   5.868   1.933  0.4637 -1.8613 -0.4513
 3746TIP3    H211245   4.879   5.873   1.838  0.5835  1.9813 -0.2628
 3747TIP3   OH211246   6.309   2.041   5.097  0.7523 -0.0987 -0.4335
 3747TIP3    H111247   6.334   1.950   5.081 -0.1810 -0.4357 -0.0895
 3747TIP3    H211248   6.230   2.053   5.044  0.8910  0.5178 -0.4994
 3748TIP3   OH211249   3.589   3.049   4.802  1.0117 -0.1390 -0.2500
 3748TIP3    H111250   3.638   2.993   4.742  0.6834  0.3437 -0.9794
 3748TIP3    H211251   3.562   3.124   4.749  1.3140  0.6370  0.6752
 3749TIP3   OH211252   3.510   2.691   4.672  0.3267 -0.0737 -0.4769
 3749TIP3    H111253   3.446   2.678   4.602  0.2939  0.1200 -0.4834
 3749TIP3    H211254   3.493   2.620   4.734 -0.6534  0.6365  0.0865
 3750TIP3   OH211255   0.775   4.349   2.843  0.4340  0.2614  0.1442
 3750TIP3    H111256   0.698   4.364   2.897  1.0209  1.6336  0.6435
 3750TIP3    H211257   0.846   4.332   2.906  0.7390 -0.0669 -0.2757
 3751TIP3   OH211258   5.297   1.892   3.808 -0.0876  0.1348  0.5193
 3751TIP3    H111259   5.356   1.967   3.813 -0.2966  0.4028 -0.6287
 3751TIP3    H211260   5.270   1.889   3.716 -0.2818 -1.1947  0.5907
 3752TIP3   OH211261   2.222   4.736   2.805 -0.9189  0.0640 -0.2578
 3752TIP3    H111262   2.236   4.677   2.731  0.6857  0.2123 -0.0976
 3752TIP3    H211263   2.238   4.681   2.883 -1.7031  0.1431 -0.0272
 3753TIP3   OH211264   6.004   0.893   1.950 -0.1716  0.0770 -0.5200
 3753TIP3    H111265   6.093   0.865   1.968 -0.0778  0.2355 -0.7333
 3753TIP3    H211266   6.008   0.933   1.863 -0.2987  0.7699 -0.2198
 3754TIP3   OH211267   1.122   3.769   0.435 -0.5887  0.2922  0.1311
 3754TIP3    H111268   1.161   3.717   0.365 -0.9124  3.4369 -2.6208
 3754TIP3    H211269   1.031   3.739   0.440 -0.9393  0.9167 -1.8178
 3755TIP3   OH211270   4.858   3.873   3.656 -0.1804 -0.0169  0.5056
 3755TIP3    H111271   4.898   3.838   3.577  1.6394 -0.1848  1.4626
 3755TIP3    H211272   4.771   3.833   3.658  0.4366 -1.4664 -0.4262
 3756TIP3   OH211273   3.919   5.165   4.194  0.4173  0.1509 -0.2370
 3756TIP3    H111274   3.968   5.085   4.175 -0.4238 -0.0362 -1.7674
 3756TIP3    H211275   3.934   5.221   4.117 -2.7343 -0.4270 -1.4519
 3757TIP3   OH211276   5.366   4.037   2.057  0.7717  0.2999  0.5443
 3757TIP3    H111277   5.427   3.988   2.002  0.1735  0.6039 -0.4107
 3757TIP3    H211278   5.362   4.123   2.017  0.9608  0.8010  1.5634
 3758TIP3   OH211279   2.210   5.468   3.638 -0.0649 -0.4031  0.0613
 3758TIP3    H111280   2.299   5.471   3.602  0.7970 -1.7713  1.9173
 3758TIP3    H211281   2.183   5.377   3.627 -1.5830  0.1463 -1.1510
 3759TIP3   OH211282   2.346   1.673   2.818  0.4292  0.2363 -0.2428
 3759TIP3    H111283   2.298   1.606   2.867  0.3647  0.4024 -0.0770
 3759TIP3    H211284   2.347   1.640   2.728 -0.1551  0.3170 -0.2805
 3760TIP3   OH211285   2.072   0.711   3.964 -0.5901 -0.2044  0.4192
 3760TIP3    H111286   2.098   0.747   3.879  0.1210 -2.2731 -0.2802
 3760TIP3    H211287   2.032   0.786   4.010  3.3000  2.2990  0.1847
 3761TIP3   OH211288   0.867   3.017   3.234  0.3938 -0.3553  1.1393
 3761TIP3    H111289   0.944   3.000   3.179  0.9415  0.5050  1.6203
 3761TIP3    H211290   0.894   3.087   3.293 -1.3209  1.2392  0.1434
 3762TIP3   OH211291   0.439   5.334   2.765  0.3413 -0.1075 -0.4297
 3762TIP3    H111292   0.451   5.239   2.755  0.0260 -0.3276  1.1150
 3762TIP3    H211293   0.478   5.355   2.849 -1.6342  0.7324  0.3314
 3763TIP3   OH211294   5.365   3.184   2.562 -0.0114  0.9680 -0.3994
 3763TIP3    H111295   5.272   3.196   2.583  0.1858 -0.1545  1.2945
 3763TIP3    H211296   5.406   3.162   2.646  1.6384  0.5237 -1.2819
 3764TIP3   OH211297   1.401   0.892   1.456 -0.2492  0.1934 -0.4974
 3764TIP3    H111298   1.438   0.847   1.532  1.4384 -1.2082 -2.0689
 3764TIP3    H211299   1.379   0.980   1.489 -0.5541 -0.6881  1.8275
 3765TIP3   OH211300   3.742   3.604   1.695  0.2793 -0.2027  0.0330
 3765TIP3    H111301   3.659   3.585   1.651 -0.1085 -0.7995  0.9999
 3765TIP3    H211302   3.808   3.564   1.639 -0.2972 -1.9345  0.5265
 3766TIP3   OH211303   5.200   1.761   0.065 -0.4626 -0.0011 -0.1060
 3766TIP3    H111304   5.250   1.694   0.019 -1.3382 -1.6431  1.2212
 3766TIP3    H211305   5.257   1.788   0.137  0.3987  1.6645 -1.3340
 3767TIP3   OH211306   5.796   3.755   0.595  0.1342  0.1512  0.0793
 3767TIP3    H111307   5.833   3.667   0.590 -0.5586 -0.2013  0.9807
 3767TIP3    H211308   5.873   3.812   0.601  0.5686 -0.4763  0.6282
 3768TIP3   OH211309   0.597   4.365   1.201 -0.4044  0.2203  0.4099
 3768TIP3    H111310   0.644   4.415   1.135  1.8452 -0.7467  1.2014
 3768TIP3    H211311   0.636   4.390   1.284 -0.4529 -1.4839  0.9857
 3769TIP3   OH211312   5.703   4.020   3.821 -0.7824 -0.0259  0.9328
 3769TIP3    H111313   5.687   3.944   3.765  1.9067 -2.0803  2.6805
 3769TIP3    H211314   5.735   4.087   3.760  2.0661 -2.1671 -0.1831
 3770TIP3   OH211315   5.546   1.039   3.731  0.5653  0.2075 -0.1691
 3770TIP3    H111316   5.524   0.974   3.665  1.6809  0.5279 -0.8913
 3770TIP3    H211317   5.471   1.098   3.732 -0.1367 -0.6789 -0.0276
 3771TIP3   OH211318   2.903   3.799   1.319 -0.1740  0.5156 -0.0081
 3771TIP3    H111319   2.997   3.815   1.332 -0.3444  0.3065  1.8139
 3771TIP3    H211320   2.863   3.830   1.400 -1.3411 -2.0863  0.4919
 3772TIP3   OH211321   2.029   5.905   2.316  0.6082 -0.0822  0.2114
 3772TIP3    H111322   1.971   5.830   2.326  0.4408  0.0715  0.4155
 3772TIP3    H211323   2.013   5.936   2.226  1.2911 -0.7898 -0.1649
 3773TIP3   OH211324   0.531   3.893   1.381  0.0612 -0.5485 -0.2551
 3773TIP3    H111325   0.502   3.955   1.448  0.0024 -0.3312 -0.4809
 3773TIP3    H211326   0.530   3.808   1.425  0.6218 -0.3239  0.2059
 3774TIP3   OH211327   6.071   2.709   0.948  0.1795 -0.2332 -0.1096
 3774TIP3    H111328   6.059   2.794   0.906 -1.2224 -0.4699 -0.2226
 3774TIP3    H211329   6.065   2.645   0.876  0.6592 -0.4727  0.0549
 3775TIP3   OH211330   2.081   0.356   1.441 -0.3329  0.2785  0.3700
 3775TIP3    H111331   2.077   0.303   1.361  1.3305 -0.5426  0.7881
 3775TIP3    H211332   2.111   0.442   1.412 -0.3801  0.1822  0.0313
 3776TIP3   OH211333   2.807   0.859   2.804  0.5080 -0.0720  0.6028
 3776TIP3    H111334   2.902   0.850   2.805  0.5089 -0.0136  1.4956
 3776TIP3    H211335   2.779   0.810   2.727  1.3536  0.9146 -0.3558
 3777TIP3   OH211336   3.500   2.007   1.629  0.0789 -0.4854 -0.1946
 3777TIP3    H111337   3.490   1.982   1.721  0.3891 -0.8390 -0.2577
 3777TIP3    H211338   3.575   1.956   1.598 -1.5526 -2.3253 -1.3345
 3778TIP3   OH211339   1.865   3.833   2.910 -0.3037 -0.2150 -0.2030
 3778TIP3    H111340   1.878   3.741   2.889  0.1232 -1.0074  3.0384
 3778TIP3    H211341   1.774   3.850   2.885 -0.4584 -1.5706 -0.6476
 3779TIP3   OH211342   3.297   1.256   0.787 -0.3809 -0.0188  0.3074
 3779TIP3    H111343   3.267   1.227   0.701  0.5157 -0.8086  0.2411
 3779TIP3    H211344   3.243   1.332   0.808  0.5399  1.2923 -1.7569
 3780TIP3   OH211345   5.587   4.498   1.236  0.0533 -0.6298 -0.2408
 3780TIP3    H111346   5.642   4.422   1.218 -0.6048 -0.8085 -1.6195
 3780TIP3    H211347   5.519   4.465   1.294 -0.0094 -1.0073 -0.5238
 3781TIP3   OH211348   6.286   5.684   4.820 -0.0683  0.0343  0.7130
 3781TIP3    H111349   6.255   5.773   4.804 -0.4115 -0.0405  0.9361
 3781TIP3    H211350   6.379   5.694   4.839  0.1438  0.2219 -0.3647
 3782TIP3   OH211351   3.836   4.734   2.656 -0.1781  0.3583 -0.1328
 3782TIP3    H111352   3.863   4.672   2.589 -0.5962  0.4496 -0.3884
 3782TIP3    H211353   3.880   4.816   2.632  2.0457 -0.3076  1.3441
 3783TIP3   OH211354   2.645   1.014   4.195  0.7745  0.0919 -0.1545
 3783TIP3    H111355   2.581   1.062   4.142  1.7342 -0.1596 -1.6267
 3783TIP3    H211356   2.639   1.053   4.282  0.2379  1.6443 -0.8419
 3784TIP3   OH211357   3.583   5.631   1.368 -0.5388  0.1416 -0.0684
 3784TIP3    H111358   3.503   5.579   1.378 -0.5807  0.0583 -0.7608
 3784TIP3    H211359   3.620   5.636   1.456 -0.3021 -1.4433 -0.0382
 3785TIP3   OH211360   3.530   5.440   3.817  0.1015 -0.6240  0.4038
 3785TIP3    H111361   3.464   5.490   3.864  0.8027 -0.0363  0.7879
 3785TIP3    H211362   3.481   5.389   3.753 -0.6422  0.4149  0.1243
 3786TIP3   OH211363   4.846   2.905   0.740 -0.4994 -0.9471  0.6427
 3786TIP3    H111364   4.922   2.850   0.761  0.3328 -0.4613 -0.9110
 3786TIP3    H211365   4.869   2.991   0.775 -0.3142 -0.7923  0.1450
 3787TIP3   OH211366   1.326   1.946   3.924  0.1845  0.1171  0.0315
 3787TIP3    H111367   1.330   1.875   3.860  1.7316 -0.8107  1.0827
 3787TIP3    H211368   1.343   1.903   4.008  0.8164  1.6906  0.7431
 3788TIP3   OH211369   0.086   1.169   2.010 -0.4409  0.8897 -0.0192
 3788TIP3    H111370   0.016   1.138   2.067 -0.3568  0.3657 -0.1946
 3788TIP3    H211371   0.150   1.207   2.069  0.4671 -1.2087  0.4338
 3789TIP3   OH211372   4.640   5.785   4.788  0.1697 -0.4033 -0.3743
 3789TIP3    H111373   4.684   5.705   4.815 -1.5241 -1.2229  0.0637
 3789TIP3    H211374   4.547   5.763   4.789 -0.4023  1.8128  0.6252
 3790TIP3   OH211375   3.956   5.877   1.189  0.2408 -0.0456  0.0986
 3790TIP3    H111376   3.869   5.840   1.176 -0.3707  1.4140 -0.1710
 3790TIP3    H211377   3.965   5.942   1.119  1.6313 -0.3104  0.0118
 3791TIP3   OH211378   5.647   4.257   4.943 -0.1317 -0.3532  0.2532
 3791TIP3    H111379   5.677   4.332   4.995 -1.7482  1.1434 -0.8123
 3791TIP3    H211380   5.695   4.182   4.978  2.8486  1.4125  0.2843
 3792TIP3   OH211381   0.847   1.885   3.369  0.4149 -0.1721  0.2805
 3792TIP3    H111382   0.800   1.806   3.396  0.9700 -0.8467 -0.6819
 3792TIP3    H211383   0.846   1.882   3.273  1.5337  0.3287  0.2427
 3793TIP3   OH211384   1.759   0.569   0.844 -0.4490  0.2255  0.1475
 3793TIP3    H111385   1.822   0.511   0.887 -1.0645 -0.7025 -0.1660
 3793TIP3    H211386   1.782   0.656   0.875  1.3807 -0.0072 -0.4189
 3794TIP3   OH211387   5.659   2.072   2.027 -0.1166 -0.1617 -0.3998
 3794TIP3    H111388   5.581   2.119   1.996 -0.1212  0.2767  0.2530
 3794TIP3    H211389   5.646   2.064   2.121  0.6807  0.0055 -0.2690
 3795TIP3   OH211390   4.757   4.747   2.424 -0.2840 -0.5492 -0.3119
 3795TIP3    H111391   4.662   4.745   2.423 -0.3124 -0.2932  0.8790
 3795TIP3    H211392   4.783   4.660   2.453 -0.1281 -0.7570 -1.0392
 3796TIP3   OH211393   5.733   3.366   2.387 -0.5483  0.1981 -0.2552
 3796TIP3    H111394   5.686   3.370   2.304 -0.7497 -0.4276 -0.1732
 3796TIP3    H211395   5.816   3.324   2.366 -0.4236  0.4191 -0.2138
 3797TIP3   OH211396   0.678   1.349   0.981  0.3158 -0.1909  0.5562
 3797TIP3    H111397   0.624   1.294   0.924  0.3889  0.9040 -0.6320
 3797TIP3    H211398   0.617   1.387   1.044 -0.8425  2.7146 -2.0692
 3798TIP3   OH211399   2.291   3.997   4.268 -0.3085  0.1355 -0.5375
 3798TIP3    H111400   2.267   3.940   4.341  0.1512  0.5957 -0.0209
 3798TIP3    H211401   2.307   4.082   4.308  1.2320  0.0876 -0.9746
 3799TIP3   OH211402   1.210   5.523   4.679 -0.3212 -0.0041  0.0990
 3799TIP3    H111403   1.159   5.446   4.654  1.9335 -1.2497 -0.9425
 3799TIP3    H211404   1.236   5.507   4.770 -1.4368  0.4945  0.5326
 3800TIP3   OH211405   0.132   2.514   4.647 -0.0385 -0.3154  0.3145
 3800TIP3    H111406   0.050   2.563   4.655  0.1232  0.4627 -2.0637
 3800TIP3    H211407   0.112   2.442   4.588  0.9065 -0.3328  0.0033
 3801TIP3   OH211408   5.990   4.041   0.935 -0.2947 -0.1889 -0.3683
 3801TIP3    H111409   5.976   4.134   0.918  0.0316  0.1069  0.9063
 3801TIP3    H211410   5.917   4.015   0.992  0.5728 -0.2553  0.7515
 3802TIP3   OH211411   4.214   3.959   0.032  0.1803  0.6204 -0.4512
 3802TIP3    H111412   4.270   4.012  -0.023  2.1947 -0.5033  0.3939
 3802TIP3    H211413   4.185   4.018   0.102  1.5457  0.8710 -0.0838
 3803TIP3   OH211414   4.176   0.831   3.369  0.0245  0.0290 -0.5836
 3803TIP3    H111415   4.177   0.815   3.463  0.4967  0.6778 -0.4723
 3803TIP3    H211416   4.204   0.749   3.330 -1.1385 -0.5610 -0.2090
 3804TIP3   OH211417   5.699   2.237   1.449 -0.4355 -0.2158  0.1437
 3804TIP3    H111418   5.702   2.332   1.459 -0.7531 -0.3700  2.0053
 3804TIP3    H211419   5.764   2.219   1.380  0.6277  1.2316  0.7031
 3805TIP3   OH211420   4.042   5.891   2.935 -0.5851  0.4693  0.4798
 3805TIP3    H111421   4.121   5.905   2.987 -1.0345  1.5021  0.9252
 3805TIP3    H211422   3.970   5.907   2.997 -1.1344  0.1357 -0.0647
 3806TIP3   OH211423   2.530   5.141   4.332  0.3096 -0.2654  0.0403
 3806TIP3    H111424   2.515   5.076   4.402  0.2558 -1.2084 -0.8220
 3806TIP3    H211425   2.443   5.176   4.314  0.3532  0.1307  0.5843
 3807TIP3   OH211426   1.917   5.051   3.102 -0.1666  0.1587 -0.1284
 3807TIP3    H111427   1.961   5.089   3.026 -0.4614  0.8581  0.0344
 3807TIP3    H211428   1.876   4.971   3.069 -0.9168  0.8410 -0.8960
 3808TIP3   OH211429   0.437   2.813   1.362 -0.3150  0.3292  0.5111
 3808TIP3    H111430   0.439   2.909   1.370 -1.2122  0.3389  0.6631
 3808TIP3    H211431   0.479   2.782   1.442 -0.5173  0.5938  0.7239
 3809TIP3   OH211432   0.257   2.753   5.120  0.5001 -0.0859 -0.5361
 3809TIP3    H111433   0.209   2.793   5.048 -0.4881 -1.9179 -0.9576
 3809TIP3    H211434   0.222   2.795   5.199 -0.3163  0.0704 -0.9724
 3810TIP3   OH211435   0.092   3.404   3.452  0.0231 -0.0123  0.0998
 3810TIP3    H111436   0.174   3.434   3.490  0.0178  1.3975 -0.9153
 3810TIP3    H211437   0.111   3.316   3.420  0.6860 -0.2971  1.2206
 3811TIP3   OH211438   2.848   5.661   2.521  0.1864 -0.1700  0.3114
 3811TIP3    H111439   2.835   5.594   2.587  2.3703  0.4675  1.4667
 3811TIP3    H211440   2.903   5.620   2.454  0.2762  0.0149  0.2696
 3812TIP3   OH211441   0.449   3.708   2.594 -0.2870 -0.0762  0.1783
 3812TIP3    H111442   0.488   3.679   2.512  0.0839 -0.8556  0.6162
 3812TIP3    H211443   0.521   3.753   2.640 -0.1521 -0.6996  0.5880
 3813TIP3   OH211444   2.658   1.350   3.767 -0.1652 -0.4837  0.2069
 3813TIP3    H111445   2.711   1.271   3.763 -0.3940 -0.6208 -0.2039
 3813TIP3    H211446   2.567   1.319   3.765 -0.2611 -0.1930 -0.5727
 3814TIP3   OH211447   2.260   2.977   1.535 -0.1232 -0.3704  0.2683
 3814TIP3    H111448   2.258   2.934   1.620  0.3712 -0.0187  0.4635
 3814TIP3    H211449   2.353   2.995   1.519  0.0612 -2.4686 -1.4030
 3815TIP3   OH211450   5.785   3.784   3.631  0.0864  0.2717  0.2385
 3815TIP3    H111451   5.843   3.855   3.603 -0.5312  0.7389  0.1176
 3815TIP3    H211452   5.832   3.741   3.701  1.2850 -0.3573 -0.9162
 3816TIP3   OH211453   2.806   2.416   1.480  0.1492  0.0373  0.0154
 3816TIP3    H111454   2.833   2.325   1.481 -0.8145 -0.2832 -1.0315
 3816TIP3    H211455   2.779   2.433   1.390 -0.9326  0.9583  0.4733
 3817TIP3   OH211456   0.431   0.763  -0.011 -0.1821  0.0474  0.1388
 3817TIP3    H111457   0.468   0.841   0.029 -1.2079  0.2301  0.7680
 3817TIP3    H211458   0.438   0.696   0.057  0.5236 -0.3655 -0.3316
 3818TIP3   OH211459   2.190   1.095   4.557 -0.1383  0.1705 -0.0298
 3818TIP3    H111460   2.239   1.046   4.623 -0.2095 -1.0327 -0.8459
 3818TIP3    H211461   2.230   1.071   4.474  1.1254  3.0440 -0.3461
 3819TIP3   OH211462   3.228   1.157   1.054 -0.1663  0.5682  0.4249
 3819TIP3    H111463   3.232   1.124   0.964  1.5467  0.7056  0.4053
 3819TIP3    H211464   3.292   1.103   1.102 -1.2783  0.2860  1.6431
 3820TIP3   OH211465   1.564   1.671   0.820  0.1915  0.5442  0.2367
 3820TIP3    H111466   1.472   1.698   0.820 -0.6270 -1.8755 -1.5337
 3820TIP3    H211467   1.570   1.603   0.888  0.9836  1.4924  1.1453
 3821TIP3   OH211468   6.343   5.864   2.116 -0.7485  0.4133  0.0504
 3821TIP3    H111469   6.271   5.879   2.176 -0.9900  1.4240 -0.4649
 3821TIP3    H211470   6.395   5.795   2.157 -0.6505  1.3857  1.6505
 3822TIP3   OH211471   0.846   4.632   1.253  0.0231  0.0911  0.1685
 3822TIP3    H111472   0.799   4.672   1.326  1.2169 -0.5432  1.3249
 3822TIP3    H211473   0.836   4.695   1.181  1.2365  2.2065  1.7189
 3823TIP3   OH211474   1.077   3.170   1.421  0.4479  0.2362 -0.0104
 3823TIP3    H111475   1.082   3.147   1.514  1.0827 -0.7901 -0.2869
 3823TIP3    H211476   1.156   3.222   1.405  1.0146 -0.6783 -0.2560
 3824TIP3   OH211477   5.945   3.015   2.808 -0.9715 -0.3431  0.0082
 3824TIP3    H111478   5.982   2.930   2.782  2.5376  0.7805  0.7971
 3824TIP3    H211479   5.898   3.045   2.730 -0.2921 -1.9678 -1.0918
 3825TIP3   OH211480   0.287   4.505   3.366 -0.0705  0.6944 -0.1129
 3825TIP3    H111481   0.334   4.562   3.427 -0.5112 -0.2228  1.1121
 3825TIP3    H211482   0.195   4.515   3.390 -0.2965  0.6860 -0.9585
 3826TIP3   OH211483   1.886   1.791   4.445 -0.3540 -0.0462  0.1066
 3826TIP3    H111484   1.903   1.818   4.536  0.1929  0.0943 -0.0341
 3826TIP3    H211485   1.878   1.696   4.450 -2.2154  0.1066  0.5943
 3827TIP3   OH211486   4.308   4.425   0.240 -0.0671  0.4047 -0.2795
 3827TIP3    H111487   4.392   4.403   0.279 -0.0641  0.4160 -0.2797
 3827TIP3    H211488   4.246   4.425   0.313  0.0485  1.0324 -0.1744
 3828TIP3   OH211489   2.971   0.021   2.955  0.3300 -0.4114 -0.1260
 3828TIP3    H111490   3.022   0.101   2.945  0.2098 -0.4581 -1.2329
 3828TIP3    H211491   3.011  -0.024   3.030  2.8373 -1.0944 -1.7444
 3829TIP3   OH211492   1.681   5.576   1.859  0.2844  0.1252  0.1181
 3829TIP3    H111493   1.602   5.529   1.830  0.8223 -1.2404  0.7898
 3829TIP3    H211494   1.753   5.527   1.820  0.8207  1.2252 -0.2835
 3830TIP3   OH211495   2.512   4.830   3.189  0.2718 -0.3227 -0.1463
 3830TIP3    H111496   2.527   4.832   3.284 -1.0200 -0.6264  0.0795
 3830TIP3    H211497   2.565   4.756   3.159  0.4388 -0.4290  0.3841
 3831TIP3   OH211498   0.415   1.125   2.873  0.0135 -0.2546  0.1309
 3831TIP3    H111499   0.416   1.109   2.779 -0.0846 -0.4139  0.1568
 3831TIP3    H211500   0.485   1.189   2.888  2.2720 -2.6592  0.4206
 3832TIP3   OH211501   4.175   0.042   0.106 -0.6950 -0.4082  0.0599
 3832TIP3    H111502   4.222  -0.032   0.144 -2.2145 -1.0349  0.7624
 3832TIP3    H211503   4.224   0.119   0.137 -0.6541 -1.0044  1.5440
 3833TIP3   OH211504   4.786   4.973   0.186  0.1504  0.0422  0.0034
 3833TIP3    H111505   4.807   4.882   0.204 -1.9417 -0.6385 -0.7339
 3833TIP3    H211506   4.862   5.006   0.137  1.3431 -0.9939  1.0670
 3834TIP3   OH211507   5.351   1.123   1.437  0.2090  0.1073 -0.1150
 3834TIP3    H111508   5.373   1.097   1.348  0.4431  0.2585 -0.1017
 3834TIP3    H211509   5.291   1.056   1.467 -1.4238  1.0650 -1.0746
 3835TIP3   OH211510   6.278   3.578   0.850  0.4348  0.1703 -0.5841
 3835TIP3    H111511   6.205   3.634   0.877 -0.4051 -2.1322  2.5151
 3835TIP3    H211512   6.335   3.574   0.927  2.6605  0.0192 -2.1392
 3836TIP3   OH211513   6.133   0.263   1.077  0.2241  0.0419  0.3684
 3836TIP3    H111514   6.100   0.234   1.162  0.4762 -3.5670 -0.5911
 3836TIP3    H211515   6.060   0.309   1.036 -1.2791 -1.6105  1.0552
 3837TIP3   OH211516   5.468   3.328   1.556  0.1083  0.2802 -0.3381
 3837TIP3    H111517   5.563   3.333   1.568  0.0962  0.4949 -0.3199
 3837TIP3    H211518   5.445   3.409   1.510 -0.2077  0.7780  0.6501
 3838TIP3   OH211519   4.978   2.387   4.594 -0.1582  0.2105 -0.1435
 3838TIP3    H111520   4.907   2.450   4.585  0.7542  1.1619 -0.9489
 3838TIP3    H211521   5.057   2.435   4.569  0.4636 -1.4618 -1.7021
 3839TIP3   OH211522   4.643   0.140   1.081  0.1961  0.4350 -0.2328
 3839TIP3    H111523   4.655   0.090   1.001  0.2595  1.1218 -0.6596
 3839TIP3    H211524   4.686   0.088   1.149  1.9335  0.8262 -0.9872
 3840TIP3   OH211525   4.154   5.766   2.699  0.4611  0.4251  0.2615
 3840TIP3    H111526   4.123   5.835   2.758  1.5720  2.4252 -1.3542
 3840TIP3    H211527   4.229   5.728   2.744  1.9423  2.6301 -0.2031
 3841TIP3   OH211528   3.733   2.605   5.110  0.2433  0.2362  0.2419
 3841TIP3    H111529   3.765   2.647   5.190  0.9515  0.3323 -0.0895
 3841TIP3    H211530   3.681   2.672   5.066 -0.2354  0.1515  0.6666
 3842TIP3   OH211531   5.217   1.048   3.486  0.1966 -0.3880  0.0944
 3842TIP3    H111532   5.163   1.127   3.492  0.5839  0.1900 -2.6512
 3842TIP3    H211533   5.189   1.006   3.404  2.1929 -1.3971 -0.1326
 3843TIP3   OH211534   4.616   0.954   4.013 -0.6066 -0.0104 -0.0582
 3843TIP3    H111535   4.686   0.908   4.059 -1.8406  0.5769  2.5906
 3843TIP3    H211536   4.651   1.041   3.996  0.0037 -0.3599 -0.6520
 3844TIP3   OH211537   4.895   1.738   3.872 -0.2360 -0.8877 -0.0341
 3844TIP3    H111538   4.893   1.681   3.949 -1.6404 -2.1660 -0.9633
 3844TIP3    H211539   4.956   1.695   3.811  3.3501  1.6696  1.3625
 3845TIP3   OH211540   5.871   0.658   4.418  0.1281  0.4886  0.1972
 3845TIP3    H111541   5.891   0.637   4.326  0.9814  0.7161  0.3278
 3845TIP3    H211542   5.895   0.750   4.428  0.8854  0.2264  0.8812
 3846TIP3   OH211543   0.052   3.982   4.558 -0.0965 -0.4550  0.1352
 3846TIP3    H111544   0.043   3.976   4.463  0.3497  1.1999 -0.0447
 3846TIP3    H211545   0.145   3.966   4.574  0.4534  2.1746 -0.0490
 3847TIP3   OH211546   4.841   4.131   4.385  0.1872 -0.5604 -0.0646
 3847TIP3    H111547   4.789   4.057   4.415 -0.1561 -0.3568 -0.1492
 3847TIP3    H211548   4.925   4.092   4.357  0.4156 -0.7736  0.9019
 3848TIP3   OH211549   2.892   2.400   0.234  0.1140  0.0650  0.5906
 3848TIP3    H111550   2.829   2.334   0.204  0.6765 -0.4041  0.4302
 3848TIP3    H211551   2.973   2.352   0.246  0.4743  0.6899  0.6923
 3849TIP3   OH211552   1.541   3.845   4.028  0.3681  0.3210  0.1128
 3849TIP3    H111553   1.581   3.865   4.112  2.1210 -1.6737 -0.1585
 3849TIP3    H211554   1.449   3.870   4.038  0.6409  0.5708  2.4361
 3850TIP3   OH211555   1.377   5.621   3.326 -0.1814  0.0054  1.2008
 3850TIP3    H111556   1.420   5.536   3.316  0.3719  0.0432  2.8736
 3850TIP3    H211557   1.425   5.680   3.268  0.7001 -0.4122  1.4982
 3851TIP3   OH211558   4.390   5.088   0.224 -0.8411 -0.6820 -0.2776
 3851TIP3    H111559   4.410   4.995   0.216  0.4164 -0.4894  0.3711
 3851TIP3    H211560   4.337   5.095   0.303  2.0057 -0.4992  1.7710
 3852TIP3   OH211561   3.167   3.735   1.500  0.1798 -0.5336  0.4949
 3852TIP3    H111562   3.120   3.654   1.520 -0.7756 -0.0272  0.3656
 3852TIP3    H211563   3.157   3.788   1.579 -2.2658  0.8502 -0.6485
 3853TIP3   OH211564   2.712   3.317   3.905  0.1162 -0.0434 -0.5626
 3853TIP3    H111565   2.681   3.401   3.940  1.8377  0.7243 -0.7730
 3853TIP3    H211566   2.759   3.277   3.978  0.7222 -0.0442 -0.9466
 3854TIP3   OH211567   5.588   3.544   1.173  0.4965  0.3534 -0.0506
 3854TIP3    H111568   5.667   3.491   1.173 -0.4714 -1.1537 -1.0112
 3854TIP3    H211569   5.547   3.526   1.258 -0.3394 -1.2993 -0.7617
 3855TIP3   OH211570   2.094   1.722   2.109 -0.3970 -0.4032 -0.0190
 3855TIP3    H111571   2.111   1.737   2.202 -2.3551 -3.0183  0.8752
 3855TIP3    H211572   2.172   1.677   2.077 -0.1887 -0.5507  0.6809
 3856TIP3   OH211573   1.849   4.187   0.607 -0.1394  0.1725 -0.6475
 3856TIP3    H111574   1.768   4.145   0.578 -0.5665  0.3663  0.2521
 3856TIP3    H211575   1.841   4.193   0.702  0.2301  1.6436 -0.6948
 3857TIP3   OH211576   2.299   5.215   5.086 -0.6828  0.4523  0.3639
 3857TIP3    H111577   2.321   5.243   4.997 -1.9303  1.7351  0.4185
 3857TIP3    H211578   2.281   5.121   5.079 -0.5541  0.5010 -0.6826
 3858TIP3   OH211579   0.993   0.961   3.263  0.0125 -0.0733  0.0677
 3858TIP3    H111580   1.059   0.907   3.220  0.9490  1.4612 -0.4804
 3858TIP3    H211581   0.920   0.964   3.201  0.1279 -0.3390 -0.0826
 3859TIP3   OH211582   1.903   1.164   1.325  0.0445 -0.6850 -0.2622
 3859TIP3    H111583   1.822   1.114   1.328  0.4460 -1.3408 -0.0991
 3859TIP3    H211584   1.875   1.254   1.309 -0.7282 -0.8511  0.0935
 3860TIP3   OH211585   2.743   4.302   4.359 -0.2687 -0.5546  0.6898
 3860TIP3    H111586   2.671   4.300   4.421  0.5269  0.3771  1.6774
 3860TIP3    H211587   2.782   4.389   4.370  1.6211 -1.3776  0.9120
 3861TIP3   OH211588   0.894   4.371   2.172 -0.2441 -0.3782 -0.9254
 3861TIP3    H111589   0.837   4.300   2.144 -1.0105 -0.1266 -0.0587
 3861TIP3    H211590   0.836   4.435   2.213  0.5905  0.1010 -0.4408
 3862TIP3   OH211591   0.586   2.597   0.750  0.1555  0.1021 -0.1249
 3862TIP3    H111592   0.506   2.571   0.705 -0.7304  1.5826  0.5305
 3862TIP3    H211593   0.657   2.567   0.693 -0.8768  2.6880 -3.0713
 3863TIP3   OH211594   2.713   2.002   4.070  0.0890  0.0123  0.5440
 3863TIP3    H111595   2.640   2.062   4.056  0.4494  0.4371  0.4442
 3863TIP3    H211596   2.760   2.039   4.145 -0.8306 -1.2693  1.7894
 3864TIP3   OH211597   4.221   2.521   2.298  0.1655  0.2661 -0.0315
 3864TIP3    H111598   4.248   2.612   2.312  0.7423 -0.0441  0.9939
 3864TIP3    H211599   4.260   2.473   2.371 -0.1494 -0.8070 -0.5465
 3865TIP3   OH211600   4.298   0.266   1.441  0.0056  0.5010  0.0780
 3865TIP3    H111601   4.316   0.234   1.353  2.1861  0.6001  0.4384
 3865TIP3    H211602   4.355   0.343   1.451  0.0338  0.3037  1.6686
 3866TIP3   OH211603   2.371   5.879   5.041  0.4312  0.0424  0.3714
 3866TIP3    H111604   2.295   5.827   5.065  0.3690  1.0282  2.5632
 3866TIP3    H211605   2.337   5.966   5.022  0.9594  0.4884  1.3503
 3867TIP3   OH211606   2.308   3.058   4.833 -0.3599 -0.4500  0.3669
 3867TIP3    H111607   2.283   3.095   4.749  0.1254  0.8287  0.7677
 3867TIP3    H211608   2.266   2.972   4.834 -2.0616  0.3163 -0.3334
 3868TIP3   OH211609   5.618   2.354   1.851  0.9166  0.0963  0.1663
 3868TIP3    H111610   5.685   2.413   1.816  2.0777 -1.0043  0.4626
 3868TIP3    H211611   5.586   2.307   1.774 -1.6916  2.6062 -0.4783
 3869TIP3   OH211612   0.094   1.683   2.027  0.1948 -0.7055 -0.2092
 3869TIP3    H111613   0.122   1.626   1.956  0.1384 -2.0546  0.8052
 3869TIP3    H211614   0.171   1.689   2.085 -0.7547 -2.4888  1.3616
 3870TIP3   OH211615   6.193   2.434   2.157  0.1732  0.1101  0.1865
 3870TIP3    H111616   6.223   2.436   2.248 -2.1148 -4.9433  1.3864
 3870TIP3    H211617   6.269   2.404   2.108  0.6402  0.0961  0.8992
 3871TIP3   OH211618   4.316   1.418   0.317  0.5985  0.5631 -0.3713
 3871TIP3    H111619   4.384   1.465   0.269  0.0436  1.6706 -0.1062
 3871TIP3    H211620   4.249   1.484   0.334  1.0380  0.3761  2.4671
 3872TIP3   OH211621   5.564   1.198   2.705 -0.1622 -0.0902 -0.0879
 3872TIP3    H111622   5.500   1.241   2.648  0.5621 -0.1317 -0.9669
 3872TIP3    H211623   5.576   1.258   2.778 -0.2470  0.5388 -0.5760
 3873TIP3   OH211624   5.523   2.340   4.958  0.1144 -0.0968  0.3040
 3873TIP3    H111625   5.611   2.343   4.994  0.7977 -2.1023 -1.0715
 3873TIP3    H211626   5.513   2.252   4.924 -2.1987  0.2790 -0.1866
 3874TIP3   OH211627   4.770   3.299   3.248  0.2614 -0.3327 -0.3137
 3874TIP3    H111628   4.677   3.307   3.272  0.7174  2.1163  0.9318
 3874TIP3    H211629   4.788   3.376   3.194  1.8423 -0.1246  0.4569
 3875TIP3   OH211630   2.268   5.226   0.447  0.1558 -0.4034  0.3435
 3875TIP3    H111631   2.272   5.146   0.395  0.6884 -0.5908  0.6591
 3875TIP3    H211632   2.178   5.256   0.439  0.0222 -0.8878 -0.0012
 3876TIP3   OH211633   5.402   1.339   2.501  0.3711 -0.2658 -0.1465
 3876TIP3    H111634   5.339   1.367   2.434 -0.1929 -0.7461  0.1762
 3876TIP3    H211635   5.487   1.369   2.467  0.1365 -0.7304 -1.2093
 3877TIP3   OH211636   4.461   2.806   3.294 -0.1516 -0.2112 -0.5002
 3877TIP3    H111637   4.435   2.888   3.336 -0.5255  0.1269 -1.3606
 3877TIP3    H211638   4.387   2.748   3.307 -0.4419  0.0328 -1.0564
 3878TIP3   OH211639   1.225   1.572   0.190  0.3479 -0.0530  0.1011
 3878TIP3    H111640   1.162   1.500   0.177 -0.1781  0.1960  1.2081
 3878TIP3    H211641   1.248   1.599   0.101  0.3970 -1.4561 -0.3378
 3879TIP3   OH211642   5.901   1.649   2.383  0.0013  0.2386  0.0977
 3879TIP3    H111643   5.903   1.613   2.294  2.2438  1.0615 -0.2701
 3879TIP3    H211644   5.949   1.584   2.436  0.0091  0.4684  0.3764
 3880TIP3   OH211645   6.129   1.331   4.206  0.0335  0.1614 -0.0404
 3880TIP3    H111646   6.217   1.299   4.227  0.5361  1.5411  0.0881
 3880TIP3    H211647   6.070   1.262   4.236  1.0332 -0.3876  0.7078
 3881TIP3   OH211648   4.041   4.923   2.360 -0.0158  0.1118  0.0247
 3881TIP3    H111649   4.086   5.000   2.324  1.6350 -0.0255  1.6475
 3881TIP3    H211650   4.110   4.857   2.368 -1.6018 -2.0663 -2.4612
 3882TIP3   OH211651   2.564   3.893   3.167  0.3374 -0.1387  0.2040
 3882TIP3    H111652   2.628   3.847   3.113  2.1151  0.1598  1.9007
 3882TIP3    H211653   2.489   3.834   3.171 -0.1998  0.1575 -3.0950
 3883TIP3   OH211654   4.202   1.722   4.391 -0.4914 -0.2149 -0.3982
 3883TIP3    H111655   4.259   1.664   4.441  0.3327  0.4331 -0.5678
 3883TIP3    H211656   4.118   1.718   4.437 -0.0640 -0.5044  0.3777
 3884TIP3   OH211657   2.480   2.407   0.286 -0.1626 -0.7209 -0.1135
 3884TIP3    H111658   2.499   2.501   0.287  0.5747 -0.8528 -0.7923
 3884TIP3    H211659   2.526   2.372   0.362 -1.2867 -0.3965  0.7513
 3885TIP3   OH211660   3.600   3.590   4.374 -0.0782  0.0093  0.8548
 3885TIP3    H111661   3.606   3.685   4.363  0.5546 -0.2373 -1.4741
 3885TIP3    H211662   3.678   3.566   4.424  0.3821  0.6016  0.4384
 3886TIP3   OH211663   0.396   5.394   3.278 -0.3582 -0.1505 -0.1164
 3886TIP3    H111664   0.393   5.321   3.340  0.2999 -0.5381 -0.5381
 3886TIP3    H211665   0.337   5.459   3.316  0.4468 -0.1576  1.2018
 3887TIP3   OH211666   5.250   0.192   4.467  0.5354 -0.4678  0.0925
 3887TIP3    H111667   5.306   0.150   4.402  1.5009 -0.4199  0.8605
 3887TIP3    H211668   5.277   0.153   4.551  0.6416  0.8161  0.6817
 3888TIP3   OH211669   0.354   5.722   5.082 -0.3890  0.2363  0.0146
 3888TIP3    H111670   0.288   5.667   5.125 -0.8447  2.6641  2.7427
 3888TIP3    H211671   0.429   5.720   5.141 -0.4085  2.4263  0.1871
 3889TIP3   OH211672   4.244   1.248   4.825 -0.1479 -0.1255 -0.1471
 3889TIP3    H111673   4.220   1.340   4.816 -0.9602 -0.2526  0.5115
 3889TIP3    H211674   4.265   1.239   4.918  2.8616  0.0440 -0.7405
 3890TIP3   OH211675   1.111   3.942   2.642  0.2529 -0.5339  0.0767
 3890TIP3    H111676   1.105   3.961   2.548  0.1885 -0.5243  0.0821
 3890TIP3    H211677   1.147   4.022   2.680 -1.1407  0.0554  0.2557
 3891TIP3   OH211678   6.282   1.739   4.863 -0.0813  0.3184  0.0461
 3891TIP3    H111679   6.280   1.803   4.792  0.3129 -0.1367 -0.3765
 3891TIP3    H211680   6.190   1.726   4.885 -0.3273 -0.6936 -1.4349
 3892TIP3   OH211681   5.083   4.085   2.307  0.0914 -0.3157  0.2583
 3892TIP3    H111682   5.164   4.136   2.308  1.1146 -1.8708 -0.0726
 3892TIP3    H211683   5.105   4.004   2.353 -1.3128 -0.7449  0.2258
 3893TIP3   OH211684   0.302   5.888   0.067  0.2412  0.4894 -0.3211
 3893TIP3    H111685   0.279   5.963   0.122  0.4343  0.7258 -0.5593
 3893TIP3    H211686   0.338   5.824   0.127  0.4551  0.7482 -0.1730
 3894TIP3   OH211687   5.112   5.029   0.740 -0.1977  0.3714 -0.2236
 3894TIP3    H111688   5.181   5.089   0.710 -0.8951  0.8211 -0.9890
 3894TIP3    H211689   5.063   5.080   0.804  0.4083 -0.0873  0.6225
 3895TIP3   OH211690   5.454   5.366   4.082  0.4073 -0.5847 -0.3333
 3895TIP3    H111691   5.501   5.431   4.031  0.7388 -0.8988 -0.4290
 3895TIP3    H211692   5.373   5.351   4.033 -0.4991  1.0195  0.5581
 3896TIP3   OH211693   4.243   0.825   2.152  0.3264  0.3642 -0.0639
 3896TIP3    H111694   4.321   0.820   2.097  0.8126  0.0151  0.6365
 3896TIP3    H211695   4.208   0.736   2.153  1.4350 -0.1042  1.7358
 3897TIP3   OH211696   3.500   2.321   1.253  0.0171 -0.6471  0.1436
 3897TIP3    H111697   3.529   2.411   1.272  1.4823 -0.9405 -0.5638
 3897TIP3    H211698   3.479   2.322   1.160 -2.4651 -0.4319  0.6466
 3898TIP3   OH211699   2.908   3.030   3.133 -0.1740  0.2122  0.0507
 3898TIP3    H111700   2.908   3.120   3.168  1.1689  0.5023 -0.6165
 3898TIP3    H211701   2.825   3.022   3.086  0.4503  1.7792 -1.4507
 3899TIP3   OH211702   0.126   5.376   2.410  0.0112 -0.1730 -0.2030
 3899TIP3    H111703   0.174   5.328   2.477 -0.0400 -1.7752 -1.2716
 3899TIP3    H211704   0.081   5.446   2.458  1.5966 -0.0190  1.1140
 3900TIP3   OH211705   0.159   3.436   2.804 -0.3473  0.3768  0.0256
 3900TIP3    H111706   0.165   3.345   2.833  1.0268  0.6491  0.6517
 3900TIP3    H211707   0.137   3.429   2.711  0.6826 -0.6372 -0.1688
 3901TIP3   OH211708   2.264   3.236   5.035  0.2779 -0.1208 -0.0999
 3901TIP3    H111709   2.184   3.200   5.072  1.5239 -0.5970  2.3427
 3901TIP3    H211710   2.291   3.171   4.970 -0.2864 -0.9777  0.4903
 3902TIP3   OH211711   1.916   2.710   3.235 -0.0964 -0.1561 -0.1868
 3902TIP3    H111712   1.894   2.640   3.174  0.0156 -0.7732  0.4742
 3902TIP3    H211713   2.012   2.715   3.232 -0.1509  0.8454 -1.1859
 3903TIP3   OH211714   0.164   3.038   0.127  0.1557 -0.0345 -0.1948
 3903TIP3    H111715   0.162   3.067   0.036  2.8429 -0.9394 -0.6154
 3903TIP3    H211716   0.133   2.947   0.124  1.8578 -0.6398 -0.5255
 3904TIP3   OH211717   4.491   5.395   0.264  0.3194  0.0320 -0.1297
 3904TIP3    H111718   4.581   5.372   0.240 -0.2969 -1.0611 -1.5735
 3904TIP3    H211719   4.480   5.362   0.353  1.2769 -0.0054 -0.0194
 3905TIP3   OH211720   2.701   0.934   4.537  0.2906 -0.3184  0.6167
 3905TIP3    H111721   2.790   0.969   4.539  0.1671  0.2130 -1.2022
 3905TIP3    H211722   2.646   1.012   4.529 -0.1636 -0.7567 -0.7631
 3906TIP3   OH211723   2.865   1.905   3.862 -0.2932 -0.0772 -0.0494
 3906TIP3    H111724   2.955   1.931   3.880 -0.6106  2.1764 -1.3426
 3906TIP3    H211725   2.817   1.926   3.943  0.0586  0.2911  0.0656
 3907TIP3   OH211726   5.996   0.583   0.537 -0.6600 -0.1650  0.0519
 3907TIP3    H111727   5.959   0.661   0.579 -1.6093 -1.1022  1.0267
 3907TIP3    H211728   5.969   0.591   0.445  0.7642  1.5067 -0.2865
 3908TIP3   OH211729   3.358   4.629   2.236 -0.1518  0.5639 -0.1636
 3908TIP3    H111730   3.377   4.541   2.269 -0.8126  0.1305 -0.9001
 3908TIP3    H211731   3.397   4.630   2.148  3.9184  2.5612  1.4057
 3909TIP3   OH211732   2.761   5.385   3.255  0.8171  0.3706  0.6532
 3909TIP3    H111733   2.724   5.375   3.343 -0.5858  1.0855  0.1751
 3909TIP3    H211734   2.753   5.478   3.237 -0.1903  0.0463 -0.7490
 3910TIP3   OH211735   2.664   0.448   5.073 -0.1121  0.0716 -0.4203
 3910TIP3    H111736   2.667   0.365   5.026  1.5911  0.4545 -1.0642
 3910TIP3    H211737   2.581   0.445   5.121 -1.2290 -0.9599 -2.2850
 3911TIP3   OH211738   0.496   1.061   1.585 -0.2558 -0.7287 -0.6189
 3911TIP3    H111739   0.556   1.058   1.660 -2.5315 -1.0512  1.3192
 3911TIP3    H211740   0.500   1.152   1.556  1.4285 -0.8287 -0.8382
 3912TIP3   OH211741   1.807   4.695   3.596 -0.3773  0.2005  0.0509
 3912TIP3    H111742   1.893   4.706   3.554 -1.0135  2.1049 -0.8960
 3912TIP3    H211743   1.759   4.635   3.539 -0.2827  0.5836 -0.4394
 3913TIP3   OH211744   5.677   2.543   0.835 -0.1069 -0.0078 -0.2017
 3913TIP3    H111745   5.622   2.486   0.781 -0.2889 -0.2598  0.2393
 3913TIP3    H211746   5.644   2.529   0.924 -1.6280  2.4114 -0.2885
 3914TIP3   OH211747   3.827   0.505   0.206 -0.9041  0.2455  0.1452
 3914TIP3    H111748   3.757   0.445   0.179 -1.2696  0.1258  1.2878
 3914TIP3    H211749   3.863   0.466   0.285  2.1187 -0.9507 -1.6745
 3915TIP3   OH211750   2.442   5.057   1.130 -0.4957  0.2352  0.5296
 3915TIP3    H111751   2.420   5.070   1.223  2.1249  0.1560  1.2372
 3915TIP3    H211752   2.537   5.043   1.130 -0.6073 -0.9514 -2.0736
 3916TIP3   OH211753   2.390   3.325   1.462  0.3454 -0.3787  0.2877
 3916TIP3    H111754   2.445   3.401   1.443 -1.9594  1.3305  0.0793
 3916TIP3    H211755   2.377   3.282   1.378  0.7657 -0.3894  0.2261
 3917TIP3   OH211756   1.845   3.073   1.228  0.5666  0.0100 -0.8174
 3917TIP3    H111757   1.925   3.119   1.252  0.7206 -0.5677 -0.1886
 3917TIP3    H211758   1.840   3.080   1.133  0.8264  0.9190 -0.7671
 3918TIP3   OH211759   4.294   2.020   0.073 -0.2396 -0.5780 -0.1933
 3918TIP3    H111760   4.251   2.084   0.016 -1.4152 -1.8639 -0.8113
 3918TIP3    H211761   4.386   2.047   0.073 -0.2292 -0.3671 -2.5235
 3919TIP3   OH211762   4.416   2.550   4.107  0.1549  0.4379  0.5018
 3919TIP3    H111763   4.509   2.536   4.085 -0.4575  0.2658 -2.4904
 3919TIP3    H211764   4.396   2.482   4.170  1.4934 -1.1124 -0.6605
 3920TIP3   OH211765   1.744   0.342   0.698 -0.2170 -0.6188 -0.1873
 3920TIP3    H111766   1.748   0.425   0.746  1.6076 -1.2254  0.8211
 3920TIP3    H211767   1.696   0.363   0.618 -1.4643  0.9386  0.9124
 3921TIP3   OH211768   1.022   0.260   3.082 -0.0818 -0.6542  0.5072
 3921TIP3    H111769   0.929   0.280   3.097  0.5970  2.1889  1.4001
 3921TIP3    H211770   1.032   0.262   2.987 -1.0735 -1.9279  0.3411
 3922TIP3   OH211771   3.015   3.943   0.125  0.4168 -0.1611  0.1056
 3922TIP3    H111772   2.967   3.925   0.206  1.7782 -2.5195  0.4743
 3922TIP3    H211773   2.992   4.034   0.103 -3.1473 -0.7270  0.9134
 3923TIP3   OH211774   0.124   1.035   0.590 -0.1456 -0.1874 -0.1275
 3923TIP3    H111775   0.070   1.005   0.663  1.4594  1.5642  1.9473
 3923TIP3    H211776   0.089   1.122   0.568  3.0166  2.1522  2.9576
 3924TIP3   OH211777   5.550   5.611   3.673 -0.0250  0.1453  0.0398
 3924TIP3    H111778   5.504   5.576   3.749  3.1478 -0.6736  1.7182
 3924TIP3    H211779   5.563   5.535   3.616 -0.7622  0.4069 -0.5048
 3925TIP3   OH211780   2.824   5.111   4.313 -0.0061 -0.4938  0.2614
 3925TIP3    H111781   2.795   5.025   4.284  0.6838 -0.5778 -0.2149
 3925TIP3    H211782   2.744   5.159   4.333 -0.5194 -0.4680 -1.7238
 3926TIP3   OH211783   0.098   1.845   2.400  0.3690 -0.3820 -0.1635
 3926TIP3    H111784   0.173   1.876   2.350  0.8339 -0.9614  0.1607
 3926TIP3    H211785   0.027   1.843   2.336  0.2506  1.5193 -0.1399
 3927TIP3   OH211786   2.866   4.139   0.447 -0.1217 -0.3590 -0.0932
 3927TIP3    H111787   2.795   4.198   0.422 -1.1113 -1.3764  0.1981
 3927TIP3    H211788   2.821   4.059   0.477  1.1314 -0.8244  0.6411
 3928TIP3   OH211789   3.785   1.190   1.900  0.2380  0.1673  0.2049
 3928TIP3    H111790   3.699   1.154   1.922 -0.3174  0.9756 -0.5619
 3928TIP3    H211791   3.835   1.115   1.867  0.1684 -0.4978  1.5580
 3929TIP3   OH211792   4.684   5.457   1.549  0.2258 -0.2726 -0.2675
 3929TIP3    H111793   4.767   5.434   1.592 -0.2010 -0.1089  0.6752
 3929TIP3    H211794   4.640   5.374   1.536  0.0589 -0.2659  0.2455
 3930TIP3   OH211795   0.825   2.228   4.568  0.1710 -0.2494  0.0015
 3930TIP3    H111796   0.876   2.293   4.617 -0.9562  0.5574  0.1600
 3930TIP3    H211797   0.744   2.274   4.545 -0.1772 -1.2613 -0.8698
 3931TIP3   OH211798   0.381   2.690   4.265  0.1743 -0.6168  0.0243
 3931TIP3    H111799   0.309   2.676   4.203  1.1156 -1.1180 -1.0065
 3931TIP3    H211800   0.439   2.615   4.251  1.2263  0.1125  0.3511
 3932TIP3   OH211801   4.909   1.879   3.408 -0.0686  0.3676 -0.5541
 3932TIP3    H111802   4.871   1.848   3.326 -0.5643  1.2025 -0.6513
 3932TIP3    H211803   4.845   1.852   3.475  0.5788 -0.7594 -0.3670
 3933TIP3   OH211804   4.489   0.646   5.079 -0.1488 -0.0627  0.0210
 3933TIP3    H111805   4.472   0.634   5.172 -0.5249 -1.5611 -0.1995
 3933TIP3    H211806   4.570   0.697   5.075 -0.2225  0.1608  1.1646
 3934TIP3   OH211807   1.153   4.416   4.327  0.0833 -0.3517 -0.1149
 3934TIP3    H111808   1.212   4.394   4.255 -0.0396 -0.2809 -0.2377
 3934TIP3    H211809   1.208   4.466   4.388  0.1755 -0.3721 -0.1808
 3935TIP3   OH211810   4.142   0.421   1.685  0.4033 -0.0180  0.7146
 3935TIP3    H111811   4.060   0.374   1.701 -1.3318  1.1912 -3.3205
 3935TIP3    H211812   4.210   0.355   1.699 -1.4250 -1.8122  1.7356
 3936TIP3   OH211813   0.352   3.666   3.400 -0.2910  0.2696 -0.1685
 3936TIP3    H111814   0.351   3.658   3.304  1.1856  0.6908 -0.2305
 3936TIP3    H211815   0.354   3.760   3.416 -0.1699  0.1918  0.2762
 3937TIP3   OH211816   2.519   3.223   3.723  0.0429 -0.3108  0.5865
 3937TIP3    H111817   2.457   3.283   3.762  0.0307  0.8349 -1.0996
 3937TIP3    H211818   2.591   3.218   3.786 -0.4696  0.5615  1.2565
 3938TIP3   OH211819   1.836   0.223   1.543 -0.2636  0.0986 -0.1161
 3938TIP3    H111820   1.828   0.312   1.577  0.6784  0.3038 -0.4191
 3938TIP3    H211821   1.839   0.233   1.448 -0.5509 -0.2986 -0.1754
 3939TIP3   OH211822   0.085   2.910   0.878  0.1081 -0.4459 -0.6170
 3939TIP3    H111823   0.130   2.855   0.942 -0.1592 -0.1853 -0.2028
 3939TIP3    H211824   0.071   2.853   0.803  2.4541 -0.1625 -1.3689
 3940TIP3   OH211825   1.759   1.739   2.834 -0.0318  0.3660  0.3129
 3940TIP3    H111826   1.712   1.663   2.869  0.7737 -1.8494 -2.9866
 3940TIP3    H211827   1.738   1.809   2.895 -1.3519 -2.3028  3.2262
 3941TIP3   OH211828   5.161   0.797   4.994 -0.0376  0.4974  0.3566
 3941TIP3    H111829   5.247   0.833   5.017  0.6679  0.4474 -1.9158
 3941TIP3    H211830   5.165   0.786   4.899 -2.0490 -0.8969  0.3765
 3942TIP3   OH211831   5.073   4.876   2.357  0.2053  0.4599 -0.1437
 3942TIP3    H111832   5.017   4.823   2.302  1.1501  0.7311 -1.4174
 3942TIP3    H211833   5.145   4.818   2.382  1.5294  1.1982 -1.9845
 3943TIP3   OH211834   1.988   0.250   0.593 -0.5628 -0.0574  0.1112
 3943TIP3    H111835   2.027   0.334   0.568  0.1549 -0.2944  0.3855
 3943TIP3    H211836   1.904   0.273   0.632 -0.1801  0.5740  0.5948
 3944TIP3   OH211837   5.239   0.147   2.720  0.1828  0.3631 -0.0175
 3944TIP3    H111838   5.157   0.113   2.755  0.3857  0.7943  0.8959
 3944TIP3    H211839   5.229   0.242   2.724 -0.2552  0.4674 -2.2477
 3945TIP3   OH211840   5.820   2.517   1.808  0.4786 -0.0852  0.1932
 3945TIP3    H111841   5.825   2.586   1.874  0.7818  0.1147 -0.0379
 3945TIP3    H211842   5.911   2.498   1.787  0.3752  0.0887 -0.4188
 3946TIP3   OH211843   4.106   5.638   0.941 -0.0772 -0.3354 -0.2702
 3946TIP3    H111844   4.151   5.571   0.891 -0.2228 -1.5844  1.2031
 3946TIP3    H211845   4.100   5.713   0.882  2.1949 -0.7848 -1.1469
 3947TIP3   OH211846   0.720   2.080   4.835 -0.2365 -0.3901 -0.5319
 3947TIP3    H111847   0.775   2.151   4.869 -0.3438 -1.2429  1.5410
 3947TIP3    H211848   0.631   2.109   4.851 -0.2808 -0.9500  0.2947
 3948TIP3   OH211849   1.670   5.251   2.987 -0.2082  0.9204  0.6235
 3948TIP3    H111850   1.747   5.308   2.981  0.4477  0.0444  0.5358
 3948TIP3    H211851   1.672   5.218   3.077  0.7749 -0.8039  0.0031
 3949TIP3   OH211852   5.099   0.353   5.179 -0.6610  0.0893 -0.1927
 3949TIP3    H111853   5.104   0.276   5.123 -1.4820  0.5896 -0.9881
 3949TIP3    H211854   5.032   0.408   5.139 -0.8104  0.7665  0.9242
 3950TIP3   OH211855   5.919   3.079   0.509  0.0949  0.3989 -0.3281
 3950TIP3    H111856   5.879   3.146   0.563 -0.0418  0.7860 -0.9073
 3950TIP3    H211857   5.931   3.120   0.423 -0.4924 -0.4767 -0.8495
 3951TIP3   OH211858   2.159   2.851   4.058 -0.2741  0.8729  0.0649
 3951TIP3    H111859   2.169   2.947   4.060 -0.4702  0.9102 -0.7427
 3951TIP3    H211860   2.156   2.829   3.965 -1.9712  0.2622  0.2446
 3952TIP3   OH211861   1.908   0.527   2.181 -0.1777 -0.1802 -0.5463
 3952TIP3    H111862   1.964   0.493   2.112  0.5446  1.0228 -0.5700
 3952TIP3    H211863   1.900   0.620   2.162  0.1355  0.1978  1.0627
 3953TIP3   OH211864   5.723   2.082   4.693 -0.6413  0.5585  0.3721
 3953TIP3    H111865   5.726   1.994   4.656 -0.8809  0.1762  1.2401
 3953TIP3    H211866   5.761   2.138   4.625  1.0001 -0.4278  0.4330
 3954TIP3   OH211867   2.180   2.822   4.463  0.3272 -0.0811 -0.4380
 3954TIP3    H111868   2.251   2.816   4.399  0.7317 -0.0967  0.0052
 3954TIP3    H211869   2.102   2.794   4.415  0.5580  0.2650 -1.0271
 3955TIP3   OH211870   5.892   1.250   1.851  0.1451  0.5884 -0.8461
 3955TIP3    H111871   5.976   1.227   1.891  0.3660  2.1989 -0.3002
 3955TIP3    H211872   5.871   1.176   1.795  0.8167 -0.8625  0.7222
 3956TIP3   OH211873   5.364   4.503   4.935 -0.1751  0.3199 -0.0205
 3956TIP3    H111874   5.350   4.408   4.945  0.6332  0.1830 -0.0920
 3956TIP3    H211875   5.404   4.512   4.849  2.4005  0.4032  1.1097
 3957TIP3   OH211876   5.992   2.232   5.133  0.0901  0.4270 -0.1691
 3957TIP3    H111877   5.976   2.227   5.039 -1.2215  0.2860  0.0433
 3957TIP3    H211878   6.020   2.322   5.149 -0.3158  0.6332 -0.6097
 3958TIP3   OH211879   2.813   3.328   1.160  0.3617 -0.3527  0.7131
 3958TIP3    H111880   2.875   3.267   1.199  2.2541 -0.3187 -1.9655
 3958TIP3    H211881   2.733   3.278   1.148  1.0688 -1.5407  0.8562
 3959TIP3   OH211882   2.933   5.621   4.653  0.0719 -0.4299 -0.8916
 3959TIP3    H111883   2.920   5.530   4.680  2.4525 -0.1520  1.6403
 3959TIP3    H211884   3.022   5.623   4.617  0.3031  1.0142 -0.2815
 3960TIP3   OH211885   5.196   4.532   1.342 -0.0291 -0.3561  0.1795
 3960TIP3    H111886   5.247   4.473   1.398  0.5864  0.3759  0.4010
 3960TIP3    H211887   5.239   4.617   1.350 -0.1643 -0.1368 -1.0894
 3961TIP3   OH211888   0.291   4.990   2.554 -0.1081 -0.4057  0.1317
 3961TIP3    H111889   0.265   5.077   2.584  1.3656  0.4439 -0.9190
 3961TIP3    H211890   0.312   4.942   2.634  0.0532  0.5562  0.6797
 3962TIP3   OH211891   4.906   4.980   2.546  0.0591 -0.5909 -0.3688
 3962TIP3    H111892   4.859   5.047   2.496 -1.1503 -0.3486  1.0185
 3962TIP3    H211893   4.926   4.912   2.482  1.8473  1.2982 -1.9476
 3963TIP3   OH211894   4.067   0.566   0.078 -0.0711 -0.7746 -0.5266
 3963TIP3    H111895   3.999   0.512   0.116  1.8658 -2.6250  0.5436
 3963TIP3    H211896   4.129   0.581   0.150  0.4668  1.2348 -1.3245
 3964TIP3   OH211897   2.128   5.822   5.177 -0.2621  0.5880  0.2619
 3964TIP3    H111898   2.034   5.825   5.156 -0.5975 -0.4289  1.5062
 3964TIP3    H211899   2.142   5.733   5.210  1.3375  0.4494 -0.7074
 3965TIP3   OH211900   6.176   2.203   2.435 -0.9471 -0.3674 -0.4074
 3965TIP3    H111901   6.246   2.160   2.484 -1.8210 -1.4277 -0.0389
 3965TIP3    H211902   6.187   2.296   2.454 -0.9737 -0.7006  1.4305
 3966TIP3   OH211903   3.425   1.033   0.531 -0.8142 -0.1887  0.4237
 3966TIP3    H111904   3.496   1.073   0.582 -1.5223 -1.7678  2.8558
 3966TIP3    H211905   3.470   0.984   0.462  0.7004 -2.0156  2.5181
 3967TIP3   OH211906   3.757   4.375   3.966 -0.3563 -0.2953 -0.8350
 3967TIP3    H111907   3.750   4.470   3.968 -2.5919 -0.3823 -1.4066
 3967TIP3    H211908   3.850   4.357   3.954  0.0734  1.8111 -0.9121
 3968TIP3   OH211909   1.778   0.153   4.302 -0.2719 -0.2790  0.5911
 3968TIP3    H111910   1.849   0.179   4.244  0.4456  1.0045  1.9871
 3968TIP3    H211911   1.726   0.092   4.249  2.3211 -1.9822 -0.1665
 3969TIP3   OH211912   5.926   3.699   3.887  0.0777  0.6660 -0.4258
 3969TIP3    H111913   5.968   3.763   3.944  0.6738 -1.1288  1.2702
 3969TIP3    H211914   5.928   3.617   3.937 -1.3494 -0.5188 -2.1683
 3970TIP3   OH211915   0.914   4.187   1.542 -0.3618  0.6492  0.6274
 3970TIP3    H111916   0.969   4.169   1.466  0.6568 -0.7851  1.6535
 3970TIP3    H211917   0.851   4.114   1.543 -0.5782  0.8391  0.9796
 3971TIP3   OH211918   0.708   4.918   0.668 -0.3488 -0.6518  0.4199
 3971TIP3    H111919   0.616   4.926   0.692  0.0192 -1.9436  2.5444
 3971TIP3    H211920   0.755   4.923   0.752  1.6142  0.8052 -0.6742
 3972TIP3   OH211921   2.050   4.022   0.553 -0.2197  0.1530 -0.5588
 3972TIP3    H111922   2.060   4.017   0.458  1.2379  4.0828 -0.7747
 3972TIP3    H211923   1.976   4.080   0.567 -0.5708 -0.5677  0.7483
 3973TIP3   OH211924   0.585   0.749   1.986 -0.1386 -0.2333 -0.0149
 3973TIP3    H111925   0.545   0.805   2.052 -0.6602 -1.7935  1.0588
 3973TIP3    H211926   0.670   0.790   1.969 -0.4829  0.8560  0.7421
 3974TIP3   OH211927   3.476   0.028   4.807  0.3379 -0.2245 -0.0193
 3974TIP3    H111928   3.533   0.051   4.880 -0.1791 -0.4851  0.4813
 3974TIP3    H211929   3.485  -0.067   4.798 -0.3088 -0.3299  0.3339
 3975TIP3   OH211930   6.201   2.411   3.443  0.4231  0.0856  0.1295
 3975TIP3    H111931   6.283   2.397   3.489  0.5199  1.1354  0.3098
 3975TIP3    H211932   6.147   2.336   3.466  0.1847  0.9247  2.6058
 3976TIP3   OH211933   2.153   2.836   0.436 -0.8651 -0.7059 -0.2389
 3976TIP3    H111934   2.058   2.834   0.442 -0.9946  1.4807 -0.5413
 3976TIP3    H211935   2.177   2.751   0.399 -2.6350 -1.5058  0.3715
 3977TIP3   OH211936   0.145   0.439   1.948 -0.6387  0.5260 -0.5191
 3977TIP3    H111937   0.156   0.476   2.036  2.5229  0.5258 -0.7888
 3977TIP3    H211938   0.150   0.344   1.961 -0.7531  0.5018 -0.6475
 3978TIP3   OH211939   3.412   1.539   0.105 -0.2084  0.0744  0.1023
 3978TIP3    H111940   3.320   1.561   0.092 -0.7181 -1.2969  1.1774
 3978TIP3    H211941   3.456   1.624   0.114 -1.0936  0.8073 -1.9284
 3979TIP3   OH211942   1.446   1.048   4.171 -0.2653  0.0668 -0.3296
 3979TIP3    H111943   1.496   1.119   4.211 -0.2889 -0.4317  0.6172
 3979TIP3    H211944   1.384   1.093   4.113 -1.0548  0.9203  1.0997
 3980TIP3   OH211945   0.344   4.138   3.453 -0.4370  0.1282  0.5524
 3980TIP3    H111946   0.280   4.158   3.520  0.1702 -0.4405  1.3223
 3980TIP3    H211947   0.374   4.050   3.473 -0.9057 -0.4162 -1.0149
 3981TIP3   OH211948   0.505   2.507   1.916 -0.1292  0.5630  0.1951
 3981TIP3    H111949   0.487   2.415   1.897  1.3526 -0.2229  2.1976
 3981TIP3    H211950   0.488   2.516   2.010 -1.3146  2.6543 -0.1400
 3982TIP3   OH211951   0.729   1.102   0.498  0.0755  0.3676 -0.1731
 3982TIP3    H111952   0.793   1.108   0.427 -0.1951 -1.1674 -0.5818
 3982TIP3    H211953   0.721   1.008   0.515 -1.6864  0.5529  0.2152
 3983TIP3   OH211954   2.586   0.771   3.913 -0.4806  0.5339 -0.1544
 3983TIP3    H111955   2.540   0.687   3.913  1.0753 -0.3592 -0.3793
 3983TIP3    H211956   2.540   0.824   3.848 -0.1072 -0.9683 -1.7074
 3984TIP3   OH211957   4.043   3.505   0.130  0.1718 -0.2594 -0.0793
 3984TIP3    H111958   4.114   3.567   0.146  0.1378 -0.0923 -0.5708
 3984TIP3    H211959   4.084   3.419   0.140  0.0764 -0.1696  1.2357
 3985TIP3   OH211960   2.057   0.513   0.560 -0.1047 -0.0522  0.2342
 3985TIP3    H111961   2.059   0.589   0.502 -3.1624 -0.2603 -0.2923
 3985TIP3    H211962   2.067   0.550   0.648  0.1137  0.7776 -0.1299
 3986TIP3   OH211963   2.740   5.166   1.209 -0.6114  0.0506  0.1009
 3986TIP3    H111964   2.754   5.134   1.298 -1.8671  0.0909  0.3194
 3986TIP3    H211965   2.753   5.088   1.154 -0.3868 -0.0975  0.3573
 3987TIP3   OH211966   2.266   4.234   4.438 -0.3963  0.7055 -0.1735
 3987TIP3    H111967   2.204   4.292   4.393 -1.3594 -0.5995 -0.5919
 3987TIP3    H211968   2.224   4.214   4.521 -0.4013  0.0420 -0.3337
 3988TIP3   OH211969   3.344   4.529   0.294 -0.2064 -0.1669 -0.1110
 3988TIP3    H111970   3.348   4.550   0.201  2.5500 -0.4538 -0.1544
 3988TIP3    H211971   3.324   4.435   0.296 -1.2746  0.0403 -0.3407
 3989TIP3   OH211972   4.767   1.768   3.195  0.1503  0.3806  0.2198
 3989TIP3    H111973   4.771   1.857   3.160  0.0957  0.2588 -0.0973
 3989TIP3    H211974   4.748   1.713   3.119  0.1573  0.1007  0.4196
 3990TIP3   OH211975   0.664   2.849   0.845  0.4981 -1.0198 -0.3686
 3990TIP3    H111976   0.730   2.848   0.776 -1.2035  1.3082 -2.1986
 3990TIP3    H211977   0.608   2.774   0.825 -1.0852  0.6356 -2.9005
 3991TIP3   OH211978   0.686   2.600   1.726  0.0443  0.1337 -0.5227
 3991TIP3    H111979   0.777   2.613   1.749  0.1720  1.0561 -1.4564
 3991TIP3    H211980   0.644   2.567   1.806  1.6336 -2.5853 -0.6854
 3992TIP3   OH211981   0.039   2.513   2.756  0.0183  0.7094  0.0356
 3992TIP3    H111982  -0.000   2.566   2.825  2.1624  1.5126  0.7362
 3992TIP3    H211983  -0.029   2.506   2.689 -1.9626  0.3226  1.9668
 3993TIP3   OH211984   0.660   3.655   2.383  0.4644  0.1622 -0.4227
 3993TIP3    H111985   0.744   3.661   2.429  0.3776  0.2658 -0.2774
 3993TIP3    H211986   0.681   3.674   2.292  0.7016 -0.4194 -0.4932
 3994TIP3   OH211987   3.906   3.040   2.782 -0.7241  0.1780  0.2314
 3994TIP3    H111988   3.913   3.014   2.874  1.0770 -1.4439 -0.2747
 3994TIP3    H211989   3.815   3.022   2.759 -0.9924 -0.1992  1.4939
 3995TIP3   OH211990   0.304   5.609   3.431 -0.5843 -0.6833  0.1664
 3995TIP3    H111991   0.334   5.675   3.493  2.0261  0.3875 -2.0447
 3995TIP3    H211992   0.229   5.649   3.387  1.6307  1.4619 -1.9316
 3996TIP3   OH211993   0.395   5.754   1.518 -0.1300 -0.2732 -0.3299
 3996TIP3    H111994   0.460   5.699   1.474  0.7039 -0.2216  0.8023
 3996TIP3    H211995   0.428   5.843   1.507 -1.2601  0.0063 -1.7889
 3997TIP3   OH211996   3.585   1.268   0.818 -0.1541  0.0929  0.8431
 3997TIP3    H111997   3.500   1.285   0.778  0.1448 -0.7680 -0.2231
 3997TIP3    H211998   3.575   1.292   0.910 -1.1429  1.2781  0.4408
 3998TIP3   OH211999   0.826   3.611   4.455 -0.3148 -0.0863  0.0652
 3998TIP3    H112000   0.736   3.580   4.459 -0.2392 -0.3124  0.0563
 3998TIP3    H212001   0.879   3.532   4.467 -0.1192  0.2449  1.6222
 3999TIP3   OH212002   5.680   4.680   1.818 -0.4494 -0.4799  0.1842
 3999TIP3    H112003   5.647   4.653   1.733 -0.5952 -1.0425  0.4136
 3999TIP3    H212004   5.689   4.598   1.867 -0.7243 -0.1270  0.8343
 4000TIP3   OH212005   3.465   2.176   0.042  0.1771 -0.8814 -0.2718
 4000TIP3    H112006   3.388   2.181   0.099  0.7534 -2.0126  0.6465
 4000TIP3    H212007   3.493   2.085   0.046  1.1260 -0.6587 -1.1892
 4001TIP3   OH212008   6.240   1.496   2.209  0.1991 -0.1184  0.4835
 4001TIP3    H112009   6.235   1.473   2.302 -0.5370  1.6686  0.9190
 4001TIP3    H212010   6.293   1.575   2.206 -1.5307  1.0692 -0.3478
 4002TIP3   OH212011   1.300   5.144   2.322 -0.1534  0.4083  0.0742
 4002TIP3    H112012   1.362   5.098   2.266  1.8777  1.0705  1.6282
 4002TIP3    H212013   1.337   5.137   2.410 -3.3518 -0.8573  1.4901
 4003TIP3   OH212014   0.410   0.477   2.359  0.0780 -0.3774  0.0312
 4003TIP3    H112015   0.454   0.402   2.319  0.6800  0.5030 -1.0253
 4003TIP3    H212016   0.367   0.522   2.286 -2.2778 -0.9696  0.9781
 4004TIP3   OH212017   3.821   3.495   2.967  0.2515  0.0295  0.0577
 4004TIP3    H112018   3.853   3.570   2.916 -0.8067 -0.0466 -0.7492
 4004TIP3    H212019   3.754   3.455   2.912 -0.5054 -0.4210  1.2609
 4005TIP3   OH212020   0.839   5.208   3.220  0.0612 -0.0717 -0.5323
 4005TIP3    H112021   0.818   5.123   3.259  0.8918 -0.2069 -0.3512
 4005TIP3    H212022   0.863   5.263   3.295 -0.5385  0.3531 -0.6405
 4006TIP3   OH212023   1.738   0.283   0.110 -0.4313 -0.1241 -0.0003
 4006TIP3    H112024   1.796   0.268   0.185 -0.4419 -0.6427 -0.0958
 4006TIP3    H212025   1.698   0.198   0.093 -1.6971  0.3575  0.4519
 4007TIP3   OH212026   3.114   2.709   3.646  0.1990 -0.1875  0.2401
 4007TIP3    H112027   3.145   2.764   3.574 -0.1480 -0.1814  0.0922
 4007TIP3    H212028   3.044   2.759   3.687 -0.7172 -0.8627 -0.4337
 4008TIP3   OH212029   2.829   4.788   0.333  0.0211 -0.3864  0.7008
 4008TIP3    H112030   2.777   4.725   0.382  1.1179 -0.9954  1.1187
 4008TIP3    H212031   2.918   4.754   0.338  0.4429  0.5624 -0.1008
 4009TIP3   OH212032   1.825   1.171   0.030  0.2323  0.0677  0.5940
 4009TIP3    H112033   1.749   1.202  -0.019  0.8883  0.9972  0.1605
 4009TIP3    H212034   1.864   1.249   0.068  0.6893 -0.4601  1.2542
 4010TIP3   OH212035   4.626   4.108   3.690 -0.5089 -0.2621 -0.1257
 4010TIP3    H112036   4.647   4.035   3.632  0.0204  0.1545 -0.4640
 4010TIP3    H212037   4.657   4.080   3.776  1.3229  0.2594 -0.5706
 4011TIP3   OH212038   3.684   0.847   2.402 -0.1867 -0.2286  0.0700
 4011TIP3    H112039   3.745   0.797   2.456 -0.3109 -1.2251 -0.6764
 4011TIP3    H212040   3.711   0.938   2.413 -0.8610 -0.2516  2.6450
 4012TIP3   OH212041   4.957   4.446   0.511 -0.4534 -0.3319  0.7372
 4012TIP3    H112042   4.952   4.358   0.546  0.2804 -1.1204 -1.0225
 4012TIP3    H212043   4.867   4.467   0.485 -0.4661 -1.0162  0.1819
 4013TIP3   OH212044   2.760   4.186   1.602 -0.1738  0.0801 -0.0698
 4013TIP3    H112045   2.685   4.150   1.555 -0.7746  1.7489 -0.4694
 4013TIP3    H212046   2.793   4.256   1.546  1.9424 -0.8488 -0.0655
 4014TIP3   OH212047   4.191   0.785   3.648 -0.4026 -0.3200 -0.2185
 4014TIP3    H112048   4.141   0.729   3.707 -1.4918  0.0161 -0.7886
 4014TIP3    H212049   4.172   0.874   3.677 -0.8943 -0.1527 -1.0066
 4015TIP3   OH212050   3.661   2.653   4.013 -0.3936  0.5274 -0.3143
 4015TIP3    H112051   3.614   2.592   3.956 -0.9031  0.4375  0.1994
 4015TIP3    H212052   3.658   2.612   4.099  2.6000 -0.6446 -0.6493
 4016TIP3   OH212053   4.503   5.071   4.457 -0.0198 -0.1825 -0.3072
 4016TIP3    H112054   4.592   5.101   4.440 -0.4419  1.5826  0.3049
 4016TIP3    H212055   4.455   5.090   4.376 -0.3436  1.0955  0.1664
 4017TIP3   OH212056   4.942   5.115   3.280  0.3259 -0.5469  0.0467
 4017TIP3    H112057   4.851   5.141   3.268  1.0113  1.3589 -1.5528
 4017TIP3    H212058   4.946   5.027   3.243 -0.6824 -0.2854 -0.7460
 4018TIP3   OH212059   0.230   2.419   4.889 -0.8346 -0.2281 -0.2842
 4018TIP3    H112060   0.195   2.490   4.835 -2.5012  0.2813  1.3414
 4018TIP3    H212061   0.276   2.362   4.828 -1.3778  1.0802 -1.9769
 4019TIP3   OH212062   3.279   0.665   4.818  0.6082 -0.0715 -0.0012
 4019TIP3    H112063   3.301   0.575   4.797 -0.7638 -1.0000  2.1662
 4019TIP3    H212064   3.183   0.668   4.814  0.6450  1.4213 -0.4505
 4020TIP3   OH212065   4.043   1.207   4.439  0.5299 -0.0857 -0.2903
 4020TIP3    H112066   4.064   1.174   4.526 -0.3069 -2.8159 -1.0437
 4020TIP3    H212067   4.002   1.292   4.455 -0.8640 -1.1277  2.0795
 4021TIP3   OH212068   1.340   1.179   1.004 -0.5314  0.1190  0.2241
 4021TIP3    H112069   1.310   1.266   0.977  0.7868  0.3451 -0.5772
 4021TIP3    H212070   1.383   1.194   1.088 -0.4411  0.2165  0.1606
 4022TIP3   OH212071   0.015   1.408   4.427  0.0437 -0.1264  0.0544
 4022TIP3    H112072   0.020   1.439   4.517 -0.8973  0.6806 -0.1527
 4022TIP3    H212073  -0.018   1.318   4.434  0.5025 -0.2619  0.5323
 4023TIP3   OH212074   2.236   3.126   2.170  0.4630 -0.0193  0.4607
 4023TIP3    H112075   2.282   3.208   2.152  3.0896 -1.6754 -1.2759
 4023TIP3    H212076   2.280   3.091   2.247  0.1964 -0.3379  0.4667
 4024TIP3   OH212077   0.821   5.257   4.818 -0.1682  0.1287  0.1418
 4024TIP3    H112078   0.789   5.312   4.746  1.3042  0.5543 -0.2178
 4024TIP3    H212079   0.834   5.318   4.891 -1.7271 -0.3126  0.8252
 4025TIP3   OH212080   0.139   2.348   4.347 -0.4059 -0.4566  0.0245
 4025TIP3    H112081   0.046   2.348   4.326 -0.0266  1.2599 -2.0185
 4025TIP3    H212082   0.181   2.306   4.272  0.7054  1.9473 -0.7864
 4026TIP3   OH212083   4.116   0.130   2.707 -0.3502 -0.2056 -0.6800
 4026TIP3    H112084   4.084   0.123   2.618 -1.7570  0.8593 -0.2976
 4026TIP3    H212085   4.177   0.204   2.705  0.2270 -0.6751 -0.8964
 4027TIP3   OH212086   4.775   1.884   1.159 -0.2422  0.4029 -0.3944
 4027TIP3    H112087   4.726   1.960   1.188 -0.3439  0.3560 -0.4440
 4027TIP3    H212088   4.862   1.917   1.139 -0.2025  0.4555 -0.1400
 4028TIP3   OH212089   0.917   4.571   0.194 -0.0555  0.4240  0.1319
 4028TIP3    H112090   0.979   4.534   0.257  1.1276  0.4232 -0.9767
 4028TIP3    H212091   0.876   4.495   0.152  0.2942  0.3966 -0.1664
 4029TIP3   OH212092   0.563   1.976   3.987  0.1934  0.0617  0.2518
 4029TIP3    H112093   0.638   1.965   3.928 -0.9029  0.3681 -1.2462
 4029TIP3    H212094   0.601   1.973   4.075  1.9585  0.2192 -0.4728
 4030TIP3   OH212095   2.632   1.177   4.404 -0.2558  0.8604 -0.5652
 4030TIP3    H112096   2.695   1.198   4.473  0.6059 -0.1452 -1.0221
 4030TIP3    H212097   2.596   1.262   4.378 -0.9655  1.2429  1.4236
 4031TIP3   OH212098   3.355   4.382   3.446  0.2836 -0.4388 -0.9023
 4031TIP3    H112099   3.402   4.394   3.364  0.5766  0.5747 -0.6066
 4031TIP3    H212100   3.397   4.307   3.488  1.1878  0.0212 -0.9632
 4032TIP3   OH212101   6.172   2.123   2.172 -0.0919 -0.2608  0.6333
 4032TIP3    H112102   6.088   2.124   2.127 -0.8602 -2.6860  1.8433
 4032TIP3    H212103   6.157   2.168   2.255 -0.2017 -0.6592  0.8324
 4033TIP3   OH212104   4.167   2.183   3.274 -0.8617  0.1116 -0.3119
 4033TIP3    H112105   4.145   2.270   3.238 -1.0750  0.1694 -0.0469
 4033TIP3    H212106   4.194   2.132   3.198  3.6121  1.6659 -0.0182
 4034TIP3   OH212107   4.477   0.821   3.158 -0.0320  1.0302 -0.1256
 4034TIP3    H112108   4.515   0.747   3.205  0.5168  1.4778  0.1486
 4034TIP3    H212109   4.421   0.782   3.092 -1.4480  0.3736  1.3814
 4035TIP3   OH212110   0.172   5.213   0.759  0.0020  0.5365 -0.3504
 4035TIP3    H112111   0.186   5.296   0.712 -0.8097  0.9635  0.1447
 4035TIP3    H212112   0.237   5.215   0.829 -0.6333  1.2136  0.2395
 4036TIP3   OH212113   0.504   5.743   2.747 -0.1814 -0.0712  1.0559
 4036TIP3    H112114   0.469   5.679   2.809  0.1665 -0.0559  1.2669
 4036TIP3    H212115   0.579   5.782   2.791  1.7248 -1.9242 -0.3577
 4037TIP3   OH212116   5.137   3.112   1.062 -0.4303  0.2282 -0.3435
 4037TIP3    H112117   5.143   3.207   1.074 -0.4542  0.1710  0.1530
 4037TIP3    H212118   5.228   3.081   1.068 -0.2133  0.3909 -2.1586
 4038TIP3   OH212119   4.687   3.069   3.073  0.3646 -0.0495  0.2546
 4038TIP3    H112120   4.761   3.014   3.045  0.4032 -0.1542  0.5623
 4038TIP3    H212121   4.723   3.124   3.142  0.0770 -0.3036  0.6054
 4039TIP3   OH212122   5.648   4.180   3.064  0.1691  0.2845  0.5823
 4039TIP3    H112123   5.700   4.196   3.143 -1.2889  2.8223  1.1331
 4039TIP3    H212124   5.563   4.220   3.082 -0.2659  0.8739 -2.2297
 4040TIP3   OH212125   2.777   5.903   2.867 -0.7177 -0.0864 -0.1649
 4040TIP3    H112126   2.832   5.897   2.789 -0.5969 -0.8445 -0.0288
 4040TIP3    H212127   2.688   5.906   2.833 -0.5970  1.3799 -0.3970
 4041TIP3   OH212128   5.103   1.703   4.356  0.1209 -0.0798 -0.1496
 4041TIP3    H112129   5.075   1.789   4.327 -0.0913 -0.5484 -1.4065
 4041TIP3    H212130   5.195   1.714   4.379 -0.0622  0.6034  0.2967
 4042TIP3   OH212131   1.444   4.959   1.737  0.1762 -0.3934 -0.2318
 4042TIP3    H112132   1.488   4.884   1.696 -1.5710 -0.9187 -1.2686
 4042TIP3    H212133   1.436   4.935   1.829  0.5181 -1.0615 -0.3704
 4043TIP3   OH212134   2.555   5.023   5.067  0.1971  0.0287 -0.4775
 4043TIP3    H112135   2.495   4.951   5.085 -0.3248  0.5502 -0.0790
 4043TIP3    H212136   2.534   5.050   4.977 -1.3287  1.2563  0.1904
 4044TIP3   OH212137   0.228   0.777   1.492 -0.0418 -0.3170 -0.7946
 4044TIP3    H112138   0.206   0.684   1.496  0.3699 -0.4616 -1.5519
 4044TIP3    H212139   0.145   0.821   1.477 -0.4834 -0.3955  1.2460
 4045TIP3   OH212140   3.813   2.205   4.608  0.2000  0.1933 -0.3188
 4045TIP3    H112141   3.736   2.217   4.663 -0.4802 -0.8674 -1.0003
 4045TIP3    H212142   3.839   2.293   4.583 -0.8888  0.5614 -0.2030
 4046TIP3   OH212143   3.442   0.686   0.184 -0.3261 -0.3493  0.3977
 4046TIP3    H112144   3.513   0.688   0.120 -2.4830  0.3202 -2.1766
 4046TIP3    H212145   3.366   0.654   0.135 -2.2261  0.5222  2.5527
 4047TIP3   OH212146   6.069   2.130   3.481  0.3455  0.0709  0.8190
 4047TIP3    H112147   6.020   2.154   3.560 -0.3176  1.1972  0.0910
 4047TIP3    H212148   6.142   2.077   3.513 -1.1741 -1.4016  1.9512
 4048TIP3   OH212149   0.631   4.285   3.692 -0.0745  0.3196 -0.0029
 4048TIP3    H112150   0.667   4.287   3.604  1.4624  1.1772  0.5997
 4048TIP3    H212151   0.565   4.215   3.690  0.3938 -0.1147 -1.6384
 4049TIP3   OH212152   4.348   4.353   4.216  0.3965 -0.3464  0.1807
 4049TIP3    H112153   4.392   4.329   4.297  2.5425  1.8835 -0.2078
 4049TIP3    H212154   4.307   4.272   4.186  0.8207 -1.5848  2.6685
 4050TIP3   OH212155   3.387   2.425   4.214  0.1292  0.0911  0.0382
 4050TIP3    H112156   3.375   2.335   4.242  1.5966 -0.2126 -0.2385
 4050TIP3    H212157   3.320   2.439   4.147 -0.4394 -0.6146  0.4528
 4051TIP3   OH212158   2.400   0.673   3.040 -0.1333  0.4546  0.1706
 4051TIP3    H112159   2.370   0.684   3.130  1.1867 -0.6448  0.7714
 4051TIP3    H212160   2.466   0.741   3.028 -0.3488  0.6368  0.0057
 4052TIP3   OH212161   0.992   5.069   1.357  0.1841  0.0713 -0.3437
 4052TIP3    H112162   1.039   5.150   1.376  0.0673  0.2130 -0.6659
 4052TIP3    H212163   1.049   5.023   1.295 -1.2638  1.3955 -2.7859
 4053TIP3   OH212164   4.086   2.444   5.130  0.1423  0.1284 -0.4268
 4053TIP3    H112165   4.014   2.442   5.067  0.1595 -0.3794 -0.4325
 4053TIP3    H212166   4.045   2.435   5.215  0.0690  1.3755 -0.3118
 4054TIP3   OH212167   5.811   0.010   3.002  0.1516 -0.3457 -0.2062
 4054TIP3    H112168   5.745  -0.013   2.937 -0.0504 -0.0220 -0.1215
 4054TIP3    H212169   5.838   0.099   2.979  1.7071 -1.0189 -1.1822
 4055TIP3   OH212170   1.917   3.532   2.495  0.2479 -0.0462  0.1783
 4055TIP3    H112171   1.985   3.528   2.562 -0.6464  1.1231  1.1983
 4055TIP3    H212172   1.932   3.453   2.442  2.1891  0.0134  0.5349
 4056TIP3   OH212173   4.568   2.902   0.190  0.2781 -0.5473 -0.3925
 4056TIP3    H112174   4.490   2.848   0.199 -1.6164  1.9504 -0.7721
 4056TIP3    H212175   4.586   2.933   0.279  1.2045 -1.5109 -0.2185
 4057TIP3   OH212176   3.541   5.174   0.751  0.3663  0.2748 -0.4967
 4057TIP3    H112177   3.551   5.232   0.676  0.6096  1.3840  0.3673
 4057TIP3    H212178   3.450   5.143   0.745  0.3425  0.4602 -1.1652
 4058TIP3   OH212179   3.499   1.608   2.301 -0.2466  0.3544  0.0106
 4058TIP3    H112180   3.459   1.633   2.218 -1.2278  1.2280  0.7146
 4058TIP3    H212181   3.470   1.676   2.363  0.6994 -0.1082  0.9987
 4059TIP3   OH212182   3.311   4.301   2.087  0.0006 -0.5209 -0.2561
 4059TIP3    H112183   3.283   4.213   2.061 -0.2069 -0.9688  1.3964
 4059TIP3    H212184   3.403   4.291   2.112 -0.0146 -0.2676 -0.0938
 4060TIP3   OH212185   5.645   0.120   0.075  0.3055  0.3403  0.1648
 4060TIP3    H112186   5.637   0.085   0.164  1.5938 -0.8221 -0.1468
 4060TIP3    H212187   5.739   0.133   0.063 -0.0605  4.0681  0.2557
 4061TIP3   OH212188   5.315   3.065   2.177 -0.0144  0.1793 -0.5254
 4061TIP3    H112189   5.237   3.015   2.200  0.8218 -1.6343 -1.4507
 4061TIP3    H212190   5.282   3.136   2.122 -0.8901 -1.4470 -2.2086
 4062TIP3   OH212191   6.268   3.916   0.885 -0.2444 -0.3216  0.2385
 4062TIP3    H112192   6.185   3.890   0.845 -0.0130 -1.8627  0.6899
 4062TIP3    H212193   6.260   3.888   0.977  0.8320 -0.6635  0.2420
 4063TIP3   OH212194   4.423   0.201   3.274  0.7865 -0.0662  0.5959
 4063TIP3    H112195   4.368   0.169   3.345  1.6051 -1.8848  0.4780
 4063TIP3    H212196   4.491   0.252   3.317 -0.5869  1.6735  0.7916
 4064TIP3   OH212197   1.944   2.115   1.502 -0.1745  0.3957  0.0801
 4064TIP3    H112198   2.023   2.142   1.456  0.8707 -0.9782  0.9814
 4064TIP3    H212199   1.934   2.178   1.573  0.2172  0.4539  0.0826
 4065TIP3   OH212200   4.338   5.100   3.157  0.3944 -0.4218  0.0293
 4065TIP3    H112201   4.411   5.042   3.182 -0.9076 -2.8378 -1.3679
 4065TIP3    H212202   4.371   5.150   3.083  1.3516  0.2478  0.8746
 4066TIP3   OH212203   1.254   4.702   4.312 -0.0105 -0.1944 -0.4812
 4066TIP3    H112204   1.236   4.751   4.232 -0.2131  1.9509  0.7754
 4066TIP3    H212205   1.333   4.652   4.293 -1.0257 -1.1131 -2.5429
 4067TIP3   OH212206   4.416   1.073   4.706  0.0970 -0.2106 -0.0791
 4067TIP3    H112207   4.366   1.140   4.754 -0.7600 -0.2180 -0.9097
 4067TIP3    H212208   4.349   1.010   4.678  0.8204 -1.1059  0.1895
 4068TIP3   OH212209   2.015   4.026   2.582  0.2521  0.2972 -0.3433
 4068TIP3    H112210   1.958   4.099   2.556  0.8941  0.1899 -2.1762
 4068TIP3    H212211   2.103   4.063   2.579  0.3927  1.1698  4.7040
 4069TIP3   OH212212   6.137   1.555   4.044  0.3468 -0.5892  0.0395
 4069TIP3    H112213   6.216   1.552   3.990  3.0463  1.2349  3.4792
 4069TIP3    H212214   6.137   1.473   4.092  0.1994 -0.5475  0.1117
 4070TIP3   OH212215   1.437   3.680   0.213  0.3926 -0.4257 -0.2997
 4070TIP3    H112216   1.364   3.631   0.251  0.0553  1.3461  1.5500
 4070TIP3    H212217   1.513   3.654   0.266 -0.1346  2.2897  2.0806
 4071TIP3   OH212218   0.528   3.879   3.221  1.2094  0.7815 -0.7082
 4071TIP3    H112219   0.461   3.818   3.192  1.9269  0.8239 -2.6123
 4071TIP3    H212220   0.608   3.849   3.178  1.4472  3.4220 -2.3657
 4072TIP3   OH212221   4.566   3.436   0.049  0.0093 -0.8107  0.3152
 4072TIP3    H112222   4.600   3.445   0.138  1.0663 -0.0624 -0.1299
 4072TIP3    H212223   4.523   3.520   0.032  0.7483 -0.5318 -0.2361
 4073TIP3   OH212224   4.359   1.393   4.455  0.3408 -0.2553 -0.2558
 4073TIP3    H112225   4.434   1.366   4.400  1.1840  0.3493  0.5671
 4073TIP3    H212226   4.395   1.459   4.514 -0.6333 -0.6243  0.7875
 4074TIP3   OH212227   5.783   4.434   5.097  0.4670  0.4683  0.4174
 4074TIP3    H112228   5.844   4.377   5.144 -0.0348 -0.0631  0.4414
 4074TIP3    H212229   5.717   4.457   5.162 -0.2551 -0.3038 -0.0229
 4075TIP3   OH212230   2.466   0.609   0.935 -0.0908  0.5361 -0.4295
 4075TIP3    H112231   2.426   0.547   0.995  1.5138 -2.3647 -2.1253
 4075TIP3    H212232   2.509   0.673   0.992 -0.8953 -0.5151  1.4366
 4076TIP3   OH212233   3.941   5.384   3.121 -0.2583  0.5776  0.5751
 4076TIP3    H112234   4.033   5.379   3.149 -0.2991 -2.5262  0.5802
 4076TIP3    H212235   3.944   5.421   3.033  0.9750  0.7478  0.6715
 4077TIP3   OH212236   4.927   0.404   3.811  0.1132  0.0092  0.0703
 4077TIP3    H112237   4.872   0.466   3.858 -0.1039 -1.1562  1.4373
 4077TIP3    H212238   4.972   0.456   3.744 -1.6551  1.2161 -0.2280
 4078TIP3   OH212239   1.110   5.113   2.865 -0.0303  0.0032 -0.1160
 4078TIP3    H112240   1.138   5.023   2.884 -0.4778 -0.1301 -0.0951
 4078TIP3    H212241   1.103   5.117   2.770  0.1794  0.0747 -0.1296
 4079TIP3   OH212242   4.628   4.138   1.312  1.0306 -0.2760  0.5353
 4079TIP3    H112243   4.654   4.094   1.393 -0.8791  0.3270  1.5493
 4079TIP3    H212244   4.546   4.184   1.335  0.1893 -0.4354 -1.8537
 4080TIP3   OH212245   4.659   2.499   3.970 -0.1112 -0.1568  0.1111
 4080TIP3    H112246   4.715   2.427   4.000  0.2165 -0.4905 -1.2420
 4080TIP3    H212247   4.707   2.538   3.897 -0.9984  0.4632 -0.1564
 4081TIP3   OH212248   5.325   1.631   3.428  0.7077  0.1386  0.2579
 4081TIP3    H112249   5.336   1.549   3.379  0.1085 -0.3953  0.9882
 4081TIP3    H212250   5.414   1.658   3.451  0.9493  0.0363 -0.5401
 4082TIP3   OH212251   1.173   2.208   0.269 -0.1311 -0.1662 -0.4110
 4082TIP3    H112252   1.168   2.234   0.177  2.4154  2.2778  0.0275
 4082TIP3    H212253   1.265   2.219   0.292 -0.3182 -2.5728  1.9805
 4083TIP3   OH212254   1.452   5.633   2.470  0.0439 -0.2862  0.2037
 4083TIP3    H112255   1.530   5.650   2.523 -0.6280  2.9559  0.3863
 4083TIP3    H212256   1.485   5.628   2.380  0.5702  0.2492  0.3598
 4084TIP3   OH212257   6.254   2.807   4.141  0.2085  0.1646 -0.2212
 4084TIP3    H112258   6.256   2.875   4.074  0.1653  0.6260  0.2436
 4084TIP3    H212259   6.180   2.751   4.116 -0.1419  0.6392 -0.2610
 4085TIP3   OH212260   5.388   5.047   4.958 -0.6966 -0.5049  0.2032
 4085TIP3    H112261   5.388   4.968   5.012 -1.3611 -0.1762  0.7020
 4085TIP3    H212262   5.308   5.040   4.905 -0.1227 -0.7560 -0.6444
 4086TIP3   OH212263   3.537   5.418   0.069 -0.1860  0.0030  0.3681
 4086TIP3    H112264   3.572   5.506   0.083 -2.9676  1.4582 -0.9159
 4086TIP3    H212265   3.557   5.399  -0.023 -2.1201  0.6381 -0.2292
 4087TIP3   OH212266   5.562   2.822   1.259 -0.6997 -0.0374 -0.4741
 4087TIP3    H112267   5.479   2.787   1.225  0.2232 -1.5664 -1.2723
 4087TIP3    H212268   5.623   2.748   1.254  0.9442  1.2721 -0.6803
 4088TIP3   OH212269   4.311   1.066   2.888  0.2341  0.0693 -0.1651
 4088TIP3    H112270   4.402   1.096   2.899  0.1174  0.4046 -0.1039
 4088TIP3    H212271   4.265   1.142   2.855 -0.0186 -0.1165 -0.2410
 4089TIP3   OH212272   4.746   2.787   4.772  0.8965  0.1836  0.0272
 4089TIP3    H112273   4.692   2.815   4.846  0.3236 -0.7661 -0.0155
 4089TIP3    H212274   4.687   2.735   4.717  1.2504  1.0768 -1.2405
 4090TIP3   OH212275   4.644   0.384   0.970 -0.0673  0.0559  0.5200
 4090TIP3    H112276   4.653   0.295   1.003 -0.2689 -0.3010 -0.3541
 4090TIP3    H212277   4.731   0.407   0.936 -0.0406  0.1597  0.6558
 4091TIP3   OH212278   5.107   5.927   4.864 -0.2119 -0.0411  0.0043
 4091TIP3    H112279   5.132   5.901   4.775  0.5929 -1.3258  0.5737
 4091TIP3    H212280   5.173   5.887   4.920 -1.7049 -0.7757  1.3252
 4092TIP3   OH212281   0.428   2.121   0.613  0.9105 -0.3181 -0.1691
 4092TIP3    H112282   0.371   2.187   0.653  2.4738  0.0658  1.5551
 4092TIP3    H212283   0.438   2.151   0.522 -0.7795  0.1402 -0.2461
 4093TIP3   OH212284   3.251   5.213   0.397  0.7635 -0.0202  0.1747
 4093TIP3    H112285   3.279   5.237   0.485 -0.6563 -0.6332  0.8322
 4093TIP3    H212286   3.160   5.243   0.392 -0.6091 -3.6199  0.4803
 4094TIP3   OH212287   3.002   2.670   2.556 -0.4336 -0.0971 -0.3762
 4094TIP3    H112288   2.984   2.609   2.627  0.4465 -2.1995 -1.8453
 4094TIP3    H212289   3.083   2.714   2.582 -0.2298 -0.6914  0.0118
 4095TIP3   OH212290   0.596   0.537   1.510 -0.7834  0.0657 -0.5248
 4095TIP3    H112291   0.555   0.619   1.535 -0.6073 -0.3826  1.3894
 4095TIP3    H212292   0.647   0.558   1.432 -1.1142  1.6447 -0.3440
 4096TIP3   OH212293   5.152   4.343   2.758  0.0257  0.0888 -0.5509
 4096TIP3    H112294   5.199   4.423   2.781  1.0592 -0.6481 -0.0168
 4096TIP3    H212295   5.220   4.276   2.753 -0.8283 -0.7668 -0.9519
 4097TIP3   OH212296   0.597   3.922   1.816 -0.4156 -0.0659  0.2891
 4097TIP3    H112297   0.577   3.908   1.724 -1.9267  0.6896  0.4723
 4097TIP3    H212298   0.549   3.853   1.862  0.6219 -0.6632  0.5099
 4098TIP3   OH212299   0.381   2.180   3.899 -0.4560  0.0616  0.6909
 4098TIP3    H112300   0.434   2.223   3.832 -1.3934  1.5545  0.8614
 4098TIP3    H212301   0.437   2.111   3.934  1.4656  1.7157  1.0460
 4099TIP3   OH212302   5.687   3.933   4.688 -0.0206  0.0623  0.3307
 4099TIP3    H112303   5.710   4.025   4.699  0.1601  0.0856 -0.2144
 4099TIP3    H212304   5.734   3.888   4.758  0.1329  0.3491  0.4120
 4100TIP3   OH212305   6.228   2.827   4.412 -0.3005 -0.0869 -0.2716
 4100TIP3    H112306   6.241   2.817   4.318 -1.4496  0.1034 -0.4657
 4100TIP3    H212307   6.227   2.922   4.426  0.4517 -0.1121  0.0381
 4101TIP3   OH212308   1.122   0.435   2.667  0.0146  0.3134 -0.6121
 4101TIP3    H112309   1.158   0.466   2.584 -0.2664 -0.5361 -1.0626
 4101TIP3    H212310   1.160   0.348   2.679  1.3581  1.0559  0.9939
 4102TIP3   OH212311   3.160   1.934   2.161  0.1455 -0.5496 -0.1920
 4102TIP3    H112312   3.107   1.903   2.088 -2.7040  0.8312  1.1441
 4102TIP3    H212313   3.144   1.870   2.231  1.5953 -0.9947 -0.2233
 4103TIP3   OH212314   4.390   3.806   0.525 -0.2105  0.0343 -0.4991
 4103TIP3    H112315   4.393   3.773   0.614 -1.7066 -1.8782 -1.0874
 4103TIP3    H212316   4.481   3.822   0.501  0.1380  2.0632  1.8214
 4104TIP3   OH212317   5.157   0.783   1.828 -0.5597  0.3122 -0.1825
 4104TIP3    H112318   5.243   0.823   1.814 -0.7155  0.3344 -1.1284
 4104TIP3    H212319   5.169   0.727   1.905 -0.1171  1.5131  0.6361
 4105TIP3   OH212320   2.500   2.683   0.177 -0.4112 -0.4140 -0.8354
 4105TIP3    H112321   2.576   2.624   0.175 -0.3391 -0.3442 -0.3620
 4105TIP3    H212322   2.517   2.746   0.108  0.4906  0.2286 -0.0588
 4106TIP3   OH212323   0.862   3.604   0.873  0.2651  0.1231 -0.2382
 4106TIP3    H112324   0.878   3.687   0.828  0.6697  1.0189  1.4520
 4106TIP3    H212325   0.938   3.592   0.930 -0.3786 -0.7451  0.4860
 4107TIP3   OH212326   3.526   2.861   2.079  0.6897 -0.2726  0.1246
 4107TIP3    H112327   3.619   2.852   2.060  0.7175  1.0412 -0.4437
 4107TIP3    H212328   3.509   2.955   2.075 -0.6682 -0.4927  0.1663
 4108TIP3   OH212329   5.172   0.841   0.888  0.0619  0.1375 -0.4775
 4108TIP3    H112330   5.207   0.882   0.968 -0.6320 -1.3499  0.6443
 4108TIP3    H212331   5.233   0.867   0.819  0.3491  1.9623  0.4019
 4109TIP3   OH212332   5.669   1.770   1.972  0.3842 -0.3758 -0.1290
 4109TIP3    H112333   5.759   1.770   1.941 -0.7176  1.3835 -3.8643
 4109TIP3    H212334   5.650   1.861   1.993 -0.4450 -0.8072  1.1709
 4110TIP3   OH212335   4.668   2.017  -0.015 -0.0210 -0.1665 -0.1499
 4110TIP3    H112336   4.628   1.934   0.012 -2.1462  0.8596  0.1183
 4110TIP3    H212337   4.643   2.078   0.054  2.6910  0.4613  0.3768
 4111TIP3   OH212338   5.557   1.689   2.229 -0.3727  0.3114  0.5523
 4111TIP3    H112339   5.617   1.727   2.164 -0.6238 -0.6568 -0.2632
 4111TIP3    H212340   5.563   1.595   2.215 -0.1615  0.0539  2.1948
 4112TIP3   OH212341   4.966   1.734   0.229  0.1599  0.0329 -0.2695
 4112TIP3    H112342   5.027   1.760   0.160 -0.8073 -0.1731 -1.2423
 4112TIP3    H212343   4.884   1.718   0.183 -0.2934 -0.9539  0.8251
 4113TIP3   OH212344   2.024   4.419   2.712 -0.1426 -0.0083  0.5842
 4113TIP3    H112345   2.087   4.348   2.696 -0.3512  0.0625 -0.6065
 4113TIP3    H212346   2.026   4.471   2.632 -1.8116 -0.0710  0.4728
 4114TIP3   OH212347   1.731   2.758   0.267  0.7857 -1.1452  0.1652
 4114TIP3    H112348   1.649   2.714   0.288  0.2047 -1.5487 -2.5273
 4114TIP3    H212349   1.704   2.839   0.224  1.7339 -1.5868 -1.3485
 4115TIP3   OH212350   2.315   5.720   2.681 -0.0360 -0.6232  0.1760
 4115TIP3    H112351   2.294   5.673   2.600  0.8478  2.0739 -1.7560
 4115TIP3    H212352   2.237   5.773   2.699  0.3900  0.0621  0.0722
 4116TIP3   OH212353   3.925   0.321   4.722 -0.0148 -0.3583  0.3190
 4116TIP3    H112354   3.988   0.305   4.652 -0.5099 -2.6285  0.3358
 4116TIP3    H212355   3.853   0.261   4.704 -1.5267  1.1247  1.1318
 4117TIP3   OH212356   5.515   1.832   4.596  0.1152 -0.0484  0.7645
 4117TIP3    H112357   5.476   1.864   4.515 -0.2573  0.5193  1.1555
 4117TIP3    H212358   5.610   1.832   4.579 -0.0501 -2.7929 -0.6859
 4118TIP3   OH212359   2.296   5.623   1.545  0.2818  0.0646 -0.3784
 4118TIP3    H112360   2.212   5.619   1.592 -0.3068  2.7112 -1.0517
 4118TIP3    H212361   2.295   5.707   1.500  2.4936 -0.6909 -2.0353
 4119TIP3   OH212362   4.648   1.739   0.629 -0.1849 -0.1398  0.5457
 4119TIP3    H112363   4.678   1.740   0.720  0.3637  0.8844  0.3757
 4119TIP3    H212364   4.605   1.824   0.618  0.7807  0.2392 -0.4712
 4120TIP3   OH212365   4.411   3.815   3.755 -0.8246 -0.0074 -0.1663
 4120TIP3    H112366   4.432   3.739   3.810 -0.8470  0.1386  0.0464
 4120TIP3    H212367   4.483   3.819   3.692 -1.2323 -0.6785 -0.6855
 4121TIP3   OH212368   5.764   0.298   2.096 -0.3304 -0.0848 -0.5455
 4121TIP3    H112369   5.815   0.351   2.035 -0.5785 -0.2573 -0.9057
 4121TIP3    H212370   5.815   0.217   2.107 -0.8615 -0.5451 -1.4418
 4122TIP3   OH212371   2.633   4.575   0.371 -0.0929  0.4800  0.3667
 4122TIP3    H112372   2.539   4.590   0.361 -0.3652 -2.1114 -2.6029
 4122TIP3    H212373   2.670   4.594   0.285  1.2544 -2.8937  0.0315
 4123TIP3   OH212374   4.398   3.969   2.882  0.4206 -0.0706  0.3511
 4123TIP3    H112375   4.409   3.924   2.798  1.3716 -1.0508  0.9866
 4123TIP3    H212376   4.305   3.991   2.885 -0.0860 -2.0018  0.0317
 4124TIP3   OH212377   0.631   3.710   3.692 -0.1318  0.1606 -0.3874
 4124TIP3    H112378   0.573   3.683   3.763 -0.7374  2.1893 -0.0444
 4124TIP3    H212379   0.699   3.643   3.689 -0.8049 -0.6323  1.2551
 4125TIP3   OH212380   6.142   3.131   2.032  0.5081 -0.1106  0.4587
 4125TIP3    H112381   6.072   3.164   1.976  1.4435  1.6208  0.2533
 4125TIP3    H212382   6.198   3.081   1.973  1.1159  1.1317 -0.0533
 4126TIP3   OH212383   4.361   2.574   0.414 -0.2495  0.0143  0.3963
 4126TIP3    H112384   4.284   2.620   0.381  1.1830  2.3306  0.1223
 4126TIP3    H212385   4.419   2.566   0.339  1.0696  1.1050  1.2708
 4127TIP3   OH212386   0.052   1.941   1.946  0.1544 -0.9063  0.5381
 4127TIP3    H112387  -0.039   1.929   1.918  0.0422 -0.9647  0.9168
 4127TIP3    H212388   0.086   1.851   1.956 -0.3660 -0.9535  2.3504
 4128TIP3   OH212389   1.316   4.612   2.965 -0.2720  0.0909 -0.2638
 4128TIP3    H112390   1.324   4.583   3.055 -0.3970 -1.1844 -0.6440
 4128TIP3    H212391   1.404   4.639   2.940 -0.4634  1.5756  0.5860
 4129TIP3   OH212392   0.381   1.252   1.904 -0.0353 -0.0062 -0.0355
 4129TIP3    H112393   0.342   1.277   1.988  0.7805 -0.5460  0.5143
 4129TIP3    H212394   0.429   1.329   1.875  1.9661 -0.6555  1.3524
 4130TIP3   OH212395   3.062   6.016   1.858  0.1104  0.0030 -0.3840
 4130TIP3    H112396   2.971   6.011   1.885  0.0679  2.6947  0.1977
 4130TIP3    H212397   3.104   5.943   1.904 -1.6519 -1.0837 -0.4069
 4131TIP3   OH212398   4.942   3.308   4.501 -0.1707  0.0136 -0.3540
 4131TIP3    H112399   4.995   3.255   4.560  1.5490  1.8234 -0.1787
 4131TIP3    H212400   4.856   3.311   4.542 -0.1021 -1.9322  0.0203
 4132TIP3   OH212401   4.656   1.030   1.900  0.4777  0.0618 -0.6510
 4132TIP3    H112402   4.699   1.112   1.925 -0.1331  0.0066  0.6633
 4132TIP3    H212403   4.671   0.972   1.974 -3.3215  0.6084  0.7253
 4133TIP3   OH212404   1.457   3.193   2.539 -0.0839 -0.5579  0.2394
 4133TIP3    H112405   1.414   3.167   2.621  0.7896  0.4981  1.0774
 4133TIP3    H212406   1.509   3.270   2.564  1.8677 -1.4635 -0.8234
 4134TIP3   OH212407   6.266   4.919   0.513  0.2011  0.1808 -0.0265
 4134TIP3    H112408   6.201   4.913   0.583  1.1093 -0.0964  0.8168
 4134TIP3    H212409   6.347   4.947   0.557  1.0447 -0.9436 -0.7984
 4135TIP3   OH212410   2.534   3.311   4.137 -0.3720  0.2091  0.0953
 4135TIP3    H112411   2.617   3.263   4.137  0.3873  1.4813 -0.1881
 4135TIP3    H212412   2.550   3.386   4.081 -1.8090  0.3540 -0.1541
 4136TIP3   OH212413   2.475   4.631   4.507  0.3849  0.2604  0.0415
 4136TIP3    H112414   2.475   4.542   4.472  0.6178 -0.5064  1.9286
 4136TIP3    H212415   2.396   4.635   4.561 -0.4893  1.7427 -1.2294
 4137TIP3   OH212416   5.240   5.118   2.927  0.5436  0.3053  0.6797
 4137TIP3    H112417   5.314   5.079   2.974  0.5284 -1.2474 -0.5226
 4137TIP3    H212418   5.211   5.050   2.867 -1.0758  1.3443  0.2350
 4138TIP3   OH212419   3.380   2.321   2.636  0.4855  0.3040  0.5648
 4138TIP3    H112420   3.445   2.273   2.585 -2.2365 -1.8101 -1.1816
 4138TIP3    H212421   3.386   2.283   2.724  1.0432 -0.4634  0.2047
 4139TIP3   OH212422   0.896   5.790   3.995 -0.1177 -0.4345 -0.6776
 4139TIP3    H112423   0.848   5.864   4.032 -1.5559 -1.8735  0.5203
 4139TIP3    H212424   0.859   5.779   3.908 -0.4303 -0.1908 -0.5782
 4140TIP3   OH212425   0.165   3.159   2.932  0.2588 -0.0588 -0.4640
 4140TIP3    H112426   0.192   3.070   2.912 -1.0840 -0.3934 -0.9384
 4140TIP3    H212427   0.229   3.191   2.995  1.0564 -1.1673 -0.6878
 4141TIP3   OH212428   4.574   5.642   3.371 -0.1024  1.1168  0.2395
 4141TIP3    H112429   4.650   5.584   3.372  0.4049  1.7837  0.6317
 4141TIP3    H212430   4.509   5.595   3.318  0.2795  0.1690  0.5877
 4142TIP3   OH212431   5.733   1.030   4.588  0.1641 -0.0523  0.5027
 4142TIP3    H112432   5.704   1.110   4.544  0.4194 -0.0940  0.2547
 4142TIP3    H212433   5.769   1.060   4.671  3.1050  0.4882 -0.8064
 4143TIP3   OH212434   2.661   4.332   1.240 -0.3641 -0.1629  0.1765
 4143TIP3    H112435   2.581   4.344   1.190  0.8322  0.2516 -1.7260
 4143TIP3    H212436   2.647   4.251   1.288 -0.6894 -1.9505 -2.7060
 4144TIP3   OH212437   4.526   4.666   1.439  0.1277  0.2766  0.1774
 4144TIP3    H112438   4.445   4.716   1.431  0.8488  2.1707  2.9662
 4144TIP3    H212439   4.521   4.626   1.526  2.0464  0.2612  0.3349
 4145TIP3   OH212440   5.441   1.768   4.319 -0.9936 -0.2989 -0.9621
 4145TIP3    H112441   5.445   1.677   4.347  1.7976 -0.2385 -0.8986
 4145TIP3    H212442   5.532   1.792   4.302 -1.7567  2.1576 -2.0670
 4146TIP3   OH212443   4.650   2.587   1.435 -0.2951  0.2771 -0.7471
 4146TIP3    H112444   4.730   2.535   1.420 -0.8157 -0.2974 -1.6285
 4146TIP3    H212445   4.680   2.662   1.486  0.2955 -1.5410  1.8275
 4147TIP3   OH212446   3.986   5.803   4.431 -0.3826 -0.0096  0.0391
 4147TIP3    H112447   3.944   5.813   4.516  0.5000  0.1674  0.4701
 4147TIP3    H212448   3.995   5.892   4.398  1.0053  0.1047  0.6449
 4148TIP3   OH212449   1.511   4.972   5.060 -0.1325  0.6127  0.3769
 4148TIP3    H112450   1.473   5.033   4.996 -0.1499 -1.2076 -1.4397
 4148TIP3    H212451   1.443   4.963   5.127 -0.5428  1.7883  0.1392
 4149TIP3   OH212452   3.922   0.701   1.960 -0.2851 -0.1413  0.7630
 4149TIP3    H112453   3.862   0.658   1.899 -0.7148  1.9662 -0.4209
 4149TIP3    H212454   4.009   0.669   1.936 -0.2343  1.7933 -2.1749
 4150TIP3   OH212455   0.107   4.146   2.348 -0.1577  0.1140  0.0650
 4150TIP3    H112456   0.027   4.192   2.374  0.1105  0.2260  0.7153
 4150TIP3    H212457   0.080   4.054   2.342 -0.0515 -0.0523  1.6129
 4151TIP3   OH212458   4.451   3.860   1.996  0.4214 -0.0526  0.2231
 4151TIP3    H112459   4.367   3.907   1.990  1.6849  2.2815 -0.3409
 4151TIP3    H212460   4.471   3.834   1.906 -0.1088 -1.4779  0.4878
 4152TIP3   OH212461   3.994   2.669   1.969 -0.4813 -0.8341 -0.2610
 4152TIP3    H112462   4.084   2.700   1.965 -0.8185  0.2759  0.3090
 4152TIP3    H212463   4.000   2.576   1.946  0.3879 -0.1049 -3.3891
 4153TIP3   OH212464   3.097   0.349   0.521  0.1419  0.2173  0.0007
 4153TIP3    H112465   3.108   0.420   0.459  1.6945  1.3717  1.4807
 4153TIP3    H212466   3.069   0.392   0.602 -0.5001 -1.0743  0.5029
 4154TIP3   OH212467   1.693   4.136   2.027  0.2202  0.3402 -0.0977
 4154TIP3    H112468   1.640   4.157   2.104  1.4508 -1.4519  1.3328
 4154TIP3    H212469   1.736   4.218   2.005  1.7495  0.4158  2.7192
 4155TIP3   OH212470   0.186   3.859   0.851 -0.0961  0.1828  0.0955
 4155TIP3    H112471   0.220   3.889   0.935 -0.0030  2.2568 -0.6270
 4155TIP3    H212472   0.092   3.872   0.856  0.0115  1.2646 -0.4534
 4156TIP3   OH212473   5.294   3.993   1.300 -0.4946  0.3343 -0.3077
 4156TIP3    H112474   5.333   3.915   1.339  1.5552  1.1971 -0.5359
 4156TIP3    H212475   5.280   3.970   1.208 -2.4805 -0.6488  0.1759
 4157TIP3   OH212476   1.552   3.340   3.840 -0.0427 -0.0530 -0.1437
 4157TIP3    H112477   1.546   3.412   3.902 -2.5749 -0.9747  0.8301
 4157TIP3    H212478   1.490   3.275   3.873  2.1959 -2.7533 -0.9148
 4158TIP3   OH212479   0.842   0.373   4.980 -0.2437  0.1542  0.1038
 4158TIP3    H112480   0.849   0.299   5.040 -1.3236 -0.0407  0.0218
 4158TIP3    H212481   0.923   0.372   4.930  0.9563  0.6895  1.9441
 4159TIP3   OH212482   1.221   0.710   1.992 -0.2180 -0.0370 -0.6150
 4159TIP3    H112483   1.157   0.652   2.032 -0.3458  1.2160  1.1224
 4159TIP3    H212484   1.172   0.789   1.970  0.2075 -0.0704 -1.7756
 4160TIP3   OH212485   3.486   4.681   3.452 -0.3320  0.5255  0.6926
 4160TIP3    H112486   3.562   4.672   3.394 -0.8301 -1.7710  0.2923
 4160TIP3    H212487   3.423   4.730   3.400 -0.1498 -0.0364 -0.0772
 4161TIP3   OH212488   2.811   1.898   3.348  0.1523  1.0064  0.0375
 4161TIP3    H112489   2.741   1.953   3.314  0.3051  0.4007 -1.3172
 4161TIP3    H212490   2.852   1.860   3.270  0.4295 -0.5539  0.9027
 4162TIP3   OH212491   0.550   3.691   1.547 -0.1393  0.1008  0.0651
 4162TIP3    H112492   0.515   3.602   1.553 -1.2264  0.4826 -0.4576
 4162TIP3    H212493   0.624   3.691   1.608 -0.3851 -1.0377  0.3946
 4163TIP3   OH212494   6.192   5.778   1.841 -0.3202  0.6467 -0.2106
 4163TIP3    H112495   6.251   5.818   1.777 -0.1477 -0.0920 -0.5321
 4163TIP3    H212496   6.193   5.837   1.916  0.3402  0.9632 -0.4648
 4164TIP3   OH212497   5.813   2.863   4.042  0.0336 -0.2016  0.2812
 4164TIP3    H112498   5.736   2.919   4.045 -1.0086 -1.5121 -0.6405
 4164TIP3    H212499   5.870   2.896   4.111 -0.8545  1.4965  0.2401
 4165TIP3   OH212500   3.734   4.146   4.595 -0.5892 -0.3225  0.0015
 4165TIP3    H112501   3.668   4.081   4.620 -0.8403 -1.0407 -2.3064
 4165TIP3    H212502   3.747   4.133   4.501  2.8186 -0.1552  0.3223
 4166TIP3   OH212503   4.654   4.576   4.279  0.0223  0.1839 -0.1571
 4166TIP3    H112504   4.647   4.483   4.259 -0.1309 -0.0155  0.7714
 4166TIP3    H212505   4.576   4.615   4.240 -0.7261 -0.3297  0.7573
 4167TIP3   OH212506   1.235   2.170   3.575  0.3358  0.3168 -0.2725
 4167TIP3    H112507   1.237   2.133   3.487 -0.9753 -0.7433  0.1152
 4167TIP3    H212508   1.153   2.138   3.613  1.5183 -0.4056  1.8350
 4168TIP3   OH212509   4.596   3.512   4.095 -0.7163 -0.4048  0.4222
 4168TIP3    H112510   4.515   3.500   4.144 -1.3932  0.5140 -0.4202
 4168TIP3    H212511   4.661   3.535   4.162 -1.3600 -0.2717  1.0176
 4169TIP3   OH212512   4.782   4.392   3.012  0.0408  0.3940 -0.0596
 4169TIP3    H112513   4.770   4.300   3.036  0.9311  0.4227  0.5198
 4169TIP3    H212514   4.752   4.397   2.921 -2.2745  0.0431  0.6239
 4170TIP3   OH212515   2.190   1.475   0.064  0.2543  0.3387  0.0738
 4170TIP3    H112516   2.273   1.432   0.046 -0.5083 -0.7680 -0.9827
 4170TIP3    H212517   2.194   1.557   0.016  1.2911  0.9731  1.2102
 4171TIP3   OH212518   2.757   3.258   0.213 -0.0417  0.1147  0.6847
 4171TIP3    H112519   2.675   3.231   0.172  0.1086 -1.5958  1.4361
 4171TIP3    H212520   2.814   3.284   0.141 -0.6900 -0.2507  0.0413
 4172TIP3   OH212521   3.899   1.882   1.814  0.5401  0.5024 -0.6051
 4172TIP3    H112522   3.881   1.840   1.898 -1.6744  0.3808 -1.0750
 4172TIP3    H212523   3.926   1.971   1.836 -0.0410  0.4721  0.2343
 4173TIP3   OH212524   6.168   0.482   2.436  0.5737 -0.1792 -0.3687
 4173TIP3    H112525   6.159   0.536   2.358  1.6257 -1.2750 -1.3013
 4173TIP3    H212526   6.085   0.491   2.482  0.4889  1.6882 -0.8152
 4174TIP3   OH212527   4.473   3.561   2.571 -0.1038 -0.0607  0.0197
 4174TIP3    H112528   4.554   3.596   2.533 -1.4396  0.5687 -2.4580
 4174TIP3    H212529   4.474   3.468   2.548 -0.2762  0.0403 -0.4091
 4175TIP3   OH212530   3.184   5.676   2.325  0.2369  0.3755 -0.3640
 4175TIP3    H112531   3.165   5.770   2.321 -0.1243  0.2946 -0.6144
 4175TIP3    H212532   3.278   5.670   2.306  0.6765  0.8229  1.5220
 4176TIP3   OH212533   2.760   0.860   0.943  0.0576 -0.7617  0.0631
 4176TIP3    H112534   2.812   0.934   0.975 -0.3249 -0.8218  0.8365
 4176TIP3    H212535   2.730   0.815   1.022 -0.4266 -1.2476 -0.3884
 4177TIP3   OH212536   1.846   1.538   1.843 -0.4325  0.6976  0.4666
 4177TIP3    H112537   1.795   1.521   1.764  0.7178  0.7763 -0.3068
 4177TIP3    H212538   1.928   1.492   1.830  0.5178  2.2254  0.7888
 4178TIP3   OH212539   1.148   0.214   1.755 -0.2918  0.6081  0.0535
 4178TIP3    H112540   1.091   0.153   1.709 -0.2434  0.7504 -0.1963
 4178TIP3    H212541   1.135   0.298   1.710 -0.6615  0.8797  0.6437
 4179TIP3   OH212542   5.673   1.815   0.301 -0.1890 -0.4259  0.2428
 4179TIP3    H112543   5.664   1.770   0.385  0.3918  0.4124  0.7727
 4179TIP3    H212544   5.738   1.764   0.253 -1.1375 -1.3992 -0.0626
 4180TIP3   OH212545   2.859   2.982   0.577  0.1144  0.0439 -0.1220
 4180TIP3    H112546   2.793   3.033   0.624  1.7160 -0.2303  2.6085
 4180TIP3    H212547   2.940   3.031   0.588  1.0412 -1.3784 -0.3710
 4181TIP3   OH212548   5.877   5.485   3.639 -0.5790  0.0687  0.0904
 4181TIP3    H112549   5.970   5.459   3.642 -0.7372 -0.4805  0.2785
 4181TIP3    H212550   5.831   5.416   3.685 -1.1573  0.0436 -0.5022
 4182TIP3   OH212551   3.989   5.256   5.048  0.1977 -0.1120 -0.8366
 4182TIP3    H112552   3.993   5.205   4.968 -0.6751  0.5792 -1.3517
 4182TIP3    H212553   4.013   5.345   5.021 -2.4248  0.6771 -0.9005
 4183TIP3   OH212554   5.890   5.225   1.960 -0.5764 -0.1429  0.1325
 4183TIP3    H112555   5.865   5.148   2.012 -1.1995  0.3894  0.6364
 4183TIP3    H212556   5.882   5.298   2.021  0.6497  0.2534 -0.1584
 4184TIP3   OH212557   6.186   5.214   0.371  1.2532 -0.3203 -0.7340
 4184TIP3    H112558   6.168   5.120   0.374  1.5004 -0.3683 -0.7108
 4184TIP3    H212559   6.271   5.221   0.327  2.4419 -0.2967  1.4161
 4185TIP3   OH212560   0.478   0.600   0.771 -0.1513 -0.4350 -0.3286
 4185TIP3    H112561   0.413   0.648   0.720 -0.4118  0.4406  0.7856
 4185TIP3    H212562   0.468   0.634   0.860  1.9638 -0.1256 -0.1630
 4186TIP3   OH212563   0.168   0.380   0.345 -0.5473  0.4637 -0.5097
 4186TIP3    H112564   0.137   0.291   0.356  1.2071 -0.0038  1.4386
 4186TIP3    H212565   0.202   0.384   0.256 -1.5001 -0.4991 -0.9275
 4187TIP3   OH212566   4.207   2.896   2.836  0.3728  0.1740  0.1393
 4187TIP3    H112567   4.248   2.966   2.786  1.6680 -1.5030 -1.2886
 4187TIP3    H212568   4.238   2.908   2.926  0.6059  1.3721 -0.0919
 4188TIP3   OH212569   0.189   2.495   5.137  0.0163 -0.0544 -0.2885
 4188TIP3    H112570   0.222   2.456   5.056 -1.3515 -1.2601 -0.3048
 4188TIP3    H212571   0.220   2.585   5.134  1.4994 -0.5436 -1.2803
 4189TIP3   OH212572   0.940   5.141   4.026 -0.6473  0.3264 -0.4965
 4189TIP3    H112573   0.880   5.196   3.975 -0.8407  0.0723 -0.5404
 4189TIP3    H212574   0.982   5.085   3.961 -0.5642  0.3120 -0.4308
 4190TIP3   OH212575   3.809   4.877   0.504  0.2360  0.2095 -0.1813
 4190TIP3    H112576   3.868   4.951   0.491  0.6874 -0.2985 -1.1440
 4190TIP3    H212577   3.799   4.839   0.417 -0.2476 -0.6656  0.2439
 4191TIP3   OH212578   4.280   1.667   2.258 -0.2016 -0.5078 -0.2492
 4191TIP3    H112579   4.251   1.629   2.175  0.4936 -0.3319 -0.5853
 4191TIP3    H212580   4.376   1.668   2.251 -0.1760  0.3676  0.1797
 4192TIP3   OH212581   4.872   3.597   2.660  0.0973 -0.1029 -0.3863
 4192TIP3    H112582   4.865   3.525   2.722  0.9141  0.9674  1.0191
 4192TIP3    H212583   4.925   3.562   2.589  1.9941 -0.4250  1.0833
 4193TIP3   OH212584   5.958   3.725   0.137  0.0690 -0.2008  0.1733
 4193TIP3    H112585   6.012   3.677   0.073 -0.6180 -1.5913  0.6074
 4193TIP3    H212586   5.962   3.672   0.216 -2.0467 -0.4191  0.1758
 4194TIP3   OH212587   0.713   0.535   4.760  0.3329  0.4112 -0.2297
 4194TIP3    H112588   0.636   0.478   4.753  1.2210 -0.7414 -0.9492
 4194TIP3    H212589   0.771   0.488   4.821  0.2400  1.5522  0.7644
 4195TIP3   OH212590   2.654   2.276   0.474  0.7225 -0.6052  0.0547
 4195TIP3    H112591   2.580   2.222   0.501 -1.3111  1.9642 -0.0349
 4195TIP3    H212592   2.682   2.239   0.391 -1.1355 -1.0715 -0.4038
 4196TIP3   OH212593   1.111   1.912   4.741  0.5808  0.1832 -0.1167
 4196TIP3    H112594   1.123   1.922   4.646 -0.0656 -1.1414 -0.3558
 4196TIP3    H212595   1.145   1.825   4.760 -0.9733 -0.3056  0.5609
 4197TIP3   OH212596   3.576   2.646   0.985 -0.0625  0.6350  0.6808
 4197TIP3    H112597   3.485   2.673   0.993  0.1622  1.5337  0.2848
 4197TIP3    H212598   3.586   2.622   0.893  0.0839  0.4870  0.7352
 4198TIP3   OH212599   5.501   3.057   3.227 -0.5121 -0.4828  0.0858
 4198TIP3    H112600   5.532   3.118   3.293 -0.6788 -0.1760 -0.1191
 4198TIP3    H212601   5.534   3.092   3.144 -2.9905  0.9259 -0.3817
 4199TIP3   OH212602   3.660   3.752   1.929  0.2246 -0.5392 -0.2874
 4199TIP3    H112603   3.635   3.766   1.838  1.1921  1.3529 -0.3265
 4199TIP3    H212604   3.732   3.690   1.926  0.2873 -0.4419 -0.8156
 4200TIP3   OH212605   6.031   0.308   1.659  0.3693 -0.4490  0.4256
 4200TIP3    H112606   6.123   0.323   1.679  0.8775 -0.6027 -1.5931
 4200TIP3    H212607   6.031   0.234   1.598 -0.8827  0.7480 -1.1358
 4201TIP3   OH212608   5.304   2.835   2.573  0.3352 -0.1978 -0.2275
 4201TIP3    H112609   5.218   2.852   2.534 -0.4047 -1.6650  0.6642
 4201TIP3    H212610   5.360   2.812   2.499 -0.4386 -0.6883 -0.6765
 4202TIP3   OH212611   5.895   3.111   2.555 -0.2616  0.3250  0.3010
 4202TIP3    H112612   5.884   3.182   2.492 -1.8679  0.3494  0.5710
 4202TIP3    H212613   5.925   3.037   2.503  0.2371  0.8583 -0.1810
 4203TIP3   OH212614   1.896   5.479  -0.002 -0.0985  0.7271 -0.3887
 4203TIP3    H112615   1.971   5.451   0.049  0.5483 -2.0953 -2.6141
 4203TIP3    H212616   1.910   5.572  -0.017  1.6195  0.7965  1.3457
 4204TIP3   OH212617   3.239   5.694   4.662 -0.1944  0.0384 -0.1694
 4204TIP3    H112618   3.307   5.735   4.608 -0.4283  0.9068  0.1876
 4204TIP3    H212619   3.286   5.664   4.740 -0.2642  0.9130  0.2162
 4205TIP3   OH212620   5.431   2.191   1.224  0.6203 -0.2137 -0.8017
 4205TIP3    H112621   5.369   2.216   1.292  1.0709 -0.4822 -0.2807
 4205TIP3    H212622   5.392   2.113   1.183  0.5101 -0.2520 -0.6224
 4206TIP3   OH212623   1.735   3.544   1.551 -0.2676 -0.8675 -0.2197
 4206TIP3    H112624   1.754   3.573   1.462  0.5673 -1.4540 -0.2511
 4206TIP3    H212625   1.745   3.622   1.605 -1.7394 -0.2882 -0.7377
 4207TIP3   OH212626   5.498   0.968   2.818  0.0413 -0.2314 -0.1977
 4207TIP3    H112627   5.523   1.042   2.763  0.4733 -1.3697 -1.5881
 4207TIP3    H212628   5.524   0.993   2.906 -0.7435  1.6786 -0.4647
 4208TIP3   OH212629   3.722   3.666   1.284  0.0130 -0.3415  0.5631
 4208TIP3    H112630   3.671   3.586   1.301 -1.4685  0.4014 -0.1533
 4208TIP3    H212631   3.722   3.674   1.188  1.6501 -0.3948  0.5317
 4209TIP3   OH212632   2.620   5.427   5.050  0.1418  0.5815 -0.3151
 4209TIP3    H112633   2.677   5.504   5.047  1.0645 -0.0544  0.3724
 4209TIP3    H212634   2.667   5.361   5.000  1.0290 -0.5739  1.9180
 4210TIP3   OH212635   0.473   2.204   0.321 -0.7515 -0.1270  0.3901
 4210TIP3    H112636   0.466   2.223   0.227 -0.2269  0.3493  0.4454
 4210TIP3    H212637   0.565   2.183   0.335 -1.0539 -1.4488  0.5789
 4211TIP3   OH212638   2.897   4.833   3.104 -0.2896 -0.6078  0.1923
 4211TIP3    H112639   2.866   4.759   3.157 -0.7777  0.1762  1.0242
 4211TIP3    H212640   2.853   4.909   3.141  1.2360  0.2971  0.2259
 4212TIP3   OH212641   2.212   2.236   5.150  0.0483  0.8092  0.0150
 4212TIP3    H112642   2.205   2.228   5.245 -0.3248  0.6411 -0.0225
 4212TIP3    H212643   2.269   2.164   5.124 -1.1524 -0.1528 -0.0482
 4213TIP3   OH212644   0.197   4.960   1.361  0.5902  0.6143 -0.7509
 4213TIP3    H112645   0.223   4.871   1.338  0.3019  0.8429 -1.9983
 4213TIP3    H212646   0.117   4.976   1.312 -0.0158  1.1618  0.3668
 4214TIP3   OH212647   4.106   3.556   4.953 -0.1620  0.9570  0.0610
 4214TIP3    H112648   4.092   3.495   5.026 -0.0773  1.6888  0.7007
 4214TIP3    H212649   4.114   3.641   4.995 -0.1821  1.3972 -0.8206
 4215TIP3   OH212650   4.671   3.065   3.555  0.1417 -0.4833 -0.0727
 4215TIP3    H112651   4.739   3.004   3.527 -1.1831 -1.5198 -1.1372
 4215TIP3    H212652   4.620   3.083   3.476 -1.0196 -0.0002  0.7575
 4216TIP3   OH212653   5.208   4.741   2.592  0.0291 -0.3791  0.4767
 4216TIP3    H112654   5.261   4.678   2.544 -0.9726 -1.3102  0.5597
 4216TIP3    H212655   5.240   4.734   2.682 -0.0955 -0.7867  0.4912
 4217TIP3   OH212656   2.712   0.151   0.399  0.3243  0.2973 -0.0294
 4217TIP3    H112657   2.662   0.233   0.396  0.4814  0.3873 -0.1676
 4217TIP3    H212658   2.763   0.157   0.479  1.0154  0.7299 -0.4986
 4218TIP3   OH212659   5.215   0.504   0.662 -0.0425 -0.1558 -0.0362
 4218TIP3    H112660   5.260   0.552   0.731  0.5988 -1.9098  0.8283
 4218TIP3    H212661   5.164   0.436   0.708  0.1638 -1.1792 -1.2460
 4219TIP3   OH212662   1.837   0.831   3.464 -0.8366  0.0651 -0.0722
 4219TIP3    H112663   1.885   0.883   3.400 -2.6072  1.2708 -0.5085
 4219TIP3    H212664   1.747   0.831   3.432 -1.2186 -1.8650  0.8556
 4220TIP3   OH212665   0.944   4.081   4.517  0.3531  0.4585 -0.6284
 4220TIP3    H112666   0.904   4.029   4.586  3.2673 -0.2269  0.7301
 4220TIP3    H212667   0.901   4.053   4.437 -2.0105  0.0852  0.6749
 4221TIP3   OH212668   3.876   3.885   3.955  0.3953  0.1525 -0.7047
 4221TIP3    H112669   3.943   3.938   3.997 -0.0675  1.2000 -1.2684
 4221TIP3    H212670   3.865   3.923   3.868  0.3686 -1.1454 -1.2884
 4222TIP3   OH212671   3.116   2.808   4.562 -0.1929  0.1306 -0.4793
 4222TIP3    H112672   3.147   2.726   4.599  0.5760 -0.0472 -1.4657
 4222TIP3    H212673   3.126   2.872   4.632  0.6052 -0.3190 -0.1717
 4223TIP3   OH212674   4.664   3.042   0.460  0.3925  0.0693 -0.4758
 4223TIP3    H112675   4.616   2.976   0.510 -0.3404 -0.0575 -1.3237
 4223TIP3    H212676   4.596   3.089   0.411  0.7076  2.5148  1.2907
 4224TIP3   OH212677   5.611   5.454   2.479  0.5384 -0.8793 -0.4243
 4224TIP3    H112678   5.533   5.401   2.467  0.8690 -1.5483  0.3154
 4224TIP3    H212679   5.610   5.515   2.405 -0.8271 -0.6808 -0.2632
 4225TIP3   OH212680   3.363   1.665   4.110 -0.1841 -0.0506 -0.5044
 4225TIP3    H112681   3.391   1.592   4.056 -2.8600 -0.2213 -1.8061
 4225TIP3    H212682   3.412   1.740   4.077 -1.1253 -0.3222 -2.6592
 4226TIP3   OH212683   0.662   1.351   3.659  0.4252 -0.0234  0.3296
 4226TIP3    H112684   0.669   1.383   3.748  3.7424 -1.3375  0.6809
 4226TIP3    H212685   0.616   1.267   3.667  0.4243  0.0174  0.7751
 4227TIP3   OH212686   5.277   3.429   2.213  0.3291 -0.0223  0.3833
 4227TIP3    H112687   5.283   3.360   2.147 -1.7520 -0.9511  1.0741
 4227TIP3    H212688   5.190   3.466   2.200  0.1709  0.2739  2.1048
 4228TIP3   OH212689   4.285   4.210   0.975 -0.4170 -0.0826 -0.3283
 4228TIP3    H112690   4.241   4.129   0.952 -2.0086  0.5847  0.2330
 4228TIP3    H212691   4.296   4.206   1.070  2.3425 -0.9821 -0.6118
 4229TIP3   OH212692   5.289   1.180   0.919 -0.0628 -0.2028  0.3699
 4229TIP3    H112693   5.375   1.217   0.901 -0.3984 -0.6200 -2.5689
 4229TIP3    H212694   5.227   1.248   0.889 -0.8028 -0.0702  2.0649
 4230TIP3   OH212695   1.203   0.625   4.000 -0.3377 -0.6503  0.8859
 4230TIP3    H112696   1.126   0.648   4.052 -0.1938  0.1727  0.7445
 4230TIP3    H212697   1.262   0.700   4.010 -0.2179 -0.5832 -0.2815
 4231TIP3   OH212698   0.261   4.592   4.891  0.1542 -0.0459 -0.2505
 4231TIP3    H112699   0.251   4.577   4.985 -2.0433  2.9736  0.1468
 4231TIP3    H212700   0.349   4.629   4.882 -0.3739  1.6598  1.0265
 4232TIP3   OH212701   0.896   2.712   2.322  0.3323  0.0601  0.0785
 4232TIP3    H112702   0.939   2.794   2.299 -1.3029  0.8383 -0.3255
 4232TIP3    H212703   0.850   2.731   2.404  1.4163 -1.0188  0.9820
 4233TIP3   OH212704   2.350   0.426   1.943 -0.3705 -0.2505  0.0664
 4233TIP3    H112705   2.414   0.367   1.904  0.1159 -0.0930  0.6130
 4233TIP3    H212706   2.267   0.402   1.902 -0.2543 -1.5707  0.5612
 4234TIP3   OH212707   0.165   2.002   2.923  0.8288  0.0776  0.5950
 4234TIP3    H112708   0.210   2.076   2.881  0.2243  0.2377  0.2112
 4234TIP3    H212709   0.079   2.037   2.947  0.5610 -0.4811  0.4699
 4235TIP3   OH212710   3.410   2.590   2.618  0.0216  0.1912  0.0876
 4235TIP3    H112711   3.407   2.495   2.621 -0.1015  0.1258 -1.4545
 4235TIP3    H212712   3.455   2.615   2.699 -0.5386 -1.1229  0.8475
 4236TIP3   OH212713   0.476   0.989   4.716 -0.2688  0.0518 -0.4802
 4236TIP3    H112714   0.537   1.009   4.645  0.5695  0.0351  0.2145
 4236TIP3    H212715   0.448   0.899   4.699  0.7583 -0.3346 -0.2196
 4237TIP3   OH212716   1.264   1.580   3.589  0.0615 -0.4014  0.0774
 4237TIP3    H112717   1.304   1.592   3.504  0.2794 -1.0997  0.0735
 4237TIP3    H212718   1.191   1.642   3.591 -1.2652 -1.8262 -1.4648
 4238TIP3   OH212719   5.295   4.036   3.610 -0.3069 -0.1720 -0.8490
 4238TIP3    H112720   5.299   3.941   3.599 -1.0664 -0.2399 -0.6183
 4238TIP3    H212721   5.204   4.053   3.636  0.1297  0.4820  0.3252
 4239TIP3   OH212722   3.243   2.757   4.931  0.3404  0.0949  0.1745
 4239TIP3    H112723   3.270   2.681   4.879 -0.6990  0.5559 -1.0779
 4239TIP3    H212724   3.158   2.732   4.968  0.9786 -0.1578  1.5754
 4240TIP3   OH212725   1.630   1.658   1.659  0.0070  0.2377  0.8353
 4240TIP3    H112726   1.642   1.726   1.725  1.8205  0.5819  0.2066
 4240TIP3    H212727   1.618   1.706   1.577 -1.5937 -0.1996  0.7693
 4241TIP3   OH212728   2.853   1.062   3.254  0.3640 -0.4700 -0.6521
 4241TIP3    H112729   2.822   1.039   3.341 -1.7362 -1.1258 -1.5040
 4241TIP3    H212730   2.825   1.153   3.242 -0.5699 -0.7903 -1.0893
 4242TIP3   OH212731   5.083   5.583   3.149 -0.8069  0.0168 -0.1313
 4242TIP3    H112732   5.117   5.592   3.238 -0.0789  2.5251 -0.5992
 4242TIP3    H212733   5.010   5.522   3.158 -0.6688  0.1066  2.1726
 4243TIP3   OH212734   3.615   5.723   3.948 -0.2897  0.2648 -0.0814
 4243TIP3    H112735   3.613   5.714   3.853  0.0998  1.1476 -0.1850
 4243TIP3    H212736   3.537   5.677   3.979 -0.8287  0.6182 -0.8917
 4244TIP3   OH212737   3.137   4.691   2.409  0.1541  0.1007  0.2661
 4244TIP3    H112738   3.173   4.686   2.498 -0.6278 -2.0233  0.5196
 4244TIP3    H212739   3.213   4.678   2.352  0.4094 -0.2161  0.6726
 4245TIP3   OH212740   1.926   2.218   2.458 -0.0454  0.1394  0.0939
 4245TIP3    H112741   1.985   2.290   2.439  1.1981 -0.8406  0.1218
 4245TIP3    H212742   1.951   2.188   2.546 -3.4148  2.3788  2.0383
 4246TIP3   OH212743   0.943   1.502   3.354  0.3117 -0.5116  0.9744
 4246TIP3    H112744   0.872   1.521   3.293  0.7182  0.1265  0.6910
 4246TIP3    H212745   0.925   1.413   3.385  0.1622 -0.8822 -0.1550
 4247TIP3   OH212746   4.353   5.730   1.437 -0.0361 -0.3073 -0.1020
 4247TIP3    H112747   4.418   5.724   1.507  1.1678  0.1516 -1.1356
 4247TIP3    H212748   4.389   5.679   1.366 -1.0290 -0.3956 -0.5621
 4248TIP3   OH212749   2.749   5.769   4.510 -0.2595  0.2923  0.0874
 4248TIP3    H112750   2.769   5.860   4.534 -0.7087  0.6759 -0.9128
 4248TIP3    H212751   2.816   5.717   4.553 -0.3678  1.0391  1.1984
 4249TIP3   OH212752   5.531   3.036   2.352 -0.2321 -0.5488  0.1785
 4249TIP3    H112753   5.501   3.083   2.429 -0.6499  0.3370 -0.5091
 4249TIP3    H212754   5.459   3.044   2.289 -0.7055 -2.8614  0.3279
 4250TIP3   OH212755   0.303   5.743   1.988 -0.0089  0.2457  0.4593
 4250TIP3    H112756   0.309   5.801   1.911  0.3478  1.3754  1.2993
 4250TIP3    H212757   0.252   5.668   1.958 -2.6237  2.0952 -0.0511
 4251TIP3   OH212758   0.783   2.552   0.964 -0.4297  0.0830 -0.0405
 4251TIP3    H112759   0.766   2.616   1.032 -1.6023 -0.2906  0.0435
 4251TIP3    H212760   0.712   2.566   0.900 -0.9751 -1.4211  0.2091
 4252TIP3   OH212761   4.863   5.938   4.642  0.3050 -0.3266 -0.4103
 4252TIP3    H112762   4.932   5.945   4.707 -0.5048  0.2076  0.4164
 4252TIP3    H212763   4.792   5.892   4.686 -0.2998  0.1363 -0.8635
 4253TIP3   OH212764   4.572   2.338   1.948  0.2187  0.3872 -0.2929
 4253TIP3    H112765   4.596   2.373   2.033 -1.4091 -2.1134  1.3246
 4253TIP3    H212766   4.622   2.257   1.940  0.1477  0.4467 -1.6202
 4254TIP3   OH212767   4.146   2.587   4.204 -0.6956 -0.1849 -0.4097
 4254TIP3    H112768   4.087   2.662   4.206  0.5383  0.7830  0.8635
 4254TIP3    H212769   4.232   2.623   4.185  0.2412 -0.9872  1.9151
 4255TIP3   OH212770   2.578   5.934   3.493 -0.2105  0.7038  0.2342
 4255TIP3    H112771   2.663   5.963   3.525  2.0091 -3.0220 -1.5513
 4255TIP3    H212772   2.537   5.890   3.568  1.2877 -0.8777  0.1838
 4256TIP3   OH212773   2.230   3.826   4.462 -0.4652 -0.0472  0.0249
 4256TIP3    H112774   2.321   3.796   4.464 -0.1035  0.9688 -0.3693
 4256TIP3    H212775   2.186   3.774   4.530  0.1580 -1.3002 -0.4904
 4257TIP3   OH212776   5.817   2.691   3.454  0.0729  0.1272  0.0993
 4257TIP3    H112777   5.784   2.721   3.369  1.3569 -0.2447 -0.5577
 4257TIP3    H212778   5.912   2.688   3.443  0.3760  1.3822  2.0005
 4258TIP3   OH212779   4.191   1.939   2.851 -0.3465 -0.2166  0.1154
 4258TIP3    H112780   4.183   1.846   2.873  2.1975 -0.2339  1.2381
 4258TIP3    H212781   4.217   1.940   2.759  2.2177 -0.8125  0.7642
 4259TIP3   OH212782   5.844   2.498   0.635  0.0693  0.1938  0.2302
 4259TIP3    H112783   5.811   2.517   0.547 -1.3410 -0.3393  0.6196
 4259TIP3    H212784   5.765   2.491   0.689  0.9337  0.8240  1.6114
 4260TIP3   OH212785   5.951   1.764   1.997  0.4306  0.2728 -0.1697
 4260TIP3    H112786   5.989   1.686   2.038  1.8427  0.7462 -0.5427
 4260TIP3    H212787   5.925   1.819   2.071  3.7234  1.4953  0.2268
 4261TIP3   OH212788   0.736   3.968   3.779 -1.1962  0.1242 -0.4518
 4261TIP3    H112789   0.722   3.880   3.744  0.2413  0.1461 -1.1567
 4261TIP3    H212790   0.651   4.010   3.772 -1.6599 -0.8696 -1.0858
 4262TIP3   OH212791   5.874   5.878   4.236  0.1472 -0.2887 -0.2413
 4262TIP3    H112792   5.847   5.817   4.167 -1.5444 -1.1955  1.1486
 4262TIP3    H212793   5.792   5.919   4.265  1.0287  1.2461  0.1816
 4263TIP3   OH212794   2.569   3.144   0.978  0.1142 -0.0977  0.1558
 4263TIP3    H112795   2.478   3.135   0.952 -0.7227  0.3905  2.6284
 4263TIP3    H212796   2.580   3.081   1.049  1.2449  0.8921  0.9034
 4264TIP3   OH212797   4.293   0.407   4.279 -0.0817 -0.3114 -0.0624
 4264TIP3    H112798   4.255   0.378   4.362 -1.0465 -0.2103 -0.4500
 4264TIP3    H212799   4.231   0.376   4.213 -0.5692  1.6055 -0.5745
 4265TIP3   OH212800   1.683   3.673   4.330  0.8788  0.1528 -0.0652
 4265TIP3    H112801   1.692   3.752   4.277 -2.5058  2.1634  2.0356
 4265TIP3    H212802   1.740   3.689   4.406  1.0019  0.0841 -0.1427
 4266TIP3   OH212803   5.686   3.671   0.148  0.0228  0.2334 -0.2838
 4266TIP3    H112804   5.775   3.699   0.125 -0.3454  0.7305 -1.1636
 4266TIP3    H212805   5.636   3.684   0.068 -0.7564 -0.4470  0.0804
 4267TIP3   OH212806   5.546   5.313   0.154  0.2973  0.6922  0.7579
 4267TIP3    H112807   5.625   5.334   0.105 -0.3362  1.6121  0.1056
 4267TIP3    H212808   5.524   5.393   0.202 -0.7958  0.7835  0.1424
 4268TIP3   OH212809   3.487   2.148   0.739 -0.3371 -0.3493  0.2883
 4268TIP3    H112810   3.568   2.188   0.706 -0.8755  1.0250  0.5476
 4268TIP3    H212811   3.514   2.101   0.818  0.0229  1.2340  1.1522
 4269TIP3   OH212812   3.308   4.623   1.069 -0.0043 -0.9433  0.0425
 4269TIP3    H112813   3.349   4.606   0.985  2.6222  0.8547  0.8226
 4269TIP3    H212814   3.256   4.702   1.055  0.2873 -0.7492  0.0412
 4270TIP3   OH212815   1.315   2.852   2.292  0.4692  0.2022 -0.5131
 4270TIP3    H112816   1.361   2.773   2.265  0.4273  0.0094 -0.0277
 4270TIP3    H212817   1.278   2.830   2.378 -0.4202  0.3912 -0.8363
 4271TIP3   OH212818   0.343   5.435   0.690  0.3466 -0.3901 -0.2445
 4271TIP3    H112819   0.310   5.491   0.760  1.6753 -0.1030  0.1832
 4271TIP3    H212820   0.418   5.484   0.655 -0.1957 -0.6012 -1.7632
 4272TIP3   OH212821   4.685   3.808   0.450 -0.4672 -0.4712 -0.1712
 4272TIP3    H112822   4.705   3.845   0.536 -2.2492  1.4757 -0.5249
 4272TIP3    H212823   4.761   3.753   0.429  0.4703 -0.1649  2.1640
 4273TIP3   OH212824   4.614   0.745   1.105 -0.3869 -0.3744 -0.4543
 4273TIP3    H112825   4.604   0.792   1.188 -1.2162 -2.6515  0.8464
 4273TIP3    H212826   4.579   0.805   1.039 -1.7849  0.6801  1.1423
 4274TIP3   OH212827   3.015   5.489   5.049  0.0063 -0.2940  0.1249
 4274TIP3    H112828   3.018   5.450   4.962  1.0300  0.7055 -0.3173
 4274TIP3    H212829   3.060   5.573   5.040  1.3788 -0.7561  1.9065
 4275TIP3   OH212830   1.683   4.539   1.304 -0.3323  0.2245 -0.0498
 4275TIP3    H112831   1.668   4.543   1.209 -1.6465  2.0309  0.1730
 4275TIP3    H212832   1.719   4.625   1.326  0.4387 -0.3502  1.0473
 4276TIP3   OH212833   4.218   2.334   4.444 -0.5161 -0.0914  0.1698
 4276TIP3    H112834   4.261   2.330   4.359 -0.4789  0.7493  0.1341
 4276TIP3    H212835   4.143   2.391   4.429  0.3034  1.2651  1.0258
 4277TIP3   OH212836   3.403   1.582   1.447 -0.1917 -0.1368  0.1026
 4277TIP3    H112837   3.364   1.593   1.361  0.7655 -0.6633 -0.4230
 4277TIP3    H212838   3.495   1.561   1.429  0.2075  0.4950  1.2675
 4278TIP3   OH212839   4.374   5.036   3.916 -0.1124  0.1351  0.6399
 4278TIP3    H112840   4.321   5.044   3.995 -0.4954  0.8084  0.3149
 4278TIP3    H212841   4.335   4.963   3.868 -0.8421  0.7197  0.3325
 4279TIP3   OH212842   2.090   3.695   1.234 -0.1799  0.4816 -0.1787
 4279TIP3    H112843   2.036   3.710   1.312  1.5562 -0.9633  1.3899
 4279TIP3    H212844   2.087   3.601   1.220 -1.0001  0.7699 -2.3375
 4280TIP3   OH212845   1.843   1.360   0.393 -0.0655  0.5490  0.0083
 4280TIP3    H112846   1.873   1.273   0.419  0.7872  1.4332  2.1703
 4280TIP3    H212847   1.753   1.347   0.364  0.7285 -1.3648 -1.8645
 4281TIP3   OH212848   3.828   0.121   0.365 -0.2779 -0.4250  0.0493
 4281TIP3    H112849   3.858   0.207   0.396  0.7748 -1.7540  3.0232
 4281TIP3    H212850   3.884   0.058   0.409 -1.7204 -2.7412 -1.2071
 4282TIP3   OH212851   5.372   5.900   1.712  0.5732 -0.6120 -0.0420
 4282TIP3    H112852   5.391   5.900   1.618  1.7236 -0.0319  0.1678
 4282TIP3    H212853   5.302   5.964   1.722  1.5253  0.5123 -0.3371
 4283TIP3   OH212854   2.370   3.095   1.874  0.5960  0.3378  0.0177
 4283TIP3    H112855   2.284   3.105   1.834  0.7371  1.1651 -0.0962
 4283TIP3    H212856   2.432   3.130   1.809  1.0594 -0.5787 -0.0524
 4284TIP3   OH212857   5.136   0.757   0.230  0.0274  0.0379  0.1247
 4284TIP3    H112858   5.179   0.677   0.260  1.5801  0.2194 -1.4820
 4284TIP3    H212859   5.045   0.730   0.213  0.4290 -1.3070 -0.0502
 4285TIP3   OH212860   4.984   3.228   0.618 -0.1844  0.1026  0.5734
 4285TIP3    H112861   4.977   3.157   0.554  2.2544 -0.5655  0.9620
 4285TIP3    H212862   4.954   3.190   0.700  0.8954 -0.4414  0.7300
 4286TIP3   OH212863   5.934   2.559   2.218 -0.1906  0.0904 -0.3199
 4286TIP3    H112864   6.017   2.513   2.212 -0.1093  0.1560  0.2169
 4286TIP3    H212865   5.921   2.599   2.132  0.8942  1.0360 -0.0738
 4287TIP3   OH212866   1.350   3.558   0.838  0.3290 -0.1140 -0.2951
 4287TIP3    H112867   1.390   3.643   0.820 -0.9386  0.5238 -0.1840
 4287TIP3    H212868   1.263   3.564   0.799  0.1357 -1.2731 -0.0629
 4288TIP3   OH212869   4.818   3.563   4.279 -0.4680  0.1615  0.4401
 4288TIP3    H112870   4.879   3.619   4.231 -0.7036  0.9674  1.0418
 4288TIP3    H212871   4.866   3.536   4.357 -0.5901  0.1038  0.4965
 4289TIP3   OH212872   2.328   3.385   2.106 -0.4733 -0.1339  0.6235
 4289TIP3    H112873   2.251   3.374   2.050  0.1634 -1.1766 -0.0775
 4289TIP3    H212874   2.315   3.470   2.148 -1.6329  0.0501 -0.0660
 4290TIP3   OH212875   6.053   5.012   0.117  0.1725 -0.3920  0.2856
 4290TIP3    H112876   6.031   4.932   0.163 -0.1831  0.7080  2.1108
 4290TIP3    H212877   6.015   5.001   0.030 -1.3635 -1.4969  1.0554
 4291TIP3   OH212878   0.065   1.674   3.674 -0.8348  0.0626 -0.2174
 4291TIP3    H112879   0.050   1.592   3.627 -0.6845  0.1369 -0.3950
 4291TIP3    H212880   0.133   1.653   3.738  0.4928  0.4835 -1.4429
 4292TIP3   OH212881   3.797   3.067   4.982  0.4264  0.3126  0.1125
 4292TIP3    H112882   3.720   3.093   4.931 -0.2115 -0.7905  0.4788
 4292TIP3    H212883   3.852   3.020   4.920 -0.1769 -0.7055  0.3252
 4293TIP3   OH212884   1.969   4.098   2.280  0.4998 -0.4282  0.8924
 4293TIP3    H112885   2.001   4.013   2.250 -1.6765 -1.9587  2.6222
 4293TIP3    H212886   1.876   4.085   2.294 -0.6564  3.2451 -1.9373
 4294TIP3   OH212887   3.580   2.873   1.797  0.3519 -0.1385 -0.4243
 4294TIP3    H112888   3.590   2.803   1.862  1.2464 -1.1419 -1.5845
 4294TIP3    H212889   3.669   2.908   1.786  0.3070 -0.2928 -1.4075
 4295TIP3   OH212890   5.959   4.770   4.960  0.0488  0.3408 -0.2357
 4295TIP3    H112891   5.973   4.677   4.947 -0.6016  0.1219  0.5052
 4295TIP3    H212892   5.945   4.805   4.873  1.1397 -0.0981 -0.6068
 4296TIP3   OH212893   5.815   1.380   3.325 -0.1462  0.0041 -0.5939
 4296TIP3    H112894   5.888   1.325   3.297 -1.6848 -0.8502 -3.2295
 4296TIP3    H212895   5.754   1.321   3.368  0.8284  0.8054  2.0954
 4297TIP3   OH212896   0.243   4.992   3.084  0.4627 -0.6397 -0.8378
 4297TIP3    H112897   0.322   4.941   3.102  1.1204 -0.0714 -2.0279
 4297TIP3    H212898   0.271   5.083   3.091 -0.2599 -0.4339 -0.5785
 4298TIP3   OH212899   2.597   0.654   1.723 -0.0800 -0.0890  0.2321
 4298TIP3    H112900   2.561   0.710   1.655  0.1720 -0.3278 -0.1001
 4298TIP3    H212901   2.623   0.714   1.793  0.2450  0.2105 -0.1444
 4299TIP3   OH212902   2.660   4.021   3.648 -0.4083  0.0535  0.0224
 4299TIP3    H112903   2.720   3.972   3.592 -1.3083 -0.8945 -0.1346
 4299TIP3    H212904   2.656   4.108   3.609 -0.3454 -0.3357 -0.8616
 4300TIP3   OH212905   4.442   1.763   4.612 -0.4987 -0.0326  0.5633
 4300TIP3    H112906   4.509   1.830   4.630 -1.3055  1.0801 -0.3743
 4300TIP3    H212907   4.489   1.680   4.613  0.5315  0.5413  1.8080
 4301TIP3   OH212908   1.565   2.264   2.504 -0.1046 -0.0025  0.5012
 4301TIP3    H112909   1.576   2.294   2.414  1.6559  1.9199  1.2786
 4301TIP3    H212910   1.471   2.250   2.513 -0.3590  0.1242 -1.5113
 4302TIP3   OH212911   5.092   0.086   5.018 -0.4392  0.3244 -0.8596
 4302TIP3    H112912   5.070   0.041   4.937 -2.4102  0.8238 -0.6520
 4302TIP3    H212913   5.036   0.046   5.084  1.0631 -0.0117  0.2873
 4303TIP3   OH212914   6.016   3.671   1.247  0.1950 -0.0990 -0.0794
 4303TIP3    H112915   6.045   3.682   1.337 -0.7607  1.7763  0.0425
 4303TIP3    H212916   5.921   3.683   1.250  0.1072 -0.3100 -1.2942
 4304TIP3   OH212917   5.413   5.618   3.020  0.6137 -0.1023  0.2958
 4304TIP3    H112918   5.343   5.554   3.012 -0.5313  1.3088 -1.8961
 4304TIP3    H212919   5.476   5.594   2.952  0.2146  1.0042 -0.4949
 4305TIP3   OH212920   3.905   5.069   4.628  0.3513 -0.4767  0.2110
 4305TIP3    H112921   3.848   5.075   4.552 -0.8746  0.8815  1.1746
 4305TIP3    H212922   3.988   5.109   4.599  0.7802 -2.2284 -1.1135
 4306TIP3   OH212923   0.370   0.227   1.921  0.0098  0.1260  0.6424
 4306TIP3    H112924   0.425   0.303   1.940  0.1042 -0.0117  0.9234
 4306TIP3    H212925   0.430   0.164   1.882 -0.7026  1.4945 -3.0466
 4307TIP3   OH212926   0.382   1.014   3.162  0.3485 -0.3135  0.1775
 4307TIP3    H112927   0.328   1.084   3.200  1.4314  0.9863 -0.5987
 4307TIP3    H212928   0.418   1.052   3.082  2.3746 -1.1404  0.6329
 4308TIP3   OH212929   0.142   5.825   4.024 -0.2781  0.3918  0.1849
 4308TIP3    H112930   0.079   5.847   4.092  1.2239  2.2691  1.0941
 4308TIP3    H212931   0.156   5.731   4.032 -0.1856  0.5471  2.4871
 4309TIP3   OH212932   6.308   0.992   1.743 -0.1988  0.2246 -0.3799
 4309TIP3    H112933   6.231   0.999   1.687  0.0891  0.1759 -0.7847
 4309TIP3    H212934   6.298   0.908   1.788  0.3511 -0.4817 -1.5415
 4310TIP3   OH212935   3.046   4.153   1.122 -0.2278  0.3271  0.3473
 4310TIP3    H112936   2.963   4.130   1.080  0.1700 -0.2684 -0.1454
 4310TIP3    H212937   3.068   4.076   1.174  0.6102 -0.0303 -0.4950
 4311TIP3   OH212938   0.870   4.473   3.099  0.0528  0.4705 -0.2469
 4311TIP3    H112939   0.891   4.513   3.183  1.9357 -1.1461  0.1227
 4311TIP3    H212940   0.933   4.512   3.038 -0.9282  1.2093 -0.8219
 4312TIP3   OH212941   6.015   2.205   1.469 -0.0141  0.4522  0.4870
 4312TIP3    H112942   5.977   2.238   1.550 -1.5446  1.4527 -0.5793
 4312TIP3    H212943   6.099   2.252   1.460  0.2268  0.2330  1.5330
 4313TIP3   OH212944   5.984   4.233   1.300  0.1562 -0.1761 -0.1413
 4313TIP3    H112945   5.960   4.251   1.391  0.2403  0.3760 -0.2256
 4313TIP3    H212946   5.998   4.138   1.297 -1.9731 -0.5345 -0.0955
 4314TIP3   OH212947   4.494   3.316   0.955 -0.0124 -0.1674  0.2994
 4314TIP3    H112948   4.544   3.284   0.879  0.0594  0.1168  0.2267
 4314TIP3    H212949   4.444   3.240   0.984  0.4532 -0.4499  0.3663
 4315TIP3   OH212950   6.129   0.747   0.118  0.1930 -0.3429 -0.1645
 4315TIP3    H112951   6.115   0.841   0.122  0.6414 -0.2943  0.3785
 4315TIP3    H212952   6.185   0.727   0.193  1.9411 -0.7085 -1.4962
 4316TIP3   OH212953   2.511   0.690   2.581 -0.5738 -0.3002 -0.4068
 4316TIP3    H112954   2.521   0.648   2.496 -0.0389  0.6310 -0.8244
 4316TIP3    H212955   2.594   0.676   2.625 -0.4141  0.2452 -0.5247
 4317TIP3   OH212956   5.207   3.684   1.920 -0.0040 -0.3484 -0.7591
 4317TIP3    H112957   5.205   3.739   1.998  2.5050 -2.6394  1.0663
 4317TIP3    H212958   5.145   3.614   1.937 -1.4736  0.5524 -2.0904
 4318TIP3   OH212959   4.741   2.477   3.226  0.4185 -0.2282 -0.7142
 4318TIP3    H112960   4.676   2.456   3.159 -0.6005  0.4435  0.0117
 4318TIP3    H212961   4.802   2.404   3.225  0.1786 -0.4328 -2.0672
 4319TIP3   OH212962   5.641   0.671   2.440 -0.4688  0.0194  0.0736
 4319TIP3    H112963   5.668   0.579   2.442 -0.2572  0.0907  0.6043
 4319TIP3    H212964   5.559   0.673   2.490  0.5821  0.4449  1.9003
 4320TIP3   OH212965   5.059   0.206   3.989 -0.3293  0.0240  0.1995
 4320TIP3    H112966   5.019   0.276   3.938 -1.0498  0.5965  1.4933
 4320TIP3    H212967   5.152   0.227   3.990 -0.3630  0.2146 -0.5493
 4321TIP3   OH212968   0.384   5.747   4.455  0.1838 -0.2040 -0.3187
 4321TIP3    H112969   0.298   5.776   4.486  0.1086  0.2800 -0.9608
 4321TIP3    H212970   0.369   5.660   4.418 -0.0038 -0.1637 -0.3355
 4322TIP3   OH212971   2.530   5.826   2.811  0.5246 -0.1425 -0.3984
 4322TIP3    H112972   2.583   5.748   2.830  0.5279 -0.0965 -0.2196
 4322TIP3    H212973   2.447   5.791   2.778  0.1525 -0.2496  0.6176
 4323TIP3   OH212974   1.303   2.216   0.891 -0.3125  0.0692 -0.5893
 4323TIP3    H112975   1.249   2.153   0.843 -0.6068 -1.1763  1.2847
 4323TIP3    H212976   1.393   2.197   0.862 -0.2589 -2.0152  0.6799
 4324TIP3   OH212977   2.138   1.974   4.873 -0.3742 -0.5190  0.3413
 4324TIP3    H112978   2.125   1.966   4.967  0.3907  1.2578  0.6370
 4324TIP3    H212979   2.153   1.884   4.843 -2.3236 -1.3260  1.6082
 4325TIP3   OH212980   3.367   3.074   0.166  0.4717  0.5854  0.2193
 4325TIP3    H112981   3.422   2.998   0.146 -0.5657  0.1959 -1.2917
 4325TIP3    H212982   3.289   3.036   0.208  0.4542  0.9430  0.5133
 4326TIP3   OH212983   1.974   4.672   0.344  0.0861  0.3066  0.1707
 4326TIP3    H112984   2.013   4.620   0.414  0.0364  0.7891  0.5619
 4326TIP3    H212985   1.962   4.610   0.272 -1.7211 -0.7017  1.2459
 4327TIP3   OH212986   0.496   3.277   2.887  0.5136 -0.6362  0.5877
 4327TIP3    H112987   0.475   3.211   2.821 -0.6886 -0.9200  1.2224
 4327TIP3    H212988   0.491   3.360   2.839  1.8546 -0.9775 -0.1682
 4328TIP3   OH212989   1.498   3.273   3.028  0.0557 -0.1285  0.0071
 4328TIP3    H112990   1.557   3.302   3.097 -0.7578 -3.0202  2.0911
 4328TIP3    H212991   1.547   3.207   2.980 -0.0118  0.5890 -1.0774
 4329TIP3   OH212992   3.612   0.591   3.965  0.2353 -0.6731  0.1057
 4329TIP3    H112993   3.582   0.682   3.960 -0.0952 -0.7366  0.8178
 4329TIP3    H212994   3.614   0.571   4.058  0.5659 -1.3167 -0.0314
 4330TIP3   OH212995   4.684   0.949   2.234  0.2802 -0.1806 -0.2535
 4330TIP3    H112996   4.760   0.977   2.285 -0.3671  0.0533  0.6154
 4330TIP3    H212997   4.685   0.854   2.240  0.5012 -0.1780 -0.2392
 4331TIP3   OH212998   1.636   0.549   0.065 -0.2056  0.3571  0.0323
 4331TIP3    H112999   1.695   0.608   0.112 -0.7417 -0.6596  2.0978
 4331TIP3    H213000   1.673   0.462   0.079 -0.3481  0.0030 -1.5649
 4332TIP3   OH213001   2.846   1.266   1.629  0.2006  0.1980 -0.3082
 4332TIP3    H113002   2.893   1.187   1.654  0.9131  0.6752 -0.0995
 4332TIP3    H213003   2.864   1.276   1.535 -0.4504 -0.2502 -0.4879
 4333TIP3   OH213004   3.784   5.796   0.531 -0.2998  0.1551  0.4325
 4333TIP3    H113005   3.851   5.728   0.541 -0.2013  0.4301  1.7222
 4333TIP3    H213006   3.741   5.774   0.448  1.2790 -0.1090 -0.3570
 4334TIP3   OH213007   5.841   2.224   2.932 -0.7327 -0.6214 -0.3241
 4334TIP3    H113008   5.909   2.230   2.865 -1.6435 -2.5614 -1.4959
 4334TIP3    H213009   5.888   2.199   3.012 -0.0539 -2.2162 -1.1798
 4335TIP3   OH213010   2.753   2.919   4.834 -0.3861  0.0486  0.1178
 4335TIP3    H113011   2.723   2.832   4.806 -1.7793  0.7737 -0.7868
 4335TIP3    H213012   2.838   2.903   4.874  0.0064 -1.5553 -1.2297
 4336TIP3   OH213013   4.537   5.509   4.727  0.1217  0.6193  0.3952
 4336TIP3    H113014   4.597   5.439   4.700 -0.9025  0.1155 -0.6270
 4336TIP3    H213015   4.466   5.463   4.772 -2.1358  0.5406 -2.8875
 4337TIP3   OH213016   2.888   0.051   1.076 -0.1540  0.4552 -0.0907
 4337TIP3    H113017   2.879   0.084   0.987 -2.6780 -0.6887 -0.3391
 4337TIP3    H213018   2.893   0.129   1.131  1.3700  1.1686 -1.1814
 4338TIP3   OH213019   4.472   4.306   3.818 -0.0084 -0.4473 -0.0050
 4338TIP3    H113020   4.483   4.277   3.727 -0.3811  1.8834 -0.8565
 4338TIP3    H213021   4.560   4.299   3.855  0.7759  1.1527 -1.4097
 4339TIP3   OH213022   0.215   0.033   0.365  0.0375 -0.4522 -0.1245
 4339TIP3    H113023   0.165   0.018   0.285 -1.4305  1.2703  0.4004
 4339TIP3    H213024   0.282   0.097   0.340  0.0323 -0.4545 -0.1438
 4340TIP3   OH213025   2.631   0.057   4.077 -0.4029  0.1053  0.7262
 4340TIP3    H113026   2.572   0.053   4.152 -1.6182  1.1059 -0.1438
 4340TIP3    H213027   2.625   0.147   4.046 -0.7762 -0.5467 -1.2301
 4341TIP3   OH213028   5.561   0.191   4.599  0.4201 -0.5377  0.5330
 4341TIP3    H113029   5.544   0.278   4.635 -1.7642 -1.5243  2.1572
 4341TIP3    H213030   5.496   0.135   4.642  2.8880 -3.3238  0.9004
 4342TIP3   OH213031   5.186   1.472   4.538 -0.3193 -0.0933  0.7329
 4342TIP3    H113032   5.261   1.506   4.489 -1.1381 -0.7738 -1.0993
 4342TIP3    H213033   5.111   1.520   4.503 -0.8105  0.3558  2.3119
 4343TIP3   OH213034   6.061   5.917   0.329  0.3143  0.7348  0.2543
 4343TIP3    H113035   6.021   5.831   0.337 -1.1550  1.4643  1.1267
 4343TIP3    H213036   6.118   5.910   0.252  0.2078 -0.9843  0.2935
 4344TIP3   OH213037   4.544   4.627   4.527 -0.1430  0.1133  0.6816
 4344TIP3    H113038   4.461   4.633   4.479 -0.3182 -0.3511  0.9146
 4344TIP3    H213039   4.518   4.619   4.619  0.1985  1.2885  0.8965
 4345TIP3   OH213040   0.433   0.158   0.250  0.2691 -0.1261  0.4046
 4345TIP3    H113041   0.458   0.143   0.159  0.3446  0.4843  0.3273
 4345TIP3    H213042   0.459   0.247   0.269  0.4610 -0.3239  1.1017
 4346TIP3   OH213043   5.844   0.175   2.516 -0.0079 -0.1863  0.4306
 4346TIP3    H113044   5.847   0.079   2.520  0.7477 -0.3411 -1.9802
 4346TIP3    H213045   5.935   0.202   2.528 -0.3436  0.3339  2.0229
 4347TIP3   OH213046   0.431   4.195   0.817  0.0524 -0.0739 -0.1413
 4347TIP3    H113047   0.400   4.261   0.880 -1.2051 -3.2292  2.8465
 4347TIP3    H213048   0.351   4.151   0.788  0.8896 -0.6656 -1.6219
 4348TIP3   OH213049   2.400   1.822   3.396  0.0519  0.3117  0.6091
 4348TIP3    H113050   2.472   1.764   3.371  0.4884  0.8783  0.5300
 4348TIP3    H213051   2.391   1.883   3.323 -1.0226 -0.2112  0.2762
 4349TIP3   OH213052  -0.032   0.392   1.664  0.0873  0.0598  0.1160
 4349TIP3    H113053   0.029   0.456   1.701 -0.3866 -0.1836  1.3766
 4349TIP3    H213054   0.012   0.360   1.586  0.2218  2.1130 -0.7181
 4350TIP3   OH213055   1.485   4.537   4.239  0.7311  0.1775 -0.0857
 4350TIP3    H113056   1.520   4.569   4.156 -2.5022  2.2173 -0.8182
 4350TIP3    H213057   1.476   4.443   4.227  1.4082  0.2872 -1.5986
 4351TIP3   OH213058   3.462   1.481   2.880  0.3460 -0.0094  0.0131
 4351TIP3    H113059   3.387   1.473   2.938  0.5606  1.0099  0.4515
 4351TIP3    H213060   3.537   1.486   2.938  0.6028  0.5573 -0.3518
 4352TIP3   OH213061   5.050   0.625   3.661 -0.4735 -0.1338 -0.2744
 4352TIP3    H113062   5.139   0.598   3.635  0.0935  1.3775 -0.0164
 4352TIP3    H213063   5.008   0.649   3.578  0.0033  0.9321 -0.2177
 4353TIP3   OH213064   3.358   3.407   4.164  0.1463  0.5590 -0.1507
 4353TIP3    H113065   3.419   3.334   4.168 -0.5026  0.0314  0.3251
 4353TIP3    H213066   3.370   3.444   4.077  2.1711  1.3804  0.4225
 4354TIP3   OH213067   2.083   2.114   3.506  1.1239 -0.2422  0.4675
 4354TIP3    H113068   2.070   2.027   3.468  0.7745 -0.0063  0.0371
 4354TIP3    H213069   2.169   2.141   3.474  2.1944 -1.2861  2.2999
 4355TIP3   OH213070   1.402   4.668   2.093  0.5461 -0.2745  0.1883
 4355TIP3    H113071   1.310   4.656   2.118  0.2589  1.0094 -0.1871
 4355TIP3    H213072   1.412   4.618   2.012 -0.1859  0.6471 -0.4845
 4356TIP3   OH213073   3.810   5.788   2.777 -0.0846  0.1333 -0.1744
 4356TIP3    H113074   3.890   5.820   2.816  1.8607 -0.3916 -3.3470
 4356TIP3    H213075   3.781   5.717   2.834  2.2355 -0.2490  0.6096
 4357TIP3   OH213076   1.065   4.554   2.883  0.1284  0.1756 -0.2500
 4357TIP3    H113077   1.151   4.591   2.906 -0.5021  1.6522 -0.1506
 4357TIP3    H213078   1.085   4.485   2.820  1.2889  1.5157 -1.4065
 4358TIP3   OH213079   1.977   2.298   3.070  0.6936 -0.1182  0.0232
 4358TIP3    H113080   2.069   2.316   3.051  0.8351  0.7843  1.3917
 4358TIP3    H213081   1.959   2.346   3.151 -1.1576  0.2406 -0.5457
 4359TIP3   OH213082   5.887   2.793   3.699 -0.1748  0.0197 -0.0788
 4359TIP3    H113083   5.979   2.799   3.722 -0.1665  0.7127 -0.2751
 4359TIP3    H213084   5.886   2.785   3.604 -0.2587 -1.6513  0.0377
 4360TIP3   OH213085   0.013   1.572   3.267 -0.1688 -0.3792  0.0449
 4360TIP3    H113086   0.028   1.501   3.205 -1.7957 -1.0101  0.3129
 4360TIP3    H213087  -0.003   1.528   3.350 -2.7866  0.1238 -0.0886
 4361TIP3   OH213088   4.155   0.374   0.866 -0.1468 -0.2507  0.5870
 4361TIP3    H113089   4.230   0.404   0.814 -2.0389 -0.4327 -2.4605
 4361TIP3    H213090   4.141   0.444   0.931  1.0959  1.0026 -0.4323
 4362TIP3   OH213091   0.307   4.284   4.753  0.3526 -0.2687  0.3911
 4362TIP3    H113092   0.279   4.337   4.678 -0.2176  0.4359  1.0811
 4362TIP3    H213093   0.368   4.340   4.801  2.3384 -1.4514 -0.5954
 4363TIP3   OH213094   0.394   4.060   2.871 -0.1068  0.2289  0.4426
 4363TIP3    H113095   0.391   4.072   2.966  2.1617  0.0857  0.5825
 4363TIP3    H213096   0.326   3.995   2.852  0.3848 -0.8500  2.1736
 4364TIP3   OH213097   1.953   0.969   0.639  0.2437 -0.4936  0.2547
 4364TIP3    H113098   1.935   0.954   0.546  1.7346 -0.9577  0.0043
 4364TIP3    H213099   2.048   0.959   0.646  0.4095  1.5323  1.4806
 4365TIP3   OH213100   5.334   4.981   2.198 -0.1835 -0.2886 -0.1124
 4365TIP3    H113101   5.401   5.047   2.217 -1.1407  0.6093  0.3135
 4365TIP3    H213102   5.272   5.027   2.141 -0.0388 -1.3516 -1.1457
 4366TIP3   OH213103   3.449   2.544   4.913 -0.7090  0.5151 -0.5281
 4366TIP3    H113104   3.361   2.506   4.920 -0.3953 -0.0160  0.7993
 4366TIP3    H213105   3.508   2.476   4.945 -0.0126  1.5697  0.5322
 4367TIP3   OH213106   4.022   4.511   3.636 -0.3014  0.1202 -0.3334
 4367TIP3    H113107   4.086   4.444   3.661  0.8574  0.8372 -1.2351
 4367TIP3    H213108   3.952   4.463   3.592 -0.0090 -0.6030 -0.0318
 4368TIP3   OH213109   0.327   4.924   4.315  0.6774  0.2394  0.0341
 4368TIP3    H113110   0.407   4.884   4.281 -0.2561 -0.4881 -1.4139
 4368TIP3    H213111   0.321   4.894   4.405  0.4695 -2.2414 -0.7455
 4369TIP3   OH213112   5.974   5.704   2.525 -0.0236  0.1899 -0.1536
 4369TIP3    H113113   5.910   5.676   2.592 -0.0935  0.9240  0.0912
 4369TIP3    H213114   5.997   5.623   2.479  0.5104 -0.4509  1.1760
 4370TIP3   OH213115   2.119   1.285   1.467 -0.2031 -0.6184  0.0744
 4370TIP3    H113116   2.137   1.358   1.408 -1.9686  0.2965  0.6147
 4370TIP3    H213117   2.044   1.240   1.428  0.9031 -2.2500 -0.2962
 4371TIP3   OH213118   2.990   5.283   1.791  0.4141 -0.3168 -0.5727
 4371TIP3    H113119   2.937   5.206   1.770 -1.1202  0.9782 -1.6187
 4371TIP3    H213120   2.967   5.348   1.725  0.5100  1.6048  1.1721
 4372TIP3   OH213121   5.405   3.375   3.740  0.2329  0.0783  0.4359
 4372TIP3    H113122   5.372   3.286   3.752 -0.5023  0.2848 -0.0657
 4372TIP3    H213123   5.500   3.366   3.750  0.1651 -0.7587  0.3954
 4373TIP3   OH213124   4.386   1.737   2.624 -0.9957 -0.2876  0.3513
 4373TIP3    H113125   4.357   1.666   2.567  0.5336  0.9303 -2.1526
 4373TIP3    H213126   4.455   1.698   2.678 -1.6245 -1.2027  0.5095
 4374TIP3   OH213127   3.040   0.256   4.252 -0.4046  0.7158  0.0129
 4374TIP3    H113128   3.071   0.316   4.320  2.5977  1.2934 -1.6798
 4374TIP3    H213129   2.952   0.288   4.230 -0.2451  2.3367  1.5076
 4375TIP3   OH213130   1.887   3.507   2.848 -0.2131  0.4264  0.0898
 4375TIP3    H113131   1.836   3.495   2.928  0.2143 -0.0448  0.2981
 4375TIP3    H213132   1.972   3.470   2.868 -0.0543  0.4422 -0.5351
 4376TIP3   OH213133   2.636   4.603   4.929 -0.1809 -0.8145  0.0412
 4376TIP3    H113134   2.666   4.552   4.854  0.0418 -1.0460  0.2862
 4376TIP3    H213135   2.714   4.649   4.960 -0.0764 -1.4050  0.6715
 4377TIP3   OH213136   3.743   1.786   4.644 -0.1137  0.3735 -0.0671
 4377TIP3    H113137   3.803   1.805   4.572 -1.3466  1.2810 -0.9047
 4377TIP3    H213138   3.670   1.847   4.631 -0.9621 -0.3143  1.2255
 4378TIP3   OH213139   0.477   0.667   3.359  0.1194 -0.4599 -0.0065
 4378TIP3    H113140   0.481   0.737   3.424  0.8370 -1.4232  1.0172
 4378TIP3    H213141   0.562   0.671   3.315  0.6504 -1.4210  0.8776
 4379TIP3   OH213142   4.640   5.537   2.200  0.5798  0.1930  0.8312
 4379TIP3    H113143   4.725   5.497   2.219  0.2866 -0.4305  0.8435
 4379TIP3    H213144   4.613   5.575   2.283  1.8620  2.4015  0.3464
 4380TIP3   OH213145   3.574   5.024   4.002 -0.2372 -0.1491  0.0019
 4380TIP3    H113146   3.614   5.097   4.049 -1.0134 -0.7247  1.6321
 4380TIP3    H213147   3.597   4.947   4.053 -0.4455 -0.9044 -1.0247
 4381TIP3   OH213148   2.142   1.941   3.246 -0.1681  0.1871  0.1728
 4381TIP3    H113149   2.167   1.855   3.212 -1.8994 -0.9269  1.5009
 4381TIP3    H213150   2.047   1.936   3.254 -0.2727  2.1354  0.5952
 4382TIP3   OH213151   3.027   0.435   0.806  0.0222 -0.1399 -0.1006
 4382TIP3    H113152   3.046   0.528   0.821 -2.1228  0.2067  0.8542
 4382TIP3    H213153   3.083   0.389   0.867 -0.9164  0.7213  1.4750
 4383TIP3   OH213154   0.227   4.323   0.565 -0.5433 -0.1930 -0.0609
 4383TIP3    H113155   0.215   4.237   0.604 -0.0497 -1.2706 -2.1037
 4383TIP3    H213156   0.314   4.319   0.525 -1.1702  0.6377 -1.5921
 4384TIP3   OH213157   0.480   2.457   4.029  0.8687  0.3033 -0.0519
 4384TIP3    H113158   0.389   2.438   4.006  0.6811  0.5081  0.5110
 4384TIP3    H213159   0.511   2.513   3.958  0.8539 -0.5330 -0.7424
 4385TIP3   OH213160   1.012   4.604   4.652 -0.1519  0.1914  0.0104
 4385TIP3    H113161   0.987   4.534   4.592 -1.8638  1.1800 -0.5287
 4385TIP3    H213162   1.026   4.680   4.595 -1.9018  1.1770  0.7846
 4386TIP3   OH213163   2.669   2.907   2.318 -0.5492 -0.0508 -0.3253
 4386TIP3    H113164   2.672   2.812   2.313 -0.6123 -0.0747  0.1275
 4386TIP3    H213165   2.603   2.933   2.253 -0.1352 -0.2794 -0.8507
 4387TIP3   OH213166   1.928   4.375   2.370  0.1087  0.6517 -0.0606
 4387TIP3    H113167   1.917   4.311   2.300  0.4014  0.4471  0.0761
 4387TIP3    H213168   2.000   4.339   2.423 -0.5281  0.4820  0.7015
 4388TIP3   OH213169   5.178   0.407   3.024  0.3289  0.1886  0.6207
 4388TIP3    H113170   5.097   0.424   3.072  1.3227  1.8922  1.8025
 4388TIP3    H213171   5.198   0.315   3.043 -0.1768  0.3640  2.1632
 4389TIP3   OH213172   4.310   2.656   1.469 -0.3544 -0.5891  0.2317
 4389TIP3    H113173   4.246   2.726   1.483 -0.0438 -0.6788  2.5643
 4389TIP3    H213174   4.394   2.696   1.492  0.1518 -1.0907 -0.6845
 4390TIP3   OH213175   4.191   4.420  -0.013  0.2094 -0.2300 -0.1393
 4390TIP3    H113176   4.100   4.432   0.013  0.1619 -0.1052 -0.3613
 4390TIP3    H213177   4.241   4.439   0.066  0.1117  1.0110 -0.3509
 4391TIP3   OH213178   1.410   0.152   1.841 -0.5814 -0.0991 -0.1226
 4391TIP3    H113179   1.393   0.219   1.908 -1.1471 -0.6226  0.2620
 4391TIP3    H213180   1.347   0.171   1.772  0.5281  0.9368 -0.8987
 4392TIP3   OH213181   2.670   0.194   2.027 -0.5295 -0.3731 -0.9537
 4392TIP3    H113182   2.749   0.198   2.081 -1.7780  0.1718  0.9460
 4392TIP3    H213183   2.630   0.110   2.051 -1.6466  0.3563 -0.1599
 4393TIP3   OH213184   3.046   2.717   0.904 -0.0904 -0.2075  0.5074
 4393TIP3    H113185   2.986   2.653   0.865  1.0987 -0.5264 -0.9181
 4393TIP3    H213186   2.993   2.765   0.967 -1.6635 -0.9181 -0.2180
 4394TIP3   OH213187   2.821   0.409   3.768  0.0530  0.1482 -0.4385
 4394TIP3    H113188   2.901   0.372   3.730  0.5482 -0.1963  0.8791
 4394TIP3    H213189   2.851   0.453   3.848 -0.9817  0.6696 -0.3172
 4395TIP3   OH213190   4.514   1.931   0.349  0.2122 -0.4450 -0.2318
 4395TIP3    H113191   4.549   2.010   0.309 -1.4446  0.6520  0.3884
 4395TIP3    H213192   4.505   1.953   0.442  1.4858 -2.0272  0.3163
 4396TIP3   OH213193   2.734   4.875   4.216  0.1864  0.4839  0.6053
 4396TIP3    H113194   2.682   4.910   4.144 -0.5193  0.6358  1.1697
 4396TIP3    H213195   2.696   4.788   4.233  2.2059 -0.8398 -1.0849
 4397TIP3   OH213196   1.923   5.175   3.499 -0.0985  0.5665  0.2059
 4397TIP3    H113197   1.849   5.223   3.462  0.4430  1.9062  0.7738
 4397TIP3    H213198   1.963   5.131   3.424  0.7060  2.8480 -0.7838
 4398TIP3   OH213199   5.930   0.499   2.593  0.0530  0.4796 -0.0478
 4398TIP3    H113200   5.864   0.482   2.525 -1.1333  2.3267  0.5629
 4398TIP3    H213201   5.895   0.574   2.642  2.4288  1.2557  0.5790
 4399TIP3   OH213202   6.097   3.912   2.706 -0.0413  0.0591  0.4184
 4399TIP3    H113203   6.104   3.998   2.747 -1.6162  0.4561 -0.0753
 4399TIP3    H213204   6.010   3.881   2.729  1.0153 -2.1130  1.8279
 4400TIP3   OH213205   1.643   3.049   1.798 -0.2996 -0.4860  0.3231
 4400TIP3    H113206   1.658   3.133   1.839  0.6259 -0.1213 -0.7094
 4400TIP3    H213207   1.598   3.070   1.716  3.4690 -0.4997 -1.9700
 4401TIP3   OH213208   5.795   0.183   3.876  0.3845  0.2251  0.1702
 4401TIP3    H113209   5.825   0.269   3.904 -0.2182  1.4703 -2.6671
 4401TIP3    H213210   5.865   0.150   3.819  0.7594 -1.3833  1.4668
 4402TIP3   OH213211   1.701   3.226   4.669  0.3119 -0.5907  0.1154
 4402TIP3    H113212   1.680   3.271   4.587 -0.1561 -2.0380 -0.5801
 4402TIP3    H213213   1.755   3.152   4.643 -0.5968 -1.5907  1.0017
 4403TIP3   OH213214   4.036   4.903   1.184  0.3433 -0.3532  0.1425
 4403TIP3    H113215   3.948   4.912   1.147  0.7261 -0.5116 -0.8275
 4403TIP3    H213216   4.084   4.851   1.120  1.9389  2.0304 -0.7750
 4404TIP3   OH213217   0.465   3.733   0.842  0.3554  0.0657  0.6975
 4404TIP3    H113218   0.386   3.787   0.836  1.3242  1.4478  0.0780
 4404TIP3    H213219   0.505   3.739   0.755  1.5084 -0.0602  1.2097
 4405TIP3   OH213220   3.141   1.329   4.309 -0.0355  0.4446  0.0433
 4405TIP3    H113221   3.063   1.376   4.279  1.0372  2.4504  0.2231
 4405TIP3    H213222   3.200   1.397   4.340  1.1996 -1.1331  1.3712
 4406TIP3   OH213223   5.260   5.184   0.541  0.5784  0.4857 -0.3914
 4406TIP3    H113224   5.255   5.146   0.453  2.8648  2.2717 -1.3973
 4406TIP3    H213225   5.346   5.159   0.573  0.4626  1.3158  0.6120
 4407TIP3   OH213226   1.482   0.771   1.912  0.5835 -0.1592  0.1214
 4407TIP3    H113227   1.392   0.760   1.943  0.7467 -1.7710  0.1334
 4407TIP3    H213228   1.510   0.855   1.948 -1.4041  1.1347 -1.1535
 4408TIP3   OH213229   5.417   5.734   0.774 -0.5540 -0.1326 -0.4755
 4408TIP3    H113230   5.467   5.766   0.849  0.7842 -2.4187 -0.2711
 4408TIP3    H213231   5.377   5.653   0.805 -2.9342  0.6724 -1.2277
 4409TIP3   OH213232   5.035   3.988   4.208  0.5544 -0.4618  0.5045
 4409TIP3    H113233   5.029   3.959   4.117 -4.1363  0.6131  0.1924
 4409TIP3    H213234   5.075   3.914   4.255  1.3210 -1.8148 -2.1065
 4410TIP3   OH213235   2.945   0.528   2.873  0.1344 -0.1829  0.1698
 4410TIP3    H113236   3.040   0.525   2.857 -0.0707 -1.4182 -0.9274
 4410TIP3    H213237   2.937   0.522   2.968  1.1069 -2.1310  0.1731
 4411TIP3   OH213238   3.850   1.072   3.686 -0.7449  0.0638  0.1308
 4411TIP3    H113239   3.940   1.041   3.697 -1.2621 -1.4338  0.3529
 4411TIP3    H213240   3.843   1.091   3.593 -0.2570 -0.0203  0.0728
 4412TIP3   OH213241   2.606   5.492   4.402  0.1117  0.1698  0.6461
 4412TIP3    H113242   2.695   5.507   4.369 -0.3005 -1.3242 -1.2870
 4412TIP3    H213243   2.618   5.437   4.479  0.8474 -0.4294  0.1180
 4413TIP3   OH213244   2.537   2.913   1.495  0.0113 -0.0323 -0.5194
 4413TIP3    H113245   2.591   2.952   1.563 -1.2235  1.2869 -0.2653
 4413TIP3    H213246   2.522   2.823   1.525  0.5125  0.1560  0.3113
 4414TIP3   OH213247   2.250   5.183   3.079  0.1705 -0.1017  0.8747
 4414TIP3    H113248   2.340   5.203   3.051  0.5227 -1.0224  1.3078
 4414TIP3    H213249   2.261   5.127   3.156 -0.7753  0.7641  1.6827
 4415TIP3   OH213250   1.741   2.952   0.943  0.5605  0.0948 -1.1791
 4415TIP3    H113251   1.826   2.979   0.909  1.4622  0.6686  1.3135
 4415TIP3    H213252   1.761   2.877   0.999 -0.5320  0.4316 -0.3193
 4416TIP3   OH213253   2.181   3.605   3.400  0.5445  0.1563  0.2611
 4416TIP3    H113254   2.249   3.570   3.458  0.4079 -1.5045 -0.5363
 4416TIP3    H213255   2.109   3.542   3.407 -1.3264  2.2946  1.7492
 4417TIP3   OH213256   4.279   1.104   1.105  0.6247 -0.3759 -0.5571
 4417TIP3    H113257   4.193   1.070   1.080 -1.7490  3.6340  1.0428
 4417TIP3    H213258   4.311   1.149   1.027 -0.0907  0.3643 -0.4443
 4418TIP3   OH213259   4.291   1.032   3.239  0.2283 -0.1349  0.4175
 4418TIP3    H113260   4.252   0.962   3.292 -0.2563  0.8801  1.4494
 4418TIP3    H213261   4.359   0.988   3.188  2.5260 -0.8489  3.7247
 4419TIP3   OH213262   4.354   2.319   3.756 -0.5344 -0.1655  0.1491
 4419TIP3    H113263   4.311   2.248   3.804  1.2636 -0.0851  2.0210
 4419TIP3    H213264   4.431   2.278   3.717 -0.1029  0.5271  0.2683
 4420TIP3   OH213265   5.291   5.244   4.578 -0.1828 -0.5688  0.6858
 4420TIP3    H113266   5.326   5.303   4.511 -0.6308 -3.1176 -1.9931
 4420TIP3    H213267   5.365   5.191   4.606 -0.1023  0.1542  1.9193
 4421TIP3   OH213268   0.328   2.155   4.444  0.2982  0.4092  0.1553
 4421TIP3    H113269   0.272   2.232   4.439  0.4044  0.5014  0.3826
 4421TIP3    H213270   0.414   2.186   4.415  0.3122  0.3490  0.1320
 4422TIP3   OH213271   2.663   1.909   0.500  0.1050  0.2875 -0.2716
 4422TIP3    H113272   2.732   1.845   0.483  0.8740  0.5285  1.7201
 4422TIP3    H213273   2.679   1.939   0.589 -1.2222  2.0598 -0.5760
 4423TIP3   OH213274   1.844   0.560   4.915  0.2386 -0.2085 -0.7487
 4423TIP3    H113275   1.789   0.595   4.845  0.5041  0.1683 -0.7702
 4423TIP3    H213276   1.866   0.471   4.885 -0.8472 -0.5904 -0.4553
 4424TIP3   OH213277   2.524   0.188   0.922 -0.0552 -0.8485 -0.0650
 4424TIP3    H113278   2.485   0.231   0.846  0.5986  0.2108  0.1741
 4424TIP3    H213279   2.583   0.123   0.884  0.3824 -0.2235 -0.4738
 4425TIP3   OH213280   2.670   0.655   0.232  0.2697  0.4000 -0.6627
 4425TIP3    H113281   2.588   0.607   0.240  2.2516 -3.1396  1.3712
 4425TIP3    H213282   2.689   0.686   0.320  2.4312 -1.6389 -0.2735
 4426TIP3   OH213283   1.497   5.336   5.048  0.1909 -0.0911  0.1965
 4426TIP3    H113284   1.473   5.263   4.992 -0.7298  1.2486 -1.2186
 4426TIP3    H213285   1.500   5.298   5.136  1.3527 -2.1738 -0.6539
 4427TIP3   OH213286   3.509   2.965   3.560  0.6345 -0.2037  0.0263
 4427TIP3    H113287   3.595   2.936   3.590  1.1150 -0.3166 -1.3661
 4427TIP3    H213288   3.522   3.056   3.535  0.6703 -0.5381 -1.2615
 4428TIP3   OH213289   1.770   0.348   4.509 -0.2831  0.1357 -0.4681
 4428TIP3    H113290   1.784   0.294   4.431 -0.6415  0.8081 -1.0156
 4428TIP3    H213291   1.690   0.397   4.489 -0.7569 -0.1778  0.6072
 4429TIP3   OH213292   2.697   2.443   1.164  0.3649 -0.1935 -0.4810
 4429TIP3    H113293   2.720   2.438   1.071  0.3213 -1.1080 -0.4524
 4429TIP3    H213294   2.753   2.512   1.199  0.8118 -0.2515 -1.0626
 4430TIP3   OH213295   0.725   2.481   4.606  0.1479  0.2186 -0.7557
 4430TIP3    H113296   0.659   2.534   4.651  0.6807  0.0614  0.2201
 4430TIP3    H213297   0.809   2.511   4.642  0.4137 -2.1896  0.8297
 4431TIP3   OH213298   2.111   2.214   4.650 -0.1373 -0.0761 -0.3854
 4431TIP3    H113299   2.183   2.153   4.671 -0.0947  0.6841  1.9749
 4431TIP3    H213300   2.142   2.299   4.682 -1.7974  0.3933  0.0491
 4432TIP3   OH213301   1.153   4.029   1.176 -0.1286 -0.7296 -0.1221
 4432TIP3    H113302   1.063   4.019   1.147 -0.6662 -2.9716  2.0106
 4432TIP3    H213303   1.153   4.109   1.227 -1.2583 -1.3612  0.9117
 4433TIP3   OH213304   2.717   5.501   1.788  0.2750  0.0593 -0.2728
 4433TIP3    H113305   2.771   5.450   1.729 -0.8535 -0.5168 -0.8341
 4433TIP3    H213306   2.639   5.524   1.737  0.4612  1.8155  0.1516
 4434TIP3   OH213307   5.318   0.258   1.963  0.1908 -0.0935  0.1153
 4434TIP3    H113308   5.341   0.289   1.875 -1.1027 -0.0138 -0.2101
 4434TIP3    H213309   5.255   0.188   1.949  0.4009 -0.4714  0.9741
 4435TIP3   OH213310   3.545   1.341   2.264 -0.0489  0.1799  0.3664
 4435TIP3    H113311   3.508   1.427   2.281 -1.5658 -0.3585 -0.0152
 4435TIP3    H213312   3.563   1.305   2.350  0.7552  0.9386  0.5216
 4436TIP3   OH213313   2.182   0.816   2.954  0.0604 -0.2753 -0.0673
 4436TIP3    H113314   2.234   0.737   2.947  1.1110  0.3415  0.5421
 4436TIP3    H213315   2.133   0.805   3.036  3.8445  1.6887  2.7776
 4437TIP3   OH213316   1.119   3.072   0.045 -0.2511 -0.2951  0.6050
 4437TIP3    H113317   1.194   3.016   0.063  0.0543 -0.2262 -0.3925
 4437TIP3    H213318   1.044   3.013   0.043 -0.5491 -0.1362  3.4180
 4438TIP3   OH213319   4.631   3.732   3.597  0.7311  0.3671 -0.0677
 4438TIP3    H113320   4.655   3.653   3.646  1.7286  0.9865  0.4771
 4438TIP3    H213321   4.562   3.703   3.538  1.0448 -0.9063  0.1522
 4439TIP3   OH213322   0.200   5.239   2.651 -0.1374  0.2383  0.0434
 4439TIP3    H113323   0.278   5.291   2.670  0.1067 -0.1675  0.1569
 4439TIP3    H213324   0.142   5.253   2.726 -0.3653  0.8953 -0.2482
 4440TIP3   OH213325   4.825   5.515   0.200  0.0501  0.1970 -0.3929
 4440TIP3    H113326   4.833   5.610   0.212 -0.9539  0.2249  0.1162
 4440TIP3    H213327   4.856   5.478   0.283  0.3851  0.0695 -0.5701
 4441TIP3   OH213328   3.491   1.073   4.110  0.1304  0.4815 -0.0531
 4441TIP3    H113329   3.413   1.127   4.102  0.9868  1.5727 -1.7393
 4441TIP3    H213330   3.558   1.133   4.142  0.9006  0.2585 -1.1811
 4442TIP3   OH213331   6.210   5.962   4.775 -0.5773 -0.2160  0.1102
 4442TIP3    H113332   6.256   6.025   4.719 -1.6183  0.6015  0.1544
 4442TIP3    H213333   6.118   5.974   4.755 -0.8192 -1.4833  0.3983
 4443TIP3   OH213334   4.148   0.403   3.498 -0.0642 -0.2322  0.2246
 4443TIP3    H113335   4.077   0.460   3.469 -0.0633  0.1415  0.9502
 4443TIP3    H213336   4.227   0.445   3.465 -0.0931 -0.0166  0.4262
 4444TIP3   OH213337   3.062   4.657   3.714 -0.2932  0.3528 -0.1126
 4444TIP3    H113338   3.157   4.666   3.717 -0.0887 -1.6655  0.9787
 4444TIP3    H213339   3.028   4.737   3.753  1.0508  0.0906  1.6905
 4445TIP3   OH213340   3.991   0.363   0.405 -0.2476 -0.0867 -0.2374
 4445TIP3    H113341   4.084   0.346   0.394 -0.1116  0.8604 -0.6281
 4445TIP3    H213342   3.981   0.383   0.498  0.2106  1.3102 -0.4632
 4446TIP3   OH213343   2.326   1.091   0.824  0.4924  0.3239 -0.2310
 4446TIP3    H113344   2.274   1.133   0.756  0.2096 -0.3137 -0.4201
 4446TIP3    H213345   2.310   0.997   0.812  1.8946  0.0903 -0.4632
 4447TIP3   OH213346   0.916   4.965   2.008  0.1244  0.0293  0.2533
 4447TIP3    H113347   0.988   5.020   2.039  0.2195 -1.1191  2.2247
 4447TIP3    H213348   0.934   4.878   2.045 -0.7247 -1.0300 -1.6715
 4448TIP3   OH213349   6.109   5.517   4.638  0.7904 -0.1507  0.1824
 4448TIP3    H113350   6.160   5.563   4.704  2.2096 -1.0337 -0.2642
 4448TIP3    H213351   6.172   5.490   4.572 -0.2979 -0.9890 -0.5701
 4449TIP3   OH213352   1.906   0.157   2.545  0.3880 -0.0257  0.3434
 4449TIP3    H113353   1.815   0.147   2.515 -0.0536  2.2349  0.7309
 4449TIP3    H213354   1.957   0.159   2.465 -0.3314  1.9269 -0.1378
 4450TIP3   OH213355   0.030   3.888   2.300  0.5792 -0.8851  0.7732
 4450TIP3    H113356   0.003   3.843   2.380  2.2642 -0.0098  1.9071
 4450TIP3    H213357   0.069   3.820   2.246 -1.3350 -1.6464  0.2781
 4451TIP3   OH213358   1.120   5.188   4.865 -0.3715 -0.5719 -0.0881
 4451TIP3    H113359   1.083   5.228   4.786  1.0101 -0.2848 -0.6157
 4451TIP3    H213360   1.048   5.190   4.929 -0.8013  1.4423 -0.5557
 4452TIP3   OH213361   2.794   0.124   4.567 -0.3001  0.1762  0.0150
 4452TIP3    H113362   2.762   0.094   4.482 -1.7247 -1.1084  0.9484
 4452TIP3    H213363   2.742   0.075   4.631  0.4015  1.4452  1.6384
 4453TIP3   OH213364   3.354   1.647   1.187 -0.3212 -0.3800 -0.5954
 4453TIP3    H113365   3.325   1.581   1.124  1.7162 -1.6299 -0.3189
 4453TIP3    H213366   3.357   1.728   1.137  0.4941 -1.1958 -1.9598
 4454TIP3   OH213367   6.145   5.811   1.444  0.1068 -1.0781 -0.1976
 4454TIP3    H113368   6.120   5.797   1.353 -1.4959 -0.2167  0.0617
 4454TIP3    H213369   6.184   5.898   1.445 -3.0292  0.4707  0.3970
 4455TIP3   OH213370   4.941   2.158   3.428 -0.0645  0.5217  0.1547
 4455TIP3    H113371   5.034   2.180   3.428 -0.3058  1.6199 -1.1784
 4455TIP3    H213372   4.939   2.062   3.427  1.0400  0.4857  0.4019
 4456TIP3   OH213373   0.888   4.368   4.307  0.2577 -0.0151  0.0882
 4456TIP3    H113374   0.893   4.437   4.373  1.1864 -0.8336  0.9079
 4456TIP3    H213375   0.978   4.337   4.297 -0.1516 -1.1929 -0.1672
 4457TIP3   OH213376   1.158   2.264   5.077  0.3847  0.1757 -0.0674
 4457TIP3    H113377   1.168   2.243   4.984  0.3578  0.1095 -0.0552
 4457TIP3    H213378   1.134   2.181   5.118 -1.7745  0.6132 -0.3157
 4458TIP3   OH213379   0.584   3.454   4.554 -0.0158 -0.0397  0.2350
 4458TIP3    H113380   0.493   3.426   4.564  0.3741 -1.6056 -0.1995
 4458TIP3    H213381   0.635   3.372   4.560  1.6738  1.0535  3.6612
 4459TIP3   OH213382   3.363   4.930   3.705  0.4663 -0.1123 -0.2560
 4459TIP3    H113383   3.301   4.910   3.775 -0.1536 -0.5686 -0.9221
 4459TIP3    H213384   3.317   4.995   3.652  0.7668 -0.0772 -0.4704
 4460TIP3   OH213385   2.767   0.610   3.570  0.0487 -0.2452 -0.1474
 4460TIP3    H113386   2.752   0.541   3.635  0.1199 -0.0974  0.0239
 4460TIP3    H213387   2.807   0.564   3.496  1.3280 -0.1676  0.4776
 4461TIP3   OH213388   5.591   3.173   0.660  0.0854 -0.2972 -0.0863
 4461TIP3    H113389   5.504   3.133   0.652 -0.1360  0.3698 -1.2554
 4461TIP3    H213390   5.624   3.142   0.745 -0.9318 -1.2530 -0.0119
 4462TIP3   OH213391   5.741   2.540   4.083  0.1725 -0.3020  0.4102
 4462TIP3    H113392   5.652   2.511   4.105 -0.5802  1.2642 -0.3331
 4462TIP3    H213393   5.736   2.636   4.089  1.9346 -0.2074  0.7524
 4463TIP3   OH213394   1.720   4.512   2.248 -0.1871  0.0136  0.4520
 4463TIP3    H113395   1.782   4.500   2.320 -0.4771  0.6709  0.8141
 4463TIP3    H213396   1.703   4.423   2.216  2.8630 -0.0597 -1.3066
 4464TIP3   OH213397   1.504   2.007   1.686 -0.2420  0.1021 -0.3232
 4464TIP3    H113398   1.500   2.102   1.700  1.5801  0.3341 -1.0721
 4464TIP3    H213399   1.554   1.974   1.760 -0.2385 -0.1813 -0.4531
 4465TIP3   OH213400   3.912   2.098   2.034  0.6605 -0.1271 -0.1052
 4465TIP3    H113401   3.862   2.068   2.111  0.4469  0.0906 -0.1572
 4465TIP3    H213402   3.915   2.193   2.043  1.5510 -0.1749  0.1868
 4466TIP3   OH213403   3.204   4.361   4.382 -0.4865 -0.4553  0.1562
 4466TIP3    H113404   3.169   4.312   4.308 -0.9253  1.7798 -1.2111
 4466TIP3    H213405   3.126   4.386   4.432 -0.7807  2.3283 -1.4853
 4467TIP3   OH213406   4.971   5.722   3.564  0.7057  0.8943  0.0692
 4467TIP3    H113407   4.924   5.657   3.511 -1.9871  2.0456  0.8995
 4467TIP3    H213408   5.010   5.781   3.500 -0.3409  0.8116 -0.6656
 4468TIP3   OH213409   3.522   2.803   3.844  0.0117  0.1968 -0.0170
 4468TIP3    H113410   3.578   2.785   3.920  1.4583 -0.3733 -1.1797
 4468TIP3    H213411   3.572   2.864   3.790 -1.8534  2.2533  0.4026
 4469TIP3   OH213412   4.722   3.134   4.055 -0.4102  0.4306 -1.0816
 4469TIP3    H113413   4.794   3.148   4.117  0.3168 -0.3090 -1.7311
 4469TIP3    H213414   4.679   3.054   4.085 -1.0996  0.9947 -0.5671
 4470TIP3   OH213415   2.633   1.708   0.735  0.3170 -0.7204  0.2293
 4470TIP3    H113416   2.543   1.740   0.727  0.1452 -1.2725 -0.0493
 4470TIP3    H213417   2.669   1.758   0.808 -0.0057 -0.0153 -0.0743
 4471TIP3   OH213418   0.388   0.803   0.931  0.4037 -0.2108 -0.0481
 4471TIP3    H113419   0.323   0.733   0.942 -2.0598  1.6234 -1.7798
 4471TIP3    H213420   0.378   0.857   1.010 -1.3956  0.9104 -0.9863
 4472TIP3   OH213421   1.273   0.782   5.031  0.0843  0.4277 -0.1225
 4472TIP3    H113422   1.337   0.750   4.967  0.1735  1.3094 -0.4851
 4472TIP3    H213423   1.227   0.853   4.986 -0.4613  0.4710  0.4878
 4473TIP3   OH213424   0.842   5.543   3.042 -0.2947 -0.2861 -0.3097
 4473TIP3    H113425   0.758   5.539   3.086  0.1878 -2.4826  0.5351
 4473TIP3    H213426   0.906   5.544   3.113  0.4340  1.9080 -0.9226
 4474TIP3   OH213427   1.509   3.028   2.293 -0.0538 -0.2668 -0.3587
 4474TIP3    H113428   1.502   3.087   2.368 -0.9167 -0.5565 -0.1931
 4474TIP3    H213429   1.431   2.972   2.300 -0.1534 -0.2897 -1.4764
 4475TIP3   OH213430   1.424   5.003   4.660  0.0980 -0.6251 -0.4637
 4475TIP3    H113431   1.346   4.947   4.660  0.0715 -0.6519  1.1190
 4475TIP3    H213432   1.488   4.954   4.608 -0.0103 -2.0695  0.6672
 4476TIP3   OH213433   6.150   0.989   1.345  0.0010  0.2147  0.8914
 4476TIP3    H113434   6.055   0.983   1.338  0.0288  1.2735 -1.1163
 4476TIP3    H213435   6.181   1.000   1.255  1.9890  0.3745  1.5316
 4477TIP3   OH213436   4.641   0.162   0.628  0.9339 -0.1053  0.0025
 4477TIP3    H113437   4.655   0.138   0.719 -0.6119  1.3931  0.6962
 4477TIP3    H213438   4.707   0.228   0.609  0.7007  0.2194  0.3195
 4478TIP3   OH213439   0.082   1.632   2.592  0.1518  0.3486 -0.3135
 4478TIP3    H113440   0.084   1.699   2.524  1.9881 -0.3905 -1.0445
 4478TIP3    H213441   0.166   1.641   2.638  1.4522 -2.7149 -1.7863
 4479TIP3   OH213442   6.123   3.696   5.029  0.2213  0.7001  0.3225
 4479TIP3    H113443   6.050   3.756   5.016 -0.8165 -0.7816 -1.0992
 4479TIP3    H213444   6.116   3.668   5.120 -0.4862  1.2075  0.4290
 4480TIP3   OH213445   0.363   4.274   1.329  0.3019 -0.1980  0.5972
 4480TIP3    H113446   0.313   4.214   1.275  0.6001 -0.1655  0.2820
 4480TIP3    H213447   0.437   4.301   1.274  0.2758  0.3117  0.8012
 4481TIP3   OH213448   2.193   5.580   0.333 -0.7273 -0.1079  0.4093
 4481TIP3    H113449   2.148   5.544   0.409 -0.4143 -0.7249  0.3118
 4481TIP3    H213450   2.285   5.586   0.361 -0.6355 -0.2056  0.1323
 4482TIP3   OH213451   2.745   1.538   3.002 -0.2390 -0.3469 -0.7224
 4482TIP3    H113452   2.695   1.521   2.922  0.3828  1.5508 -1.5781
 4482TIP3    H213453   2.836   1.521   2.977  0.1802  2.0483 -1.0541
 4483TIP3   OH213454   2.759   0.330   4.744  0.3512  0.4919 -0.1922
 4483TIP3    H113455   2.847   0.351   4.776  0.3753  3.5132 -1.8444
 4483TIP3    H213456   2.772   0.252   4.690  2.0961  0.9959 -0.5825
 4484TIP3   OH213457   0.081   4.413   1.361 -0.5393 -0.0615 -0.4577
 4484TIP3    H113458   0.143   4.383   1.427  0.7224 -1.6675 -2.2784
 4484TIP3    H213459  -0.003   4.418   1.408  0.2713 -1.2674  1.2268
 4485TIP3   OH213460   0.249   4.043   0.639  0.0697  0.0320  0.0586
 4485TIP3    H113461   0.191   3.983   0.684 -2.7200  0.8812 -2.1349
 4485TIP3    H213462   0.276   3.997   0.560  1.5903  0.0702  0.5076
 4486TIP3   OH213463   5.021   3.455   3.135 -0.6877  0.0696  0.6740
 4486TIP3    H113464   5.090   3.479   3.197  0.1543 -2.7318  0.9807
 4486TIP3    H213465   4.970   3.535   3.124  1.8170  1.9053  1.4381
 4487TIP3   OH213466   5.524   0.524   1.148  0.0116  0.3416  0.6400
 4487TIP3    H113467   5.476   0.500   1.228 -1.5859  0.3681 -0.2691
 4487TIP3    H213468   5.612   0.546   1.179 -0.7114  0.8748  2.4780
 4488TIP3   OH213469   2.899   3.595   5.126  0.2314  0.0962 -0.1774
 4488TIP3    H113470   2.971   3.634   5.075 -0.4022  0.1403 -1.0721
 4488TIP3    H213471   2.841   3.557   5.059  0.5142 -1.8660  0.6156
 4489TIP3   OH213472   4.977   0.470   0.076  0.4084  0.3104  0.0299
 4489TIP3    H113473   4.914   0.514   0.020  0.5750  1.2452  0.5633
 4489TIP3    H213474   4.927   0.398   0.115 -0.3692  1.0867  0.5110
 4490TIP3   OH213475   3.600   4.001   4.950  0.1936  0.2262  0.0790
 4490TIP3    H113476   3.571   4.030   4.864  0.5873  0.2588 -0.0449
 4490TIP3    H213477   3.637   4.080   4.990  1.4300 -0.1141 -0.3248
 4491TIP3   OH213478   0.592   5.326   2.988 -0.1898 -0.3926 -0.1845
 4491TIP3    H113479   0.503   5.311   3.021 -0.3371 -1.2556 -0.9476
 4491TIP3    H213480   0.631   5.385   3.052 -0.6611 -1.5586  1.2574
 4492TIP3   OH213481   0.529   0.477   0.075 -0.1100  0.1608 -0.3414
 4492TIP3    H113482   0.559   0.551   0.024  0.5640 -0.6420 -1.1481
 4492TIP3    H213483   0.607   0.424   0.089 -0.7646 -0.9762 -0.7969
 4493TIP3   OH213484   2.962   3.495   3.023 -0.2159 -0.1128  0.1735
 4493TIP3    H113485   3.042   3.520   2.975 -1.0955  1.1347 -0.6982
 4493TIP3    H213486   2.893   3.500   2.957 -1.0201 -1.2182  0.9134
 4494TIP3   OH213487   4.763   0.894   3.389  0.4223 -0.3258  0.1255
 4494TIP3    H113488   4.692   0.838   3.357  1.0740 -0.3891 -1.3057
 4494TIP3    H213489   4.828   0.832   3.424  0.6804 -0.4199 -0.4985
 4495TIP3   OH213490   0.464   5.052   2.818 -0.0996  0.0262 -0.0679
 4495TIP3    H113491   0.507   5.069   2.902  0.8113  0.7796 -0.6594
 4495TIP3    H213492   0.426   4.965   2.827  0.5649 -0.1781  0.8899
 4496TIP3   OH213493   0.835   5.288   2.811  0.1455 -0.0088  0.2574
 4496TIP3    H113494   0.772   5.300   2.882  0.2934 -2.1878  0.8267
 4496TIP3    H213495   0.903   5.354   2.829 -0.4309  0.2929  1.4444
 4497TIP3   OH213496   3.702   0.253   0.872  0.4712 -0.1858  0.5877
 4497TIP3    H113497   3.694   0.299   0.788  0.8665 -1.0147  0.0767
 4497TIP3    H213498   3.729   0.320   0.934 -0.1624  0.5109  0.1217
 4498TIP3   OH213499   6.198   1.393   1.389  0.0006  0.2997 -0.2930
 4498TIP3    H113500   6.194   1.377   1.483  0.7561 -0.7385 -0.4273
 4498TIP3    H213501   6.164   1.483   1.379 -2.8883 -0.5588  0.6623
 4499TIP3   OH213502   5.151   5.704   4.592  0.1990 -0.6232 -0.0449
 4499TIP3    H113503   5.088   5.632   4.603  0.8740 -1.4566 -1.4314
 4499TIP3    H213504   5.107   5.765   4.533 -0.2597  0.0083  0.9126
 4500TIP3   OH213505   2.778   4.403   0.767  0.1666  0.3485 -0.1192
 4500TIP3    H113506   2.809   4.414   0.857 -0.6939  1.2613  0.0785
 4500TIP3    H213507   2.845   4.349   0.725  1.4438  1.3462  0.5949
 4501TIP3   OH213508   1.277   0.972   0.170  0.4160 -0.5580 -0.2610
 4501TIP3    H113509   1.252   1.063   0.185 -0.7669 -0.9812  0.5399
 4501TIP3    H213510   1.269   0.960   0.076  2.1554  0.5825 -0.5931
 4502TIP3   OH213511   5.715   4.503   2.093 -0.1733  0.2793 -0.5177
 4502TIP3    H113512   5.659   4.472   2.021  0.5166  0.3242 -1.0745
 4502TIP3    H213513   5.676   4.586   2.120 -0.8961 -0.1131 -0.3052
 4503TIP3   OH213514   1.821   1.751   5.081 -0.0274  0.2729  0.0622
 4503TIP3    H113515   1.908   1.713   5.066  0.0524  1.0764 -1.6803
 4503TIP3    H213516   1.781   1.693   5.145  0.9379 -1.4267 -0.8036
 4504TIP3   OH213517   2.395   2.768   0.975  0.2010 -0.3515 -0.3868
 4504TIP3    H113518   2.402   2.843   0.916  1.4639  1.0147  1.3639
 4504TIP3    H213519   2.303   2.767   1.002  0.1983  0.7135 -0.3029
 4505TIP3   OH213520   4.190   3.761   1.499  0.1904 -0.2541 -0.2669
 4505TIP3    H113521   4.203   3.677   1.454  1.6216 -0.5592  0.6519
 4505TIP3    H213522   4.121   3.743   1.563 -1.0188 -0.1287 -1.4931
 4506TIP3   OH213523   4.176   4.581   0.629  0.6733 -0.4899 -0.3044
 4506TIP3    H113524   4.170   4.531   0.710 -1.0243 -2.0301 -1.3275
 4506TIP3    H213525   4.124   4.660   0.645  1.0553 -0.3677  0.3725
 4507TIP3   OH213526   2.076   2.980   1.998 -0.0022 -0.0151  0.5302
 4507TIP3    H113527   2.126   3.046   2.047  3.2407 -1.6102 -0.3038
 4507TIP3    H213528   2.064   3.019   1.911  0.0025  0.3026  0.6714
 4508TIP3   OH213529   0.590   4.704   0.504  0.0502 -0.1808 -0.1612
 4508TIP3    H113530   0.631   4.767   0.563  1.5294 -1.2001 -0.0612
 4508TIP3    H213531   0.540   4.646   0.561  0.7526 -0.6277 -0.0022
 4509TIP3   OH213532   5.547   4.833   2.513  0.4710  0.2139  0.4129
 4509TIP3    H113533   5.478   4.771   2.487 -0.3556  0.9979  0.7030
 4509TIP3    H213534   5.500   4.908   2.549  1.5229 -0.1157  2.6251
 4510TIP3   OH213535   3.861   2.483   2.657 -0.4275 -0.0070 -0.4042
 4510TIP3    H113536   3.940   2.527   2.626 -0.6677  0.0100 -1.0020
 4510TIP3    H213537   3.842   2.525   2.741  0.6130 -0.5187  0.1097
 4511TIP3   OH213538   0.824   1.770   1.001  0.1772 -0.0711 -0.1450
 4511TIP3    H113539   0.794   1.800   1.087  1.2774  0.2691  0.1291
 4511TIP3    H213540   0.743   1.746   0.955 -0.4976  0.6746  0.6214
 4512TIP3   OH213541   2.096   2.590   2.826 -0.5364 -0.0133 -0.1534
 4512TIP3    H113542   2.162   2.616   2.763 -0.5375  3.0045  0.9413
 4512TIP3    H213543   2.092   2.494   2.819  2.2050 -0.0928 -1.8967
 4513TIP3   OH213544   0.909   3.291   0.734 -0.0909 -0.8493 -0.3054
 4513TIP3    H113545   0.918   3.337   0.817 -1.9205  1.4310 -1.2773
 4513TIP3    H213546   0.888   3.201   0.759  0.9156 -0.6002  1.6583
 4514TIP3   OH213547   1.617   4.610   2.900 -0.3604  0.5585 -0.3357
 4514TIP3    H113548   1.682   4.680   2.892 -1.9714  2.0123 -1.5987
 4514TIP3    H213549   1.622   4.583   2.991  2.9088 -0.3623 -0.6609
 4515TIP3   OH213550   4.975   5.484   1.631  0.4784  0.2282 -0.1517
 4515TIP3    H113551   4.995   5.420   1.563 -2.1860  0.8626 -1.6717
 4515TIP3    H213552   4.947   5.562   1.583 -0.9323  0.9027  1.6442
 4516TIP3   OH213553   2.128   2.771   1.057 -0.0035  0.2074  0.5795
 4516TIP3    H113554   2.033   2.783   1.058 -0.0214  0.0463  0.9185
 4516TIP3    H213555   2.158   2.804   1.142  0.2766  0.5179  0.3615
 4517TIP3   OH213556   2.850   2.748   3.364  0.2715  0.5290 -0.2093
 4517TIP3    H113557   2.874   2.826   3.413 -0.6349 -0.7034  2.3510
 4517TIP3    H213558   2.926   2.690   3.372  0.8857  1.0018 -1.9859
 4518TIP3   OH213559   0.080   1.119   1.157 -1.0414  0.2800 -0.7017
 4518TIP3    H113560   0.120   1.178   1.093 -2.6612  0.1613 -1.8805
 4518TIP3    H213561   0.097   1.161   1.242  1.7859  0.0637 -1.0731
 4519TIP3   OH213562   5.287   3.114   3.752 -0.1200  0.0428 -0.1340
 4519TIP3    H113563   5.269   3.100   3.659 -0.5853 -0.0876 -0.0259
 4519TIP3    H213564   5.220   3.175   3.781  0.3955  0.5667 -0.0188
 4520TIP3   OH213565   1.396   2.309   0.565 -0.0806  0.2924  0.1338
 4520TIP3    H113566   1.458   2.379   0.585  1.0975 -0.6702  0.0253
 4520TIP3    H213567   1.427   2.273   0.482 -1.4579  0.4832 -0.4888
 4521TIP3   OH213568   3.360   4.101   3.973  0.0194 -0.0147 -0.6256
 4521TIP3    H113569   3.450   4.075   3.992 -0.1496 -0.1677 -0.0014
 4521TIP3    H213570   3.336   4.052   3.895 -0.1809 -1.4952  0.3312
 4522TIP3   OH213571   4.481   2.437   5.082  0.1741 -0.1761 -0.0100
 4522TIP3    H113572   4.556   2.456   5.025 -1.2086 -1.5400 -2.4930
 4522TIP3    H213573   4.412   2.496   5.050  0.2126  1.3195  2.4688
 4523TIP3   OH213574   4.432   4.204   5.127  0.3137  0.7865  0.0115
 4523TIP3    H113575   4.417   4.190   5.221  1.1174  4.3353  0.8141
 4523TIP3    H213576   4.345   4.221   5.091  0.2380  1.8123  0.6451
 4524TIP3   OH213577   2.521   0.370   2.170 -0.7794 -0.2051  0.1755
 4524TIP3    H113578   2.444   0.395   2.120 -1.9416 -0.2569  1.8502
 4524TIP3    H213579   2.570   0.311   2.112 -1.4803  0.5789 -1.2664
 4525TIP3   OH213580   1.089   5.811   0.027  0.4830 -0.1593  0.3108
 4525TIP3    H113581   1.157   5.745   0.035  0.1822 -0.3263  2.0579
 4525TIP3    H213582   1.011   5.763  -0.001  0.3539 -0.5230  1.2359
 4526TIP3   OH213583   6.203   3.703   1.801  0.4208  0.3706 -0.3937
 4526TIP3    H113584   6.227   3.662   1.718  0.7706  1.2750 -0.7515
 4526TIP3    H213585   6.113   3.672   1.818  0.6300 -0.4317 -0.7018
 4527TIP3   OH213586   0.573   5.424   0.333  0.2328 -0.0620 -0.2476
 4527TIP3    H113587   0.522   5.452   0.257  0.0461 -1.5863 -0.7141
 4527TIP3    H213588   0.580   5.329   0.324  3.0005  0.0341 -0.1299
 4528TIP3   OH213589   0.151   3.749   3.848  0.2553  0.0473  0.0807
 4528TIP3    H113590   0.117   3.701   3.773  0.9736 -1.1317  0.4746
 4528TIP3    H213591   0.201   3.683   3.898  2.1406  1.4215  0.1133
 4529TIP3   OH213592   5.405   3.914   4.811  0.0447  0.0907 -0.0272
 4529TIP3    H113593   5.477   3.927   4.749  0.2239 -2.2525 -0.4001
 4529TIP3    H213594   5.444   3.862   4.882 -1.2961 -1.5341 -0.4053
 4530TIP3   OH213595   1.653   2.022   2.835  0.1235 -0.0895  0.0874
 4530TIP3    H113596   1.568   2.029   2.790 -0.0611 -0.2249  0.4086
 4530TIP3    H213597   1.718   2.028   2.765 -0.1457  0.2692 -0.1362
 4531TIP3   OH213598   0.751   2.728   3.675 -0.1573 -0.2693 -0.8880
 4531TIP3    H113599   0.730   2.806   3.725 -3.0953 -1.5892  0.1558
 4531TIP3    H213600   0.842   2.741   3.647  0.9530  1.5460  2.9266
 4532TIP3   OH213601   3.381   3.574   2.237  0.0356 -0.6265  0.3331
 4532TIP3    H113602   3.316   3.614   2.295 -0.0970 -0.5695  0.1496
 4532TIP3    H213603   3.378   3.628   2.158  0.5066 -0.4601  0.4278
 4533TIP3   OH213604   2.168   2.841   0.711  0.4225  0.4355 -0.3584
 4533TIP3    H113605   2.158   2.857   0.617 -4.1451 -0.6269 -0.2913
 4533TIP3    H213606   2.163   2.746   0.720 -0.5102  0.5785  0.9834
 4534TIP3   OH213607   0.038   5.542   0.655  0.0790 -1.0314  0.8012
 4534TIP3    H113608   0.044   5.534   0.750  1.6119  3.6726  1.3618
 4534TIP3    H213609  -0.043   5.592   0.640  1.6662  1.5051  0.1102
 4535TIP3   OH213610   6.263   1.571   0.065  0.1032  0.0179 -0.3838
 4535TIP3    H113611   6.252   1.666   0.061  1.0073  0.4279  3.3956
 4535TIP3    H213612   6.214   1.544   0.142  1.2278 -2.3534 -0.4086
 4536TIP3   OH213613   1.625   0.866   1.669  0.0440  0.2161 -0.1422
 4536TIP3    H113614   1.630   0.956   1.703 -0.2408  0.2714 -0.2416
 4536TIP3    H213615   1.587   0.816   1.741 -0.2055  0.2601 -0.2431
 4537TIP3   OH213616   1.167   3.346   0.071  0.0974  0.2080  0.2615
 4537TIP3    H113617   1.078   3.369   0.044  0.5185 -1.9772 -3.8189
 4537TIP3    H213618   1.159   3.257   0.106  0.6648  0.0543  0.0118
 4538TIP3   OH213619   3.192   3.326   2.256 -0.0409  0.3610 -0.2345
 4538TIP3    H113620   3.208   3.298   2.166  0.2471  0.1773 -0.1277
 4538TIP3    H213621   3.235   3.411   2.263 -2.6026  1.8475 -1.1543
 4539TIP3   OH213622   1.215   4.919   1.573  0.0473 -0.5000 -0.3787
 4539TIP3    H113623   1.306   4.938   1.595  1.1103  0.1625 -4.5658
 4539TIP3    H213624   1.166   4.994   1.607  0.9933 -0.7069  1.6311
 4540TIP3   OH213625   5.089   1.600   3.695 -0.0822  0.6413 -0.5392
 4540TIP3    H113626   5.046   1.547   3.627  0.3009  0.9140 -0.9966
 4540TIP3    H213627   5.162   1.642   3.650 -0.0517  1.1257 -0.0444
 4541TIP3   OH213628   6.082   3.368   1.116  0.0729  0.3525  0.2520
 4541TIP3    H113629   6.073   3.463   1.111  0.1448  0.4414  1.6161
 4541TIP3    H213630   6.080   3.339   1.024 -0.7188  1.5840 -0.1416
 4542TIP3   OH213631   4.021   3.256   2.655 -0.0699 -0.4208 -0.3003
 4542TIP3    H113632   3.990   3.169   2.677  1.1302 -1.3541 -1.9835
 4542TIP3    H213633   3.965   3.284   2.582 -0.0719 -0.0327 -0.1526
 4543TIP3   OH213634   4.713   0.566   3.887 -0.3495 -0.2124 -0.0136
 4543TIP3    H113635   4.661   0.637   3.848 -0.5045 -0.1380  0.3209
 4543TIP3    H213636   4.713   0.586   3.981  0.1308 -0.3138  0.0086
 4544TIP3   OH213637   6.014   5.171   5.106  0.5183 -0.0476  0.2359
 4544TIP3    H113638   6.095   5.130   5.074  0.2948  0.1954 -0.6597
 4544TIP3    H213639   5.951   5.099   5.110  1.0942 -0.5306  2.2234
 4545TIP3   OH213640   3.588   5.205   1.965 -0.1983 -0.0538 -0.0173
 4545TIP3    H113641   3.646   5.132   1.985 -0.0792  0.4083  1.4654
 4545TIP3    H213642   3.500   5.166   1.963 -0.1282 -0.2626  0.6879
 4546TIP3   OH213643   1.263   3.948   3.369 -0.3127 -0.0240  0.0049
 4546TIP3    H113644   1.176   3.944   3.329 -0.2739 -0.9329 -0.0215
 4546TIP3    H213645   1.246   3.950   3.463 -0.3867 -3.2141  0.1718
 4547TIP3   OH213646   4.815   4.481   2.400 -0.1434 -0.6464 -0.4139
 4547TIP3    H113647   4.888   4.522   2.352 -0.3047  1.0975  0.7375
 4547TIP3    H213648   4.857   4.418   2.459  0.3787 -0.1864 -0.2853
 4548TIP3   OH213649   1.664   4.189   3.997 -0.2837 -0.1914 -0.5106
 4548TIP3    H113650   1.677   4.282   3.979  1.3165 -0.3530 -0.3274
 4548TIP3    H213651   1.619   4.187   4.082 -0.3056  0.4118 -0.5043
 4549TIP3   OH213652   3.090   4.476   2.811  0.0524  0.1381  0.1905
 4549TIP3    H113653   3.083   4.502   2.719  3.3529  2.7851  0.4705
 4549TIP3    H213654   3.061   4.553   2.860  0.1216 -0.5478  1.3401
 4550TIP3   OH213655   3.435   4.197   1.436  0.2144  0.1020 -0.3231
 4550TIP3    H113656   3.437   4.101   1.434 -1.7619  0.0269  0.0044
 4550TIP3    H213657   3.374   4.222   1.367 -0.0056  1.0952  0.2140
 4551TIP3   OH213658   3.385   3.998   0.067 -0.2581  0.2413  0.1047
 4551TIP3    H113659   3.458   3.953   0.026 -0.1729 -0.3956  0.9327
 4551TIP3    H213660   3.382   3.964   0.156 -1.2240  0.6602  0.2520
 4552TIP3   OH213661   6.255   4.098   3.334 -0.1650  0.2460 -0.7049
 4552TIP3    H113662   6.212   4.093   3.419  0.2220  2.1491 -0.3635
 4552TIP3    H213663   6.193   4.144   3.278 -0.2276 -0.5961 -1.3628
 4553TIP3   OH213664   2.973   2.071   4.519  0.2503  0.1040  0.2368
 4553TIP3    H113665   2.908   2.127   4.561  0.2553 -0.3940  0.9199
 4553TIP3    H213666   3.052   2.082   4.573  1.0161  1.3674 -1.0672
 4554TIP3   OH213667   5.315   0.174   3.897 -0.2355 -0.0245 -0.0746
 4554TIP3    H113668   5.368   0.224   3.834  0.4495 -0.9234 -0.2385
 4554TIP3    H213669   5.374   0.105   3.927 -0.8646 -0.1652  0.8547
 4555TIP3   OH213670   1.200   5.918   3.767  0.2847 -0.6110  0.1338
 4555TIP3    H113671   1.268   5.973   3.727  0.0214 -0.3482  0.0502
 4555TIP3    H213672   1.172   5.860   3.695 -1.6499  1.2283 -0.6771
 4556TIP3   OH213673   5.650   1.720   5.161  0.0953 -0.2885  0.8731
 4556TIP3    H113674   5.577   1.680   5.113  0.0219  0.6976  0.1243
 4556TIP3    H213675   5.608   1.789   5.213  0.4889  0.3724  0.3367
 4557TIP3   OH213676   3.337   3.799   4.230 -0.3882  0.2508  0.3213
 4557TIP3    H113677   3.425   3.768   4.251 -1.0474 -1.9439  0.0648
 4557TIP3    H213678   3.284   3.778   4.308 -1.2348 -0.9827 -0.5507
 4558TIP3   OH213679   2.586   1.445   1.780 -0.0558  0.5644 -0.3400
 4558TIP3    H113680   2.564   1.371   1.837  1.3697 -0.0793 -0.6007
 4558TIP3    H213681   2.533   1.432   1.702  0.8137 -0.6525 -0.7357
 4559TIP3   OH213682   2.668   5.181   3.770 -0.0679  0.3385  0.6208
 4559TIP3    H113683   2.612   5.251   3.804  1.4640  1.0879  1.7057
 4559TIP3    H213684   2.752   5.223   3.753 -0.1944 -0.4185 -2.4751
 4560TIP3   OH213685   4.124   2.748   0.725 -0.3104 -0.4803 -0.0149
 4560TIP3    H113686   4.029   2.760   0.723 -0.5169 -1.4265  1.8401
 4560TIP3    H213687   4.154   2.782   0.641 -2.0430  1.8478  0.1888
 4561TIP3   OH213688   1.033   3.612   2.179  0.3204  0.1475  0.6594
 4561TIP3    H113689   1.060   3.523   2.200 -0.6041  0.0740  1.6205
 4561TIP3    H213690   1.104   3.667   2.211  0.5120 -0.1933  0.8257
 4562TIP3   OH213691   2.928   2.721   3.068  0.4017 -0.5913 -0.2499
 4562TIP3    H113692   2.895   2.796   3.117  0.1876 -0.0498 -1.2009
 4562TIP3    H213693   2.887   2.645   3.109 -0.2473 -0.0998  0.0280
 4563TIP3   OH213694   1.883   1.889   3.187 -0.2353  0.5960  0.1338
 4563TIP3    H113695   1.831   1.954   3.235 -0.2088  1.2625 -0.7177
 4563TIP3    H213696   1.833   1.808   3.195  0.3321  0.3833  2.2564
 4564TIP3   OH213697   3.553   4.975   1.700 -0.1699 -0.3926 -0.1029
 4564TIP3    H113698   3.516   4.887   1.699 -0.0724 -0.4339 -0.0925
 4564TIP3    H213699   3.495   5.026   1.757 -0.1442 -0.4860  0.0066
 4565TIP3   OH213700   6.160   4.337   3.636 -0.5594 -0.2164  0.1662
 4565TIP3    H113701   6.168   4.244   3.614 -0.2597 -0.0817 -0.3251
 4565TIP3    H213702   6.222   4.381   3.577 -0.2541  0.2348  0.8068
 4566TIP3   OH213703   5.507   5.061   4.605 -0.3763  0.0889 -0.0233
 4566TIP3    H113704   5.524   5.040   4.513 -1.2899 -0.7283 -0.0253
 4566TIP3    H213705   5.592   5.049   4.648 -0.1340 -0.3733 -0.6117
 4567TIP3   OH213706   5.599   5.419   5.132 -0.1845  0.0340 -0.0790
 4567TIP3    H113707   5.580   5.334   5.172  1.4584 -0.7812 -0.9323
 4567TIP3    H213708   5.577   5.409   5.040  0.9271  0.2119 -0.3757
 4568TIP3   OH213709   3.112   1.734   0.330  0.7460  0.3354 -0.5882
 4568TIP3    H113710   3.198   1.735   0.372 -0.1989 -0.5764  1.5046
 4568TIP3    H213711   3.097   1.642   0.307 -0.6888 -0.0029  1.4346
 4569TIP3   OH213712   0.570   4.857   4.248  0.5535  0.6009  0.4060
 4569TIP3    H113713   0.601   4.800   4.177 -0.4735 -0.3282  0.6914
 4569TIP3    H213714   0.643   4.918   4.263  2.1247 -1.2930  0.8089
 4570TIP3   OH213715   2.493   2.165   4.033  0.2345  0.8449 -0.5880
 4570TIP3    H113716   2.412   2.206   4.064  0.4485  0.9429 -0.1610
 4570TIP3    H213717   2.490   2.177   3.938  0.6251  2.4631 -0.4295
 4571TIP3   OH213718   6.215   1.597   2.871 -0.0292  0.2019  0.1919
 4571TIP3    H113719   6.262   1.521   2.906 -1.1964  0.0896  1.5861
 4571TIP3    H213720   6.189   1.647   2.948  0.2793  1.7812 -0.6789
 4572TIP3   OH213721   4.602   1.524   4.614  0.1222 -0.2448 -0.2181
 4572TIP3    H113722   4.624   1.432   4.606 -1.4231 -0.7176  0.5887
 4572TIP3    H213723   4.669   1.570   4.562  1.4413 -1.7269  0.0992
 4573TIP3   OH213724   2.643   4.076   3.340 -0.9305 -0.2725 -0.1244
 4573TIP3    H113725   2.733   4.070   3.309 -1.1439  1.0209 -1.0575
 4573TIP3    H213726   2.603   3.994   3.311 -0.5747  0.0120 -1.4911
 4574TIP3   OH213727   1.788   3.241   2.126 -0.2934 -0.0004  0.0759
 4574TIP3    H113728   1.712   3.299   2.132 -0.5357 -0.2289 -0.6601
 4574TIP3    H213729   1.827   3.260   2.040  0.8936  0.6064  0.7297
 4575TIP3   OH213730   0.752   0.245   0.089  0.3810 -0.7682 -0.3412
 4575TIP3    H113731   0.781   0.188   0.160  0.0264  0.5014  0.8672
 4575TIP3    H213732   0.697   0.189   0.034  1.1673 -1.9326  0.0298
 4576TIP3   OH213733   2.264   2.479   3.298  0.1520  0.0142  0.0865
 4576TIP3    H113734   2.221   2.555   3.259 -2.5122 -0.0075  2.6748
 4576TIP3    H213735   2.269   2.499   3.391  1.4155 -2.1098  0.5460
 4577TIP3   OH213736   3.084   3.868   3.935 -0.0035  0.4547 -0.1498
 4577TIP3    H113737   3.047   3.951   3.966 -0.3319  0.4091 -0.4155
 4577TIP3    H213738   3.168   3.892   3.897 -0.9603  0.9899 -2.0794
 4578TIP3   OH213739   1.888   1.900   4.709  0.4868 -0.4711 -0.0459
 4578TIP3    H113740   1.944   1.889   4.786  0.7385 -0.8303 -0.2783
 4578TIP3    H213741   1.848   1.987   4.721  0.2382 -0.6766  0.6680
 4579TIP3   OH213742   3.481   1.888   4.034  0.3622  0.5118 -0.0840
 4579TIP3    H113743   3.563   1.936   4.045  0.5694  0.1888 -0.2201
 4579TIP3    H213744   3.417   1.955   4.008  0.6198  0.7336 -0.1473
 4580TIP3   OH213745   2.126   3.583   0.830 -0.0171  0.2645  0.7678
 4580TIP3    H113746   2.127   3.646   0.758 -0.6324 -0.4505  0.1181
 4580TIP3    H213747   2.209   3.597   0.876  0.9540 -0.0934 -0.8044
 4581TIP3   OH213748   5.744   0.407   2.369 -0.5280 -0.6273 -0.1918
 4581TIP3    H113749   5.721   0.388   2.278 -0.1829 -1.1165 -0.1767
 4581TIP3    H213750   5.782   0.326   2.402 -0.3250 -0.3415  0.2857
 4582TIP3   OH213751   5.235   5.531   3.430 -0.1120 -0.1364  0.0015
 4582TIP3    H113752   5.260   5.445   3.397 -1.1996 -0.2368 -0.6091
 4582TIP3    H213753   5.249   5.525   3.525 -0.5395 -1.1194  0.0149
 4583TIP3   OH213754   4.957   4.145   0.340 -0.1599  0.2645  0.1269
 4583TIP3    H113755   5.011   4.223   0.329  0.7311 -0.1881  1.1144
 4583TIP3    H213756   4.879   4.161   0.286 -0.0706  1.9012  0.4443
 4584TIP3   OH213757   1.902   1.996   2.697  0.4007  0.0579 -0.4114
 4584TIP3    H113758   1.928   1.912   2.659  0.6290  0.2547 -0.6954
 4584TIP3    H213759   1.952   2.003   2.778  0.3785 -0.0844 -0.3866
 4585TIP3   OH213760   1.083   5.601   5.099 -0.5016 -0.0680 -0.3796
 4585TIP3    H113761   1.088   5.677   5.042  0.9631 -0.0013 -0.2212
 4585TIP3    H213762   0.990   5.592   5.121 -0.6292  2.1735  0.2707
 4586TIP3   OH213763   1.908   3.559   1.914 -0.2555  0.4501  0.6668
 4586TIP3    H113764   1.882   3.587   2.001 -0.9600  0.5227  0.4460
 4586TIP3    H213765   1.833   3.582   1.858 -0.3012 -0.6366  0.2499
 4587TIP3   OH213766   2.848   5.495   4.266  0.4935 -0.3441 -0.3031
 4587TIP3    H113767   2.865   5.568   4.208  1.0414 -0.7046 -0.6022
 4587TIP3    H213768   2.840   5.419   4.208 -0.9868 -0.3825 -0.0738
 4588TIP3   OH213769   4.068   4.623   0.342 -0.4144  0.1526 -0.1955
 4588TIP3    H113770   4.005   4.552   0.352  0.1566 -0.2494  0.6816
 4588TIP3    H213771   4.116   4.624   0.425  1.0353  0.1586 -1.0163
 4589TIP3   OH213772   0.510   1.978   2.071 -0.0472 -0.0720 -0.1942
 4589TIP3    H113773   0.437   1.969   2.010 -0.0484  0.8137 -0.3379
 4589TIP3    H213774   0.585   1.999   2.015 -0.1187  1.0985  0.1222
 4590TIP3   OH213775   4.224   5.822   3.692 -0.3499  0.4084 -0.0275
 4590TIP3    H113776   4.276   5.888   3.737 -0.4489 -0.3209  1.1786
 4590TIP3    H213777   4.180   5.774   3.761  0.4600 -1.5523 -0.7996
 4591TIP3   OH213778   4.715   4.837   3.418 -0.2485 -0.1949 -0.2428
 4591TIP3    H113779   4.776   4.886   3.475 -1.6634  1.1799  0.1695
 4591TIP3    H213780   4.772   4.791   3.357  1.2348  1.6394 -0.3654
 4592TIP3   OH213781   5.507   2.018   0.740 -0.3400 -0.3753 -0.0348
 4592TIP3    H113782   5.580   2.070   0.705 -0.1753 -1.4828 -1.4402
 4592TIP3    H213783   5.531   2.002   0.832  0.2183  0.9239  0.0666
 4593TIP3   OH213784   0.609  -0.018   4.943 -0.1916  0.1907  0.0676
 4593TIP3    H113785   0.704  -0.028   4.943 -0.2365 -0.2390  0.7294
 4593TIP3    H213786   0.595   0.075   4.921  0.3870  0.3625  0.4190
 4594TIP3   OH213787   5.030   0.516   1.893 -0.3674  0.1018  0.4516
 4594TIP3    H113788   5.011   0.602   1.930  2.4009  0.1813  2.0157
 4594TIP3    H213789   5.120   0.498   1.922 -0.0181 -2.2935 -1.8134
 4595TIP3   OH213790   1.411   0.902   0.913 -0.2626  0.6038 -0.0625
 4595TIP3    H113791   1.431   0.995   0.927  0.3194  0.3852  0.6210
 4595TIP3    H213792   1.488   0.868   0.867 -0.1223  0.2889  0.3969
 4596TIP3   OH213793   2.044   1.608   4.211  0.5704 -0.0666  0.1563
 4596TIP3    H113794   1.969   1.577   4.260 -0.0218  1.2533  0.1231
 4596TIP3    H213795   2.008   1.672   4.150  1.3809 -1.1580 -1.5482
 4597TIP3   OH213796   1.842   3.805   2.518 -0.1964 -0.3550 -0.4020
 4597TIP3    H113797   1.899   3.860   2.571 -0.4664 -1.0866  0.6756
 4597TIP3    H213798   1.895   3.727   2.500 -0.5893 -0.7037 -0.0452
 4598TIP3   OH213799   5.037   2.686   2.199 -0.5767  0.2637 -0.1857
 4598TIP3    H113800   4.960   2.651   2.154 -1.5123 -0.4222  1.8539
 4598TIP3    H213801   5.080   2.609   2.236 -0.2224  0.8540  0.6633
 4599TIP3   OH213802   3.840   0.335   2.278 -0.0734 -0.3553 -0.7243
 4599TIP3    H113803   3.897   0.410   2.265 -0.7751  0.4031  0.4073
 4599TIP3    H213804   3.758   0.372   2.312 -0.3864 -1.6287 -0.0029
 4600TIP3   OH213805   0.402   4.921   0.142 -0.3760  0.5441  0.0632
 4600TIP3    H113806   0.423   4.959   0.227 -0.6204 -0.6782  0.6846
 4600TIP3    H213807   0.340   4.982   0.103  1.2473  2.1711 -0.1255
 4601TIP3   OH213808   2.688   4.593   3.394 -0.4099  0.0694  0.3966
 4601TIP3    H113809   2.643   4.538   3.330  0.1299  1.2267 -1.0235
 4601TIP3    H213810   2.780   4.565   3.389 -0.4501 -0.1984  1.0680
 4602TIP3   OH213811   5.827   0.895   0.001 -0.4691 -0.5315 -0.3547
 4602TIP3    H113812   5.913   0.924   0.032  0.1294 -0.7637 -1.7288
 4602TIP3    H213813   5.765   0.949   0.050  0.4636 -0.0731  0.3689
 4603TIP3   OH213814   1.544   4.759   1.603  0.1168  0.3794 -0.4211
 4603TIP3    H113815   1.597   4.767   1.524  1.8510 -3.4785  0.1323
 4603TIP3    H213816   1.511   4.669   1.601 -1.3091  0.7240  2.3381
 4604TIP3   OH213817   1.023   5.379   0.636  0.4317  0.1205  0.1605
 4604TIP3    H113818   0.945   5.352   0.587 -0.9923  1.8918  1.3070
 4604TIP3    H213819   1.071   5.297   0.653 -1.3520 -1.0710 -0.2988
 4605TIP3   OH213820   4.319   4.536   2.603  0.1498  0.3164  0.2547
 4605TIP3    H113821   4.388   4.514   2.539  0.2801 -0.5278  0.6658
 4605TIP3    H213822   4.363   4.590   2.668 -0.1578  1.8073 -0.7448
 4606TIP3   OH213823   3.762   5.732   1.941  0.4840 -0.0323 -0.0898
 4606TIP3    H113824   3.742   5.773   1.857 -1.2428 -1.0879 -0.2388
 4606TIP3    H213825   3.697   5.767   2.002  1.3849  0.3172  0.6943
 4607TIP3   OH213826   5.633   2.917   2.720 -0.1798 -0.1084 -0.4108
 4607TIP3    H113827   5.660   2.865   2.796 -0.9114  1.1011  0.7272
 4607TIP3    H213828   5.538   2.907   2.717 -0.3909  1.4343  0.0886
 4608TIP3   OH213829   1.228   2.607   2.715  0.2223 -0.0654 -0.0745
 4608TIP3    H113830   1.278   2.593   2.634 -0.4916  0.1225 -0.5524
 4608TIP3    H213831   1.294   2.601   2.784  0.7741 -0.6440 -0.6348
 4609TIP3   OH213832   0.472   1.642   0.466 -0.3495 -0.6433 -0.0126
 4609TIP3    H113833   0.521   1.560   0.475  0.0784 -0.3327  0.5706
 4609TIP3    H213834   0.487   1.669   0.376  0.6935 -0.4834  0.1925
 4610TIP3   OH213835   3.202   0.484   4.329 -0.8037  0.1356  0.1012
 4610TIP3    H113836   3.258   0.520   4.261 -1.4887  3.1517  0.9779
 4610TIP3    H213837   3.254   0.490   4.409 -1.2134 -0.2040  0.3998
 4611TIP3   OH213838   6.157   2.043   4.830 -0.0120  0.0670  0.7058
 4611TIP3    H113839   6.097   2.117   4.819 -0.0302 -0.1304 -0.6396
 4611TIP3    H213840   6.240   2.083   4.857  0.1114  0.6335 -0.4605
 4612TIP3   OH213841   1.719   0.905   0.066  0.6471  0.4654  0.2892
 4612TIP3    H113842   1.633   0.891   0.106  1.0978 -0.7997  0.8913
 4612TIP3    H213843   1.753   0.984   0.108  0.9795 -0.6502  2.2921
 4613TIP3   OH213844   2.142   3.389   1.626  0.3955 -0.1361 -0.0846
 4613TIP3    H113845   2.157   3.477   1.661 -1.2017  0.4375 -0.7530
 4613TIP3    H213846   2.195   3.385   1.546  1.2803 -0.1730  0.4918
 4614TIP3   OH213847   4.799   4.839   1.372  0.8082  0.1908 -0.5286
 4614TIP3    H113848   4.880   4.839   1.423  0.2604  1.5729  0.3944
 4614TIP3    H213849   4.805   4.918   1.318 -0.4541  0.9959  0.4644
 4615TIP3   OH213850  -0.003   1.290   3.766 -0.2502 -0.6380 -0.4061
 4615TIP3    H113851   0.064   1.222   3.775  1.5697  1.1720  0.4629
 4615TIP3    H213852  -0.019   1.319   3.856 -2.7810 -1.4756 -0.5131
 4616TIP3   OH213853   2.400   4.903   1.926  0.4111  0.2862  0.0021
 4616TIP3    H113854   2.327   4.862   1.972  1.3211  0.2028  1.4255
 4616TIP3    H213855   2.456   4.829   1.899 -0.8520  0.1974 -2.6722
 4617TIP3   OH213856   0.361   2.234   1.289 -0.5271 -0.2030  0.1644
 4617TIP3    H113857   0.326   2.166   1.231  0.6285  0.0139 -0.8174
 4617TIP3    H213858   0.337   2.316   1.247 -0.0931 -0.0311  0.2524
 4618TIP3   OH213859   2.368   2.644   4.867 -0.5188  0.5774  0.0071
 4618TIP3    H113860   2.304   2.703   4.828  0.1316  0.8473 -0.6853
 4618TIP3    H213861   2.450   2.663   4.820 -0.0560 -0.1269  0.5049
 4619TIP3   OH213862   5.890   0.932   2.591 -0.2218 -0.1538 -0.0384
 4619TIP3    H113863   5.968   0.980   2.619  0.1940 -0.7788 -0.1171
 4619TIP3    H213864   5.919   0.879   2.517 -0.7199 -0.4097 -0.0574
 4620TIP3   OH213865   5.473   0.664   1.864  0.3043 -0.1531  0.3247
 4620TIP3    H113866   5.464   0.614   1.783  0.0752 -0.7243  0.6951
 4620TIP3    H213867   5.522   0.606   1.922 -0.3349 -0.1260  0.9040
 4621TIP3   OH213868   2.718   1.094  -0.030 -0.0078 -0.0473 -0.1553
 4621TIP3    H113869   2.669   1.137   0.040  0.1979 -1.9826  1.2544
 4621TIP3    H213870   2.804   1.076   0.007  0.1686 -0.9556 -0.9647
 4622TIP3   OH213871   4.441   4.838   2.019 -0.4934  0.2460 -0.7935
 4622TIP3    H113872   4.488   4.907   2.066 -1.6679  1.2211 -1.0131
 4622TIP3    H213873   4.510   4.785   1.979  0.6584 -1.2088  2.7258
 4623TIP3   OH213874   0.268   5.222   4.898 -0.1659 -0.1247  0.2614
 4623TIP3    H113875   0.354   5.223   4.857 -0.2097  0.7191  0.1769
 4623TIP3    H213876   0.222   5.296   4.859 -0.1440  0.8462  1.9706
 4624TIP3   OH213877   1.067   4.547   1.383  0.8932  0.0067 -0.0333
 4624TIP3    H113878   0.986   4.549   1.332  0.8870 -1.1434 -0.1009
 4624TIP3    H213879   1.059   4.619   1.445 -1.2969 -1.4833  1.6059
 4625TIP3   OH213880   2.819   3.498   2.779  0.5117  0.2437  0.4524
 4625TIP3    H113881   2.842   3.445   2.703 -2.8602 -2.7819  1.2853
 4625TIP3    H213882   2.740   3.545   2.754  0.5130  0.8006  1.4270
 4626TIP3   OH213883   3.181   0.776   4.481 -0.1380  0.5023  0.4431
 4626TIP3    H113884   3.243   0.849   4.484 -1.0321  1.3001  0.3670
 4626TIP3    H213885   3.233   0.698   4.500  0.8666  1.1499  0.4019
 4627TIP3   OH213886   4.435   4.681   4.763 -0.4058 -0.1381 -0.1759
 4627TIP3    H113887   4.352   4.676   4.810  0.0086 -0.4174  0.5445
 4627TIP3    H213888   4.421   4.747   4.696 -0.8930  0.5758  0.6070
 4628TIP3   OH213889   2.825   5.044   3.240 -0.6915  0.3718  0.1741
 4628TIP3    H113890   2.733   5.068   3.255 -1.3968 -1.4232 -0.9036
 4628TIP3    H213891   2.865   5.123   3.203 -1.6979  1.2941  0.9745
 4629TIP3   OH213892   4.475   4.612   0.011  0.2296 -0.3845  0.3246
 4629TIP3    H113893   4.507   4.700   0.031 -0.4667 -0.1018  0.2583
 4629TIP3    H213894   4.401   4.600   0.070  1.1311 -1.4688  1.2759
 4630TIP3   OH213895   6.316   1.216   3.248 -0.2543 -0.4161 -0.1901
 4630TIP3    H113896   6.404   1.207   3.283 -0.2748  0.6562  0.1924
 4630TIP3    H213897   6.271   1.136   3.276  0.4765 -0.7887 -0.0464
 4631TIP3   OH213898   6.340   5.660   0.050  0.0431  0.1820 -0.4652
 4631TIP3    H113899   6.408   5.624   0.108  0.2434  0.5796 -0.4475
 4631TIP3    H213900   6.299   5.583   0.011  0.1205 -0.0787 -0.0361
 4632TIP3   OH213901   1.008   4.322   2.633 -0.0735  0.4331 -0.1697
 4632TIP3    H113902   0.928   4.322   2.685  0.5119  0.5721  0.7585
 4632TIP3    H213903   0.982   4.284   2.549 -1.3144  1.2993 -0.2113
 4633TIP3   OH213904   0.085   0.453   2.612  0.0859  0.3298  0.9013
 4633TIP3    H113905   0.004   0.486   2.573  0.1906  0.5747  0.8906
 4633TIP3    H213906   0.101   0.370   2.568 -0.0497  0.3808  0.7574
 4634TIP3   OH213907   0.653   4.897   1.992 -0.0878  0.2374 -0.1004
 4634TIP3    H113908   0.645   4.804   1.971  0.4635  0.6119 -2.2144
 4634TIP3    H213909   0.747   4.916   1.984 -0.2540  1.0790 -0.1912
 4635TIP3   OH213910   5.892   1.299   0.937 -0.0916  0.2055 -0.1450
 4635TIP3    H113911   5.953   1.242   0.985 -1.8138 -2.2099 -0.6361
 4635TIP3    H213912   5.936   1.384   0.934  3.2695 -1.3915 -0.5560
 4636TIP3   OH213913   5.828   5.160   1.446  0.1582 -0.2359 -0.0029
 4636TIP3    H113914   5.904   5.215   1.466  0.2551 -0.4936  0.3397
 4636TIP3    H213915   5.753   5.218   1.460  0.3274  0.6680 -2.3602
 4637TIP3   OH213916   1.171   2.572   0.032 -0.2890  0.0855 -0.1740
 4637TIP3    H113917   1.254   2.527   0.048  0.1279  0.6678 -0.6338
 4637TIP3    H213918   1.112   2.504  -0.001 -0.1176 -0.4113  0.5266
 4638TIP3   OH213919   3.813   3.291   1.143  0.3265  0.8513  0.2995
 4638TIP3    H113920   3.787   3.267   1.232 -0.9700 -1.1626 -0.5472
 4638TIP3    H213921   3.735   3.330   1.104  0.3098  0.0685 -0.4857
 4639TIP3   OH213922   6.063   4.265   3.215  0.2809  0.6565  0.3302
 4639TIP3    H113923   6.058   4.361   3.207 -1.8421  0.7693  2.1263
 4639TIP3    H213924   5.972   4.236   3.217  0.8485 -1.6838 -2.2245
 4640TIP3   OH213925   6.047   1.229   3.245 -0.9517  0.1183  0.1805
 4640TIP3    H113926   6.110   1.290   3.207 -0.6149  0.3073  1.0199
 4640TIP3    H213927   6.100   1.159   3.283 -1.1901  0.6180  1.4908
 4641TIP3   OH213928   5.438   0.344   0.940  0.1817 -0.2471  0.5269
 4641TIP3    H113929   5.463   0.413   1.001 -0.5216 -0.0738  0.6257
 4641TIP3    H213930   5.476   0.370   0.857 -1.0860  0.8854  0.2787
 4642TIP3   OH213931   3.478   1.189   3.151 -0.2298  0.3415  0.0345
 4642TIP3    H113932   3.508   1.270   3.191 -1.9717  0.9981  0.0731
 4642TIP3    H213933   3.549   1.165   3.091  0.4488  1.7265  0.2387
 4643TIP3   OH213934  -0.020   5.363   4.543 -0.3039  0.4442 -0.0293
 4643TIP3    H113935   0.066   5.404   4.557  1.0902 -2.2561  0.0890
 4643TIP3    H213936  -0.005   5.270   4.565 -3.2481 -0.1354 -0.1328
 4644TIP3   OH213937   2.482   2.392   1.990 -0.1375 -0.1847 -0.0575
 4644TIP3    H113938   2.479   2.311   2.040 -0.2006 -1.8098 -2.5132
 4644TIP3    H213939   2.545   2.375   1.921  0.6162  2.2731 -0.0497
 4645TIP3   OH213940   3.107   2.735   2.174  0.4462 -0.3441 -0.3490
 4645TIP3    H113941   3.158   2.706   2.249  1.2900 -2.2860 -1.6171
 4645TIP3    H213942   3.171   2.770   2.113  0.0401 -0.9657 -1.1393
 4646TIP3   OH213943   0.216   1.536   1.812 -0.2395 -0.0341 -0.1403
 4646TIP3    H113944   0.309   1.535   1.792 -0.2275 -0.8295 -0.0657
 4646TIP3    H213945   0.174   1.568   1.732  0.0571 -0.1350 -0.3351
 4647TIP3   OH213946   0.721   4.381   1.447 -0.0777  0.1159 -0.1514
 4647TIP3    H113947   0.782   4.316   1.480  0.0418  0.6904  0.8006
 4647TIP3    H213948   0.728   4.454   1.509 -2.6659 -0.3193  0.7874
 4648TIP3   OH213949   1.345   1.527   1.121 -0.3869 -0.2891 -0.1330
 4648TIP3    H113950   1.268   1.581   1.107  0.7387  1.6144  0.6777
 4648TIP3    H213951   1.312   1.451   1.170 -1.7035  0.6422  0.4833
 4649TIP3   OH213952   3.403   4.932   2.676  0.1149 -0.2679 -0.2594
 4649TIP3    H113953   3.479   4.967   2.629 -0.6917  1.6411 -0.2418
 4649TIP3    H213954   3.419   4.956   2.767 -2.0216  3.4228 -0.6311
 4650TIP3   OH213955   5.132   2.830   3.636  0.6004  0.1042 -0.3502
 4650TIP3    H113956   5.217   2.787   3.626  1.0967  0.5245  1.6284
 4650TIP3    H213957   5.146   2.918   3.599  0.9775  0.1122 -0.1931
 4651TIP3   OH213958   1.453   1.180   4.746  0.1786  0.1913 -0.0213
 4651TIP3    H113959   1.402   1.222   4.814 -0.2736  0.7663 -0.6991
 4651TIP3    H213960   1.506   1.115   4.792 -0.9144 -0.1916  0.7456
 4652TIP3   OH213961   1.771   1.000   2.924 -0.1997  0.5533  0.2376
 4652TIP3    H113962   1.827   0.962   2.856 -4.5927 -3.2021 -1.7818
 4652TIP3    H213963   1.709   1.055   2.876 -1.8353 -0.1300  1.4642
 4653TIP3   OH213964   0.358   3.272   4.515 -0.1805 -0.5609  0.8938
 4653TIP3    H113965   0.384   3.196   4.462  0.0047 -0.9119  1.4756
 4653TIP3    H213966   0.298   3.321   4.459 -1.8525 -2.1696  1.2114
 4654TIP3   OH213967   4.543   0.676   4.464 -0.1603 -0.3114 -0.2004
 4654TIP3    H113968   4.597   0.648   4.538  0.3148  0.2592 -0.3265
 4654TIP3    H213969   4.533   0.771   4.475 -1.7662 -0.5010  0.2294
 4655TIP3   OH213970   5.503   3.072   1.435  0.1188  0.3191  0.0014
 4655TIP3    H113971   5.508   3.011   1.509  3.3822  0.5135  0.0958
 4655TIP3    H213972   5.490   3.158   1.475  1.3086  0.3527  0.3578
 4656TIP3   OH213973   1.511   0.576   4.615 -0.0564  0.5709 -0.4103
 4656TIP3    H113974   1.550   0.592   4.530 -0.1022  1.3344 -0.2918
 4656TIP3    H213975   1.435   0.520   4.597  0.6958 -0.3686 -0.7112
 4657TIP3   OH213976   4.430   5.954   2.581 -0.0215  0.2044  0.0670
 4657TIP3    H113977   4.396   5.897   2.512  1.1351 -0.4608  0.0227
 4657TIP3    H213978   4.352   5.996   2.618 -1.0337 -2.1540  0.7858
 4658TIP3   OH213979   2.325   3.990   0.843  0.0400 -0.3787  0.0807
 4658TIP3    H113980   2.233   3.981   0.869 -0.1408  0.8331 -0.0943
 4658TIP3    H213981   2.321   4.022   0.753  0.6299  0.0921  0.2156
 4659TIP3   OH213982   0.901   1.412   4.459  0.1894  0.2098  0.0704
 4659TIP3    H113983   0.983   1.363   4.452  0.3420  0.5626 -0.6856
 4659TIP3    H213984   0.848   1.382   4.385 -0.3880 -0.0391  0.5678
 4660TIP3   OH213985   4.604   3.107   2.603  0.0814  0.1136  0.6651
 4660TIP3    H113986   4.694   3.132   2.582  0.2307 -1.0680 -0.1624
 4660TIP3    H213987   4.550   3.175   2.563  0.4950 -0.6393 -1.2490
 4661TIP3   OH213988   3.589   2.429   4.528 -0.0666 -0.4543  0.5647
 4661TIP3    H113989   3.579   2.373   4.604  0.0007 -0.4749  0.5589
 4661TIP3    H213990   3.672   2.474   4.542  0.0881 -0.6718  0.3677
 4662TIP3   OH213991   2.201   4.220   1.829 -0.2591  0.1733 -0.5311
 4662TIP3    H113992   2.145   4.272   1.772 -2.6787 -0.2894  1.2445
 4662TIP3    H213993   2.151   4.140   1.845  1.1705 -0.5278  0.7179
 4663TIP3   OH213994   5.252   0.569   3.478  0.0998  0.3160  0.2051
 4663TIP3    H113995   5.301   0.487   3.465  2.7541  1.5476  1.7168
 4663TIP3    H213996   5.258   0.614   3.394  1.3672  0.3018  0.2706
 4664TIP3   OH213997   4.215   5.576   0.655 -0.6821  0.5827 -0.1170
 4664TIP3    H113998   4.217   5.668   0.682 -1.7695  1.0885 -1.6502
 4664TIP3    H213999   4.307   5.555   0.638 -0.6055  2.0749 -1.8549
 4665TIP3   OH214000   6.223   0.550   1.878 -0.5049  0.0925  0.1131
 4665TIP3    H114001   6.244   0.506   1.796 -0.3763  2.0668 -0.9753
 4665TIP3    H214002   6.262   0.494   1.945 -2.2745 -2.6143 -0.9520
 4666TIP3   OH214003   3.648   5.707   2.329  0.5384  0.6188 -0.1162
 4666TIP3    H114004   3.685   5.789   2.362  1.5807  0.6905 -1.3928
 4666TIP3    H214005   3.707   5.639   2.363  0.2493  0.4813  0.1143
 4667TIP3   OH214006   4.926   3.038   0.438 -0.4857 -0.0579  0.2669
 4667TIP3    H114007   4.832   3.024   0.455 -0.4592 -1.2068 -0.4141
 4667TIP3    H214008   4.929   3.070   0.348 -0.0800 -2.8954 -0.8154
 4668TIP3   OH214009   3.662   3.169   3.839 -0.1223 -0.3416 -0.2628
 4668TIP3    H114010   3.607   3.180   3.762  2.0305  0.5118 -1.7844
 4668TIP3    H214011   3.723   3.099   3.815 -0.2296 -0.9972  1.2175
 4669TIP3   OH214012   0.250   2.019   3.252 -0.1381 -0.0381  0.4339
 4669TIP3    H114013   0.193   1.960   3.301 -0.8730 -0.9057 -1.4179
 4669TIP3    H214014   0.338   1.982   3.264 -0.2476 -0.0523  1.3191
 4670TIP3   OH214015   1.880   2.631   2.983  0.5000  0.1310  0.1385
 4670TIP3    H114016   1.805   2.582   2.951 -0.4051  1.3692  0.2926
 4670TIP3    H214017   1.943   2.629   2.910  0.0451 -0.3591 -0.2438
 4671TIP3   OH214018   2.188   5.913   0.623  0.4606  0.5780 -0.6331
 4671TIP3    H114019   2.125   5.952   0.684 -0.7565 -0.7211 -1.0100
 4671TIP3    H214020   2.198   5.978   0.554  0.5807  1.3705  0.1155
 4672TIP3   OH214021   5.449   1.565   1.889  0.0860 -1.0524 -0.3933
 4672TIP3    H114022   5.536   1.528   1.907  0.2108 -0.2085  0.8687
 4672TIP3    H214023   5.458   1.658   1.909 -0.9636 -0.8408 -0.8329
 4673TIP3   OH214024   0.126   3.283   0.932  0.1013  0.1069 -0.2371
 4673TIP3    H114025   0.214   3.252   0.911 -1.1374 -2.6033 -1.9678
 4673TIP3    H214026   0.121   3.369   0.890  1.1647 -0.7758 -2.3595
 4674TIP3   OH214027   2.072   1.637   4.991  0.0518 -0.2441 -0.0916
 4674TIP3    H114028   2.063   1.608   4.900  0.3182 -2.7763  0.5943
 4674TIP3    H214029   2.098   1.558   5.039 -1.7728  0.5720  2.4974
 4675TIP3   OH214030   2.764   0.295   0.058 -1.0094  0.1666  0.1057
 4675TIP3    H114031   2.763   0.200   0.067  0.5066  0.3463  5.1980
 4675TIP3    H214032   2.701   0.326   0.123  0.6505  2.6323  0.6915
 4676TIP3   OH214033   2.292   1.622   1.690  0.1472  0.5487  0.0267
 4676TIP3    H114034   2.238   1.697   1.667 -1.9447 -0.9748 -0.3646
 4676TIP3    H214035   2.356   1.616   1.620  0.0963  1.7048 -0.1420
 4677TIP3   OH214036   3.642   0.931   1.583  0.0590 -0.3158 -0.7208
 4677TIP3    H114037   3.703   0.986   1.534 -2.1364  1.3248 -1.7785
 4677TIP3    H214038   3.570   0.915   1.522 -0.8595 -1.6880  0.6656
 4678TIP3   OH214039   2.864   0.735   0.727 -0.3575 -0.4380 -0.0073
 4678TIP3    H114040   2.799   0.773   0.786 -1.6833 -2.1263 -0.2908
 4678TIP3    H214041   2.943   0.726   0.780 -0.7346  0.4854  0.7263
 4679TIP3   OH214042   4.765   2.977   1.278 -0.2385  0.2760  0.4035
 4679TIP3    H114043   4.795   3.019   1.359  0.1818 -0.3880  0.5993
 4679TIP3    H214044   4.670   2.975   1.285 -0.1873 -0.1077  1.0518
 4680TIP3   OH214045   1.041   2.768   3.227 -0.3691  0.8103  0.2126
 4680TIP3    H114046   1.085   2.698   3.179 -0.0291  0.7964  0.5375
 4680TIP3    H214047   0.991   2.816   3.161 -1.2814 -0.2426  0.1081
 4681TIP3   OH214048   2.412   1.859   1.442 -0.3730 -0.2769 -0.6134
 4681TIP3    H114049   2.412   1.770   1.408  0.3509 -0.0408 -1.2733
 4681TIP3    H214050   2.324   1.871   1.479 -0.3380 -1.4015 -0.1085
 4682TIP3   OH214051   4.339   5.185   2.097 -0.1496  0.2915  0.8627
 4682TIP3    H114052   4.413   5.199   2.039 -0.2063 -0.2280  0.6650
 4682TIP3    H214053   4.316   5.273   2.127 -0.9530  0.7500 -0.9341
 4683TIP3   OH214054   4.150   1.897   0.863 -0.4254  0.1694  0.1565
 4683TIP3    H114055   4.154   1.806   0.893 -1.4805  0.7569  2.3037
 4683TIP3    H214056   4.234   1.912   0.820 -0.2734 -1.8282 -0.3530
 4684TIP3   OH214057   1.259   2.593   3.994  0.1650 -0.2321  0.7270
 4684TIP3    H114058   1.292   2.610   3.906 -0.9015  2.1570  0.7206
 4684TIP3    H214059   1.245   2.498   3.996 -1.2132 -0.2119 -2.2322
 4685TIP3   OH214060   2.539   2.645   3.029 -0.2131 -0.0159 -0.3952
 4685TIP3    H114061   2.535   2.674   3.120  1.7732  0.7720 -0.5202
 4685TIP3    H214062   2.532   2.550   3.034  0.1729 -0.0011  0.6137
 4686TIP3   OH214063   5.391   2.926   0.897 -0.7948 -0.0350 -0.0443
 4686TIP3    H114064   5.325   2.863   0.868 -0.8290 -0.2884  0.5789
 4686TIP3    H214065   5.439   2.881   0.966  0.3992 -0.0629 -0.8527
 4687TIP3   OH214066   2.308   2.416   4.714  0.1174  0.6745 -0.1277
 4687TIP3    H114067   2.335   2.497   4.759 -0.5126  0.4669  0.6517
 4687TIP3    H214068   2.292   2.443   4.624 -0.5913  1.5439  0.2355
 4688TIP3   OH214069   2.671   1.478   3.491 -0.0916  0.4042  0.8490
 4688TIP3    H114070   2.739   1.424   3.451 -0.4958 -0.5603  1.4280
 4688TIP3    H214071   2.634   1.424   3.561 -2.3727  0.3160 -0.3034
 4689TIP3   OH214072   2.209   0.889   1.963  0.3325  0.0103  0.3339
 4689TIP3    H114073   2.262   0.967   1.950  0.4866 -0.0085  0.8318
 4689TIP3    H214074   2.118   0.919   1.955  0.3777  0.3274  0.9830
 4690TIP3   OH214075   4.207   1.575   1.982  0.4415 -0.3019  0.0639
 4690TIP3    H114076   4.136   1.512   1.997  0.1896 -0.0847 -0.2085
 4690TIP3    H214077   4.173   1.634   1.916  0.3631  0.5980  0.8832
 4691TIP3   OH214078   1.687   4.772   5.164  0.3279 -0.6174  0.1134
 4691TIP3    H114079   1.687   4.726   5.080  0.4997 -0.8149  0.2208
 4691TIP3    H214080   1.621   4.840   5.154 -0.3410 -1.2553  0.1610
 4692TIP3   OH214081   4.935   2.459   4.883  0.3293 -0.0988  0.5184
 4692TIP3    H114082   4.870   2.507   4.933 -0.3269 -0.9297  0.4800
 4692TIP3    H214083   4.885   2.393   4.835  0.8316  1.1530 -1.8648
 4693TIP3   OH214084   4.046   2.973   2.513 -0.1158  0.1393 -0.6972
 4693TIP3    H114085   4.088   2.888   2.526 -1.8186 -0.7853 -1.0210
 4693TIP3    H214086   4.015   2.999   2.600  1.0338  0.8109 -0.4625
 4694TIP3   OH214087   2.033   1.185   3.575 -0.0352 -0.1287 -0.3961
 4694TIP3    H114088   1.967   1.229   3.630 -2.2827 -0.2223 -2.8298
 4694TIP3    H214089   2.040   1.240   3.497  1.4968 -1.0916 -0.9819
 4695TIP3   OH214090   5.572   1.711   3.548 -0.6947 -0.3937  0.2618
 4695TIP3    H114091   5.644   1.668   3.503 -0.6433 -0.4061  0.3562
 4695TIP3    H214092   5.568   1.669   3.634 -1.9964 -1.6930 -0.3740
 4696TIP3   OH214093   4.592   5.085   0.680 -0.0012  0.2337 -0.6862
 4696TIP3    H114094   4.654   5.070   0.751  0.6751  1.0771 -1.0926
 4696TIP3    H214095   4.508   5.053   0.715  0.3919  0.3022  0.3542
 4697TIP3   OH214096   1.690   0.351   2.947 -0.0191  0.1607  0.4895
 4697TIP3    H114097   1.619   0.333   2.886  0.3579  3.4405 -1.1531
 4697TIP3    H214098   1.770   0.348   2.894  0.8957 -1.4556  1.8689
 4698TIP3   OH214099   2.162   2.803   4.739 -0.0599 -0.0686  0.4519
 4698TIP3    H114100   2.068   2.799   4.751 -0.0821  0.5797  0.5279
 4698TIP3    H214101   2.173   2.816   4.645 -0.0219 -0.6910  0.3631
 4699TIP3   OH214102   2.577   4.197   4.123 -0.0218 -0.5481 -0.2617
 4699TIP3    H114103   2.576   4.111   4.164  1.0022 -0.1512  0.6515
 4699TIP3    H214104   2.597   4.180   4.031  0.0000 -1.2994 -0.1211
 4700TIP3   OH214105   0.727   1.659   3.488  0.3071  0.6404  0.5383
 4700TIP3    H114106   0.693   1.671   3.577  2.0631  2.4342  1.0263
 4700TIP3    H214107   0.779   1.579   3.493  1.6524  1.5395  1.5680
 4701TIP3   OH214108   1.601   0.042   0.050 -0.1909  0.0739 -0.5243
 4701TIP3    H114109   1.629   0.036  -0.041  2.3503 -0.8547  0.2376
 4701TIP3    H214110   1.638  -0.036   0.091 -0.1570  1.1578  1.5952
 4702TIP3   OH214111   1.483   5.381   3.237  0.3811  0.7619 -0.1623
 4702TIP3    H114112   1.449   5.408   3.152  0.7038 -0.1441 -0.5947
 4702TIP3    H214113   1.441   5.296   3.254  0.2884  0.9571  0.6006
 4703TIP3   OH214114   2.669   4.614   2.590  0.4249  0.7286  0.0266
 4703TIP3    H114115   2.632   4.685   2.643 -0.1565  0.6429 -0.2595
 4703TIP3    H214116   2.745   4.584   2.640 -0.4512  0.2532  1.1079
 4704TIP3   OH214117   1.506   5.062   2.530  0.0183 -0.1265  0.2480
 4704TIP3    H114118   1.454   4.983   2.512  1.0658 -0.8593  0.3380
 4704TIP3    H214119   1.595   5.029   2.543  0.5536  1.1291 -0.1498
 4705TIP3   OH214120   1.140   4.123   0.654  0.2762 -0.7493 -0.7259
 4705TIP3    H114121   1.160   4.216   0.646  1.0136 -0.8886 -0.6025
 4705TIP3    H214122   1.059   4.120   0.703 -1.4728 -0.0626 -3.3619
 4706TIP3   OH214123   4.789   0.774   4.134 -0.7936  0.3316  0.1289
 4706TIP3    H114124   4.800   0.681   4.150  0.2491  0.5575  0.8573
 4706TIP3    H214125   4.879   0.808   4.129 -1.0811  0.9475 -2.3675
 4707TIP3   OH214126   5.469   2.810   3.114 -0.0468  0.0148 -0.3208
 4707TIP3    H114127   5.461   2.822   3.019 -0.4113  0.5648 -0.2259
 4707TIP3    H214128   5.458   2.898   3.150  0.2276 -0.1689  0.2255
 4708TIP3   OH214129   2.005   1.852   3.499 -0.2911 -0.0284  0.0965
 4708TIP3    H114130   2.050   1.768   3.500 -2.6609 -1.5071 -2.1006
 4708TIP3    H214131   1.940   1.846   3.569 -0.6952 -0.2268 -0.2846
 4709TIP3   OH214132   4.159   5.337   0.556  0.3117 -0.1416  0.3028
 4709TIP3    H114133   4.212   5.278   0.609  0.9301  0.1421  0.0054
 4709TIP3    H214134   4.150   5.416   0.609 -0.7246 -0.5699  0.8080
 4710TIP3   OH214135   0.859   4.984   4.770 -0.0948  0.5548  0.2471
 4710TIP3    H114136   0.848   4.946   4.857 -0.5826 -0.6387 -0.3107
 4710TIP3    H214137   0.846   5.078   4.783  0.8476  0.5294  1.6177
 4711TIP3   OH214138   1.311   4.911   2.453 -0.0964  0.1416  0.5173
 4711TIP3    H114139   1.300   4.824   2.491 -1.5591 -0.1303 -0.4699
 4711TIP3    H214140   1.222   4.943   2.440  0.4168  1.8180  0.8935
 4712TIP3   OH214141   5.708   1.931   3.111  0.1777 -0.1472  0.2562
 4712TIP3    H114142   5.782   1.989   3.130 -0.4868  1.0275 -0.6402
 4712TIP3    H214143   5.715   1.914   3.017 -0.5383 -0.2663  0.2231
 4713TIP3   OH214144   4.343   0.266   2.817 -0.0863  0.0961 -0.1902
 4713TIP3    H114145   4.317   0.213   2.893 -0.4030 -1.1475 -1.1421
 4713TIP3    H214146   4.392   0.206   2.762  1.8216  1.4755 -0.1138
 4714TIP3   OH214147   2.640   3.466   3.626 -0.0987 -0.0324 -0.1334
 4714TIP3    H114148   2.603   3.388   3.667  2.6566 -0.2200  2.3241
 4714TIP3    H214149   2.602   3.539   3.675 -0.4836  0.0133 -0.4988
 4715TIP3   OH214150   5.555   1.052   0.381 -0.7304  0.5574  0.0729
 4715TIP3    H114151   5.640   1.041   0.423 -0.7775  0.4593  0.1429
 4715TIP3    H214152   5.566   1.128   0.324  0.2434 -1.1240 -2.1246
 4716TIP3   OH214153   1.218   2.864   1.196  0.1225 -0.1038  0.1754
 4716TIP3    H114154   1.303   2.875   1.152  0.1137 -1.4812 -0.2367
 4716TIP3    H214155   1.237   2.880   1.289  0.4501  1.3358 -0.1106
 4717TIP3   OH214156   4.997   3.150   2.902  0.1385  0.1598  0.2088
 4717TIP3    H114157   5.048   3.229   2.887  1.0400 -0.6230 -1.0598
 4717TIP3    H214158   5.042   3.106   2.974 -0.6335  1.0014  1.2245
 4718TIP3   OH214159   3.872   5.878   0.855  0.0897 -0.6384 -0.6203
 4718TIP3    H114160   3.807   5.863   0.787  0.2425 -0.4025 -0.8216
 4718TIP3    H214161   3.830   5.848   0.936 -0.8988  1.0089 -0.4817
 4719TIP3   OH214162   0.252   3.539   3.992  0.0782  0.5380 -0.0346
 4719TIP3    H114163   0.275   3.448   4.007 -0.1941  0.4833  0.0624
 4719TIP3    H214164   0.179   3.556   4.052 -2.6242 -0.3643 -2.8003
 4720TIP3   OH214165   2.682   1.016   1.256 -0.2227  0.0585 -0.8528
 4720TIP3    H114166   2.683   1.104   1.294 -0.2435  0.0491 -0.8301
 4720TIP3    H214167   2.760   0.973   1.292 -0.7491 -0.2689 -0.0653
 4721TIP3   OH214168   2.041   2.874   2.744 -0.2229 -0.1585  0.1332
 4721TIP3    H114169   2.090   2.811   2.797  1.5399  1.8801  1.0419
 4721TIP3    H214170   2.004   2.935   2.807  0.2749  1.1895 -0.8360
 4722TIP3   OH214171   6.172   4.454   0.601  0.0907 -0.6425  0.4211
 4722TIP3    H114172   6.182   4.470   0.695  1.2044  1.3929  0.0032
 4722TIP3    H214173   6.197   4.536   0.560 -0.5290 -1.4502 -1.6736
 4723TIP3   OH214174   0.769   2.683   4.429  0.0368 -0.4701 -0.3354
 4723TIP3    H114175   0.716   2.740   4.485  0.7194 -0.9068  0.7807
 4723TIP3    H214176   0.740   2.594   4.451  1.2007 -0.7153  0.2958
 4724TIP3   OH214177   5.310   0.591   3.974  0.1977 -0.1548 -0.7164
 4724TIP3    H114178   5.261   0.673   3.972 -2.0693 -1.4018  0.4428
 4724TIP3    H214179   5.303   0.556   3.885  1.7404  1.1301 -1.4072
 4725TIP3   OH214180   3.927   5.444   1.448  0.3090 -0.3520  0.0309
 4725TIP3    H114181   3.858   5.494   1.492 -1.1291 -0.3261 -2.0762
 4725TIP3    H214182   3.944   5.494   1.368  2.6426 -0.5091  0.3609
 4726TIP3   OH214183   1.426   4.139   2.364 -0.1065  0.3725 -0.1977
 4726TIP3    H114184   1.517   4.164   2.350 -0.5844  1.3720 -1.7875
 4726TIP3    H214185   1.414   4.145   2.459  1.3330  0.7102 -0.0103
 4727TIP3   OH214186   4.829   3.101   1.532 -0.2724 -0.3034 -0.1284
 4727TIP3    H114187   4.756   3.130   1.587 -2.7086 -2.4650 -1.9358
 4727TIP3    H214188   4.877   3.039   1.586 -0.6001  0.1421  0.6787
 4728TIP3   OH214189   1.979   2.667   0.141  0.2132 -0.5693 -0.9097
 4728TIP3    H114190   1.920   2.719   0.195 -0.0651 -1.3198 -0.4734
 4728TIP3    H214191   1.936   2.661   0.056  1.1863  1.5952 -1.6429
 4729TIP3   OH214192   5.223   5.904   2.826 -0.2761  0.4991 -0.2733
 4729TIP3    H114193   5.273   5.943   2.755  0.7283  0.1140  0.1946
 4729TIP3    H214194   5.192   5.978   2.877 -0.9021  0.7737 -1.0348
 4730TIP3   OH214195   5.902   2.212   3.671 -0.6466 -0.7255  0.2065
 4730TIP3    H114196   5.812   2.222   3.640 -0.9130 -0.6330  0.9972
 4730TIP3    H214197   5.897   2.226   3.765  0.4120  0.6945  0.0952
 4731TIP3   OH214198   5.577   4.414   4.680  0.2387 -0.3035 -0.2637
 4731TIP3    H114199   5.583   4.499   4.724 -1.2036 -0.9227  1.2487
 4731TIP3    H214200   5.614   4.352   4.743 -2.3367 -1.2820  0.4093
 4732TIP3   OH214201   5.009   2.607   4.377  0.5341 -0.4664  0.6013
 4732TIP3    H114202   5.090   2.631   4.421  1.4625  0.8003 -1.6283
 4732TIP3    H214203   5.034   2.592   4.286 -1.6169 -0.7350 -0.0141
 4733TIP3   OH214204   4.485   4.702   2.787 -0.2161  0.2587  0.6158
 4733TIP3    H114205   4.533   4.768   2.737  1.4584  0.2115  2.0484
 4733TIP3    H214206   4.404   4.745   2.813 -0.8025  0.5153 -1.4730
 4734TIP3   OH214207   0.137   5.593   1.252 -0.1013 -0.1002  0.1555
 4734TIP3    H114208   0.184   5.677   1.249 -2.2476  1.1935  0.5353
 4734TIP3    H214209   0.124   5.576   1.345  0.2430 -0.8111  0.0751
 4735TIP3   OH214210   4.422   0.648   4.217  0.2914  0.0528 -0.0194
 4735TIP3    H114211   4.362   0.578   4.242 -0.3732  0.7820  0.5228
 4735TIP3    H214212   4.459   0.678   4.300  0.0128  0.8119 -0.1593
 4736TIP3   OH214213   2.289   4.571   3.053  0.0847  0.1829  0.0882
 4736TIP3    H114214   2.308   4.493   3.001 -0.4325  0.0887  0.0305
 4736TIP3    H214215   2.330   4.555   3.138 -0.4821 -0.3971  0.2579
 4737TIP3   OH214216   6.210   3.360   3.052  0.1301  0.1585 -0.5254
 4737TIP3    H114217   6.207   3.422   2.979  0.6071  0.8148  0.0066
 4737TIP3    H214218   6.239   3.411   3.127 -0.6746 -0.4315  0.2211
 4738TIP3   OH214219   5.056   0.727   0.600  0.3113 -0.7474 -0.6486
 4738TIP3    H114220   5.096   0.804   0.642  0.4563 -0.8504 -0.5948
 4738TIP3    H214221   5.099   0.652   0.643  2.3804 -0.8807 -2.7514
 4739TIP3   OH214222   5.303   3.794   3.299 -0.7899 -0.2654 -0.3046
 4739TIP3    H114223   5.295   3.867   3.237 -2.0450  0.2539  0.4398
 4739TIP3    H214224   5.391   3.803   3.334 -0.4169  0.0297 -1.2751
 4740TIP3   OH214225   0.354   2.548   0.580 -0.0658  0.5490  0.0498
 4740TIP3    H114226   0.304   2.512   0.506  1.8291 -0.1461 -0.9596
 4740TIP3    H214227   0.365   2.641   0.559  1.8518  0.0485 -1.4548
 4741TIP3   OH214228   0.595   5.166   0.262  0.0551  0.4161 -0.0144
 4741TIP3    H114229   0.649   5.130   0.332 -1.4604 -2.1846 -0.0583
 4741TIP3    H214230   0.625   5.121   0.183  0.8314  2.3301 -0.8732
 4742TIP3   OH214231   3.664   4.563   0.662 -0.1168  0.3361 -0.0571
 4742TIP3    H114232   3.651   4.468   0.667 -0.0147  0.3624  1.0578
 4742TIP3    H214233   3.612   4.590   0.587  0.8567 -0.7602 -1.1714
 4743TIP3   OH214234   0.712   3.191   3.614 -0.0404 -0.2030  0.3452
 4743TIP3    H114235   0.749   3.208   3.700 -0.3628 -0.6375  0.5709
 4743TIP3    H214236   0.662   3.111   3.624  1.1922 -1.1340 -0.6260
 4744TIP3   OH214237   1.386   5.499   1.045  0.2926  0.6838 -0.7218
 4744TIP3    H114238   1.373   5.578   1.098  0.9395 -0.4772  1.2593
 4744TIP3    H214239   1.446   5.527   0.976  1.1998  1.7535  0.4485
 4745TIP3   OH214240   5.017   3.860   3.386  0.4051  0.6732  0.2232
 4745TIP3    H114241   4.965   3.835   3.310  1.8915  1.0970 -0.9867
 4745TIP3    H214242   5.103   3.820   3.371  1.3127  2.3241  0.6929
 4746TIP3   OH214243   5.091   2.097   2.111  0.1108  0.5510  0.1031
 4746TIP3    H114244   5.064   2.187   2.130  0.1913  0.4859  0.5523
 4746TIP3    H214245   5.133   2.068   2.192 -0.5357 -0.1269  0.2089
 4747TIP3   OH214246   2.914   1.121   2.974 -0.3977  1.0211 -0.0655
 4747TIP3    H114247   2.926   1.099   3.066 -0.9792  3.2645  0.6160
 4747TIP3    H214248   2.966   1.056   2.926 -0.2109 -0.2734  1.8209
 4748TIP3   OH214249   4.487   4.986   2.517  0.0593  0.0977 -0.3738
 4748TIP3    H114250   4.420   5.024   2.574 -1.6099  0.2652 -2.3366
 4748TIP3    H214251   4.555   4.955   2.578 -0.7338  1.8936  1.5662
 4749TIP3   OH214252   3.917   3.626   3.997  0.1881  0.1486 -0.4088
 4749TIP3    H114253   3.909   3.718   3.973  1.0192  0.0810 -0.9580
 4749TIP3    H214254   3.827   3.592   3.991 -0.2371  1.0658  0.4543
 4750TIP3   OH214255   1.935   1.238   3.017 -0.1180  0.5931  0.6288
 4750TIP3    H114256   1.888   1.158   2.995 -1.1468  0.9737  1.3587
 4750TIP3    H214257   1.948   1.282   2.934 -2.3672  1.1694  0.5260
 4751TIP3   OH214258   6.243   2.426   1.483 -0.6261  0.0238  0.2590
 4751TIP3    H114259   6.300   2.383   1.420 -0.0180  1.4388 -0.2139
 4751TIP3    H214260   6.221   2.510   1.442 -0.6770  0.7346  1.6658
 4752TIP3   OH214261   0.111   3.387   1.204  0.3146 -0.6334 -0.1863
 4752TIP3    H114262   0.045   3.450   1.174 -1.6688 -2.7943 -0.7084
 4752TIP3    H214263   0.134   3.338   1.125 -0.9195 -2.8656  0.7490
 4753TIP3   OH214264   3.969   1.387   2.378  0.8353 -0.1632 -0.3753
 4753TIP3    H114265   4.062   1.409   2.371  0.6451  0.7989 -0.1423
 4753TIP3    H214266   3.946   1.350   2.293  1.5913 -1.0808 -0.1910
 4754TIP3   OH214267   0.513   1.918   0.804 -0.0376 -0.1883  0.2420
 4754TIP3    H114268   0.508   1.985   0.736  0.1586 -0.0927  0.3217
 4754TIP3    H214269   0.556   1.844   0.762  1.0477  0.2414  0.5514
 4755TIP3   OH214270   2.221   1.593   3.433 -0.5233  0.4043  0.4308
 4755TIP3    H114271   2.266   1.676   3.419  1.3547 -0.6783 -0.2675
 4755TIP3    H214272   2.145   1.596   3.374  0.0295  1.2643 -0.2531
 4756TIP3   OH214273   0.359   0.604   3.888 -0.7096  0.2983 -1.0000
 4756TIP3    H114274   0.404   0.615   3.972 -1.2775 -1.3349 -0.4499
 4756TIP3    H214275   0.373   0.687   3.843 -1.6990  1.8189  1.3224
 4757TIP3   OH214276   0.246   1.285   0.942 -0.2085  0.1761  0.3073
 4757TIP3    H114277   0.252   1.248   0.854  0.8428  1.9617 -0.4220
 4757TIP3    H214278   0.337   1.293   0.971 -0.4984  0.5267  1.1731
 4758TIP3   OH214279   5.589   1.449   4.238 -0.6015  0.0359  0.0787
 4758TIP3    H114280   5.557   1.472   4.151 -1.9129 -2.0779 -0.0664
 4758TIP3    H214281   5.684   1.459   4.232 -0.6113 -0.6197 -1.7955
 4759TIP3   OH214282   0.541   0.362   3.992  0.1609 -0.0411  0.1718
 4759TIP3    H114283   0.488   0.293   3.951  0.5075 -0.3696  0.2671
 4759TIP3    H214284   0.519   0.357   4.085 -0.6907  0.7625  0.0306
 4760TIP3   OH214285   4.112   5.636   3.523  0.8380  0.7814  0.0598
 4760TIP3    H114286   4.038   5.659   3.579  1.6061  0.3816  1.2710
 4760TIP3    H214287   4.180   5.698   3.546  1.0545  0.8222 -0.6797
 4761TIP3   OH214288   3.514   1.293   5.067 -0.1136 -0.2786 -0.0931
 4761TIP3    H114289   3.512   1.374   5.016 -2.4788  0.0412  0.4260
 4761TIP3    H214290   3.531   1.322   5.157 -0.6299 -0.3801  0.0398
 4762TIP3   OH214291   1.185   0.980   1.135  0.0463  0.2268 -0.5663
 4762TIP3    H114292   1.105   1.015   1.096  0.2724  0.6840 -0.6302
 4762TIP3    H214293   1.256   1.031   1.094  0.3276  0.2537 -0.0563
 4763TIP3   OH214294   5.247   0.600   2.025 -0.2606 -0.4374  0.0284
 4763TIP3    H114295   5.242   0.614   2.120 -0.6929  3.0334 -0.3589
 4763TIP3    H214296   5.335   0.628   2.001 -0.9039  0.9995 -0.8050
 4764TIP3   OH214297   0.564   1.003   0.091  0.3038  0.2253  0.0348
 4764TIP3    H114298   0.549   1.098   0.086 -0.3823  0.1640  0.7753
 4764TIP3    H214299   0.534   0.979   0.178  0.3494 -0.7087 -0.1999
 4765TIP3   OH214300   5.857   5.648   0.969 -0.0508  0.1510  0.3496
 4765TIP3    H114301   5.844   5.618   0.879 -1.4545  1.4635  0.0895
 4765TIP3    H214302   5.777   5.624   1.015 -0.0051  0.9106  0.8472
 4766TIP3   OH214303   4.440   0.920   0.962  0.8009 -0.1941 -0.0189
 4766TIP3    H114304   4.376   0.849   0.971  0.4289  0.0531 -0.6837
 4766TIP3    H214305   4.411   0.986   1.024  0.3380 -0.0332 -0.3986
 4767TIP3   OH214306   5.465   5.707   5.153  0.0950  0.8265 -0.0377
 4767TIP3    H114307   5.557   5.719   5.178 -0.1578  2.0480  0.3595
 4767TIP3    H214308   5.425   5.665   5.230  0.3083  0.3084 -0.2045
 4768TIP3   OH214309   4.782   5.311   0.978  0.1039  0.7723  0.3544
 4768TIP3    H114310   4.806   5.335   1.068  1.0901 -1.1452  0.6605
 4768TIP3    H214311   4.731   5.231   0.988 -0.6047  1.0580 -0.7739
 4769TIP3   OH214312   1.713   5.824   4.058  0.5710 -0.0412  0.1620
 4769TIP3    H114313   1.630   5.821   4.106  0.0712  1.4420 -0.5283
 4769TIP3    H214314   1.726   5.917   4.040  2.3594 -0.2602  0.1857
 4770TIP3   OH214315   0.661   5.696   3.419  0.4225 -0.6322 -0.1687
 4770TIP3    H114316   0.629   5.749   3.492 -1.7995 -0.8374 -0.9067
 4770TIP3    H214317   0.681   5.760   3.350  1.1869 -0.5387  0.1279
 4771TIP3   OH214318   0.851   5.140   2.356 -0.0056 -0.1047  0.3898
 4771TIP3    H114319   0.897   5.202   2.300  0.6328  0.9215  1.9748
 4771TIP3    H214320   0.916   5.074   2.377  0.3395  0.5234  1.3909
 4772TIP3   OH214321   6.050   3.372   1.490  0.4659  0.3597  0.3127
 4772TIP3    H114322   6.045   3.280   1.517  1.6962 -0.8698 -3.0136
 4772TIP3    H214323   6.140   3.382   1.457  0.8180  3.2305  1.8543
 4773TIP3   OH214324   3.282   1.455   1.643  0.3730  0.2867  0.0007
 4773TIP3    H114325   3.246   1.392   1.580  1.5328 -0.2452 -0.1489
 4773TIP3    H214326   3.347   1.505   1.593  0.6805  0.4503  0.5593
 4774TIP3   OH214327   5.212   0.504   0.370  0.4228  0.3623 -0.0149
 4774TIP3    H114328   5.204   0.495   0.465  3.0768  1.2034  0.3789
 4774TIP3    H214329   5.307   0.505   0.354  0.0534  0.2705 -2.6885
 4775TIP3   OH214330   0.480   1.515   4.464  0.6779  0.7308 -0.2279
 4775TIP3    H114331   0.522   1.505   4.549  0.3312  1.3071  0.0138
 4775TIP3    H214332   0.413   1.446   4.461  1.9731 -0.5501 -0.8390
 4776TIP3   OH214333   6.269   0.614   0.522 -0.1275  0.6611  0.5860
 4776TIP3    H114334   6.322   0.535   0.534  0.1533  0.5987 -0.8363
 4776TIP3    H214335   6.178   0.583   0.524 -0.0773  0.5333  1.4420
 4777TIP3   OH214336   6.056   3.690   1.519  0.0649  0.0706 -0.4287
 4777TIP3    H114337   6.026   3.622   1.580 -1.1046 -0.8725 -1.9881
 4777TIP3    H214338   6.150   3.697   1.535 -0.0985 -0.6104  1.0081
 4778TIP3   OH214339   5.247   5.145   4.252  0.2688 -0.3047 -0.1746
 4778TIP3    H114340   5.270   5.233   4.285 -1.0281 -0.2075  0.5318
 4778TIP3    H214341   5.270   5.148   4.159 -0.1436  0.9274 -0.2575
 4779TIP3   OH214342   0.775   3.389   2.216  0.0798 -0.1112  0.2806
 4779TIP3    H114343   0.703   3.389   2.153 -0.1755  2.2576  0.4893
 4779TIP3    H214344   0.848   3.430   2.169  1.4406 -2.6361  0.0077
 4780TIP3   OH214345   4.709   4.173   0.627 -0.2118 -0.3002 -0.3891
 4780TIP3    H114346   4.668   4.258   0.644 -0.9449 -0.0347 -3.1094
 4780TIP3    H214347   4.713   4.166   0.532 -0.6541 -3.5528 -0.2837
 4781TIP3   OH214348   5.620   0.877   1.607  0.5063  0.0171  0.3842
 4781TIP3    H114349   5.644   0.794   1.648  0.3106 -0.0333  0.3958
 4781TIP3    H214350   5.701   0.927   1.606  1.0934 -0.8925 -1.3688
 4782TIP3   OH214351   2.165   0.373   4.538 -0.6217 -0.6235  0.3702
 4782TIP3    H114352   2.249   0.375   4.493 -1.4259 -0.8713 -1.2133
 4782TIP3    H214353   2.119   0.451   4.507 -1.0577 -0.5732  1.0992
 4783TIP3   OH214354   3.882   4.623   4.054  0.9521  0.3085  0.0871
 4783TIP3    H114355   3.876   4.593   4.145  1.8939 -0.5979 -0.1227
 4783TIP3    H214356   3.976   4.624   4.036  0.7831  0.7129 -0.7989
 4784TIP3   OH214357   1.514   1.652   2.157  0.1791 -0.0970 -0.3961
 4784TIP3    H114358   1.471   1.735   2.132  0.6879  0.4113  0.3721
 4784TIP3    H214359   1.450   1.609   2.213  0.0795 -0.0288 -0.4553
 4785TIP3   OH214360   5.365   0.948   1.747 -0.7032 -0.0513 -0.6180
 4785TIP3    H114361   5.455   0.946   1.714  0.0252 -0.1736  1.2907
 4785TIP3    H214362   5.313   0.910   1.676  1.0747 -2.4451 -0.7467
 4786TIP3   OH214363   1.005   5.388   4.573 -0.2463  0.3484 -0.1907
 4786TIP3    H114364   1.008   5.391   4.478  1.6035  0.5078 -0.1711
 4786TIP3    H214365   0.956   5.466   4.598  1.3367  1.6460 -0.9749
 4787TIP3   OH214366   3.259   5.550   0.495 -0.1415  0.0361 -0.5719
 4787TIP3    H114367   3.352   5.569   0.500 -0.3248  0.8702 -0.1631
 4787TIP3    H214368   3.233   5.582   0.409 -0.2576  0.8207 -0.2576
 4788TIP3   OH214369   5.941   2.821   4.408 -0.1935  0.4710  0.3502
 4788TIP3    H114370   5.970   2.899   4.360  0.3016 -0.5308 -1.0213
 4788TIP3    H214371   6.015   2.800   4.465 -0.5922  1.3750  1.2369
 4789TIP3   OH214372   0.058   0.839   2.770 -0.1416 -0.2512 -0.5037
 4789TIP3    H114373   0.127   0.841   2.837 -0.2826 -3.7479 -0.0538
 4789TIP3    H214374  -0.015   0.793   2.812 -1.7390  0.9186 -1.8681
 4790TIP3   OH214375   5.209   5.501   5.042  0.1858  0.1147 -0.0089
 4790TIP3    H114376   5.247   5.440   5.104  0.7117  0.2044 -0.2348
 4790TIP3    H214377   5.144   5.450   4.994  0.6912 -0.2951 -0.2624
 4791TIP3   OH214378   1.608   3.677   2.571 -0.0584 -0.1415  0.3163
 4791TIP3    H114379   1.589   3.701   2.662  0.1029 -1.8859  0.8487
 4791TIP3    H214380   1.693   3.716   2.553 -0.1211  0.2677  0.9016
 4792TIP3   OH214381   2.337   1.041   4.964  0.0090  0.6977 -0.2411
 4792TIP3    H114382   2.265   1.102   4.978 -0.7410  0.1112 -1.3902
 4792TIP3    H214383   2.307   0.984   4.893  0.9492 -0.5782  0.3313
 4793TIP3   OH214384   5.537   5.150   2.276  0.4661 -0.3044  0.5624
 4793TIP3    H114385   5.607   5.138   2.340  0.3083 -1.8783  0.4695
 4793TIP3    H214386   5.577   5.204   2.207  2.2006 -2.5811 -0.3449
 4794TIP3   OH214387   0.077   1.179   1.428  0.3434 -0.5819 -0.0222
 4794TIP3    H114388   0.015   1.251   1.423  0.6152 -0.1801  1.7572
 4794TIP3    H214389   0.109   1.181   1.519  4.1860  0.2731 -1.2226
 4795TIP3   OH214390   2.683   1.210   2.825 -0.1138  0.0125 -0.1553
 4795TIP3    H114391   2.697   1.143   2.757 -0.4601 -0.0266 -0.1878
 4795TIP3    H214392   2.747   1.189   2.893 -0.2533 -0.3803 -0.1447
 4796TIP3   OH214393   0.921   2.440   2.245  0.4406  0.0435  0.4886
 4796TIP3    H114394   0.966   2.462   2.327 -0.7250  2.5899  0.5389
 4796TIP3    H214395   0.831   2.470   2.259  0.3488  1.0696 -1.9126
 4797TIP3   OH214396   0.973   5.401   1.747  0.1820 -0.2038 -0.6802
 4797TIP3    H114397   0.883   5.400   1.715 -0.1552  0.3896  0.2340
 4797TIP3    H214398   0.998   5.493   1.744  1.3573 -0.5220 -2.5164
 4798TIP3   OH214399   2.629   3.153   0.450  0.0735 -0.3777  0.4441
 4798TIP3    H114400   2.666   3.200   0.525 -0.9832 -1.3572  1.6263
 4798TIP3    H214401   2.681   3.184   0.375 -1.9116  4.3715  0.6748
 4799TIP3   OH214402   0.763   5.058   3.799  0.1799 -0.5014  0.2199
 4799TIP3    H114403   0.816   5.010   3.735  1.5764  1.5555 -0.2784
 4799TIP3    H214404   0.782   5.015   3.882  0.5093 -1.4936 -0.3535
 4800TIP3   OH214405   2.513   4.463   0.695  0.1129 -0.3270  0.3511
 4800TIP3    H114406   2.517   4.423   0.609 -0.6420  0.0790  0.1230
 4800TIP3    H214407   2.598   4.442   0.735  0.2389 -1.0168 -0.2562
 4801TIP3   OH214408   4.732   1.674   1.343 -0.1849  0.5881 -0.2005
 4801TIP3    H114409   4.815   1.668   1.390  0.5878  1.5815 -1.3741
 4801TIP3    H214410   4.746   1.743   1.278 -2.2855  1.5228  0.2710
 4802TIP3   OH214411   4.314   4.912   1.090  0.6723  0.0346  0.1702
 4802TIP3    H114412   4.376   4.934   1.159 -0.1880 -0.9080  1.2864
 4802TIP3    H214413   4.305   4.817   1.095 -0.6556  0.1257 -0.1331
 4803TIP3   OH214414   2.129   4.107   4.936 -0.5391 -0.7303  0.2587
 4803TIP3    H114415   2.171   4.021   4.936 -1.3872 -1.1561  0.3174
 4803TIP3    H214416   2.175   4.156   5.004  0.7647 -0.7108 -0.6045
 4804TIP3   OH214417   0.990   0.907   5.069  0.2445  0.7129 -0.0821
 4804TIP3    H114418   1.073   0.954   5.075  0.2940  0.5864  0.2541
 4804TIP3    H214419   0.954   0.910   5.158  0.6173 -0.5414  0.1344
 4805TIP3   OH214420   0.803   3.898   1.528 -0.4785  0.0908  0.4379
 4805TIP3    H114421   0.742   3.874   1.459  0.2451 -0.3908 -0.0552
 4805TIP3    H214422   0.823   3.815   1.571  0.4340  0.1138  0.0761
 4806TIP3   OH214423   3.468   2.762   5.095  0.4249 -0.3127  0.2574
 4806TIP3    H114424   3.463   2.678   5.050 -0.0686  0.2730 -0.8027
 4806TIP3    H214425   3.388   2.808   5.070  1.3656  1.0525 -0.3589
 4807TIP3   OH214426   5.071   4.130   3.416  0.4459 -0.3273  0.3011
 4807TIP3    H114427   5.038   4.146   3.504  0.8985  0.0234  0.4133
 4807TIP3    H214428   5.054   4.038   3.400  0.7362 -0.4962  0.9219
 4808TIP3   OH214429   5.363   2.132   1.950 -0.5552  0.0097 -0.3315
 4808TIP3    H114430   5.388   2.221   1.974 -1.1334 -0.1192  0.8241
 4808TIP3    H214431   5.272   2.124   1.981 -0.1889 -1.2956  0.4731
 4809TIP3   OH214432   4.040   4.364   3.351 -0.1473 -0.1874 -0.1733
 4809TIP3    H114433   3.950   4.338   3.368  0.6835 -1.7978  2.3000
 4809TIP3    H214434   4.093   4.290   3.382  2.0313  0.2098 -2.5983
 4810TIP3   OH214435   0.328   1.682   2.222 -0.6794 -0.3347 -0.1990
 4810TIP3    H114436   0.349   1.775   2.234 -1.2922  0.2483 -2.8849
 4810TIP3    H214437   0.413   1.638   2.221 -0.0321  0.8058 -2.6788
 4811TIP3   OH214438   5.163   5.275   2.638  0.1347  0.1662  0.1352
 4811TIP3    H114439   5.195   5.335   2.705  0.4066 -0.8106  0.8984
 4811TIP3    H214440   5.184   5.188   2.672  0.9323 -0.3324 -1.5575
 4812TIP3   OH214441   1.594   3.746  -0.000 -0.2575 -0.2348  0.0208
 4812TIP3    H114442   1.689   3.745   0.001 -0.1421  0.9150 -2.2700
 4812TIP3    H214443   1.568   3.731   0.091  2.1416  1.4457  1.0783
 4813TIP3   OH214444   2.012   5.411   2.480  0.1088 -0.4143 -0.3572
 4813TIP3    H114445   2.026   5.335   2.537  1.7744  0.2922  0.2388
 4813TIP3    H214446   1.918   5.427   2.485 -0.1708 -1.9544  0.1214
 4814TIP3   OH214447   3.127   5.851   1.609  0.3332 -0.1320 -0.2126
 4814TIP3    H114448   3.132   5.908   1.532 -0.3384  0.9401  0.5201
 4814TIP3    H214449   3.111   5.910   1.682 -0.9825 -1.2967  0.4999
 4815TIP3   OH214450   0.897   3.660   0.508  0.2948 -0.4843  0.2660
 4815TIP3    H114451   0.907   3.726   0.577  0.2610  0.6661 -0.7872
 4815TIP3    H214452   0.820   3.610   0.534 -0.3601  0.6165  0.5406
 4816TIP3   OH214453   3.883   0.129   5.204  0.2971  0.6382 -0.1581
 4816TIP3    H114454   3.929   0.084   5.133  1.2624  0.4687  0.5511
 4816TIP3    H214455   3.800   0.155   5.166  0.2129 -0.6940 -0.9396
 4817TIP3   OH214456   3.922   2.641   4.884  0.4585 -0.0836  0.4265
 4817TIP3    H114457   3.919   2.548   4.861  1.3129 -0.2675  1.0175
 4817TIP3    H214458   3.861   2.650   4.957  1.4022 -0.4679  1.2844
 4818TIP3   OH214459   1.555   4.473   3.144 -0.0667  0.9567  0.3360
 4818TIP3    H114460   1.496   4.427   3.084  0.3490  1.4909 -0.5143
 4818TIP3    H214461   1.618   4.407   3.172  0.6298  1.0092 -1.0101
 4819TIP3   OH214462   6.212   5.902   0.112 -0.4717 -0.2328 -0.4644
 4819TIP3    H114463   6.284   5.839   0.111 -0.2969 -0.0298 -0.9600
 4819TIP3    H214464   6.251   5.983   0.080 -0.2315  0.6481  1.8777
 4820TIP3   OH214465   0.932   0.954   0.930  0.2603  0.7079  0.2344
 4820TIP3    H114466   0.867   0.885   0.946 -1.0609  2.2355  1.9237
 4820TIP3    H214467   0.881   1.026   0.893  1.1704  1.6061  0.6887
 4821TIP3   OH214468   3.309   2.388   3.380  0.0023 -0.1496  0.0260
 4821TIP3    H114469   3.241   2.455   3.389  0.1865 -0.1928  2.3124
 4821TIP3    H214470   3.301   2.358   3.289 -1.7537  1.1719 -0.3168
 4822TIP3   OH214471   1.941   5.834   3.283  0.2113 -0.3394  0.1476
 4822TIP3    H114472   2.015   5.811   3.340 -0.4604 -0.9175  0.7948
 4822TIP3    H214473   1.863   5.816   3.335 -0.3928  1.3281 -0.1135
 4823TIP3   OH214474   5.750   2.602   1.246 -0.0070 -0.1914 -0.2054
 4823TIP3    H114475   5.822   2.590   1.184 -1.2109  0.2054 -1.7420
 4823TIP3    H214476   5.707   2.517   1.251 -0.1997 -0.0978 -0.2711
 4824TIP3   OH214477   0.251   5.715   0.509  0.2732  0.2777 -0.2660
 4824TIP3    H114478   0.346   5.702   0.505  0.0166 -1.6635 -2.0232
 4824TIP3    H214479   0.215   5.628   0.525 -1.2599  0.7061 -1.1623
 4825TIP3   OH214480   4.359   1.213   5.114  0.3754 -0.0972  0.2035
 4825TIP3    H114481   4.332   1.302   5.139 -2.4852 -0.4116 -1.4294
 4825TIP3    H214482   4.309   1.156   5.173  1.1505 -0.6704  0.3174
 4826TIP3   OH214483   1.633   2.330   4.131  0.8478 -0.2897 -0.4001
 4826TIP3    H114484   1.624   2.425   4.132  0.1784 -0.3444  0.7677
 4826TIP3    H214485   1.610   2.304   4.042  2.5938  0.7599 -1.2035
 4827TIP3   OH214486   5.625   2.406   2.942 -0.0587  0.1430 -0.4306
 4827TIP3    H114487   5.651   2.465   3.013 -1.8079 -1.0715  1.3452
 4827TIP3    H214488   5.702   2.350   2.930 -0.0361 -0.2750  1.2827
 4828TIP3   OH214489   4.026   0.818   4.062  0.8805 -0.4857  0.3287
 4828TIP3    H114490   3.947   0.866   4.036  0.9985 -0.5544 -0.1798
 4828TIP3    H214491   4.038   0.753   3.992  0.7270 -1.2567  1.0083
 4829TIP3   OH214492   4.979   2.086   0.037  0.3865  1.1100 -0.2659
 4829TIP3    H114493   4.973   2.180   0.053  1.9655  0.9010  2.0766
 4829TIP3    H214494   4.902   2.049   0.081  1.2772  1.1123  1.3709
 4830TIP3   OH214495   5.860   0.674   3.672  0.3806  0.1295  0.1464
 4830TIP3    H114496   5.812   0.677   3.754  2.1007 -1.1491  1.2744
 4830TIP3    H214497   5.795   0.695   3.605 -1.1507  0.8417  1.7803
 4831TIP3   OH214498   3.719   1.895   3.428  0.3782 -0.4302  0.7165
 4831TIP3    H114499   3.691   1.825   3.368  0.0072 -0.8102  1.3173
 4831TIP3    H214500   3.665   1.970   3.403  0.4787 -0.4799  0.3403
 4832TIP3   OH214501   2.259   0.558   2.691  0.2456  0.2893 -0.4823
 4832TIP3    H114502   2.280   0.651   2.680  2.3375 -0.1098 -0.3463
 4832TIP3    H214503   2.174   0.547   2.648 -0.0895  2.2754 -0.4051
 4833TIP3   OH214504   0.705   4.825   4.530  0.1316 -0.2499 -0.8136
 4833TIP3    H114505   0.637   4.893   4.531  1.6374  1.3885 -2.1853
 4833TIP3    H214506   0.764   4.849   4.601 -0.0601 -0.9580 -0.4075
 4834TIP3   OH214507   3.409   1.897   1.884  0.1908 -0.4305  0.3568
 4834TIP3    H114508   3.477   1.913   1.950  0.4525  1.2995 -0.2928
 4834TIP3    H214509   3.334   1.948   1.914 -0.9750 -2.4868  1.1811
 4835TIP3   OH214510   6.202   2.312   0.929  0.2530 -0.1549  0.3660
 4835TIP3    H114511   6.209   2.381   0.995 -0.3434  0.8362 -0.5766
 4835TIP3    H214512   6.269   2.334   0.864  1.3729 -1.5626  0.9948
 4836TIP3   OH214513   3.370   0.409   4.767 -0.2394 -0.3920 -0.1574
 4836TIP3    H114514   3.322   0.365   4.838  0.1260 -0.2064  0.2089
 4836TIP3    H214515   3.398   0.337   4.710 -1.7554 -0.4321 -0.8920
 4837TIP3   OH214516   5.983   4.415   0.384  0.7068  0.2173  0.0568
 4837TIP3    H114517   6.062   4.401   0.437  1.2384 -1.5547 -1.1025
 4837TIP3    H214518   6.013   4.464   0.308  0.7341 -0.5511 -0.4384
 4838TIP3   OH214519   5.295   5.443   0.640  0.3950 -0.0260 -0.0040
 4838TIP3    H114520   5.342   5.421   0.721 -0.2276 -1.1474  0.0704
 4838TIP3    H214521   5.266   5.358   0.606  0.7487  0.4268 -1.4686
 4839TIP3   OH214522   5.110   5.293   0.959  0.0736  0.4310 -0.0845
 4839TIP3    H114523   5.043   5.268   1.023 -0.0772 -0.0170 -0.4094
 4839TIP3    H214524   5.193   5.266   0.998  0.0779  1.0942  0.3714
 4840TIP3   OH214525   4.425   3.484   0.500 -0.2562  0.0347 -0.1301
 4840TIP3    H114526   4.433   3.572   0.463 -0.0691  0.0500 -0.0505
 4840TIP3    H214527   4.335   3.481   0.532 -0.0603  0.4357  0.4755
 4841TIP3   OH214528   4.813   4.130   0.124 -0.3439 -0.6613  0.0387
 4841TIP3    H114529   4.739   4.071   0.131 -0.4506 -0.4338  0.8814
 4841TIP3    H214530   4.886   4.074   0.096 -0.8078 -0.8904 -0.7454
 4842TIP3   OH214531   4.113   0.897   1.583 -0.0826  0.3880 -0.4265
 4842TIP3    H114532   4.176   0.900   1.511 -0.6218 -0.0965 -0.9275
 4842TIP3    H214533   4.052   0.968   1.564  1.3748  2.1809  1.1037
 4843TIP3   OH214534   4.145   1.770   1.789 -0.1235 -0.2590 -0.3294
 4843TIP3    H114535   4.193   1.853   1.784 -1.1213  0.2433 -2.2448
 4843TIP3    H214536   4.053   1.795   1.794 -0.4487 -1.2491 -1.1044
 4844TIP3   OH214537   1.455   1.583   0.595 -0.2635  0.4229  0.5032
 4844TIP3    H114538   1.519   1.597   0.665 -0.0791 -0.5493  0.5465
 4844TIP3    H214539   1.480   1.499   0.556 -0.9167  0.5132 -0.1326
 4845TIP3   OH214540   1.340   5.121   3.890  0.4616 -0.1715 -0.0453
 4845TIP3    H114541   1.407   5.174   3.933 -0.1292 -0.0427  0.7400
 4845TIP3    H214542   1.388   5.048   3.850  1.1404  0.2992 -0.1049
 4846TIP3   OH214543   6.064   1.677   1.438  0.0588  0.5937  0.7195
 4846TIP3    H114544   6.030   1.684   1.527  2.0209  2.7437  1.4110
 4846TIP3    H214545   6.099   1.764   1.419  2.0188 -0.4940 -1.1460
 4847TIP3   OH214546   2.709   0.138   3.578 -0.2626 -0.6624 -0.0096
 4847TIP3    H114547   2.678   0.208   3.635  2.4928  0.2076  0.5756
 4847TIP3    H214548   2.737   0.182   3.498  2.9562 -0.7214  0.9490
 4848TIP3   OH214549   4.186   1.282   3.256 -0.4114 -0.0341  0.3661
 4848TIP3    H114550   4.253   1.350   3.253 -1.3294  0.9606  1.2565
 4848TIP3    H214551   4.233   1.200   3.240  0.7402  0.7933 -0.6167
 4849TIP3   OH214552   5.612   3.438   2.153 -0.2686 -0.2042 -0.1619
 4849TIP3    H114553   5.605   3.402   2.064 -0.2422 -0.8260  0.0820
 4849TIP3    H214554   5.523   3.431   2.188 -0.4227  0.6505 -0.3641
 4850TIP3   OH214555   4.918   3.142   0.870 -0.2143 -0.5062 -0.8509
 4850TIP3    H114556   4.852   3.188   0.922 -0.0969 -2.0557  0.7645
 4850TIP3    H214557   4.993   3.133   0.929  0.9910  0.1119 -2.2369
 4851TIP3   OH214558   5.836   1.604   3.508  0.0808 -0.3359  0.8551
 4851TIP3    H114559   5.820   1.521   3.462 -0.2724  0.8823 -1.3534
 4851TIP3    H214560   5.908   1.644   3.460 -1.7571  2.0171 -0.0925
 4852TIP3   OH214561   5.987   4.115   1.676 -0.5498 -0.5326  0.1070
 4852TIP3    H114562   6.024   4.170   1.745 -0.7308 -0.4488  0.1383
 4852TIP3    H214563   5.973   4.030   1.718 -0.4339 -0.5518  0.1071
 4853TIP3   OH214564   3.556   0.892   0.321 -0.0791  0.3948  0.8959
 4853TIP3    H114565   3.509   0.820   0.278 -1.9142  2.3858 -0.5929
 4853TIP3    H214566   3.643   0.856   0.338 -0.6792 -1.9289 -0.4970
 4854TIP3   OH214567   5.857   4.321   1.527 -0.5706 -0.7052  0.6710
 4854TIP3    H114568   5.900   4.251   1.577  1.3558 -0.1445 -0.0910
 4854TIP3    H214569   5.895   4.402   1.562 -0.4104 -0.2276 -0.5592
 4855TIP3   OH214570   0.516   3.071   1.394  0.0533 -0.3106  0.3585
 4855TIP3    H114571   0.575   3.098   1.324  1.7089 -0.4783  1.6294
 4855TIP3    H214572   0.445   3.134   1.391  1.2160  1.0202 -0.0655
 4856TIP3   OH214573   4.928   4.239   3.882  0.2976 -0.9048  0.3821
 4856TIP3    H114574   4.836   4.237   3.906  0.4095 -1.6761  0.7774
 4856TIP3    H214575   4.972   4.281   3.956  0.2294 -0.2206  0.0439
 4857TIP3   OH214576   1.680   3.522   0.236  0.2829 -0.2105  0.6427
 4857TIP3    H114577   1.739   3.494   0.306 -0.3044 -0.5177  1.0197
 4857TIP3    H214578   1.652   3.441   0.195 -1.4878 -0.2289  1.7854
 4858TIP3   OH214579   4.776   5.157   2.762  0.2743 -0.3752  0.1565
 4858TIP3    H114580   4.833   5.121   2.694 -0.7405 -1.4391 -0.1675
 4858TIP3    H214581   4.698   5.187   2.715 -0.3534 -0.9259  0.8263
 4859TIP3   OH214582   1.131   0.963   4.240 -0.0918 -0.3054 -0.3767
 4859TIP3    H114583   1.204   0.908   4.269  0.7148  1.5120  1.3097
 4859TIP3    H214584   1.081   0.981   4.319 -0.0547  1.7124 -0.7474
 4860TIP3   OH214585   4.440   6.016   0.974  0.2033  0.3321  0.3053
 4860TIP3    H114586   4.356   5.987   1.009 -0.2527  0.0731 -0.9717
 4860TIP3    H214587   4.502   5.948   1.002 -0.4270 -0.6541 -0.6538
 4861TIP3   OH214588   4.091   5.650   2.242  0.0057  0.3087  0.1231
 4861TIP3    H114589   4.107   5.582   2.176 -1.5877 -1.0240  1.0268
 4861TIP3    H214590   4.176   5.663   2.284  0.1178 -2.1265  0.8073
 4862TIP3   OH214591   3.367   0.203   4.592 -0.3346  0.6595  0.3518
 4862TIP3    H114592   3.377   0.121   4.641 -0.4296 -0.8785 -2.0266
 4862TIP3    H214593   3.274   0.224   4.598 -0.0418  1.6157  2.4003
 4863TIP3   OH214594   0.854   5.881   1.922 -0.1437  0.3883  0.6044
 4863TIP3    H114595   0.772   5.832   1.917  0.0015  0.0831  1.1394
 4863TIP3    H214596   0.864   5.901   2.015 -0.4978  1.9567  0.3313
 4864TIP3   OH214597   0.760   0.601   3.235  0.2230 -0.5841  0.1817
 4864TIP3    H114598   0.855   0.603   3.219  0.5282 -0.0605  1.8896
 4864TIP3    H214599   0.724   0.665   3.174  1.2477  0.8619  1.0405
 4865TIP3   OH214600   4.644   2.890   1.926  0.0535  0.2275  0.1941
 4865TIP3    H114601   4.667   2.918   2.015 -0.7628 -2.0429  1.1945
 4865TIP3    H214602   4.623   2.797   1.935  1.0687 -0.3704 -2.6015
 4866TIP3   OH214603   5.103   0.621   1.571  0.4566 -0.1550 -0.1846
 4866TIP3    H114604   5.090   0.672   1.652  2.2997  1.1796 -0.6715
 4866TIP3    H214605   5.019   0.577   1.558 -0.4529  0.9213  1.5496
 4867TIP3   OH214606   1.053   2.976   3.027  0.1770  0.5178 -0.4975
 4867TIP3    H114607   1.073   2.927   2.947 -0.7211 -0.2810 -0.2528
 4867TIP3    H214608   1.111   3.052   3.023  1.5421 -0.4936 -0.9561
 4868TIP3   OH214609   3.883   4.531   0.857 -0.1779  0.0680  0.3883
 4868TIP3    H114610   3.852   4.449   0.895 -1.4742  0.7331  0.7976
 4868TIP3    H214611   3.816   4.555   0.794  0.6425  0.3670 -0.3899
 4869TIP3   OH214612   2.096   4.001   2.856 -0.0506  0.0930 -0.4913
 4869TIP3    H114613   2.026   3.943   2.883 -0.3984  0.4902 -0.5352
 4869TIP3    H214614   2.069   4.034   2.770  0.4835 -0.2353 -0.7976
 4870TIP3   OH214615   0.924   2.174   2.457 -0.2445  0.9892 -0.3252
 4870TIP3    H114616   0.904   2.137   2.543 -1.9479  0.0020 -1.0845
 4870TIP3    H214617   0.957   2.262   2.475 -1.2121  1.0588  1.3068
 4871TIP3   OH214618   2.232   3.500   4.127 -0.3975  0.7491 -1.1221
 4871TIP3    H114619   2.282   3.574   4.161  0.6947 -0.4577  0.0193
 4871TIP3    H214620   2.148   3.504   4.173  0.1788  0.5132 -0.0121
 4872TIP3   OH214621   4.454   3.539   1.947 -0.3570 -0.7472 -0.2698
 4872TIP3    H114622   4.366   3.552   1.912 -0.9123  0.7010  1.4758
 4872TIP3    H214623   4.486   3.628   1.963 -0.0125 -1.2672  2.4182
 4873TIP3   OH214624   0.750   0.102   3.784 -0.6151  0.6466 -0.1599
 4873TIP3    H114625   0.679   0.128   3.725 -1.5670 -0.9401  0.2015
 4873TIP3    H214626   0.819   0.071   3.726 -0.6583  1.1705 -0.4931
 4874TIP3   OH214627   1.103   0.460   3.251  0.0227 -0.4869  0.7137
 4874TIP3    H114628   1.080   0.392   3.188  1.7988  1.0940 -1.8300
 4874TIP3    H214629   1.140   0.412   3.326 -1.4200 -2.3840  0.2990
 4875TIP3   OH214630   6.328   4.399   1.769 -0.4651 -0.4800  0.1224
 4875TIP3    H114631   6.291   4.323   1.815  1.3224 -1.2374  0.3679
 4875TIP3    H214632   6.419   4.403   1.798 -1.2054  3.7593  2.7764
 4876TIP3   OH214633   2.893   2.119   1.438  0.3385 -0.2859  0.1206
 4876TIP3    H114634   2.865   2.136   1.348  1.4994 -1.3266 -0.4605
 4876TIP3    H214635   2.813   2.089   1.481 -0.4231  1.0166 -0.3162
 4877TIP3   OH214636   1.012   2.872   5.196 -0.0995 -0.4052  0.3054
 4877TIP3    H114637   1.062   2.830   5.126 -1.7752 -0.9710 -0.6359
 4877TIP3    H214638   0.969   2.799   5.241 -1.7320  0.1510 -0.2887
 4878TIP3   OH214639   0.763   0.536   3.503 -0.1255  0.1578  0.3015
 4878TIP3    H114640   0.763   0.552   3.409 -1.9149 -0.3488  0.1868
 4878TIP3    H214641   0.832   0.593   3.537  0.4242  0.4856 -1.2740
 4879TIP3   OH214642   4.133   4.395   0.809 -0.1554  0.0893 -0.6580
 4879TIP3    H114643   4.043   4.410   0.838  0.6037  0.9885  1.4016
 4879TIP3    H214644   4.172   4.343   0.879  1.9655  2.9169  0.4165
 4880TIP3   OH214645   4.145   5.436   4.832 -0.0043  0.1784  0.4635
 4880TIP3    H114646   4.147   5.438   4.736  0.2345  0.3532  0.4704
 4880TIP3    H214647   4.172   5.524   4.859  2.4478 -0.5667  0.6985
 4881TIP3   OH214648   3.184   2.887   0.741 -0.2550  0.3461  0.5334
 4881TIP3    H114649   3.135   2.811   0.774  1.0398 -0.3425  0.9244
 4881TIP3    H214650   3.134   2.963   0.772 -2.4884 -0.2875 -1.2170
 4882TIP3   OH214651   5.585   1.192   1.944 -0.5706 -0.6377 -0.3956
 4882TIP3    H114652   5.565   1.228   1.857  0.7734  0.5355 -0.2584
 4882TIP3    H214653   5.595   1.098   1.930 -0.1953 -0.4376 -1.5449
 4883TIP3   OH214654   3.264   2.989   3.775  0.9874  0.3853 -0.1576
 4883TIP3    H114655   3.339   3.004   3.717 -0.3415  0.9718 -1.7947
 4883TIP3    H214656   3.283   2.905   3.816  2.8055  0.7825 -0.0961
 4884TIP3   OH214657   4.745   2.152   2.154  0.0070 -0.0290 -0.1120
 4884TIP3    H114658   4.691   2.181   2.228  0.1019 -0.5085  0.1472
 4884TIP3    H214659   4.834   2.157   2.187  0.2891  2.3759 -1.0699
 4885TIP3   OH214660   2.918   2.962   3.496 -0.5620  0.3103  0.5164
 4885TIP3    H114661   2.911   2.953   3.591  0.9439  0.0930  0.6434
 4885TIP3    H214662   2.955   3.050   3.483  1.5711 -0.5617  0.3101
 4886TIP3   OH214663   0.209   2.785   3.870 -0.1866  0.1478  0.7637
 4886TIP3    H114664   0.298   2.812   3.849 -0.3514  0.2768  0.2291
 4886TIP3    H214665   0.218   2.736   3.952  0.8420 -2.5200 -0.8096
 4887TIP3   OH214666   5.865   0.987   2.160 -0.0793 -0.0648  0.1709
 4887TIP3    H114667   5.931   0.956   2.098  0.6771  0.1638  0.8337
 4887TIP3    H214668   5.802   0.915   2.166 -0.1761 -0.0799 -0.8598
 4888TIP3   OH214669   2.403   4.633   1.765 -0.0198 -0.9340  0.5244
 4888TIP3    H114670   2.484   4.640   1.815  0.0086  0.3225  0.3449
 4888TIP3    H214671   2.391   4.539   1.750  1.6421 -1.1098  0.1636
 4889TIP3   OH214672   0.347   2.894   4.464 -0.4145 -0.1319  0.2146
 4889TIP3    H114673   0.348   2.833   4.538  3.7556  0.2619  0.7138
 4889TIP3    H214674   0.362   2.839   4.387 -2.6709 -0.2874 -0.1929
 4890TIP3   OH214675   0.937   5.368   3.421  0.6348  0.3902 -0.4078
 4890TIP3    H114676   0.993   5.435   3.382  0.6103  0.8924  0.4080
 4890TIP3    H214677   0.880   5.416   3.481  2.0314 -0.5863  1.8136
 4891TIP3   OH214678   5.030   0.179   0.629  0.1269  0.3363 -1.0251
 4891TIP3    H114679   5.015   0.119   0.701 -1.1249  0.9015 -0.7986
 4891TIP3    H214680   5.116   0.155   0.595  0.0512 -0.9491 -0.3394
 4892TIP3   OH214681   0.165   2.677   4.111  0.0174  0.8688 -0.1667
 4892TIP3    H114682   0.084   2.727   4.114 -0.6301 -0.1832  0.5285
 4892TIP3    H214683   0.147   2.606   4.050  0.8777  1.3700 -1.0306
 4893TIP3   OH214684   6.241   2.551   4.335  0.4041  0.7903 -0.3316
 4893TIP3    H114685   6.228   2.643   4.359 -3.0247  0.1012  1.1387
 4893TIP3    H214686   6.211   2.546   4.244 -0.7843  0.9509  0.0284
 4894TIP3   OH214687   2.428   2.409   3.602  0.3300 -0.0041  0.6085
 4894TIP3    H114688   2.489   2.436   3.671 -0.3643 -0.7338  1.5306
 4894TIP3    H214689   2.450   2.317   3.585  0.5023  0.1708 -0.1603
 4895TIP3   OH214690   1.232   2.715   4.232  0.5063  0.2291 -0.5547
 4895TIP3    H114691   1.247   2.673   4.147  0.2718  1.1570 -1.0729
 4895TIP3    H214692   1.298   2.678   4.290  1.4101  0.4172 -1.4457
 4896TIP3   OH214693   4.019   3.714   1.761  0.0207  0.6830  0.4872
 4896TIP3    H114694   3.942   3.682   1.808  0.9974  0.6626  2.1910
 4896TIP3    H214695   4.053   3.785   1.816  1.1409  0.7636 -0.2723
 4897TIP3   OH214696   1.277   0.793   2.861 -0.0751  0.2101  1.1420
 4897TIP3    H114697   1.255   0.818   2.771 -0.4141 -0.0351  1.1581
 4897TIP3    H214698   1.373   0.792   2.862 -0.0588 -0.9776  0.4406
 4898TIP3   OH214699   3.500   3.568   1.575  0.7065  0.6132  0.3216
 4898TIP3    H114700   3.433   3.507   1.604  1.1308  0.7755  1.6920
 4898TIP3    H214701   3.494   3.565   1.479 -0.8322  0.1794  0.3954
 4899TIP3   OH214702   5.136   5.457   4.278  0.0875 -0.4322 -0.0347
 4899TIP3    H114703   5.157   5.485   4.189 -0.4742 -2.1782 -0.7417
 4899TIP3    H214704   5.044   5.483   4.290  0.0634 -0.4935 -0.0861
 4900TIP3   OH214705   4.614   2.141   3.692 -0.3851 -0.3844  0.5424
 4900TIP3    H114706   4.569   2.056   3.695 -0.9034 -0.1328  0.0951
 4900TIP3    H214707   4.706   2.120   3.712 -0.9122 -0.7235  2.9218
 4901TIP3   OH214708   2.654   4.856   2.724 -0.0548 -0.9159  0.0063
 4901TIP3    H114709   2.684   4.941   2.693  2.2061 -1.6845 -0.0771
 4901TIP3    H214710   2.609   4.875   2.807  0.3103  0.3520 -0.0730
 4902TIP3   OH214711   2.352   1.149   1.121 -0.1667 -0.1469  0.1777
 4902TIP3    H114712   2.300   1.092   1.065 -0.9447 -0.1638  0.8847
 4902TIP3    H214713   2.348   1.235   1.080  0.0697 -0.3604 -0.2943
 4903TIP3   OH214714   6.107   5.361   1.205  0.1724 -0.0193  0.6066
 4903TIP3    H114715   6.094   5.315   1.288 -0.1357  0.9354  1.1045
 4903TIP3    H214716   6.162   5.302   1.153  0.8698 -0.3704  1.7061
 4904TIP3   OH214717   1.627   1.848   4.924  0.1841 -0.1473  0.5230
 4904TIP3    H114718   1.614   1.929   4.972  1.1653 -0.4017  1.2641
 4904TIP3    H214719   1.712   1.816   4.954  0.4501 -0.7460 -0.7741
 4905TIP3   OH214720   3.598   5.191   2.719  0.5077 -0.1284 -0.1504
 4905TIP3    H114721   3.576   5.244   2.642  0.4864  0.7679  0.4574
 4905TIP3    H214722   3.546   5.229   2.790  1.8204  0.1911  0.6826
 4906TIP3   OH214723   5.576   3.409   4.848  0.4854 -0.0716  0.0356
 4906TIP3    H114724   5.514   3.481   4.857  0.6919  0.0384  0.6221
 4906TIP3    H214725   5.544   3.359   4.773  0.3957  0.6814 -0.4320
 4907TIP3   OH214726   6.231   5.684   3.867 -0.3135  0.5148  0.5010
 4907TIP3    H114727   6.176   5.625   3.815  0.6109  0.3053 -0.2581
 4907TIP3    H214728   6.220   5.654   3.957 -0.0132 -0.6973  0.1480
 4908TIP3   OH214729   6.109   2.914   4.799  0.4280  0.9325 -0.5995
 4908TIP3    H114730   6.031   2.970   4.797  0.0690  0.4505 -2.6777
 4908TIP3    H214731   6.157   2.942   4.876 -1.9606  1.0445  0.9478
 4909TIP3   OH214732   5.236   0.506   0.060 -0.2825 -0.4456  0.0792
 4909TIP3    H114733   5.152   0.549   0.045 -0.9621 -1.4417  0.8479
 4909TIP3    H214734   5.232   0.479   0.152  0.3020 -1.7444 -0.2648
 4910TIP3   OH214735   5.051   4.554   3.553 -0.2591 -0.4771  0.3503
 4910TIP3    H114736   4.978   4.566   3.492  0.2776  1.7386  0.0714
 4910TIP3    H214737   5.011   4.558   3.640 -0.5015  0.5740  0.1961
 4911TIP3   OH214738   4.221   5.219   4.123  0.2363 -0.1611  0.1632
 4911TIP3    H114739   4.149   5.217   4.060  0.6632 -0.3089 -0.3218
 4911TIP3    H214740   4.280   5.287   4.091  0.5697 -0.3930  0.2775
 4912TIP3   OH214741   2.205   1.471   2.962 -0.0924 -0.4966 -0.1205
 4912TIP3    H114742   2.226   1.378   2.973 -0.1304 -0.3310  1.5415
 4912TIP3    H214743   2.131   1.486   3.020 -0.0533  0.5954 -0.3402
 4913TIP3   OH214744   3.259   4.857   3.329 -0.9349  0.4286  0.5679
 4913TIP3    H114745   3.239   4.873   3.237 -0.7198  0.1643  0.4752
 4913TIP3    H214746   3.174   4.840   3.370 -0.7476 -3.6642 -0.3797
 4914TIP3   OH214747   3.307   5.109   2.226 -0.0035 -0.0441  0.2451
 4914TIP3    H114748   3.285   5.201   2.210  0.2514  0.2851  1.6636
 4914TIP3    H214749   3.380   5.112   2.287  0.4560 -1.2013 -0.2201
 4915TIP3   OH214750   5.787   1.093   1.650  0.2366  0.0483  0.1875
 4915TIP3    H114751   5.695   1.117   1.657 -0.1955 -1.6691  1.0116
 4915TIP3    H214752   5.825   1.157   1.590 -1.4981  0.7469 -0.2047
 4916TIP3   OH214753   1.345   3.812   2.680  0.0733 -0.6646  0.1630
 4916TIP3    H114754   1.270   3.859   2.644 -0.3666 -1.8316 -0.5249
 4916TIP3    H214755   1.414   3.878   2.689 -0.7641  0.2479 -0.0145
 4917TIP3   OH214756   0.532   5.976   4.759  0.5922 -0.3077 -0.1819
 4917TIP3    H114757   0.533   5.885   4.790  0.7085  0.1576  1.2613
 4917TIP3    H214758   0.449   6.011   4.791  1.2936  0.5607  0.7634
 4918TIP3   OH214759   1.492   0.567   4.105  0.4452 -0.2642  0.3097
 4918TIP3    H114760   1.529   0.646   4.067  1.1361 -0.5904  0.2928
 4918TIP3    H214761   1.529   0.495   4.054 -0.4154 -0.5935  0.1201
 4919TIP3   OH214762   6.137   5.573   2.130  0.1830  0.0904 -0.3493
 4919TIP3    H114763   6.180   5.636   2.188  0.8857 -0.1571 -0.5884
 4919TIP3    H214764   6.171   5.488   2.158 -1.2064 -0.2630  0.3632
 4920TIP3   OH214765   1.127   3.878   2.001  0.2705 -0.1481 -0.0100
 4920TIP3    H114766   1.141   3.904   1.910  1.0188  1.6613  0.5914
 4920TIP3    H214767   1.035   3.899   2.018  1.0187  2.9584  0.6635
 4921TIP3   OH214768   2.307   0.087   3.870  0.1625 -0.7158  0.3187
 4921TIP3    H114769   2.270   0.001   3.892  0.0802 -0.8931 -0.4634
 4921TIP3    H214770   2.235   0.132   3.825 -0.0584  0.0735  1.4358
 4922TIP3   OH214771   2.285   4.943   0.289 -0.4501 -0.0939  0.2175
 4922TIP3    H114772   2.196   4.978   0.284  0.2548  1.9438  0.9976
 4922TIP3    H214773   2.319   4.952   0.200 -1.1901 -1.4729 -0.2377
 4923TIP3   OH214774   5.582   4.368   2.332  0.5123  0.3052  0.3472
 4923TIP3    H114775   5.606   4.279   2.359 -1.2045 -0.6258 -0.9940
 4923TIP3    H214776   5.666   4.413   2.321  1.4289 -1.1671  0.9698
 4924TIP3   OH214777   3.457   1.032   2.786  0.0441 -0.0101  0.2858
 4924TIP3    H114778   3.416   1.118   2.788  0.0170 -0.0271  1.9419
 4924TIP3    H214779   3.551   1.050   2.785  0.0450  0.0568  0.9875
 4925TIP3   OH214780   4.018   4.722   4.641 -0.7854  0.4504  0.5102
 4925TIP3    H114781   4.011   4.633   4.606 -0.6651  1.0317 -1.0803
 4925TIP3    H214782   3.931   4.760   4.628 -0.8650  0.5451  1.2765
 4926TIP3   OH214783   0.619   3.779   0.599  0.3008  0.1189  0.1689
 4926TIP3    H114784   0.695   3.833   0.622 -0.6281  1.5389  0.0460
 4926TIP3    H214785   0.594   3.808   0.512 -0.8603  0.2557  0.5291
 4927TIP3   OH214786   5.340   2.600   3.445  0.1972 -0.0075 -0.5327
 4927TIP3    H114787   5.362   2.550   3.524  0.9398  0.0515 -0.6957
 4927TIP3    H214788   5.362   2.691   3.467 -1.4089  0.3146 -0.1384
 4928TIP3   OH214789   6.024   1.415   0.259 -0.8007 -0.0268  0.2905
 4928TIP3    H114790   5.970   1.493   0.257 -0.1891  0.3954 -1.4783
 4928TIP3    H214791   5.965   1.344   0.234 -1.0436  0.0682  0.5864
 4929TIP3   OH214792   4.345   5.015   4.248  0.1872 -0.4310 -0.3426
 4929TIP3    H114793   4.312   4.941   4.197 -1.7405  0.3292 -0.2668
 4929TIP3    H214794   4.280   5.084   4.236  0.1821  0.1397  2.2878
 4930TIP3   OH214795   5.233   3.273   3.111  0.0026  0.1644 -0.6101
 4930TIP3    H114796   5.150   3.321   3.119  0.7082  1.2081  0.9202
 4930TIP3    H214797   5.210   3.183   3.133 -1.0216  0.0851 -1.8553
 4931TIP3   OH214798   2.468   0.789   4.211 -0.1848  0.0486  0.3822
 4931TIP3    H114799   2.544   0.847   4.211 -0.2064  0.0798  0.5695
 4931TIP3    H214800   2.434   0.793   4.122  0.8844 -1.0872 -0.1048
 4932TIP3   OH214801   5.681   0.323   3.538  0.2371 -0.5167 -0.3554
 4932TIP3    H114802   5.763   0.369   3.555  0.9074 -1.5425 -0.6945
 4932TIP3    H214803   5.635   0.378   3.476 -1.1999  2.1218  2.7789
 4933TIP3   OH214804   2.210   1.071   3.761 -0.2037 -0.3638  0.2940
 4933TIP3    H114805   2.173   1.146   3.714 -1.4454 -0.6586  0.7707
 4933TIP3    H214806   2.209   1.000   3.698  0.9229 -0.0259 -0.1410
 4934TIP3   OH214807   2.372   5.539   4.966 -0.3479 -0.3233 -0.2330
 4934TIP3    H114808   2.437   5.522   5.035 -0.7849 -0.6730  0.0960
 4934TIP3    H214809   2.422   5.535   4.885  0.4128  1.2693  0.1185
 4935TIP3   OH214810   4.932   4.795   2.880 -0.2324 -0.3300 -0.3748
 4935TIP3    H114811   4.867   4.837   2.936  1.1980 -0.5040  1.5195
 4935TIP3    H214812   4.953   4.713   2.926 -0.0907 -1.2279 -1.9648
 4936TIP3   OH214813   2.786   1.296   5.091 -0.7780  0.6255 -0.0990
 4936TIP3    H114814   2.727   1.223   5.075  0.6247 -0.2411 -1.6562
 4936TIP3    H214815   2.729   1.373   5.096 -2.3101 -0.5610  1.9267
 4937TIP3   OH214816   5.856   3.845   4.897 -0.0738 -0.1664 -0.0841
 4937TIP3    H114817   5.833   3.752   4.891 -1.3683  0.2211 -2.8192
 4937TIP3    H214818   5.810   3.876   4.975 -0.7267 -1.5571  0.1218
 4938TIP3   OH214819   0.112   0.021   3.831 -0.5105 -0.1167 -0.3124
 4938TIP3    H114820   0.133   0.035   3.923  0.0415  2.4918 -0.7630
 4938TIP3    H214821   0.197   0.012   3.788 -0.7269 -0.4088 -0.6827
 4939TIP3   OH214822   0.250   3.540   0.850 -0.1684  0.3825  0.1669
 4939TIP3    H114823   0.312   3.538   0.778 -0.4111 -0.1871 -0.0338
 4939TIP3    H214824   0.280   3.612   0.906  0.8008 -0.0349  0.1933
 4940TIP3   OH214825   0.487   0.087   2.924 -0.7458  0.5125  0.2797
 4940TIP3    H114826   0.431   0.151   2.880  1.1353  2.0014 -0.0334
 4940TIP3    H214827   0.472   0.005   2.876 -2.6866  0.8247  0.2706
 4941TIP3   OH214828   5.614   5.150   0.395  0.3720  0.3754  0.0433
 4941TIP3    H114829   5.570   5.088   0.337 -0.3470  1.6153 -0.7986
 4941TIP3    H214830   5.612   5.233   0.347 -0.1681  1.4419  1.8036
 4942TIP3   OH214831   1.571   4.416   1.035  0.0756  0.3470  0.1994
 4942TIP3    H114832   1.630   4.426   0.961  0.2188 -0.2304  0.2283
 4942TIP3    H214833   1.617   4.355   1.094 -0.1529  0.5907  0.6362
 4943TIP3   OH214834   2.913   1.000   1.672  1.0138 -0.2756  0.1970
 4943TIP3    H114835   2.896   0.958   1.756  2.7608 -0.2694  0.6028
 4943TIP3    H214836   2.882   0.937   1.607 -1.8104  0.3729  0.7788
 4944TIP3   OH214837   3.703   5.415   0.629 -0.5553 -0.5013  0.2552
 4944TIP3    H114838   3.754   5.493   0.650 -0.4222  0.0162 -1.8298
 4944TIP3    H214839   3.738   5.348   0.688 -0.3370  0.8594  1.7437
 4945TIP3   OH214840   1.388   1.847   4.192 -0.3666 -0.2505  0.5773
 4945TIP3    H114841   1.384   1.898   4.273 -0.2065 -1.8610  1.6531
 4945TIP3    H214842   1.482   1.835   4.176 -0.4080 -0.4505  0.4845
 4946TIP3   OH214843   6.163   2.671   1.830  0.0210  0.4178 -0.4259
 4946TIP3    H114844   6.256   2.677   1.855 -0.7040  0.8506  2.6547
 4946TIP3    H214845   6.156   2.587   1.785  1.5174 -0.9727  1.6976
 4947TIP3   OH214846   4.153   3.854   2.010 -0.4853  0.0838 -0.7678
 4947TIP3    H114847   4.184   3.772   2.050  1.6264  1.6690  1.1228
 4947TIP3    H214848   4.060   3.859   2.034  0.5976  0.9512  4.4861
 4948TIP3   OH214849   6.244   4.098   1.532 -0.4592  0.4843 -0.3353
 4948TIP3    H114850   6.245   4.193   1.523 -0.6423  0.6613  1.1335
 4948TIP3    H214851   6.155   4.078   1.562 -0.5781 -0.2107 -1.1193
 4949TIP3   OH214852   4.918   2.288   3.195 -0.1756 -0.0776  0.0041
 4949TIP3    H114853   4.925   2.244   3.280  1.8197 -0.2520 -0.2096
 4949TIP3    H214854   5.005   2.326   3.181 -0.7101  0.6117 -1.6171
 4950TIP3   OH214855   4.641   2.597   0.293  0.0881 -0.1226  0.0850
 4950TIP3    H114856   4.694   2.643   0.227  0.0097  1.9575  1.3792
 4950TIP3    H214857   4.654   2.648   0.373 -1.1842 -1.5800  1.2677
 4951TIP3   OH214858   1.106   0.211   2.031 -0.2477  0.0399  0.0444
 4951TIP3    H114859   1.030   0.249   2.074 -0.5565 -1.4599  0.8687
 4951TIP3    H214860   1.090   0.226   1.937  0.4795  3.4057  0.3236
 4952TIP3   OH214861   6.276   0.062   0.547  0.1257  0.3905  0.6101
 4952TIP3    H114862   6.226   0.085   0.469  1.1689  0.1219 -0.1676
 4952TIP3    H214863   6.348   0.007   0.514  1.1237  1.0394  1.6152
 4953TIP3   OH214864   2.172   3.093   2.639  0.3334 -0.4093  0.0998
 4953TIP3    H114865   2.127   3.115   2.558  0.6458 -1.1433 -0.2860
 4953TIP3    H214866   2.132   3.010   2.667  1.8738 -1.4446 -0.6186
 4954TIP3   OH214867   0.545   4.917   3.689  0.2500 -0.0172  0.2243
 4954TIP3    H114868   0.489   4.994   3.675  1.0309  0.1526 -2.2938
 4954TIP3    H214869   0.629   4.953   3.718 -0.5013 -0.2273  3.0205
 4955TIP3   OH214870   4.953   0.479   2.365 -0.7935 -0.5691  0.2898
 4955TIP3    H114871   5.044   0.496   2.341 -0.7285 -1.0508  0.1874
 4955TIP3    H214872   4.954   0.391   2.402 -1.4875 -1.2681 -1.2626
 4956TIP3   OH214873   0.663   4.233   4.470  0.3258 -0.2414 -0.6022
 4956TIP3    H114874   0.637   4.321   4.495 -0.7000 -0.5491 -0.5200
 4956TIP3    H214875   0.749   4.221   4.510 -0.0942  0.2554  0.5056
 4957TIP3   OH214876   1.671   0.851   4.343  0.0099 -0.0276  0.3085
 4957TIP3    H114877   1.692   0.907   4.269 -1.4987 -0.4242 -0.4658
 4957TIP3    H214878   1.627   0.909   4.405  0.5101  0.1207  0.5312
 4958TIP3   OH214879   1.589   3.349   3.296  0.0545 -0.1030  0.3749
 4958TIP3    H114880   1.628   3.436   3.288  1.5773 -0.8776 -1.2863
 4958TIP3    H214881   1.596   3.329   3.389  2.6904  0.2631  0.3327
 4959TIP3   OH214882   2.306   5.128   0.742 -0.2922 -0.0790  0.3607
 4959TIP3    H114883   2.333   5.073   0.668 -2.2200 -2.0335  0.9759
 4959TIP3    H214884   2.220   5.161   0.718 -1.6187 -1.9136  2.1823
 4960TIP3   OH214885   5.651   0.494   0.783 -0.1231  0.4709 -0.4620
 4960TIP3    H114886   5.684   0.471   0.697 -0.3384  0.8997 -0.6608
 4960TIP3    H214887   5.727   0.483   0.842 -0.1264 -0.3669 -0.6086
 4961TIP3   OH214888   1.664   1.800   4.180 -0.5905  0.4075  0.1134
 4961TIP3    H114889   1.725   1.821   4.251  0.0788  3.2400 -1.1696
 4961TIP3    H214890   1.709   1.732   4.130 -0.8518 -1.2765  2.0004
 4962TIP3   OH214891   0.889   5.970   4.993  0.1225  0.2709  0.3044
 4962TIP3    H114892   0.899   5.978   5.088  0.0542 -0.7934  0.4082
 4962TIP3    H214893   0.979   5.964   4.960  0.1217 -0.1165  0.3731
 4963TIP3   OH214894   1.015   0.157   4.742  0.2177 -0.4152 -0.8550
 4963TIP3    H114895   1.080   0.095   4.777  0.9261  0.6810 -0.1341
 4963TIP3    H214896   1.054   0.243   4.759 -1.0482  0.2460 -1.2022
 4964TIP3   OH214897   4.230   4.068   4.642 -0.4891  0.1094  0.9159
 4964TIP3    H114898   4.294   4.115   4.695 -0.3651  1.3930 -0.3034
 4964TIP3    H214899   4.249   3.976   4.657  1.5735  0.4523  0.6896
 4965TIP3   OH214900   5.884   1.124   0.325  0.3043  0.1251  0.2526
 4965TIP3    H114901   5.881   1.136   0.230  0.5701 -0.2625  0.1916
 4965TIP3    H214902   5.955   1.061   0.338 -0.6635 -0.9192  0.5891
 4966TIP3   OH214903   2.887   5.122   4.606  0.1943 -0.2121  0.2664
 4966TIP3    H114904   2.931   5.040   4.626  1.4221  0.5500  0.7789
 4966TIP3    H214905   2.910   5.141   4.515  0.7252  0.0554  0.4546
 4967TIP3   OH214906   0.109   2.904   4.939 -0.3846 -0.1520  0.2112
 4967TIP3    H114907   0.122   2.998   4.946  0.4386 -0.0954 -1.5109
 4967TIP3    H214908   0.041   2.895   4.871 -1.3852 -0.7803  1.2606
 4968TIP3   OH214909   3.062   5.590   1.112  0.3168 -0.3622 -0.8115
 4968TIP3    H114910   3.105   5.513   1.074  1.0575 -0.1473 -0.4270
 4968TIP3    H214911   3.117   5.613   1.187 -0.8989 -0.5568  0.1767
 4969TIP3   OH214912   3.713   2.577   3.706 -0.0115 -0.6848  0.5486
 4969TIP3    H114913   3.631   2.549   3.746 -1.2080  0.9060 -0.6805
 4969TIP3    H214914   3.778   2.570   3.777 -1.5602 -0.2429  2.0687
 4970TIP3   OH214915   1.660   4.662   4.931 -0.1094  0.1143 -0.4590
 4970TIP3    H114916   1.690   4.580   4.892  1.0507  0.8239 -1.1014
 4970TIP3    H214917   1.580   4.684   4.882 -1.2927 -1.3621  0.7094
 4971TIP3   OH214918   0.145   5.835   3.527  0.2446 -0.0323 -0.0319
 4971TIP3    H114919   0.212   5.884   3.479  1.7929 -1.4858  0.5367
 4971TIP3    H214920   0.085   5.902   3.558  1.5716  1.3851 -0.3488
 4972TIP3   OH214921   3.916   4.484   0.018 -0.0005  0.2103 -0.2753
 4972TIP3    H114922   3.829   4.475   0.056 -0.8700 -0.1332 -2.2440
 4972TIP3    H214923   3.923   4.412  -0.044  1.4954  0.5386 -0.5201
 4973TIP3   OH214924   4.846   2.296   3.926  0.0980 -0.3213 -0.1506
 4973TIP3    H114925   4.908   2.304   3.854  0.4289  1.9423  0.3170
 4973TIP3    H214926   4.833   2.201   3.936  0.6608 -0.7216 -2.6071
 4974TIP3   OH214927   1.563   2.872   4.544  0.0225  0.8395  0.1960
 4974TIP3    H114928   1.650   2.882   4.504  1.8780 -2.5279  2.9035
 4974TIP3    H214929   1.566   2.927   4.622  0.5618 -0.6938  1.3122
 4975TIP3   OH214930   4.400   3.116   2.770  0.4425 -0.1944 -0.0737
 4975TIP3    H114931   4.355   3.183   2.719  1.3223 -0.8117 -1.7254
 4975TIP3    H214932   4.472   3.087   2.714  1.6636 -0.6795  1.6635
 4976TIP3   OH214933   4.461   2.910   3.023  0.0299 -0.4904  0.2824
 4976TIP3    H114934   4.436   2.858   3.099  1.9015  0.1096  1.3902
 4976TIP3    H214935   4.542   2.954   3.050  0.6186 -0.0586 -1.9807
 4977TIP3   OH214936   0.081   1.109   2.659  0.1756 -0.5025 -0.0552
 4977TIP3    H114937   0.084   1.154   2.744  1.0209  0.3100 -0.4973
 4977TIP3    H214938   0.108   1.020   2.679  0.4373 -0.3034  0.5261
 4978TIP3   OH214939   5.656   3.572   3.808 -0.1030 -0.6493 -0.2888
 4978TIP3    H114940   5.580   3.614   3.849 -1.1552 -2.3249 -0.4369
 4978TIP3    H214941   5.729   3.596   3.864 -0.8764  0.2465  0.3873
 4979TIP3   OH214942   6.102   5.531   4.081  0.3000 -0.4501  0.5763
 4979TIP3    H114943   6.010   5.521   4.108  0.5085  1.6839  2.3723
 4979TIP3    H214944   6.151   5.529   4.163  1.6851  0.0815 -0.2130
 4980TIP3   OH214945   3.650   2.581   0.464  0.3099  0.2814  0.0266
 4980TIP3    H114946   3.555   2.570   0.467  0.2154  0.9676 -0.3092
 4980TIP3    H214947   3.681   2.498   0.426 -0.4453  1.2272 -2.9936
 4981TIP3   OH214948   5.594   0.021   3.899 -0.9812  0.1647 -0.3702
 4981TIP3    H114949   5.678   0.066   3.889 -1.6033  1.7932  1.0592
 4981TIP3    H214950   5.601  -0.025   3.983 -1.8599  1.2446  0.3280
 4982TIP3   OH214951   2.851   2.381   2.205 -0.2852 -0.0345 -0.4333
 4982TIP3    H114952   2.880   2.448   2.143  0.4574 -0.4706 -0.5691
 4982TIP3    H214953   2.800   2.320   2.152  1.4719 -1.1516 -0.9545
 4983TIP3   OH214954   0.425   2.782   2.460 -0.0311  0.1753  0.1821
 4983TIP3    H114955   0.364   2.716   2.429  0.1696 -1.2198  2.5480
 4983TIP3    H214956   0.372   2.862   2.465 -0.9159 -0.3452 -0.4363
 4984TIP3   OH214957   0.909   2.787   4.809 -0.5838  0.1953 -0.0382
 4984TIP3    H114958   1.001   2.808   4.823 -0.7563  0.6362  0.5252
 4984TIP3    H214959   0.893   2.808   4.717  0.1803 -1.1147 -0.4898
 4985TIP3   OH214960   4.110   3.925   3.587 -0.7279  0.2279 -0.0934
 4985TIP3    H114961   4.192   3.885   3.559 -1.5054 -0.2067 -1.8566
 4985TIP3    H214962   4.106   3.909   3.682  1.2174  0.3034  0.0305
 4986TIP3   OH214963   3.248   1.180   4.099 -0.0360 -0.2197  0.6541
 4986TIP3    H114964   3.190   1.105   4.105 -1.5951  0.6805 -1.6335
 4986TIP3    H214965   3.202   1.250   4.147  0.3671 -0.1515  0.9473
 4987TIP3   OH214966   3.141   1.680   3.183  0.1037 -0.4462  0.2922
 4987TIP3    H114967   3.058   1.697   3.139  0.3054 -0.1197  0.0307
 4987TIP3    H214968   3.130   1.718   3.270 -0.7737 -2.2573  1.0061
 4988TIP3   OH214969   5.500   2.074   4.854  0.7407  0.1322 -0.6908
 4988TIP3    H114970   5.576   2.091   4.799  0.7763 -0.9638 -0.9969
 4988TIP3    H214971   5.447   2.012   4.804 -0.1743  0.5978 -0.3232
 4989TIP3   OH214972   1.046   5.664   1.831  0.2772  0.3310  0.1802
 4989TIP3    H114973   1.119   5.726   1.840  0.6606 -0.3734  2.5833
 4989TIP3    H214974   0.967   5.717   1.843  0.3586  0.9859 -1.8075
 4990TIP3   OH214975   3.849   1.376   0.303 -0.4413 -0.3987 -0.0377
 4990TIP3    H114976   3.759   1.392   0.274 -0.1496  0.8655 -0.3332
 4990TIP3    H214977   3.842   1.305   0.367 -1.7304  0.0968  0.4033
 4991TIP3   OH214978   1.490   5.096   1.049  0.3697 -0.0553  0.1363
 4991TIP3    H114979   1.532   5.144   0.978 -0.5162  0.7723  0.1330
 4991TIP3    H214980   1.488   5.005   1.020  1.1449  0.0753 -0.3357
 4992TIP3   OH214981   4.662   5.879   0.838  0.1247 -0.6536  0.0820
 4992TIP3    H114982   4.727   5.812   0.814  0.1247 -0.1164 -1.5498
 4992TIP3    H214983   4.591   5.867   0.775  0.2383  1.0309 -0.4132
 4993TIP3   OH214984   0.482   4.053   3.732  0.6568  0.1987 -0.4001
 4993TIP3    H114985   0.446   4.088   3.814 -0.5692  1.3282 -1.3818
 4993TIP3    H214986   0.427   3.978   3.712  0.8404  0.0326 -0.2819
 4994TIP3   OH214987   4.717   1.172   1.101 -0.5479 -0.3951  0.6100
 4994TIP3    H114988   4.755   1.097   1.056 -0.1159  0.4252 -0.4558
 4994TIP3    H214989   4.773   1.187   1.176 -1.6354 -2.1783  1.8582
 4995TIP3   OH214990   5.301   1.785   1.695 -0.1622 -0.8894  0.1126
 4995TIP3    H114991   5.281   1.818   1.608  0.9405 -0.4062  0.0253
 4995TIP3    H214992   5.271   1.694   1.694  0.0315 -0.9459 -0.8373
 4996TIP3   OH214993   3.329   3.627   3.992 -0.0737  0.0880 -0.0072
 4996TIP3    H114994   3.389   3.678   3.937 -0.3056 -0.0326 -0.3746
 4996TIP3    H214995   3.298   3.690   4.057 -0.3266  0.4191 -0.4341
 4997TIP3   OH214996   2.755   2.068   3.677 -0.1049  0.7642  0.5208
 4997TIP3    H114997   2.786   1.999   3.735 -0.4009 -0.9718 -1.2868
 4997TIP3    H214998   2.831   2.127   3.667  0.9633 -0.6101  0.2197
 4998TIP3   OH214999   4.521   3.643   1.311 -0.8757 -0.1536 -0.2014
 4998TIP3    H115000   4.481   3.616   1.228 -2.3196  0.7684  0.1588
 4998TIP3    H215001   4.595   3.698   1.286 -1.1299 -0.1086 -0.8720
 4999TIP3   OH215002   5.639   2.270   0.102 -0.1596  0.0038  0.6645
 4999TIP3    H115003   5.569   2.206   0.116 -0.5847  0.4231  0.5012
 4999TIP3    H215004   5.593   2.354   0.093  0.4245  0.4289  1.5078
 5000TIP3   OH215005   1.572   4.959   0.411  0.3883 -0.0377 -0.2211
 5000TIP3    H115006   1.551   4.879   0.363 -1.8758 -0.3446  1.1342
 5000TIP3    H215007   1.569   4.934   0.503  0.1142  1.4733  0.2061
 5001TIP3   OH215008   4.483   0.020   3.964  0.9397 -0.0834 -0.4256
 5001TIP3    H115009   4.558   0.080   3.957  1.1278 -0.1685  0.6032
 5001TIP3    H215010   4.473   0.006   4.059 -0.9317  0.6254 -0.4670
 5002TIP3   OH215011   5.761   3.304   1.167 -0.0655 -0.3558  0.2755
 5002TIP3    H115012   5.820   3.232   1.186  2.2250  1.2223 -0.3688
 5002TIP3    H215013   5.753   3.303   1.071  0.6389  0.6762  0.1898
 5003TIP3   OH215014   3.920   0.769   1.121  0.5470  0.7430 -0.2660
 5003TIP3    H115015   3.984   0.768   1.192  0.3196 -0.7735 -0.0494
 5003TIP3    H215016   3.851   0.710   1.149 -0.0418  0.8988 -1.3110
 5004TIP3   OH215017   5.194   0.159   3.623 -0.0742 -0.3027 -0.1331
 5004TIP3    H115018   5.256   0.086   3.625  0.0682 -0.1873 -0.3422
 5004TIP3    H215019   5.210   0.206   3.705 -0.8277 -1.0509  0.4608
 5005TIP3   OH215020   2.496   2.729   4.344  0.3760 -0.0239  0.6848
 5005TIP3    H115021   2.445   2.684   4.276  1.0397 -0.9433  0.7690
 5005TIP3    H215022   2.587   2.722   4.314  0.4469  1.9033  0.3609
 5006TIP3   OH215023   1.747   1.383   2.617  0.2862 -0.6677  0.3412
 5006TIP3    H115024   1.798   1.380   2.536  0.5241  1.5172  0.3376
 5006TIP3    H215025   1.768   1.301   2.662  3.1865 -0.2486 -0.0620
 5007TIP3   OH215026   5.879   5.898   1.461  0.7170  0.7404  0.6288
 5007TIP3    H115027   5.951   5.850   1.501  0.1451  0.7902  1.7763
 5007TIP3    H215028   5.803   5.876   1.515 -0.0649  0.9430 -0.3599
 5008TIP3   OH215029   0.617   1.035   4.483 -0.2656  0.2951  0.7443
 5008TIP3    H115030   0.688   0.971   4.472 -0.2762  0.2485  0.9501
 5008TIP3    H215031   0.599   1.066   4.394 -1.0041 -0.7918  0.4961
 5009TIP3   OH215032   2.195   4.338   2.101  0.2344 -0.3589  0.4117
 5009TIP3    H115033   2.205   4.302   2.013  1.5823 -1.2281  0.8938
 5009TIP3    H215034   2.222   4.430   2.093 -0.9625 -0.0432 -0.3352
 5010TIP3   OH215035   4.621   5.621   4.490 -0.4307 -0.0730  0.5081
 5010TIP3    H115036   4.655   5.617   4.580 -2.9223 -1.6908  1.5044
 5010TIP3    H215037   4.685   5.674   4.443  1.0141  0.8229  3.2087
 5011TIP3   OH215038   1.769   3.650   2.143 -0.0901  0.1665  0.4100
 5011TIP3    H115039   1.713   3.575   2.127  2.2197 -1.8933  1.3659
 5011TIP3    H215040   1.717   3.707   2.200 -1.8179 -0.7631 -0.1631
 5012TIP3   OH215041   1.669   1.476   1.039  0.2223 -0.3729  0.0008
 5012TIP3    H115042   1.762   1.457   1.024  0.3312  1.7325 -2.7006
 5012TIP3    H215043   1.668   1.530   1.118  1.3629  0.0169 -0.2324
 5013TIP3   OH215044   5.205   5.947   0.540 -0.4904  0.6252  0.2536
 5013TIP3    H115045   5.247   6.011   0.597 -1.5033  0.4314  1.2643
 5013TIP3    H215046   5.205   5.866   0.591  0.7641 -0.2092 -1.0068
 5014TIP3   OH215047   4.158   4.205   5.005  0.2104 -0.0411  0.2846
 5014TIP3    H115048   4.106   4.174   5.080  1.3317 -1.4808  0.5170
 5014TIP3    H215049   4.149   4.300   5.007 -1.6884 -0.1934  0.8321
 5015TIP3   OH215050   3.553   3.484   1.959 -0.3768  0.1942 -0.0394
 5015TIP3    H115051   3.631   3.429   1.952 -0.4796 -0.1658  1.2507
 5015TIP3    H215052   3.587   3.574   1.960 -0.2913  0.2840 -3.2955
 5016TIP3   OH215053   3.978   2.357   4.185 -0.4295 -0.3953  0.0366
 5016TIP3    H115054   3.993   2.277   4.136 -0.7834 -0.3180 -0.2023
 5016TIP3    H215055   4.056   2.410   4.170 -0.9058 -0.0121 -1.1552
 5017TIP3   OH215056   0.662   0.806   0.462  0.4293 -0.0963 -0.9234
 5017TIP3    H115057   0.571   0.818   0.431  0.1781 -0.8282 -0.4694
 5017TIP3    H215058   0.713   0.801   0.381  0.0192 -0.0806 -1.1902
 5018TIP3   OH215059   2.272   1.589   4.036  0.0300  0.3685 -0.2371
 5018TIP3    H115060   2.341   1.562   4.097 -0.0213 -1.5472 -0.9763
 5018TIP3    H215061   2.198   1.611   4.093  0.2545 -0.5688  0.4467
 5019TIP3   OH215062   5.465   2.200   1.585 -0.6430 -0.2284 -0.2748
 5019TIP3    H115063   5.546   2.198   1.535  0.1930  0.1180  1.0122
 5019TIP3    H215064   5.466   2.119   1.636 -0.4501  0.3800  0.7136
 5020TIP3   OH215065   1.705   3.035   2.558 -0.1511 -0.0408 -0.0380
 5020TIP3    H115066   1.655   3.112   2.583  1.7248  1.0132  0.7325
 5020TIP3    H215067   1.736   3.053   2.469 -0.4429 -0.3095 -0.1956
 5021TIP3   OH215068   5.293   4.616   0.901  0.0521 -0.0260 -0.3308
 5021TIP3    H115069   5.228   4.629   0.970  0.0229 -0.6764 -0.2264
 5021TIP3    H215070   5.241   4.593   0.824  0.1843 -1.5155 -0.0101
 5022TIP3   OH215071   5.946   2.202   2.073 -0.3541  0.3336  0.4877
 5022TIP3    H115072   5.920   2.294   2.084 -1.6963 -0.0799  0.9637
 5022TIP3    H215073   5.869   2.160   2.035  0.3541 -0.5437 -0.0083
 5023TIP3   OH215074   4.227   0.655   0.573 -0.3798 -0.0491 -0.1280
 5023TIP3    H115075   4.303   0.693   0.529  0.6040  0.9532  2.2674
 5023TIP3    H215076   4.236   0.561   0.561  0.2125  0.1607 -1.4337
 5024TIP3   OH215077   1.525   5.414   1.723  0.2896  0.2426  0.0107
 5024TIP3    H115078   1.526   5.326   1.684  0.4865 -0.0860  0.7422
 5024TIP3    H215079   1.458   5.461   1.673  0.7334 -0.0746 -0.9149
 5025TIP3   OH215080   2.243   3.753   1.937 -0.4036  0.0807 -0.5608
 5025TIP3    H115081   2.309   3.822   1.940 -0.9211  0.5545  0.9025
 5025TIP3    H215082   2.267   3.693   2.007 -0.0326 -1.1942 -1.7423
 5026TIP3   OH215083   1.097   5.510   0.882 -0.7476  0.2460 -0.0236
 5026TIP3    H115084   1.069   5.443   0.819 -1.9650 -0.1246  0.8581
 5026TIP3    H215085   1.183   5.481   0.911 -1.3727 -1.1444  0.5606
 5027TIP3   OH215086   2.571   1.002   2.593  0.3175 -0.4709 -0.1547
 5027TIP3    H115087   2.654   0.972   2.557  0.2285 -0.8321 -0.0664
 5027TIP3    H215088   2.529   0.922   2.625  0.6259 -0.0860  1.2456
 5028TIP3   OH215089   0.496   2.544   1.190  0.1011 -1.1836  0.4835
 5028TIP3    H115090   0.547   2.469   1.161 -2.9145 -3.2325  0.0292
 5028TIP3    H215091   0.512   2.550   1.284  1.5825 -1.3436  0.2649
 5029TIP3   OH215092   0.019   3.364   0.352  0.0315  0.1524 -0.2267
 5029TIP3    H115093   0.053   3.276   0.367 -0.1249 -0.0752 -1.1142
 5029TIP3    H215094   0.063   3.419   0.417  0.2438 -0.5503  0.2365
 5030TIP3   OH215095   5.491   2.450   4.108 -0.0429  0.0075 -0.0585
 5030TIP3    H115096   5.468   2.495   4.027 -0.8535 -1.0950 -0.4645
 5030TIP3    H215097   5.407   2.438   4.154  0.3959  0.5706  0.9251
 5031TIP3   OH215098   5.056   1.006   4.188  0.0810 -0.0639  0.2825
 5031TIP3    H115099   5.015   1.009   4.275 -2.2992  0.4451 -0.7721
 5031TIP3    H215100   5.083   1.096   4.172  1.2640 -0.3110  0.7862
 5032TIP3   OH215101   3.137   5.203   3.804 -0.0090 -0.4191  0.3595
 5032TIP3    H115102   3.205   5.254   3.760 -0.0748 -0.0392  0.6840
 5032TIP3    H215103   3.161   5.206   3.897  0.6415 -2.0062  0.2658
 5033TIP3   OH215104   2.984   2.586   0.445 -0.3479  0.8432  0.0550
 5033TIP3    H115105   2.929   2.562   0.520  0.7267  1.0568  0.9240
 5033TIP3    H215106   2.943   2.541   0.371 -0.8750 -0.1645  0.9267
 5034TIP3   OH215107   1.263   3.149   2.740 -0.5043  0.1246  0.0119
 5034TIP3    H115108   1.187   3.191   2.701 -0.6859  0.1281  0.3684
 5034TIP3    H215109   1.249   3.156   2.834  0.7626  1.6507  0.1225
 5035TIP3   OH215110   1.264   3.884   0.091 -0.1341  0.3389  0.2797
 5035TIP3    H115111   1.232   3.954   0.148  0.0832  0.6374  0.0356
 5035TIP3    H215112   1.317   3.829   0.150  0.9297  1.2053  0.1734
 5036TIP3   OH215113   4.223   5.334   0.912  0.0182  0.3841  0.1368
 5036TIP3    H115114   4.181   5.267   0.965 -0.3463  0.2931 -0.2606
 5036TIP3    H215115   4.297   5.364   0.964 -0.7015  0.7443  0.9809
 5037TIP3   OH215116   3.734   2.201   1.814 -0.4811 -0.3315  0.3283
 5037TIP3    H115117   3.818   2.194   1.769  0.1955 -0.3865  1.5734
 5037TIP3    H215118   3.721   2.116   1.856  0.6471  0.7864  3.1743
 5038TIP3   OH215119   5.291   3.207   0.211  0.2335 -0.0851  0.0938
 5038TIP3    H115120   5.286   3.150   0.288  1.2097  1.1672  1.1154
 5038TIP3    H215121   5.338   3.284   0.241 -0.7479  1.1245 -1.3518
 5039TIP3   OH215122   3.245   3.871   2.975  0.1233  0.1730 -0.5046
 5039TIP3    H115123   3.215   3.956   3.007  0.4590  0.7011 -1.5472
 5039TIP3    H215124   3.213   3.808   3.040 -0.4671  1.0512  0.0744
 5040TIP3   OH215125   2.740   4.512   0.051  0.1654  0.0873 -0.0666
 5040TIP3    H115126   2.763   4.597   0.013  0.1018  1.1323  2.1296
 5040TIP3    H215127   2.811   4.492   0.111  0.5619 -1.8375 -1.0782
 5041TIP3   OH215128   5.789   3.927   1.061  0.2419  0.7140  0.1953
 5041TIP3    H115129   5.704   3.963   1.035  0.1402  0.4600  0.1803
 5041TIP3    H215130   5.790   3.839   1.025  0.8615  1.0109 -0.5593
 5042TIP3   OH215131   1.615   5.792   1.143  0.0416 -0.1111  0.8241
 5042TIP3    H115132   1.668   5.864   1.177 -2.6277  1.6859  1.5265
 5042TIP3    H215133   1.657   5.768   1.060  1.8358  1.2768  1.2837
 5043TIP3   OH215134   5.792   1.841   4.557  0.6359  0.2326 -1.1941
 5043TIP3    H115135   5.833   1.779   4.617  0.0656 -0.2057 -1.2490
 5043TIP3    H215136   5.865   1.883   4.512  1.0565  0.2711 -0.4933
 5044TIP3   OH215137   4.396   0.670   1.325  0.4259  0.7461  0.0830
 5044TIP3    H115138   4.452   0.737   1.286  0.8824  1.7907  2.3426
 5044TIP3    H215139   4.436   0.651   1.410 -1.4332 -0.0460  0.8544
 5045TIP3   OH215140   5.907   4.314   0.851 -0.6932 -0.5303  0.1097
 5045TIP3    H115141   5.869   4.391   0.893  0.5196  0.7582 -1.0507
 5045TIP3    H215142   5.875   4.317   0.761  1.4201  0.1411 -0.6783
 5046TIP3   OH215143   6.094   0.474   3.073 -0.5798  0.2730  0.0733
 5046TIP3    H115144   6.128   0.557   3.039  1.5605 -0.3908  0.4002
 5046TIP3    H215145   6.112   0.410   3.003  0.0087 -0.3233  0.7438
 5047TIP3   OH215146   4.636   4.047   2.993 -0.2459 -0.2972 -0.4954
 5047TIP3    H115147   4.676   4.066   2.908  0.7902 -1.8956 -0.3937
 5047TIP3    H215148   4.551   4.009   2.971 -1.6564  2.6166 -0.7110
 5048TIP3   OH215149   4.394   3.092   0.061  0.1674  0.4204 -0.1951
 5048TIP3    H115150   4.412   3.145  -0.016 -0.2129  2.1227  0.8229
 5048TIP3    H215151   4.445   3.013   0.049  0.5537  0.8923 -1.9129
 5049TIP3   OH215152   3.513   1.360   4.427 -0.4241 -0.3562  0.2395
 5049TIP3    H115153   3.440   1.413   4.459 -0.1555  0.4916 -0.5091
 5049TIP3    H215154   3.541   1.403   4.346 -0.9874 -2.3428 -1.0807
 5050TIP3   OH215155   2.685   3.828   2.207 -0.0896 -0.2391 -0.4414
 5050TIP3    H115156   2.755   3.823   2.272  0.5507  0.5206 -1.0524
 5050TIP3    H215157   2.604   3.827   2.259  0.4053  3.1197  0.6532
 5051TIP3   OH215158   1.566   2.084   1.068  0.4580 -0.3943 -0.3002
 5051TIP3    H115159   1.636   2.122   1.122 -0.6205 -1.1912  1.7657
 5051TIP3    H215160   1.552   2.149   0.999  1.2028  1.2078  0.9698
 5052TIP3   OH215161   4.045   0.412   1.246  0.2762 -0.1502  0.3308
 5052TIP3    H115162   4.117   0.465   1.212  0.0546  0.2016  0.4091
 5052TIP3    H215163   3.986   0.475   1.287 -0.6053 -0.3043 -0.6572
 5053TIP3   OH215164   0.963   1.442   0.492  0.0526  0.0159 -0.1148
 5053TIP3    H115165   0.913   1.475   0.566 -0.3364 -0.1125 -0.3162
 5053TIP3    H215166   1.045   1.492   0.493 -1.0481  1.9497 -1.1828
 5054TIP3   OH215167   0.808   1.906   3.871  0.0358  0.2179 -0.3181
 5054TIP3    H115168   0.861   1.971   3.824 -0.1490  0.0318 -0.7919
 5054TIP3    H215169   0.872   1.850   3.915  0.1886  1.2674  0.8673
 5055TIP3   OH215170   2.708   0.230   1.765  0.1313 -0.5384 -0.4494
 5055TIP3    H115171   2.700   0.226   1.860  1.8192  1.2047 -0.1814
 5055TIP3    H215172   2.618   0.232   1.733 -0.4591 -0.6414  1.1271
 5056TIP3   OH215173   3.101   0.038   1.716 -0.3928 -0.2331 -0.4400
 5056TIP3    H115174   3.034   0.074   1.658  0.0890  1.2248 -0.1168
 5056TIP3    H215175   3.053  -0.024   1.771 -1.0387 -0.8783 -1.6880
 5057TIP3   OH215176   4.255   2.616   3.212  0.4283 -0.1658  0.0433
 5057TIP3    H115177   4.186   2.607   3.147 -0.7242 -1.0059  1.3145
 5057TIP3    H215178   4.241   2.542   3.272 -0.6666  2.2979  3.1210
 5058TIP3   OH215179   3.753   0.267   2.024  0.0640  0.3164  0.2222
 5058TIP3    H115180   3.831   0.266   1.968 -0.0436 -2.0593  0.0222
 5058TIP3    H215181   3.785   0.247   2.111 -0.1768  0.5485  0.3657
 5059TIP3   OH215182   2.843   1.676   4.076  0.3691  0.7434 -0.5975
 5059TIP3    H115183   2.789   1.755   4.083 -0.1127  0.4238 -0.6061
 5059TIP3    H215184   2.847   1.659   3.982 -1.1242 -0.2965 -0.5133
 5060TIP3   OH215185   0.656   2.720   4.134 -0.4976 -0.0951 -0.1441
 5060TIP3    H115186   0.648   2.679   4.048  1.8484 -0.1060 -0.4061
 5060TIP3    H215187   0.714   2.662   4.183 -2.1187 -0.3157  1.6393
 5061TIP3   OH215188   2.116   5.675   3.436  0.0323 -0.4973 -0.1956
 5061TIP3    H115189   2.181   5.615   3.400 -0.8480 -0.2509 -2.3755
 5061TIP3    H215190   2.049   5.619   3.474 -0.3219 -0.8905 -1.3699
 5062TIP3   OH215191   0.045   2.423   0.059 -0.4037  0.2154  0.1553
 5062TIP3    H115192   0.096   2.397  -0.017 -0.3258 -1.1127  0.6220
 5062TIP3    H215193   0.078   2.367   0.130 -2.0778 -0.2829  0.5967
 5063TIP3   OH215194   1.270   4.403   4.075  0.2499 -0.4777 -0.6011
 5063TIP3    H115195   1.185   4.416   4.032  0.4767 -0.3291 -1.0101
 5063TIP3    H215196   1.327   4.468   4.035  0.6005 -0.6835 -0.4375
 5064TIP3   OH215197   3.128   0.408   3.398  0.0954  0.1537  1.0807
 5064TIP3    H115198   3.189   0.350   3.352  1.3173  1.7889  0.5173
 5064TIP3    H215199   3.091   0.463   3.329 -2.9542 -1.4945  1.2420
 5065TIP3   OH215200   3.828   1.077   1.439 -0.4153 -0.8560 -0.3821
 5065TIP3    H115201   3.861   1.072   1.349 -0.9587 -1.4595 -0.5533
 5065TIP3    H215202   3.870   1.155   1.475 -1.6819  0.5307 -1.7623
 5066TIP3   OH215203   1.248   4.936   1.255  0.2159 -0.0814  0.3355
 5066TIP3    H115204   1.285   4.993   1.322  0.8820  0.9537 -0.8869
 5066TIP3    H215205   1.306   4.860   1.254  0.8177  0.3742  0.2094
 5067TIP3   OH215206   1.247   4.383   0.108 -0.0276 -0.2009  0.2248
 5067TIP3    H115207   1.339   4.359   0.103  0.0585  0.2222 -0.3045
 5067TIP3    H215208   1.244   4.452   0.174  0.3647  1.2297 -1.1862
 5068TIP3   OH215209   2.041   2.339   2.755  0.0444 -0.3754  0.1607
 5068TIP3    H115210   1.947   2.319   2.755  0.1779 -1.0594 -0.3433
 5068TIP3    H215211   2.080   2.273   2.813  0.0264  0.9891  1.8035
 5069TIP3   OH215212   1.980   2.470   4.327 -0.0920 -0.4209 -0.3230
 5069TIP3    H115213   1.973   2.416   4.249  1.7758  0.3852 -1.1015
 5069TIP3    H215214   2.074   2.479   4.342 -0.3702  1.3542  0.6631
 5070TIP3   OH215215   0.216   0.495   1.696  0.2489 -0.0994  0.5216
 5070TIP3    H115216   0.232   0.429   1.763 -1.1183 -0.2422  0.7370
 5070TIP3    H215217   0.258   0.574   1.729  0.9439 -0.5729  0.7894
 5071TIP3   OH215218   0.099   2.355   2.290 -0.1393  0.0832  0.7480
 5071TIP3    H115219   0.168   2.313   2.341  0.8968  0.9540  0.0908
 5071TIP3    H215220   0.106   2.318   2.203  0.4220  1.1770  0.3106
 5072TIP3   OH215221   0.560   2.619   4.799  0.0698 -0.3184 -0.0876
 5072TIP3    H115222   0.537   2.592   4.888 -0.4046  0.6791  0.1068
 5072TIP3    H215223   0.596   2.707   4.809  0.3134 -0.3191 -0.8494
 5073TIP3   OH215224   5.147   1.250   4.287  0.1932 -0.1902 -0.5295
 5073TIP3    H115225   5.181   1.298   4.211  1.1231  1.1709  0.6854
 5073TIP3    H215226   5.225   1.228   4.338 -0.5174  0.2695  0.7850
 5074TIP3   OH215227   0.994   1.637   5.134 -0.4378 -0.4384 -0.0935
 5074TIP3    H115228   0.973   1.609   5.045 -0.9851  0.6568 -0.3241
 5074TIP3    H215229   0.929   1.704   5.154  1.5063  1.5331 -0.0287
 5075TIP3   OH215230   1.507   2.661   4.761  0.2987 -0.3132  0.2247
 5075TIP3    H115231   1.477   2.719   4.830 -5.1330 -1.2046 -0.8991
 5075TIP3    H215232   1.520   2.718   4.685 -0.4959 -0.0073  0.3062
 5076TIP3   OH215233   1.266   2.325   4.137 -0.4067  0.5615  0.2127
 5076TIP3    H115234   1.311   2.317   4.222 -1.8126 -1.7112  0.8013
 5076TIP3    H215235   1.327   2.286   4.074 -0.5346 -0.3495  0.6398
 5077TIP3   OH215236   1.785   2.539   0.581  0.0224 -0.4155 -0.1846
 5077TIP3    H115237   1.780   2.449   0.550 -0.5939 -0.4487 -0.0193
 5077TIP3    H215238   1.693   2.563   0.596  0.0968  0.6002 -1.2575
 5078TIP3   OH215239   5.023   2.110   2.501 -0.5008 -0.2053  0.9224
 5078TIP3    H115240   5.099   2.086   2.447  0.7833 -0.6609  2.8264
 5078TIP3    H215241   5.052   2.185   2.551 -1.1135 -0.7010  2.0536
 5079TIP3   OH215242   5.937   3.481   4.041  0.5415  0.1492  0.3766
 5079TIP3    H115243   5.922   3.506   4.132 -1.1190 -0.6219  0.3560
 5079TIP3    H215244   5.872   3.412   4.024 -0.1111  1.1895 -1.7627
 5080TIP3   OH215245   5.958   0.974   0.808  0.6028  0.6245  0.4749
 5080TIP3    H115246   5.918   1.046   0.759 -0.2456 -0.4897 -0.5151
 5080TIP3    H215247   5.928   0.895   0.764 -0.9273 -0.5038  3.2370
 5081TIP3   OH215248   4.349   1.222   0.876 -0.1711 -0.5603 -0.1563
 5081TIP3    H115249   4.444   1.227   0.865 -0.2822  0.6751 -0.7100
 5081TIP3    H215250   4.316   1.192   0.791 -0.2234 -2.0029  0.3449
 5082TIP3   OH215251   3.166   0.161   0.876 -0.2174 -0.9202 -0.5386
 5082TIP3    H115252   3.146   0.067   0.873  0.3487 -1.1584  1.6540
 5082TIP3    H215253   3.255   0.168   0.843 -0.0634 -1.2326 -0.1926
 5083TIP3   OH215254   2.700   3.206   2.361  0.1171 -0.0333  0.0535
 5083TIP3    H115255   2.628   3.265   2.383 -1.1985 -1.7450  0.5621
 5083TIP3    H215256   2.779   3.258   2.375 -0.9911  2.0221 -0.8651
 5084TIP3   OH215257   5.614   4.751   0.461  0.3460 -0.7274 -0.1032
 5084TIP3    H115258   5.667   4.822   0.498 -0.6906  1.8227 -3.0633
 5084TIP3    H215259   5.614   4.683   0.528  0.7812  2.3571  3.3213
 5085TIP3   OH215260   0.459   3.520   4.904 -0.6687  0.4214  0.6151
 5085TIP3    H115261   0.388   3.468   4.868  0.0327  1.0976 -1.9143
 5085TIP3    H215262   0.450   3.606   4.864  1.1219  0.7373  0.7797
 5086TIP3   OH215263   1.817   3.956   3.171 -0.0789 -0.0484  0.3421
 5086TIP3    H115264   1.852   3.901   3.101 -0.5070  0.8080 -0.5608
 5086TIP3    H215265   1.840   4.045   3.145 -0.3951  0.2900  1.2084
 5087TIP3   OH215266   1.251   1.577   5.216  0.3083  0.5042  0.2051
 5087TIP3    H115267   1.160   1.593   5.190  0.6705 -0.0629 -1.5655
 5087TIP3    H215268   1.303   1.605   5.141  1.3495 -2.7402 -0.4622
 5088TIP3   OH215269   1.056   2.949   2.246 -0.1423  0.4518  0.0076
 5088TIP3    H115270   1.138   2.900   2.240 -0.1648  0.2812  0.9786
 5088TIP3    H215271   1.076   3.022   2.305 -0.6304  0.5276  0.0865
 5089TIP3   OH215272   4.677   1.941   4.667  0.2477 -0.2421 -0.0802
 5089TIP3    H115273   4.680   2.029   4.629 -0.4465  0.3200  1.1423
 5089TIP3    H215274   4.761   1.902   4.642  0.2243  0.4604 -1.3314
 5090TIP3   OH215275   3.438   3.259   1.691 -0.2187 -0.1221 -0.2707
 5090TIP3    H115276   3.522   3.263   1.738  1.2329  1.2919 -2.7398
 5090TIP3    H215277   3.408   3.169   1.702  1.0289 -0.3652  1.6235
 5091TIP3   OH215278   5.436   4.360   4.140  0.0695  0.3848 -0.6639
 5091TIP3    H115279   5.435   4.264   4.144  1.5828  0.3826  0.0994
 5091TIP3    H215280   5.453   4.387   4.230 -0.5631  1.3961 -0.8368
 5092TIP3   OH215281   5.363   0.732   2.869 -0.3768 -0.1153 -0.2552
 5092TIP3    H115282   5.274   0.765   2.879  0.3723  1.6512  0.9794
 5092TIP3    H215283   5.413   0.805   2.833  0.2130 -1.7298 -3.0457
 5093TIP3   OH215284   4.548   3.684   4.713  0.3729  0.5754 -0.3041
 5093TIP3    H115285   4.473   3.633   4.743  0.8114  0.4461  0.6114
 5093TIP3    H215286   4.556   3.663   4.620 -0.4115  0.2034 -0.2940
 5094TIP3   OH215287   6.308   5.737   4.406  0.2083  0.1196 -0.3633
 5094TIP3    H115288   6.374   5.725   4.474  0.0822 -1.3592 -0.4632
 5094TIP3    H215289   6.253   5.808   4.437  0.1172 -0.5750  1.1235
 5095TIP3   OH215290   4.996   0.808   2.658 -1.0365 -0.1643  0.5297
 5095TIP3    H115291   5.059   0.833   2.591  0.0826 -1.0714  1.1985
 5095TIP3    H215292   4.911   0.815   2.615 -0.3582 -0.6892 -0.9745
 5096TIP3   OH215293   2.545   4.963   2.963  0.1575 -0.6142 -0.0286
 5096TIP3    H115294   2.549   5.054   2.993 -2.4174 -0.2962 -0.4665
 5096TIP3    H215295   2.526   4.912   3.042  2.1549 -0.8969  0.3184
 5097TIP3   OH215296   1.657   4.914   4.535 -0.2629 -0.1113 -0.2580
 5097TIP3    H115297   1.723   4.972   4.496 -1.4105  0.7936 -0.9125
 5097TIP3    H215298   1.683   4.826   4.505  1.4515  0.0213  0.6946
 5098TIP3   OH215299   2.028   0.330   3.488  0.0602  0.7857  0.1968
 5098TIP3    H115300   2.023   0.418   3.526 -0.2922 -0.1027  2.3304
 5098TIP3    H215301   1.955   0.327   3.426  1.5590  2.7865 -1.8505
 5099TIP3   OH215302   5.087   1.792   0.749  0.5355  0.0542 -0.0102
 5099TIP3    H115303   5.181   1.804   0.739  0.7869 -0.9895  0.8058
 5099TIP3    H215304   5.053   1.785   0.660  1.3134 -0.0404 -0.3001
 5100TIP3   OH215305   6.051   5.923   3.999  0.6163 -0.2574 -0.7323
 5100TIP3    H115306   5.980   5.859   4.000  0.2554  0.0308 -2.9788
 5100TIP3    H215307   6.116   5.887   4.059 -0.7361 -1.3353  0.1438
 5101TIP3   OH215308   3.653   2.277   3.126 -0.0846 -0.0752  0.0347
 5101TIP3    H115309   3.649   2.329   3.046 -0.1092 -1.3399 -0.8145
 5101TIP3    H215310   3.574   2.223   3.124  0.0352 -0.2913  0.7921
 5102TIP3   OH215311   4.408   1.781   5.043  0.1794  0.0890  0.2883
 5102TIP3    H115312   4.472   1.716   5.015  0.5062  0.9977 -1.2612
 5102TIP3    H215313   4.445   1.864   5.013 -0.3317  0.9728  2.0022
 5103TIP3   OH215314   2.106   1.529   1.337  0.1578 -0.7712 -0.9682
 5103TIP3    H115315   2.041   1.577   1.388 -0.0110 -0.7473 -1.2040
 5103TIP3    H215316   2.057   1.493   1.263  0.2552 -1.4131 -0.7289
 5104TIP3   OH215317   3.173   3.575   0.260 -0.0131 -0.0466 -0.7178
 5104TIP3    H115318   3.213   3.489   0.261  0.9830  0.3123  2.5639
 5104TIP3    H215319   3.093   3.565   0.207  0.9947 -2.4462 -1.8960
 5105TIP3   OH215320   3.498   0.258   2.560  0.1619 -0.1919  0.1519
 5105TIP3    H115321   3.572   0.243   2.619 -0.9528  0.1842  1.7263
 5105TIP3    H215322   3.515   0.344   2.521  0.5592 -0.1110  0.4976
 5106TIP3   OH215323   5.688   1.511   3.107  0.1859  0.5103 -0.4345
 5106TIP3    H115324   5.736   1.470   3.178  0.8224  0.7108 -0.7371
 5106TIP3    H215325   5.670   1.600   3.138 -0.3369  0.3142 -0.1670
 5107TIP3   OH215326   4.123   1.018   3.748 -0.5250 -0.1394  0.7468
 5107TIP3    H115327   4.136   1.028   3.842  0.4887 -0.3388  0.6401
 5107TIP3    H215328   4.152   1.101   3.711  1.0103 -0.7453  0.4679
 5108TIP3   OH215329   2.089   1.204   0.366 -0.1466  0.3790  0.1705
 5108TIP3    H115330   2.059   1.294   0.350  0.5481  0.9246  1.7037
 5108TIP3    H215331   2.175   1.200   0.323 -0.8577 -0.0893 -1.2667
 5109TIP3   OH215332   4.303   2.180   2.671 -0.3008 -0.3332 -0.3683
 5109TIP3    H115333   4.316   2.157   2.763  0.9374 -1.2004 -0.7336
 5109TIP3    H215334   4.260   2.103   2.633  2.2619 -1.4481 -1.2132
 5110TIP3   OH215335   1.689   0.638   2.572 -0.0887  0.1612  0.1213
 5110TIP3    H115336   1.643   0.707   2.619  1.2784  1.1586  0.0625
 5110TIP3    H215337   1.739   0.592   2.640  0.1510  0.1727 -0.0451
 5111TIP3   OH215338   2.136   0.064   3.308 -0.4627  0.4604 -0.6049
 5111TIP3    H115339   2.178   0.144   3.277 -0.8282  1.4467  1.2717
 5111TIP3    H215340   2.097   0.088   3.392 -1.0391 -1.5612 -0.2239
 5112TIP3   OH215341   2.608   1.680   3.320  0.1632  0.2884 -0.2139
 5112TIP3    H115342   2.694   1.719   3.332  1.9576 -3.0477 -1.2180
 5112TIP3    H215343   2.605   1.607   3.382 -1.9137  0.2489 -0.2720
 5113TIP3   OH215344   5.374   4.391   1.476  0.4619 -0.0887  0.2166
 5113TIP3    H115345   5.434   4.451   1.521  2.3154 -0.7184 -1.2851
 5113TIP3    H215346   5.424   4.309   1.468 -0.1026 -0.2633 -2.1710
 5114TIP3   OH215347   1.224   0.513   2.426 -0.0157  0.1435  0.3800
 5114TIP3    H115348   1.136   0.524   2.391 -0.3361 -0.2993  1.0317
 5114TIP3    H215349   1.281   0.522   2.349 -0.7604 -1.7278 -0.4561
 5115TIP3   OH215350   4.913   5.765   0.988 -0.1722 -0.1024  0.1567
 5115TIP3    H115351   4.956   5.841   0.949 -0.0518 -0.3514 -0.1971
 5115TIP3    H215352   4.884   5.713   0.914  1.2664 -1.2682  0.3571
 5116TIP3   OH215353   1.633   5.991   4.437  0.8131 -0.2215  0.1849
 5116TIP3    H115354   1.715   6.009   4.390 -0.0209 -0.3407 -1.3687
 5116TIP3    H215355   1.574   5.956   4.371 -1.0361  1.3204  0.9067
 5117TIP3   OH215356   2.647   3.998   2.598 -0.5034 -0.1011 -0.1878
 5117TIP3    H115357   2.737   3.978   2.573 -0.3446 -0.6382  0.7286
 5117TIP3    H215358   2.594   3.941   2.543 -0.2162 -0.5871  0.0247
 5118TIP3   OH215359   1.583   0.608   3.003  0.5988  0.7512  0.1496
 5118TIP3    H115360   1.555   0.591   3.093  1.6767  0.6385  0.4705
 5118TIP3    H215361   1.606   0.522   2.968 -1.8098  0.4767 -0.9609
 5119TIP3   OH215362   1.194   1.080   0.777 -0.3059 -0.2146 -0.2715
 5119TIP3    H115363   1.262   1.126   0.826 -1.2138  0.0681  0.7623
 5119TIP3    H215364   1.136   1.043   0.844 -0.7343 -1.1150 -1.1186
 5120TIP3   OH215365   1.716   1.902   0.828 -0.2922 -0.7017 -0.2255
 5120TIP3    H115366   1.657   1.827   0.821  1.2603 -2.1404  1.3344
 5120TIP3    H215367   1.715   1.925   0.921 -1.2072  1.6836 -0.7403
 5121TIP3   OH215368   3.946   5.371   0.869 -0.2037 -0.1372 -0.3569
 5121TIP3    H115369   3.896   5.302   0.914  0.8291 -1.4409 -1.1368
 5121TIP3    H215370   4.034   5.365   0.907  0.3390 -0.3842 -1.6227
 5122TIP3   OH215371   0.470   2.333   3.674 -0.0301  0.5531  0.0362
 5122TIP3    H115372   0.513   2.406   3.630 -1.2889  0.5471 -1.2625
 5122TIP3    H215373   0.436   2.278   3.603 -0.3294 -0.5577  1.0032
 5123TIP3   OH215374   5.740   2.825   3.237 -1.1087 -0.1571 -0.6661
 5123TIP3    H115375   5.653   2.845   3.203 -0.9256  3.1588  0.4597
 5123TIP3    H215376   5.799   2.841   3.164 -1.1474  1.9815 -0.2980
 5124TIP3   OH215377   0.348   3.102   1.640  0.1520  0.1877 -0.2046
 5124TIP3    H115378   0.327   3.015   1.606 -0.9310  0.3994 -0.1059
 5124TIP3    H215379   0.376   3.152   1.563 -1.1218  0.3101 -0.6085
 5125TIP3   OH215380   4.543   0.423   4.819 -0.5049  0.3099 -0.3934
 5125TIP3    H115381   4.588   0.505   4.835 -1.5333  0.6219  1.0855
 5125TIP3    H215382   4.454   0.448   4.795 -0.7722 -0.3689 -0.1391
 5126TIP3   OH215383   2.984   1.112   5.035 -0.2023  1.2433 -0.2583
 5126TIP3    H115384   2.979   1.045   5.104  0.6022 -0.0156 -1.3788
 5126TIP3    H215385   2.941   1.188   5.074 -1.4823 -0.0068  0.9462
 5127TIP3   OH215386   4.970   3.188   3.390 -0.2100 -0.1164  0.0293
 5127TIP3    H115387   4.916   3.210   3.314 -0.2149 -1.3434 -0.3509
 5127TIP3    H215388   4.928   3.232   3.464 -0.2022  1.0941 -0.6687
 5128TIP3   OH215389   2.426   2.798   3.959 -0.6338 -0.2430  0.8967
 5128TIP3    H115390   2.432   2.835   3.870  2.9013 -1.1476  0.6032
 5128TIP3    H215391   2.361   2.853   4.003 -1.3996  1.2116 -1.7955
 5129TIP3   OH215392   1.554   5.606   0.377 -0.2465 -0.0754 -0.2169
 5129TIP3    H115393   1.495   5.554   0.432  0.5045  0.2707  0.9515
 5129TIP3    H215394   1.625   5.545   0.355  0.8367  0.5332  1.4835
 5130TIP3   OH215395   2.643   4.984   0.411  0.1468 -0.1448 -0.5462
 5130TIP3    H115396   2.653   5.075   0.383  1.1665 -0.3393 -0.8917
 5130TIP3    H215397   2.713   4.937   0.364 -1.4195 -1.4146 -1.7057
 5131TIP3   OH215398   0.999   3.359   4.805 -0.0952  0.2861  0.6291
 5131TIP3    H115399   0.976   3.442   4.846  0.1439  0.3863  0.5631
 5131TIP3    H215400   0.928   3.300   4.830 -0.0887  0.4157  0.9692
 5132TIP3   OH215401   1.638   2.720   1.851  0.1116 -0.4672 -0.4793
 5132TIP3    H115402   1.620   2.627   1.869  0.6103 -0.5042 -0.1618
 5132TIP3    H215403   1.613   2.765   1.932 -1.0072 -0.2044 -0.9508
 5133TIP3   OH215404   5.152   2.484   0.887  0.2829 -0.5533  0.1256
 5133TIP3    H115405   5.162   2.391   0.868  1.6572 -0.3755 -0.1155
 5133TIP3    H215406   5.137   2.488   0.982  0.0379 -1.0198  0.1075
 5134TIP3   OH215407   0.111   5.224   0.298  0.5126 -0.3180 -0.4344
 5134TIP3    H115408   0.133   5.288   0.365 -0.0293  1.9391 -2.3049
 5134TIP3    H215409   0.182   5.230   0.234 -0.0342 -0.8704 -1.1224
 5135TIP3   OH215410   4.152   4.300   2.231 -0.0753 -0.3675 -0.0289
 5135TIP3    H115411   4.126   4.321   2.321  0.1205 -0.6726  0.1024
 5135TIP3    H215412   4.208   4.223   2.240  1.6477  0.8139 -0.2224
 5136TIP3   OH215413   4.710   1.731   0.921 -0.0088  0.0620  0.1633
 5136TIP3    H115414   4.615   1.732   0.931  0.2032 -0.9601  3.0691
 5136TIP3    H215415   4.743   1.781   0.996  1.7740  2.0205 -1.7679
 5137TIP3   OH215416   1.368   2.996   3.361  0.0520 -0.0813  0.3713
 5137TIP3    H115417   1.319   2.936   3.305  1.5717 -1.4200  0.4016
 5137TIP3    H215418   1.414   2.938   3.423  0.3313  1.2198  1.4170
 5138TIP3   OH215419   4.646   2.218   4.578 -0.3337  0.3948  0.0249
 5138TIP3    H115420   4.633   2.252   4.489 -2.8561 -2.3432 -0.8360
 5138TIP3    H215421   4.557   2.201   4.610  0.5937 -2.7665  1.2946
 5139TIP3   OH215422   0.620   1.637   0.887  0.2095  0.0126 -0.1014
 5139TIP3    H115423   0.554   1.589   0.839 -0.9325  1.2751  0.1464
 5139TIP3    H215424   0.633   1.587   0.968  0.2543 -0.7274 -0.5610
 5140TIP3   OH215425   1.995   3.570   4.256 -0.0319 -0.4945  0.3561
 5140TIP3    H115426   1.983   3.570   4.351  0.1719  0.1590  0.3865
 5140TIP3    H215427   1.914   3.531   4.222 -1.7979  2.5887  0.6180
 5141TIP3   OH215428   5.573   4.430   1.874 -0.4360  0.0868  0.2480
 5141TIP3    H115429   5.563   4.487   1.797 -1.9574 -0.9143 -0.3388
 5141TIP3    H215430   5.495   4.446   1.926  0.3181  0.3285  1.3360
 5142TIP3   OH215431   3.185   5.613   4.373 -0.0271 -0.4102 -0.2794
 5142TIP3    H115432   3.206   5.658   4.455 -1.5967 -0.3259  0.1041
 5142TIP3    H215433   3.203   5.678   4.305 -1.7621  0.6676  0.2351
 5143TIP3   OH215434   5.072   3.904   0.485 -0.1682  0.3832  0.0877
 5143TIP3    H115435   5.028   3.978   0.444  2.0661  1.8326  0.1166
 5143TIP3    H215436   5.030   3.894   0.570 -0.9312  1.1791 -0.1878
 5144TIP3   OH215437   0.037   4.752   4.913 -0.6651 -0.2345 -0.0962
 5144TIP3    H115438  -0.022   4.717   4.980 -1.0107 -1.5199 -1.0225
 5144TIP3    H215439   0.105   4.685   4.904 -0.1497  0.3259 -0.4184
 5145TIP3   OH215440   4.756   2.236   0.919  0.2066 -0.2442  0.0585
 5145TIP3    H115441   4.791   2.317   0.880 -0.7609  0.2894  0.2599
 5145TIP3    H215442   4.784   2.167   0.859  1.4018  0.1889  0.1009
 5146TIP3   OH215443   4.653   0.617   3.331  0.8096 -0.1804 -0.3969
 5146TIP3    H115444   4.565   0.600   3.364  0.4569 -0.8495 -1.6184
 5146TIP3    H215445   4.685   0.532   3.302  1.6064  0.1719 -0.5773
 5147TIP3   OH215446   3.785   1.987   3.684  0.0810  0.1370  0.0820
 5147TIP3    H115447   3.707   1.978   3.739  0.5071  0.5276  0.7600
 5147TIP3    H215448   3.760   1.946   3.601 -1.7415  2.5087 -0.6588
 5148TIP3   OH215449   0.707   1.735   1.531  0.0380  0.0003 -0.1546
 5148TIP3    H115450   0.751   1.819   1.545 -0.3962  0.2947 -0.5504
 5148TIP3    H215451   0.697   1.698   1.619 -0.2702  0.6132  0.0725
 5149TIP3   OH215452   3.358   0.555   4.534 -0.2830  0.5337  0.3896
 5149TIP3    H115453   3.354   0.516   4.621 -2.3788 -1.0521 -0.3346
 5149TIP3    H215454   3.451   0.577   4.522  0.6108 -2.0053  1.8502
 5150TIP3   OH215455   2.605   1.824   1.990 -0.1291 -0.5579  0.0647
 5150TIP3    H115456   2.604   1.834   1.894  1.0062  0.2265  0.1128
 5150TIP3    H215457   2.665   1.751   2.005  0.2287 -0.2415  0.1956
 5151TIP3   OH215458   2.453   2.652   1.943  0.2231 -0.5379  1.0892
 5151TIP3    H115459   2.491   2.572   1.978 -0.8164 -1.1493  0.8576
 5151TIP3    H215460   2.527   2.711   1.932  1.1382 -1.7678  0.4382
 5152TIP3   OH215461   5.324   1.280   5.108 -0.4336 -0.4436  0.2389
 5152TIP3    H115462   5.391   1.333   5.151 -0.3132 -0.6217  0.2683
 5152TIP3    H215463   5.371   1.205   5.073 -0.1265  0.7222 -2.0742
 5153TIP3   OH215464   5.147   4.896   4.827 -0.0134  0.3837  0.1102
 5153TIP3    H115465   5.120   4.987   4.836 -0.1271  0.3206  0.4554
 5153TIP3    H215466   5.178   4.872   4.915 -1.7944 -0.4732  0.5581
 5154TIP3   OH215467   3.513   1.122   1.280 -0.2863 -0.1166 -0.5278
 5154TIP3    H115468   3.425   1.134   1.316 -0.0450 -0.7568  0.3043
 5154TIP3    H215469   3.570   1.174   1.336  0.1770 -1.6177  0.4751
 5155TIP3   OH215470   2.982   4.309   4.571 -0.4434  0.2268  0.2813
 5155TIP3    H115471   3.001   4.292   4.663 -0.0245 -0.3782  0.0901
 5155TIP3    H215472   2.939   4.229   4.539 -0.2081  0.2677 -0.1506
 5156TIP3   OH215473   2.109   3.889   0.311  0.1725  0.1267  0.0732
 5156TIP3    H115474   2.027   3.840   0.302  1.7705 -2.2990 -3.7512
 5156TIP3    H215475   2.171   3.824   0.344  0.9306  1.5669  1.6092
 5157TIP3   OH215476   2.889   3.942   2.900  0.2131  0.2009 -0.3893
 5157TIP3    H115477   2.802   3.901   2.898  0.8561 -1.3025  0.5603
 5157TIP3    H215478   2.894   3.985   2.985  0.6583 -0.3455 -0.1330
 5158TIP3   OH215479   3.898   4.685   1.386  0.2754  0.2670 -0.4888
 5158TIP3    H115480   3.869   4.689   1.477 -0.0160 -1.7886 -0.4483
 5158TIP3    H215481   3.817   4.674   1.336  0.4542  1.1601 -0.9939
 5159TIP3   OH215482   0.580   2.317   1.529  0.3273  0.1880 -0.0496
 5159TIP3    H115483   0.578   2.398   1.478 -0.5663 -0.3337 -0.8843
 5159TIP3    H215484   0.666   2.316   1.569  0.5129  1.3388 -0.3820
 5160TIP3   OH215485   0.444   4.438   2.509  0.0597 -0.0820 -0.3457
 5160TIP3    H115486   0.521   4.391   2.541 -0.3591 -1.0806 -0.7440
 5160TIP3    H215487   0.389   4.369   2.471 -1.4703  0.4822  0.7839
 5161TIP3   OH215488   5.642   2.408   4.358 -0.2135 -0.3950  0.1837
 5161TIP3    H115489   5.585   2.397   4.282  0.8070  0.5322 -0.7624
 5161TIP3    H215490   5.696   2.484   4.336  3.2122 -2.6985 -0.1882
 5162TIP3   OH215491   3.951   0.304   3.715 -0.0305  0.4307 -1.1147
 5162TIP3    H115492   3.871   0.358   3.714 -0.2193  0.1719 -0.1846
 5162TIP3    H215493   4.005   0.343   3.646 -0.0869  1.9436 -0.3528
 5163TIP3   OH215494   1.733   0.314   4.799 -0.5820 -0.2157  0.0455
 5163TIP3    H115495   1.741   0.220   4.780 -0.7963 -0.1300 -0.4910
 5163TIP3    H215496   1.760   0.357   4.718  0.1938  0.2086  0.5192
 5164TIP3   OH215497   5.209   3.048   0.426  0.0690 -0.1622  0.4222
 5164TIP3    H115498   5.116   3.039   0.447 -0.1278  3.5818  1.9875
 5164TIP3    H215499   5.253   3.038   0.510  1.1073 -1.5991 -0.2581
 5165TIP3   OH215500   1.302   5.905   1.530  0.3133  1.3629  0.7953
 5165TIP3    H115501   1.254   5.986   1.545 -1.9709  0.7849 -2.4232
 5165TIP3    H215502   1.237   5.835   1.541  1.5840  0.1410  0.9565
 5166TIP3   OH215503   4.614   2.042   4.062 -0.1521  0.1613  0.4032
 5166TIP3    H115504   4.677   2.019   3.993  0.6914  1.7709  0.5756
 5166TIP3    H215505   4.533   2.000   4.036  0.5128 -0.3856 -0.8586
 5167TIP3   OH215506   2.150   5.620   3.108 -0.5876 -0.0782 -0.7372
 5167TIP3    H115507   2.158   5.569   3.188 -0.2660  0.0918 -0.6588
 5167TIP3    H215508   2.232   5.603   3.060 -0.3254  0.6351 -0.5490
 5168TIP3   OH215509   3.855   1.092   0.473 -0.0840  0.0738 -0.7386
 5168TIP3    H115510   3.925   1.132   0.523 -0.1069  0.3109 -0.8971
 5168TIP3    H215511   3.893   1.076   0.386  0.0877 -0.7193 -0.5276
 5169TIP3   OH215512   0.955   2.193   1.380  0.3171 -0.8866  0.8039
 5169TIP3    H115513   0.935   2.208   1.287 -0.4421  1.8920  1.3366
 5169TIP3    H215514   1.035   2.140   1.378  0.8765 -0.1031 -1.4572
 5170TIP3   OH215515   5.805   3.961   0.114 -0.6771 -0.1310 -0.3454
 5170TIP3    H115516   5.849   3.876   0.116  0.3789  0.4081  0.0729
 5170TIP3    H215517   5.799   3.983   0.021  0.6507  0.1303 -0.3803
 5171TIP3   OH215518   2.512   1.512   0.043  0.1128  0.2182 -0.0838
 5171TIP3    H115519   2.571   1.548   0.108 -1.1477  2.8527 -0.2538
 5171TIP3    H215520   2.525   1.568  -0.034  0.2768 -1.6934 -1.5041
 5172TIP3   OH215521   6.189   3.398   2.457  0.1152  0.2465 -0.0284
 5172TIP3    H115522   6.165   3.469   2.398 -0.6696  0.0082 -0.0078
 5172TIP3    H215523   6.151   3.320   2.417  1.9208 -0.3576 -0.6445
 5173TIP3   OH215524   5.358   0.536   1.608  0.1276 -0.0953 -0.8005
 5173TIP3    H115525   5.266   0.557   1.595  0.3864  1.7787  0.0724
 5173TIP3    H215526   5.404   0.585   1.539  0.6574  1.2089  0.4431
 5174TIP3   OH215527   2.849   0.610   2.099  0.5548  0.6781  0.2738
 5174TIP3    H115528   2.771   0.645   2.056  0.8283 -0.9982 -1.7372
 5174TIP3    H215529   2.816   0.570   2.180 -0.6996  0.0454 -0.5194
 5175TIP3   OH215530   4.595   4.353   2.548 -0.3400  0.7999 -0.0849
 5175TIP3    H115531   4.575   4.425   2.489 -1.8013  1.0775  0.7126
 5175TIP3    H215532   4.690   4.342   2.541 -0.2587  1.9831 -1.1326
 5176TIP3   OH215533   3.217   0.359   1.432  0.2600  0.3273 -0.2855
 5176TIP3    H115534   3.290   0.390   1.378  0.8832 -3.3924 -1.8831
 5176TIP3    H215535   3.139   0.377   1.380  0.3663  1.1099 -0.1851
 5177TIP3   OH215536   5.091   3.586   4.749 -0.4740  0.2539 -0.1191
 5177TIP3    H115537   4.996   3.583   4.738 -0.5404  0.3773  0.4327
 5177TIP3    H215538   5.125   3.565   4.661 -1.0064 -0.3314 -0.1970
 5178TIP3   OH215539   3.582   2.573   0.159  0.1324 -0.0153  0.5379
 5178TIP3    H115540   3.528   2.543   0.086  0.7965 -0.1656  0.0968
 5178TIP3    H215541   3.589   2.498   0.217  1.5581 -0.6905 -0.4261
 5179TIP3   OH215542   6.061   0.998   0.109 -0.2262 -0.1982 -0.2262
 5179TIP3    H115543   6.110   1.060   0.163  0.3676 -0.9043  0.0734
 5179TIP3    H215544   6.078   1.026   0.019  2.8158 -1.7994 -0.2985
 5180TIP3   OH215545   0.069   3.357   2.554 -0.0069 -0.5175 -0.4261
 5180TIP3    H115546   0.075   3.269   2.517  1.0469 -0.1888 -1.0721
 5180TIP3    H215547  -0.022   3.384   2.538 -0.9717 -2.2465  1.5898
 5181TIP3   OH215548   3.110   4.976   2.990  0.8519  0.2348  0.7064
 5181TIP3    H115549   3.020   4.950   3.009  0.9369  0.4579  1.4711
 5181TIP3    H215550   3.102   5.063   2.952  0.7453  0.2917  0.8566
 5182TIP3   OH215551   0.241   4.299   4.432  0.1904  0.0441 -0.2744
 5182TIP3    H115552   0.152   4.326   4.452  0.1189  0.2447 -0.8405
 5182TIP3    H215553   0.293   4.379   4.443  0.1555  0.1483 -0.8329
 5183TIP3   OH215554   4.399   2.606   0.044  0.1878  0.0828  0.0448
 5183TIP3    H115555   4.315   2.580   0.006 -0.7212  1.1669  1.2287
 5183TIP3    H215556   4.377   2.672   0.109  2.0976  1.4306 -0.5685
 5184TIP3   OH215557   5.337   3.168   2.894  0.5109  0.1684  0.1172
 5184TIP3    H115558   5.272   3.187   2.962  1.2256 -0.3496  0.9816
 5184TIP3    H215559   5.421   3.190   2.935  1.1143 -1.8278  0.0750
 5185TIP3   OH215560   2.897   2.819   1.104 -0.0637  0.2529 -0.0791
 5185TIP3    H115561   2.809   2.835   1.069  0.3186 -0.0048 -1.2162
 5185TIP3    H215562   2.909   2.886   1.171 -1.1568  0.2410  0.1405
 5186TIP3   OH215563   4.160   3.320   3.263  0.9211 -0.0763  0.5356
 5186TIP3    H115564   4.069   3.347   3.258  1.2712  1.2541  1.0392
 5186TIP3    H215565   4.174   3.268   3.184 -0.4338 -0.8624  0.7751
 5187TIP3   OH215566   4.039   0.151   2.423  0.7617  0.7250 -0.0023
 5187TIP3    H115567   4.043   0.058   2.401  0.9599  0.8081 -0.3151
 5187TIP3    H215568   3.995   0.192   2.349  0.8108  0.9002  0.0647
 5188TIP3   OH215569   5.247   5.634   2.376 -0.6153 -0.2904 -0.4934
 5188TIP3    H115570   5.201   5.661   2.455  1.6924  1.7444  0.2686
 5188TIP3    H215571   5.197   5.673   2.304 -1.1954  0.1909  0.1606
 5189TIP3   OH215572   2.641   4.008   0.534 -0.1145  0.3110  0.4623
 5189TIP3    H115573   2.606   3.948   0.468  0.3554  2.0622 -1.4382
 5189TIP3    H215574   2.576   4.077   0.541  2.1207  2.8836 -2.0991
 5190TIP3   OH215575   0.334   5.078   0.365  0.5380  0.1309  0.1306
 5190TIP3    H115576   0.374   5.066   0.451  0.1770  0.1580  0.3060
 5190TIP3    H215577   0.255   5.130   0.382  0.5810  0.3275 -0.2474
 5191TIP3   OH215578   3.874   2.875   0.930 -0.3182  0.2037  0.0918
 5191TIP3    H115579   3.832   2.836   0.853  0.1454  3.4663 -2.0045
 5191TIP3    H215580   3.929   2.805   0.965 -2.3237 -2.1174 -1.0857
 5192TIP3   OH215581   5.709   1.106   1.066  0.0445 -0.2253  0.5950
 5192TIP3    H115582   5.743   1.134   1.151 -0.5590 -1.0997  1.1498
 5192TIP3    H215583   5.675   1.186   1.026 -0.1485  0.1151  1.4165
 5193TIP3   OH215584   2.670   5.615   0.611 -0.3025 -0.0664 -0.5093
 5193TIP3    H115585   2.586   5.660   0.601  0.1420  1.0780  0.5981
 5193TIP3    H215586   2.648   5.530   0.647 -1.1414 -0.6778 -2.3320
 5194TIP3   OH215587   4.690   0.431   0.364  0.0228 -0.1552 -0.0918
 5194TIP3    H115588   4.733   0.424   0.449 -0.4149  0.2870  0.1708
 5194TIP3    H215589   4.727   0.360   0.312  0.1424 -0.5573  0.5355
 5195TIP3   OH215590   6.347   3.379   0.086  0.1967 -0.0583  0.6919
 5195TIP3    H115591   6.254   3.394   0.068  0.2804 -1.2892 -1.0462
 5195TIP3    H215592   6.348   3.334   0.171 -1.1402 -2.9497 -0.6662
 5196TIP3   OH215593   2.578   5.510   1.540 -0.3498 -0.0002 -0.1081
 5196TIP3    H115594   2.496   5.499   1.492 -0.6939  1.4377  0.1116
 5196TIP3    H215595   2.581   5.603   1.563  0.6085 -0.3206  1.2187
 5197TIP3   OH215596   1.615   5.358   1.109  0.1847  0.1307 -0.0926
 5197TIP3    H115597   1.598   5.265   1.123 -0.1632  0.1417 -0.4108
 5197TIP3    H215598   1.529   5.399   1.118  0.1287  0.2681 -1.1795
 5198TIP3   OH215599   3.193   5.153   3.216 -0.0145 -0.3370 -0.1331
 5198TIP3    H115600   3.141   5.229   3.189 -0.5303 -0.0089  1.6481
 5198TIP3    H215601   3.169   5.084   3.153  0.2074  0.8520 -1.5636
 5199TIP3   OH215602   1.571   3.576   1.835 -0.2350  0.0364 -0.2689
 5199TIP3    H115603   1.627   3.640   1.792  0.4946 -1.1835 -1.1935
 5199TIP3    H215604   1.482   3.600   1.808 -0.0463  1.0128 -0.0813
 5200TIP3   OH215605   0.429   3.006   0.297  0.2114  0.0669 -0.4161
 5200TIP3    H115606   0.394   3.039   0.214 -2.2413 -2.2457 -0.4275
 5200TIP3    H215607   0.417   3.079   0.358 -0.3419  0.9428 -1.5288
 5201TIP3   OH215608   3.423   5.673   2.195 -0.2811  0.2686 -0.6815
 5201TIP3    H115609   3.507   5.698   2.234  0.1663 -1.2027 -0.6483
 5201TIP3    H215610   3.406   5.741   2.130  2.1088 -0.6110 -2.3748
 5202TIP3   OH215611   3.870   5.534   2.611  0.5693 -0.1767 -0.4143
 5202TIP3    H115612   3.784   5.568   2.636 -0.6835 -1.9597 -2.0542
 5202TIP3    H215613   3.913   5.606   2.565  0.0752  0.7872  0.5823
 5203TIP3   OH215614   4.202   0.770   5.114 -0.2094 -0.3862  1.0015
 5203TIP3    H115615   4.127   0.710   5.114  0.3390 -1.0807  0.7589
 5203TIP3    H215616   4.255   0.743   5.039  0.9401 -0.7496  1.9061
 5204TIP3   OH215617   3.499   2.631   3.123 -0.4433  0.5004  0.6750
 5204TIP3    H115618   3.528   2.722   3.132  1.6614  0.2553 -2.2377
 5204TIP3    H215619   3.560   2.581   3.177 -0.4511  0.6534  0.8281
 5205TIP3   OH215620   0.922   3.835   0.705  0.3903 -0.0195  0.3187
 5205TIP3    H115621   0.905   3.929   0.704 -1.4541 -0.2444 -3.2138
 5205TIP3    H215622   1.008   3.827   0.747  0.5288  3.1783  0.9248
 5206TIP3   OH215623   2.542   4.636   3.919  0.0797 -0.0283 -0.0106
 5206TIP3    H115624   2.459   4.618   3.964  0.4493 -0.6240  0.4412
 5206TIP3    H215625   2.606   4.646   3.990 -0.1887  3.9290 -0.0858
 5207TIP3   OH215626   4.919   5.250   3.517 -0.2561 -0.0399  0.3292
 5207TIP3    H115627   4.922   5.190   3.442 -2.8107  1.4541 -1.1168
 5207TIP3    H215628   5.007   5.246   3.555  1.5240 -0.1265 -3.3650
 5208TIP3   OH215629   3.378   5.681   4.908  0.2908 -0.1048 -0.1717
 5208TIP3    H115630   3.464   5.723   4.905  0.3697 -0.2646 -0.1540
 5208TIP3    H215631   3.375   5.639   4.994  1.0287 -1.8531 -0.9496
 5209TIP3   OH215632   2.205   4.415   3.679 -0.3152 -0.3078  0.4595
 5209TIP3    H115633   2.154   4.412   3.598  1.3658  1.4282 -0.7493
 5209TIP3    H215634   2.296   4.408   3.650  0.3657  1.0926  2.0879
 5210TIP3   OH215635   2.213   2.438   1.912  0.6398 -0.1334  0.4519
 5210TIP3    H115636   2.164   2.440   1.994 -0.6726 -0.1387 -0.2913
 5210TIP3    H215637   2.305   2.435   1.938  0.2217 -1.5209  1.9192
 5211TIP3   OH215638   4.879   0.805   3.782 -0.1589  0.6396 -0.2816
 5211TIP3    H115639   4.950   0.756   3.742 -0.1016  1.3792 -1.1050
 5211TIP3    H215640   4.799   0.765   3.748 -0.1137  0.9954 -0.8182
 5212TIP3   OH215641   0.338   1.940   2.276 -0.3665  0.1556  0.0812
 5212TIP3    H115642   0.396   1.947   2.201  0.3849  0.8625  0.7145
 5212TIP3    H215643   0.330   2.029   2.309  1.0139 -0.4207  2.0993
 5213TIP3   OH215644   3.831   3.809   1.484  0.2874  0.2050  0.4034
 5213TIP3    H115645   3.796   3.760   1.410  0.8613  1.1190 -0.5008
 5213TIP3    H215646   3.898   3.752   1.521 -1.4585 -1.1678  1.5892
 5214TIP3   OH215647   3.785   2.948   2.122  0.5422  0.6569 -0.2131
 5214TIP3    H115648   3.772   3.043   2.122 -0.5626  0.5263 -1.1644
 5214TIP3    H215649   3.805   2.927   2.213 -3.0738  1.3318  0.9120
 5215TIP3   OH215650   0.263   0.215   2.464 -0.7132  0.0359  0.6499
 5215TIP3    H115651   0.245   0.151   2.533 -2.6028  1.2561  1.3493
 5215TIP3    H215652   0.328   0.275   2.503  1.6449 -1.7412 -0.2628
 5216TIP3   OH215653   4.381   2.194   4.954 -0.3166  0.1712 -0.5161
 5216TIP3    H115654   4.391   2.279   4.997 -1.8952  1.3777 -2.3602
 5216TIP3    H215655   4.337   2.139   5.019 -0.1077  1.0397  0.3808
 5217TIP3   OH215656   2.638   5.294   4.579  0.1631 -0.5928  0.1890
 5217TIP3    H115657   2.705   5.267   4.643 -0.1112 -1.5270  0.0969
 5217TIP3    H215658   2.631   5.219   4.520 -0.8139 -0.4173  0.0724
 5218TIP3   OH215659   0.983   4.750   1.596 -0.2749 -0.4102 -0.1954
 5218TIP3    H115660   0.927   4.810   1.647 -1.6562  0.3292 -2.4495
 5218TIP3    H215661   1.065   4.798   1.585 -0.9520  0.6119 -0.9747
 5219TIP3   OH215662   3.234   0.232   4.955 -0.2854 -0.7794 -0.7124
 5219TIP3    H115663   3.273   0.163   5.008 -1.4271 -1.2731 -0.4978
 5219TIP3    H215664   3.145   0.243   4.990 -0.8123 -0.6019 -2.0451
 5220TIP3   OH215665   0.883   0.589   1.868  0.1763 -0.2900 -0.0397
 5220TIP3    H115666   0.940   0.559   1.940  3.1757  0.1741 -2.0199
 5220TIP3    H215667   0.836   0.511   1.841  0.1343 -0.8096  1.4295
 5221TIP3   OH215668   1.104   5.161   1.663 -0.4777 -0.5975  0.3076
 5221TIP3    H115669   1.068   5.234   1.713 -0.2725  0.2335 -0.7058
 5221TIP3    H215670   1.150   5.203   1.590 -0.6963 -1.7563 -0.5230
 5222TIP3   OH215671   1.797   1.947   1.322  0.4554 -0.4808 -0.1758
 5222TIP3    H115672   1.718   1.994   1.348  0.0166 -1.5003  0.4116
 5222TIP3    H215673   1.864   1.977   1.382  0.5383  0.4394 -0.7163
 5223TIP3   OH215674   3.527   5.421   1.070 -0.0718  0.6705  0.1199
 5223TIP3    H115675   3.579   5.485   1.022  1.7057  0.3836  1.5692
 5223TIP3    H215676   3.543   5.441   1.162 -2.3324  0.3719  0.6511
 5224TIP3   OH215677   2.250   5.511   2.028 -0.0504  0.7627 -0.3674
 5224TIP3    H115678   2.211   5.444   2.083  1.5717  0.7259  0.8027
 5224TIP3    H215679   2.305   5.463   1.966 -0.1058  0.9178 -0.5381
 5225TIP3   OH215680   3.630   3.447   0.289  0.0954  0.8040 -0.0271
 5225TIP3    H115681   3.604   3.502   0.216 -0.4074  0.6467  0.0319
 5225TIP3    H215682   3.661   3.366   0.249 -0.6274  0.5333 -0.0518
 5226TIP3   OH215683   6.239   5.899   4.183  0.4423  0.0653 -0.3347
 5226TIP3    H115684   6.238   5.819   4.236  1.0359 -0.7058 -1.4580
 5226TIP3    H215685   6.310   5.951   4.220  0.6740 -0.3412 -0.2038
 5227TIP3   OH215686   0.080   5.777   3.203  0.0538 -0.1234 -0.0616
 5227TIP3    H115687   0.064   5.864   3.241 -0.8054  0.7744 -2.2788
 5227TIP3    H215688   0.175   5.766   3.209  0.0620  0.4779  1.2220
 5228TIP3   OH215689   2.471   5.623   3.607  0.1874  0.1596 -0.5821
 5228TIP3    H115690   2.510   5.671   3.534 -0.9345  1.5267 -0.3013
 5228TIP3    H215691   2.415   5.686   3.652 -2.6478 -1.7725 -1.1426
 5229TIP3   OH215692   0.257   3.446   2.245 -0.4687 -0.2485 -0.1468
 5229TIP3    H115693   0.251   3.369   2.189 -2.4472  0.8737 -1.6282
 5229TIP3    H215694   0.185   3.437   2.307 -1.3440  0.7896 -0.9520
 5230TIP3   OH215695   2.809   5.208   0.654  0.6275 -0.3874  0.5427
 5230TIP3    H115696   2.757   5.269   0.707 -0.6251 -0.0868 -0.9500
 5230TIP3    H215697   2.772   5.122   0.674  0.4232 -0.3185  0.4694
 5231TIP3   OH215698   0.755   4.254   3.450 -0.1305 -0.0435 -0.2429
 5231TIP3    H115699   0.778   4.163   3.435  1.6713  0.6286 -2.0810
 5231TIP3    H215700   0.757   4.294   3.364  0.4887  2.0188  0.6563
 5232TIP3   OH215701   2.021   2.688   2.526  0.2320 -0.0800 -0.6629
 5232TIP3    H115702   2.043   2.733   2.444  0.5132  1.4429  0.2074
 5232TIP3    H215703   2.017   2.758   2.592  0.6811 -1.3330  0.7640
 5233TIP3   OH215704   4.408   5.403   4.006 -0.0467  0.3161 -0.4770
 5233TIP3    H115705   4.393   5.485   3.959 -2.0230  0.4483  0.2511
 5233TIP3    H215706   4.455   5.347   3.945 -1.3752  0.9372 -2.1474
 5234TIP3   OH215707   6.129   2.405   2.957  0.3367  0.1005  0.7669
 5234TIP3    H115708   6.070   2.480   2.954  2.1439  1.5836  0.6366
 5234TIP3    H215709   6.170   2.411   3.044 -0.0230 -1.1736  1.0397
 5235TIP3   OH215710   1.626   3.610   3.310 -0.1895 -1.1872  0.3316
 5235TIP3    H115711   1.613   3.622   3.404  1.8475  0.4636  0.4902
 5235TIP3    H215712   1.545   3.642   3.270 -0.2976  0.0344  1.4573
 5236TIP3   OH215713   1.665   2.476   2.873 -0.0994  0.2922 -0.7026
 5236TIP3    H115714   1.657   2.386   2.906 -2.1775  0.7619  0.1972
 5236TIP3    H215715   1.705   2.466   2.786  0.1129 -1.4572 -0.4400
 5237TIP3   OH215716   1.814   0.683   0.203 -0.6284  0.2667  0.5930
 5237TIP3    H115717   1.799   0.774   0.178 -0.1094  0.1582 -0.1852
 5237TIP3    H215718   1.907   0.679   0.224 -0.1368 -0.5153 -1.4946
 5238TIP3   OH215719   1.420   1.631   3.386  0.3352 -0.2875 -0.1631
 5238TIP3    H115720   1.485   1.561   3.387 -1.1533 -1.8353  2.6090
 5238TIP3    H215721   1.362   1.609   3.313  0.9586 -0.8123 -0.5125
 5239TIP3   OH215722   0.619   2.857   4.599 -0.2243  0.2770 -0.6291
 5239TIP3    H115723   0.604   2.882   4.691 -0.8344 -2.0892 -0.0245
 5239TIP3    H215724   0.543   2.892   4.552 -0.3108  0.8074 -0.1102
 5240TIP3   OH215725   4.322   0.561   2.224 -0.1384  0.5620 -0.2041
 5240TIP3    H115726   4.343   0.500   2.153 -0.3405 -0.7425  0.8237
 5240TIP3    H215727   4.408   0.594   2.253  0.2669 -1.4731  1.1276
 5241TIP3   OH215728   0.498   1.919   3.357 -0.3482 -0.2095  0.2058
 5241TIP3    H115729   0.479   1.913   3.450  1.6417 -1.3123  0.5856
 5241TIP3    H215730   0.499   1.828   3.327  0.2116  0.0668 -0.6385
 5242TIP3   OH215731   4.572   4.670   0.680  0.1782 -0.1864 -0.1182
 5242TIP3    H115732   4.514   4.641   0.609  1.0730 -2.4994  0.0143
 5242TIP3    H215733   4.615   4.748   0.644  0.5600 -1.2430 -2.1383
 5243TIP3   OH215734   3.362   0.838   2.589 -0.0324  0.3478 -0.4142
 5243TIP3    H115735   3.322   0.906   2.535 -0.7301  0.3331  0.0592
 5243TIP3    H215736   3.411   0.886   2.656  0.5052  0.3683 -0.8154
 5244TIP3   OH215737   4.579   4.430   2.827  0.5869  0.2016 -0.1351
 5244TIP3    H115738   4.575   4.525   2.829  1.7277  0.2596 -0.0942
 5244TIP3    H215739   4.563   4.407   2.736  0.6987  0.4586 -0.2190
 5245TIP3   OH215740   0.385   4.607   0.226 -0.1779  0.3342  0.0472
 5245TIP3    H115741   0.294   4.594   0.253 -0.0627 -0.7969 -0.0608
 5245TIP3    H215742   0.427   4.523   0.243  0.2083 -0.0391 -2.3989
 5246TIP3   OH215743   3.242   5.935   1.282  0.0920  0.1411 -0.7198
 5246TIP3    H115744   3.209   5.974   1.201 -1.3356  0.2472 -0.0992
 5246TIP3    H215745   3.335   5.961   1.284 -0.4606  2.3845 -1.0136
 5247TIP3   OH215746   3.145   0.564   0.265  0.2850 -0.4194 -0.6076
 5247TIP3    H115747   3.055   0.543   0.239 -0.5195  0.8956  0.9854
 5247TIP3    H215748   3.193   0.481   0.253 -1.0555 -1.0882 -1.6690
 5248TIP3   OH215749   5.979   0.283   1.329 -0.0270  0.3801  0.1982
 5248TIP3    H115750   5.907   0.233   1.288  0.5886  0.2029 -0.7084
 5248TIP3    H215751   6.017   0.223   1.392  0.9160 -0.4633 -1.1159
 5249TIP3   OH215752   4.823   0.840   1.487  0.0504 -0.0071 -0.3005
 5249TIP3    H115753   4.851   0.860   1.576  0.6921 -0.9002 -0.2896
 5249TIP3    H215754   4.887   0.886   1.432  0.6158 -0.7408 -0.2795
 5250TIP3   OH215755   4.999   5.218   4.555 -0.1832  0.1323 -0.0160
 5250TIP3    H115756   5.094   5.216   4.549 -0.1620  0.6564  0.0605
 5250TIP3    H215757   4.974   5.129   4.579  0.2545 -0.1158 -0.4723
 5251TIP3   OH215758   6.071   5.115   4.122 -0.2294  0.1245 -0.0488
 5251TIP3    H115759   6.009   5.177   4.084 -1.6820 -1.1079  0.2152
 5251TIP3    H215760   6.017   5.060   4.179  1.1763 -0.8005  0.4178
 5252TIP3   OH215761   1.725   3.331   1.836  0.4733 -0.4022 -0.6529
 5252TIP3    H115762   1.667   3.407   1.849  2.5876  1.1368  0.2968
 5252TIP3    H215763   1.775   3.352   1.757  0.3821 -1.3309 -0.9775
 5253TIP3   OH215764   2.712   2.123   0.205  0.5830  0.1455 -0.0271
 5253TIP3    H115765   2.807   2.110   0.213  0.2579 -2.8091  0.0347
 5253TIP3    H215766   2.679   2.040   0.169 -1.8308  1.6374 -1.5502
 5254TIP3   OH215767   2.722   4.207   2.364  0.2109 -0.5663 -0.2407
 5254TIP3    H115768   2.739   4.296   2.332 -1.4548 -0.1807 -0.1108
 5254TIP3    H215769   2.629   4.193   2.348 -0.0434 -1.4461  1.8134
 5255TIP3   OH215770   1.654   1.074   1.335 -0.3740 -0.6555 -0.2299
 5255TIP3    H115771   1.617   1.009   1.394 -2.4289 -2.8029 -3.5129
 5255TIP3    H215772   1.591   1.146   1.336  0.5093  0.1515  1.3758
 5256TIP3   OH215773   3.148   3.482   3.839 -0.0029 -0.3947 -0.7284
 5256TIP3    H115774   3.083   3.549   3.820  0.8771  0.7184  0.0314
 5256TIP3    H215775   3.214   3.527   3.893  0.7408 -1.8059 -0.4085
 5257TIP3   OH215776   3.218   0.470   2.407  0.6392  0.2074  0.2793
 5257TIP3    H115777   3.162   0.395   2.388 -1.6818  1.8480  0.1486
 5257TIP3    H215778   3.247   0.500   2.321 -2.5698  2.3016 -0.2874
 5258TIP3   OH215779   3.518   2.219   4.683 -0.3151 -0.5238  0.1232
 5258TIP3    H115780   3.502   2.239   4.775 -0.5678 -1.0312  0.1946
 5258TIP3    H215781   3.543   2.126   4.683  1.3131 -0.1162 -0.1397
 5259TIP3   OH215782   6.371   3.923   1.726 -0.3180  0.2474 -0.1317
 5259TIP3    H115783   6.319   3.978   1.668  0.6019  0.8904 -0.3610
 5259TIP3    H215784   6.306   3.880   1.782 -1.1424  0.4385 -0.9188
 5260TIP3   OH215785   1.516   4.311   2.177 -0.0182  0.0242 -0.5258
 5260TIP3    H115786   1.457   4.337   2.106 -0.9717  1.6015  0.7749
 5260TIP3    H215787   1.457   4.283   2.247  0.8731 -0.5441  0.0049
 5261TIP3   OH215788   1.102   4.206   4.938  0.0421  0.0285 -0.0904
 5261TIP3    H115789   1.123   4.193   5.030  0.2220 -2.6761 -0.4485
 5261TIP3    H215790   1.026   4.150   4.923 -1.0850  1.7694 -1.2221
 5262TIP3   OH215791   1.667   0.235   2.152  0.3944 -0.0839  0.0657
 5262TIP3    H115792   1.697   0.282   2.074  2.0544 -0.7093  0.2906
 5262TIP3    H215793   1.670   0.142   2.127  0.8032 -0.2810  0.8013
 5263TIP3   OH215794   4.433   0.569   0.302 -0.2773 -0.3691  0.2098
 5263TIP3    H115795   4.454   0.595   0.392  0.2611 -0.2670  0.0579
 5263TIP3    H215796   4.513   0.528   0.269 -0.9099 -1.6468  0.2210
 5264TIP3   OH215797   3.836   3.691   0.582  0.2711 -0.1648  0.3326
 5264TIP3    H115798   3.793   3.606   0.592 -0.0417 -0.1245 -0.5607
 5264TIP3    H215799   3.904   3.675   0.517 -0.4160  0.4683 -0.5782
 5265TIP3   OH215800   5.181   3.759   3.774 -0.0401  0.0541  0.3680
 5265TIP3    H115801   5.095   3.721   3.756 -0.5338  1.9752 -1.7694
 5265TIP3    H215802   5.162   3.838   3.825  0.6271 -0.2741  1.1571
 5266TIP3   OH215803   3.997   5.361   4.375 -0.2538 -0.5434 -0.5376
 5266TIP3    H115804   3.908   5.393   4.366  0.1283  1.2272  1.2348
 5266TIP3    H215805   4.012   5.307   4.298 -2.8660 -0.9591 -0.8219
 5267TIP3   OH215806   0.747   5.921   2.228  0.1393  0.3139 -0.2095
 5267TIP3    H115807   0.755   6.016   2.221  1.5188  0.2380  0.1300
 5267TIP3    H215808   0.655   5.904   2.210 -0.3373  1.7969  0.5920
 5268TIP3   OH215809   3.311   2.088   4.003 -0.4878 -0.2196 -0.7541
 5268TIP3    H115810   3.250   2.041   3.947 -2.3657 -0.1574  1.1101
 5268TIP3    H215811   3.286   2.180   3.992  0.2245 -0.0569 -1.0394
 5269TIP3   OH215812   1.400   1.139   1.565  0.3433 -0.1364  0.3779
 5269TIP3    H115813   1.311   1.159   1.595  0.3640  0.1704  0.2359
 5269TIP3    H215814   1.451   1.218   1.586  0.8547 -0.7562  1.5640
 5270TIP3   OH215815   2.118   5.554   1.766  0.3425 -0.1688  0.0256
 5270TIP3    H115816   2.050   5.505   1.813  0.0644  1.8398  1.8786
 5270TIP3    H215817   2.197   5.542   1.820  0.5571  0.4363 -0.1523
 5271TIP3   OH215818   3.112   4.677   0.380 -0.4729  0.3218 -0.2401
 5271TIP3    H115819   3.189   4.624   0.396  0.2873  1.9904  2.1203
 5271TIP3    H215820   3.146   4.765   0.363 -1.8086  1.1849  1.2865
 5272TIP3   OH215821   2.957   0.054   3.676 -0.0073 -0.3271 -0.0385
 5272TIP3    H115822   2.869   0.068   3.641 -0.1137 -0.5010  0.1539
 5272TIP3    H215823   2.994   0.142   3.684 -0.7393 -0.1195  1.3584
 5273TIP3   OH215824   5.923   1.148   3.516 -0.3661 -0.7824 -0.0948
 5273TIP3    H115825   5.975   1.206   3.572  2.4477 -0.9403 -2.2914
 5273TIP3    H215826   5.988   1.107   3.458 -2.9566 -1.3703 -2.8053
 5274TIP3   OH215827   1.254   4.228   2.598 -0.2038 -0.8518  0.5365
 5274TIP3    H115828   1.165   4.264   2.598 -0.4407 -1.3980  1.7192
 5274TIP3    H215829   1.269   4.202   2.689  0.9576 -1.2956  0.2291
 5275TIP3   OH215830   5.951   4.505   3.171  0.1296 -0.1886  0.0443
 5275TIP3    H115831   5.921   4.473   3.086 -0.2198  0.6245 -0.1394
 5275TIP3    H215832   5.891   4.576   3.193 -0.6107 -1.2169  1.5811
 5276TIP3   OH215833   5.531   3.672   0.388  0.1225 -0.1966 -0.2928
 5276TIP3    H115834   5.599   3.655   0.453 -1.0110 -0.4552  0.8641
 5276TIP3    H215835   5.579   3.698   0.309  1.5262  0.9832  0.8835
 5277TIP3   OH215836   1.490   2.220   4.735 -0.8078  0.3434 -0.0006
 5277TIP3    H115837   1.571   2.175   4.712 -1.3751 -1.2680  0.9700
 5277TIP3    H215838   1.515   2.281   4.805 -0.3836  0.0774  0.0805
 5278TIP3   OH215839   0.012   3.153   4.601  0.4620  0.1851  0.4045
 5278TIP3    H115840   0.075   3.181   4.534  1.2203 -0.8120  0.6835
 5278TIP3    H215841   0.051   3.076   4.641 -2.0246 -2.0208 -1.0732
 5279TIP3   OH215842   2.526   5.426   3.804  0.0654  0.1869 -0.4651
 5279TIP3    H115843   2.531   5.482   3.882  0.3396 -0.7366  0.1971
 5279TIP3    H215844   2.498   5.485   3.734 -1.0978  0.8398  0.5244
 5280TIP3   OH215845   6.122   4.666   2.788  0.1345  0.4078  0.5430
 5280TIP3    H115846   6.105   4.657   2.882  0.2267  0.4202  0.5610
 5280TIP3    H215847   6.070   4.742   2.762  1.8405  1.8298  1.0491
 5281TIP3   OH215848   1.469   4.473   2.424 -0.5022  0.0560  0.0281
 5281TIP3    H115849   1.527   4.495   2.350 -1.8257  0.9064 -0.7934
 5281TIP3    H215850   1.528   4.469   2.499  0.8807 -0.7768 -1.0422
 5282TIP3   OH215851   2.133   4.897   4.400 -0.1637 -0.3808 -0.1680
 5282TIP3    H115852   2.170   4.985   4.396 -0.6140 -0.1841 -0.1592
 5282TIP3    H215853   2.106   4.887   4.491 -1.9404  0.2615 -0.5781
 5283TIP3   OH215854   1.078   3.391   0.966 -0.4144  0.0386  0.2701
 5283TIP3    H115855   1.148   3.428   1.019  0.2273 -0.2708 -0.3470
 5283TIP3    H215856   1.018   3.352   1.030  1.5628 -2.5083  0.7565
 5284TIP3   OH215857   1.214   5.878   4.034  0.6979 -0.2966  0.6188
 5284TIP3    H115858   1.219   5.914   3.945  0.3764 -0.7626  0.4051
 5284TIP3    H215859   1.123   5.850   4.042  0.3861  0.8784  1.5509
 5285TIP3   OH215860   5.414   0.744   3.232  0.1322 -0.5590 -0.0511
 5285TIP3    H115861   5.417   0.832   3.269 -0.9431 -0.4059 -0.2779
 5285TIP3    H215862   5.472   0.748   3.156  0.7846 -0.3050  0.4599
 5286TIP3   OH215863   1.619   3.749   2.847 -0.1874 -0.2882 -0.2161
 5286TIP3    H115864   1.602   3.659   2.875 -1.6413 -0.0142 -0.1341
 5286TIP3    H215865   1.563   3.802   2.903 -0.8205  0.5179 -1.5769
 5287TIP3   OH215866   1.332   0.183   2.220  0.7669  0.0753 -0.0947
 5287TIP3    H115867   1.306   0.139   2.139  0.5975  1.5278 -0.8561
 5287TIP3    H215868   1.298   0.127   2.289 -2.9579  0.9377 -1.0180
 5288TIP3   OH215869   1.335   3.995   5.044 -0.0954 -0.2008  0.2556
 5288TIP3    H115870   1.403   3.928   5.040  1.3839  1.2265  0.4914
 5288TIP3    H215871   1.347   4.046   4.964 -1.3520 -0.3408 -0.0387
 5289TIP3   OH215872   4.584   4.886   4.170 -0.1405 -0.0283 -0.3844
 5289TIP3    H115873   4.653   4.945   4.200 -0.6050  1.0371 -1.3051
 5289TIP3    H215874   4.504   4.924   4.205 -0.3056 -1.0531  0.3814
 5290TIP3   OH215875   5.652   0.495   2.726 -0.0234 -0.4448  0.2428
 5290TIP3    H115876   5.595   0.495   2.803 -2.3379 -0.8116 -1.3838
 5290TIP3    H215877   5.701   0.577   2.732 -0.5156 -0.2344  1.8290
 5291TIP3   OH215878   0.707   1.186   1.335 -0.0520 -0.2092 -0.0731
 5291TIP3    H115879   0.649   1.198   1.260  0.3396 -0.7655 -0.4690
 5291TIP3    H215880   0.657   1.219   1.410 -0.9166 -0.7752 -0.3912
 5292TIP3   OH215881   0.655   4.279   2.594 -0.2750  0.1866 -0.2749
 5292TIP3    H115882   0.703   4.310   2.671  0.2326  0.3713 -0.6557
 5292TIP3    H215883   0.698   4.196   2.572 -0.1303  0.3490 -0.6133
 5293TIP3   OH215884   2.305   3.665   3.798  0.1997  0.2602 -0.3737
 5293TIP3    H115885   2.271   3.751   3.773  0.3145 -0.0338 -1.6088
 5293TIP3    H215886   2.322   3.672   3.892 -0.4133  1.3730 -0.3331
 5294TIP3   OH215887   2.570   5.221   3.118 -0.6760  0.2260  0.6009
 5294TIP3    H115888   2.586   5.293   3.178 -0.5470  0.4177  0.3405
 5294TIP3    H215889   2.610   5.250   3.035 -1.7044  0.3845  0.1490
 5295TIP3   OH215890   6.180   2.680   1.391 -0.3061 -0.3665  0.1424
 5295TIP3    H115891   6.125   2.718   1.460 -0.9009 -0.6760 -0.1580
 5295TIP3    H215892   6.264   2.725   1.400 -0.8824  0.7469  0.0345
 5296TIP3   OH215893   2.684   2.705   4.055  0.6367 -0.3081 -0.3015
 5296TIP3    H115894   2.605   2.734   4.009  1.9286  1.5267 -1.4843
 5296TIP3    H215895   2.728   2.785   4.081  1.0118 -1.2789  2.4658
 5297TIP3   OH215896   6.057   5.730   3.558  0.1673  0.6961  0.1786
 5297TIP3    H115897   6.011   5.809   3.584 -0.1305  1.4848 -2.4516
 5297TIP3    H215898   5.992   5.660   3.568 -1.1294  1.5285 -1.7743
 5298TIP3   OH215899   4.078   3.404   3.523  0.2890  0.1717 -0.3875
 5298TIP3    H115900   4.160   3.412   3.572 -0.3558  3.4331  0.3730
 5298TIP3    H215901   4.106   3.383   3.433  2.0338  1.7218 -0.2571
 5299TIP3   OH215902   2.596   4.128   1.404  0.3268  0.3576 -0.4155
 5299TIP3    H115903   2.502   4.145   1.392  0.4828  0.8990 -0.9238
 5299TIP3    H215904   2.610   4.042   1.365  0.1562  0.5591 -0.9406
 5300TIP3   OH215905   2.294   0.072   0.270 -0.0941 -0.1141  0.5783
 5300TIP3    H115906   2.217   0.062   0.326 -0.6261 -0.3245 -0.1805
 5300TIP3    H215907   2.366   0.037   0.323 -0.5753 -0.2325  1.1655
 5301TIP3   OH215908   3.939   2.058   1.372  0.1351  0.1598 -0.6021
 5301TIP3    H115909   3.844   2.050   1.366 -0.0780  2.3583 -0.8864
 5301TIP3    H215910   3.970   2.050   1.282  0.0442  1.0135 -0.7188
 5302TIP3   OH215911   2.223   1.731   3.785 -0.2716 -0.6826 -0.0705
 5302TIP3    H115912   2.159   1.677   3.738 -3.2291  1.0350  1.6404
 5302TIP3    H215913   2.234   1.687   3.869 -0.4595 -0.1606  0.2328
 5303TIP3   OH215914   2.160   4.775   1.738 -0.2501  0.2945 -0.1057
 5303TIP3    H115915   2.164   4.795   1.645  0.3859 -0.1642 -0.1810
 5303TIP3    H215916   2.237   4.721   1.755 -0.3114  0.4382  0.7021
 5304TIP3   OH215917   4.201   5.499   1.732  0.2936  0.4741 -0.4483
 5304TIP3    H115918   4.284   5.533   1.699 -0.3916  2.2819 -0.4546
 5304TIP3    H215919   4.136   5.564   1.705 -1.0276 -0.5510  0.1344
 5305TIP3   OH215920   2.659   2.429   1.714 -0.0554 -0.3891  0.0628
 5305TIP3    H115921   2.712   2.413   1.635  0.7915 -1.5171  0.8342
 5305TIP3    H215922   2.594   2.359   1.714 -3.5509  2.4431 -2.3515
 5306TIP3   OH215923   3.342   4.540   3.685 -0.6384  0.2262  0.1726
 5306TIP3    H115924   3.366   4.561   3.595 -1.8170  0.6927 -0.0525
 5306TIP3    H215925   3.349   4.445   3.691 -1.2377  0.1216 -0.6346
 5307TIP3   OH215926   3.217   2.091   1.243  0.2095  0.1683  0.4332
 5307TIP3    H115927   3.226   2.018   1.304  1.0736  1.0448  1.3937
 5307TIP3    H215928   3.218   2.170   1.298  0.4828  0.9580 -0.6504
 5308TIP3   OH215929   3.109   5.889   4.210 -0.2473 -0.4062 -0.5954
 5308TIP3    H115930   3.078   5.911   4.122 -0.4217  0.4749 -0.3264
 5308TIP3    H215931   3.190   5.938   4.220 -0.0711 -0.7363 -0.3671
 5309TIP3   OH215932   4.036   3.335   0.994  0.3291 -0.1052 -0.4846
 5309TIP3    H115933   3.950   3.326   1.035  1.3536 -0.8994  1.6307
 5309TIP3    H215934   4.058   3.248   0.963  1.6799 -0.6913  1.8919
 5310TIP3   OH215935   3.465   1.880   4.354  0.2571  0.2894  0.2636
 5310TIP3    H115936   3.533   1.813   4.366 -0.0136  0.0751  0.6378
 5310TIP3    H215937   3.428   1.861   4.268 -0.8423 -1.0009  0.9915
 5311TIP3   OH215938   2.913   1.293   3.501 -0.2414 -0.8498 -0.0869
 5311TIP3    H115939   2.875   1.206   3.511 -0.2595 -0.9887 -1.1690
 5311TIP3    H215940   2.985   1.281   3.439 -0.8200  0.0322 -0.9791
 5312TIP3   OH215941   2.901   0.537   0.109  0.6219  0.0870 -0.5386
 5312TIP3    H115942   2.875   0.453   0.070 -0.8174 -0.5194  1.5706
 5312TIP3    H215943   2.830   0.559   0.169  1.9234  1.8094  0.4708
 5313TIP3   OH215944   5.424   2.540   5.144  0.1995 -0.1366  0.1552
 5313TIP3    H115945   5.359   2.486   5.099 -0.8847  0.1003  1.3641
 5313TIP3    H215946   5.498   2.482   5.158 -0.5145 -0.9944  0.4514
 5314TIP3   OH215947   2.764   2.434   3.588  0.2756 -0.7846  0.1558
 5314TIP3    H115948   2.829   2.371   3.619  0.0971 -0.8363  0.4323
 5314TIP3    H215949   2.749   2.490   3.664  0.7090 -0.1750 -0.1930
 5315TIP3   OH215950   3.651   4.093   4.010 -0.3635  0.2131 -0.6729
 5315TIP3    H115951   3.689   4.173   3.974  2.1583 -0.6072 -0.0148
 5315TIP3    H215952   3.699   4.022   3.968 -0.4182 -0.8774  1.0207
 5316TIP3   OH215953   2.952   1.456   2.805  0.0131  0.0753 -0.0689
 5316TIP3    H115954   3.035   1.480   2.763  0.5226 -1.9685 -0.3366
 5316TIP3    H215955   2.885   1.482   2.741  0.5519  0.2613 -0.5690
 5317TIP3   OH215956   0.353   2.670   3.435  0.4099 -0.5277 -0.2779
 5317TIP3    H115957   0.351   2.620   3.517 -1.6591 -0.0551  0.0350
 5317TIP3    H215958   0.404   2.748   3.456  1.9454 -1.5298 -0.1755
 5318TIP3   OH215959   4.014   1.173   1.683 -0.4026 -0.2267  0.0848
 5318TIP3    H115960   3.950   1.106   1.708  1.7739 -2.4651  0.0623
 5318TIP3    H215961   3.965   1.255   1.688 -3.2566 -1.7686  0.0425
 5319TIP3   OH215962   5.759   0.187   0.780  0.5713  0.3268  0.5188
 5319TIP3    H115963   5.797   0.274   0.786  0.3253  0.4058  0.9281
 5319TIP3    H215964   5.811   0.143   0.712  1.1464  0.5521  0.8105
 5320TIP3   OH215965   2.692   3.370   4.969 -0.7885 -0.7740 -0.2871
 5320TIP3    H115966   2.612   3.319   4.955 -0.0619 -1.8951 -0.4762
 5320TIP3    H215967   2.763   3.308   4.954  0.1197 -0.0397  0.8000
 5321TIP3   OH215968   0.588   3.355   3.876  0.5270  0.4003  0.5268
 5321TIP3    H115969   0.662   3.391   3.827 -0.4218 -0.3338 -1.5716
 5321TIP3    H215970   0.550   3.431   3.920 -1.0614  2.0751 -3.3108
 5322TIP3   OH215971   3.402   3.797   4.925 -0.2025  0.4313 -0.7206
 5322TIP3    H115972   3.475   3.857   4.940  0.2888 -0.0381 -1.1836
 5322TIP3    H215973   3.412   3.770   4.834 -0.7162  0.0403 -0.6640
 5323TIP3   OH215974   1.922   4.672   3.866 -0.5225 -0.0148  0.0951
 5323TIP3    H115975   2.004   4.687   3.912 -0.0438 -1.4603 -0.2303
 5323TIP3    H215976   1.874   4.611   3.922 -0.4183 -0.8878 -0.7409
 5324TIP3   OH215977   2.986   0.986   1.106 -0.3621 -0.2249 -0.4019
 5324TIP3    H115978   3.034   0.904   1.123 -1.7049 -0.6214  1.9175
 5324TIP3    H215979   3.051   1.043   1.064  1.9817 -1.0204  1.8026
 5325TIP3   OH215980   5.233   2.515   4.539  0.8214  0.2620  0.4602
 5325TIP3    H115981   5.281   2.597   4.553  0.0868  0.4546  2.1369
 5325TIP3    H215982   5.259   2.460   4.613 -1.3389  0.3027  1.3253
 5326TIP3   OH215983   1.401   3.189   4.054 -0.0625  0.2154 -0.1943
 5326TIP3    H115984   1.331   3.247   4.085  0.1924 -0.2163  1.2675
 5326TIP3    H215985   1.470   3.197   4.119  0.9543  0.0511 -1.2215
 5327TIP3   OH215986   2.362   1.593   1.283  0.3948 -0.2119  0.5015
 5327TIP3    H115987   2.271   1.573   1.303  0.3046 -0.1658  0.1466
 5327TIP3    H215988   2.400   1.510   1.255  0.3822 -0.1692  0.3574
 5328TIP3   OH215989   6.085   2.865   1.178  0.8961  0.4113 -0.3144
 5328TIP3    H115990   6.112   2.800   1.114  2.9633  0.2523  0.6305
 5328TIP3    H215991   6.124   2.835   1.260 -1.1894  0.9105  0.9366
 5329TIP3   OH215992   4.080   5.118   4.833 -0.3754  0.2315 -0.2696
 5329TIP3    H115993   4.170   5.095   4.855 -0.6930  0.2963  1.1778
 5329TIP3    H215994   4.088   5.173   4.755  0.8375  0.3690 -0.0695
 5330TIP3   OH215995   2.853   4.063   4.289 -0.5282  0.2694 -0.7076
 5330TIP3    H115996   2.820   4.152   4.284 -2.8818 -0.5416 -0.8743
 5330TIP3    H215997   2.826   4.032   4.375  1.2157  0.0167 -0.2058
 5331TIP3   OH215998   2.795   3.584   0.558  0.5094 -0.7610 -0.0854
 5331TIP3    H115999   2.783   3.574   0.463  0.4864 -1.1681 -0.0427
 5331TIP3    H216000   2.863   3.521   0.580  0.4245 -0.7581  0.1899
 5332TIP3   OH216001   4.955   3.354   1.441  0.5818 -0.1531  0.6613
 5332TIP3    H116002   4.894   3.282   1.459  2.0269 -1.4423  0.6515
 5332TIP3    H216003   4.905   3.416   1.388 -1.0475 -0.6039  1.5993
 5333TIP3   OH216004   1.435   0.087   4.320  0.2089  0.2621 -0.2433
 5333TIP3    H116005   1.363   0.076   4.258 -0.6679  0.9309  0.6299
 5333TIP3    H216006   1.453   0.181   4.319  0.3692  0.2409  0.3042
 5334TIP3   OH216007   2.862   1.446   4.837  0.6756  0.3878 -0.1845
 5334TIP3    H116008   2.950   1.483   4.843  1.5585 -1.5413 -0.3115
 5334TIP3    H216009   2.861   1.374   4.901 -0.4160 -0.3332 -0.9639
 5335TIP3   OH216010   1.328   1.172   0.481 -0.0448  0.2445  0.1813
 5335TIP3    H116011   1.382   1.124   0.545  1.7509  1.3088 -0.4717
 5335TIP3    H216012   1.296   1.104   0.422  3.1456 -0.1959 -1.2320
 5336TIP3   OH216013   3.340   5.669   1.584 -0.2530  0.6021  0.1887
 5336TIP3    H116014   3.403   5.700   1.650 -1.5398  0.7882  1.3930
 5336TIP3    H216015   3.262   5.721   1.601 -1.3113 -0.8385 -0.0967
 5337TIP3   OH216016   3.568   5.866   4.956 -0.0224 -0.1518 -0.5781
 5337TIP3    H116017   3.601   5.934   5.014  0.6720 -1.0717  0.1529
 5337TIP3    H216018   3.619   5.877   4.875  0.8213 -0.4222 -0.0986
 5338TIP3   OH216019   5.345   4.033   2.824 -0.0477  0.6576 -0.4799
 5338TIP3    H116020   5.347   3.975   2.749 -0.5854  0.2706 -0.2076
 5338TIP3    H216021   5.416   4.095   2.810 -1.0176  1.4889 -2.0307
 5339TIP3   OH216022   2.978   0.872   1.948 -0.3552 -0.0212  0.0029
 5339TIP3    H116023   2.943   0.801   2.000  1.7828  1.2983  3.6427
 5339TIP3    H216024   3.066   0.842   1.923  0.6870  1.2671  1.8343
 5340TIP3   OH216025   0.771   5.364   1.345  0.1309 -0.0061  0.3847
 5340TIP3    H116026   0.858   5.366   1.304  0.2728 -0.0698  0.6795
 5340TIP3    H216027   0.751   5.271   1.354 -0.6621 -0.0047 -1.1347
 5341TIP3   OH216028   5.772   0.698   2.186  0.2757  0.1664  0.8933
 5341TIP3    H116029   5.756   0.673   2.277  0.9560 -2.6888  0.3312
 5341TIP3    H216030   5.861   0.668   2.168  0.8979  2.4440 -0.2123
 5342TIP3   OH216031   0.546   1.727   2.522 -0.6300  0.4087 -0.0861
 5342TIP3    H116032   0.600   1.795   2.481 -1.5149  1.2993  0.1621
 5342TIP3    H216033   0.569   1.647   2.477  1.2064  0.6729  0.3044
 5343TIP3   OH216034   4.100   4.895   5.076 -0.0813 -0.1480 -0.0557
 5343TIP3    H116035   4.101   4.978   5.123 -1.6168 -0.6600  0.9733
 5343TIP3    H216036   4.025   4.848   5.113 -0.5500 -1.1191 -2.1090
 5344TIP3   OH216037   1.182   1.566   3.210 -0.3087 -0.5069 -0.1147
 5344TIP3    H116038   1.180   1.649   3.162  0.5577 -1.1260 -1.2677
 5344TIP3    H216039   1.093   1.556   3.242 -0.1826  1.3940  0.9937
 5345TIP3   OH216040   5.514   1.092   2.199 -0.5176 -0.2693 -0.2319
 5345TIP3    H116041   5.552   1.121   2.116 -0.8900 -1.2613 -0.7552
 5345TIP3    H216042   5.588   1.052   2.247 -0.0585  1.2388  0.3874
 5346TIP3   OH216043   0.184   3.021   4.039 -0.0544 -0.0630 -0.4422
 5346TIP3    H116044   0.153   2.957   3.974  0.5261 -0.5929 -0.2059
 5346TIP3    H216045   0.244   3.077   3.990  1.8845 -1.6112 -0.0120
 5347TIP3   OH216046   0.254   2.456   1.121 -0.1543 -0.8820  0.1276
 5347TIP3    H116047   0.338   2.490   1.152 -0.0283 -1.4392  0.4122
 5347TIP3    H216048   0.252   2.477   1.028 -0.5417  0.8227  0.4788
 5348TIP3   OH216049   1.475   4.035   1.883  0.0067  0.1554  0.1952
 5348TIP3    H116050   1.398   4.087   1.906  0.2518  1.0176 -0.8220
 5348TIP3    H216051   1.547   4.077   1.930 -0.1863 -0.9302  1.5129
 5349TIP3   OH216052   3.271   3.427   1.985 -0.0620 -0.6910  0.5180
 5349TIP3    H116053   3.362   3.444   1.959 -0.2635  0.4668  0.5376
 5349TIP3    H216054   3.247   3.350   1.934  0.5946 -0.3752 -0.3075
 5350TIP3   OH216055   3.599   3.580   0.055  0.1879 -0.2243  0.1809
 5350TIP3    H116056   3.564   3.670   0.052 -0.5723 -0.5363 -0.8575
 5350TIP3    H216057   3.675   3.582  -0.004 -1.4085 -0.8728 -2.0240
 5351TIP3   OH216058   2.058   5.225   3.746  0.2338 -0.1781  0.4879
 5351TIP3    H116059   2.012   5.230   3.663  0.8973  1.9845  0.1883
 5351TIP3    H216060   2.016   5.291   3.801  3.3072  2.4873 -0.0712
 5352TIP3   OH216061   6.325   4.649   1.223  0.1626 -0.7791 -0.3781
 5352TIP3    H116062   6.251   4.708   1.237  0.8705 -0.6066  3.7377
 5352TIP3    H216063   6.285   4.567   1.193 -1.3749  0.1353 -0.9430
 5353TIP3   OH216064   1.863   4.163   4.731 -0.0903 -0.0806  0.2591
 5353TIP3    H116065   1.897   4.077   4.755 -2.1181 -0.9292  0.3352
 5353TIP3    H216066   1.850   4.158   4.636 -0.9118 -0.1484  0.3681
 5354TIP3   OH216067   5.570   0.091   1.895 -0.1866 -0.3584 -0.2065
 5354TIP3    H116068   5.649   0.137   1.868  1.1749 -1.5799  1.4316
 5354TIP3    H216069   5.500   0.156   1.890  1.6591  2.0293  2.2657
 5355TIP3   OH216070   3.127   2.410   2.640 -0.5470  0.0468  1.0592
 5355TIP3    H116071   3.097   2.360   2.716 -0.9492 -0.7233  0.4106
 5355TIP3    H216072   3.219   2.385   2.631 -1.7052 -4.4056 -1.9910
 5356TIP3   OH216073   4.898   4.794   3.199  0.1195  0.0812 -0.0260
 5356TIP3    H116074   4.980   4.811   3.152  0.6831  0.0933  0.9536
 5356TIP3    H216075   4.890   4.699   3.201 -0.1042  0.0857 -0.4656
 5357TIP3   OH216076   5.035   0.174   2.887  1.1911 -0.2403 -0.4182
 5357TIP3    H116077   4.959   0.120   2.909  0.2005  1.0488 -0.5693
 5357TIP3    H216078   5.097   0.157   2.958 -0.2317  0.5634  1.1038
 5358TIP3   OH216079   5.412   4.011   3.962 -0.4801  0.4782  0.3262
 5358TIP3    H116080   5.471   4.030   4.035 -0.4257  1.4907  0.0333
 5358TIP3    H216081   5.469   3.987   3.890 -0.4659  0.6476  0.2801
 5359TIP3   OH216082   4.487   1.861   3.751  0.1497 -0.0825  0.2274
 5359TIP3    H116083   4.470   1.767   3.752 -1.7970  0.0664 -3.0997
 5359TIP3    H216084   4.428   1.898   3.816 -0.5174 -1.0310  0.1823
 5360TIP3   OH216085   3.604   2.597   4.277  0.0679 -0.2613 -0.2294
 5360TIP3    H116086   3.515   2.565   4.292 -0.6298  1.5324 -0.2667
 5360TIP3    H216087   3.602   2.688   4.307  1.9581 -0.2435 -0.0380
 5361TIP3   OH216088   5.504   1.274   4.018  0.5189  0.3389  0.5436
 5361TIP3    H116089   5.531   1.356   3.976 -0.3215  1.1728  1.5393
 5361TIP3    H216090   5.416   1.294   4.053 -0.0828 -1.2881  0.0173
 5362TIP3   OH216091   0.047   4.316   3.398 -0.2721  0.3232 -0.2009
 5362TIP3    H116092   0.005   4.235   3.367  2.9475 -1.2087 -0.9709
 5362TIP3    H216093   0.093   4.290   3.478  0.8848  1.3412 -0.5028
 5363TIP3   OH216094   0.513   5.716   0.861 -0.0934  0.3722 -0.3220
 5363TIP3    H116095   0.507   5.764   0.944 -3.2447  0.2506 -0.3611
 5363TIP3    H216096   0.578   5.765   0.810 -0.3137  2.2506  1.0911
 5364TIP3   OH216097   5.328   0.767   4.386  0.2821  0.4391  0.0608
 5364TIP3    H116098   5.264   0.729   4.447  3.3327 -1.0901  2.6544
 5364TIP3    H216099   5.341   0.699   4.319  0.8440 -0.3217  0.9017
 5365TIP3   OH216100   3.672   0.565   0.928  0.7619  0.1544  0.0076
 5365TIP3    H116101   3.628   0.650   0.921  0.4277  0.0385  0.6342
 5365TIP3    H216102   3.614   0.504   0.882  1.6480  0.4764 -1.6155
 5366TIP3   OH216103   5.793   4.311   3.923 -0.1081  0.0455 -0.3563
 5366TIP3    H116104   5.809   4.322   4.017  0.8075 -0.5046 -0.4343
 5366TIP3    H216105   5.801   4.217   3.908  2.6147  0.3428 -1.4389
 5367TIP3   OH216106   4.309   5.069   2.719  0.0139 -0.0445 -0.4194
 5367TIP3    H116107   4.326   5.117   2.800  1.3062 -1.3276  0.1019
 5367TIP3    H216108   4.256   5.130   2.667 -1.1153  0.7214  1.4747
 5368TIP3   OH216109   2.493   5.440   2.293  0.6093 -0.5595  0.0915
 5368TIP3    H116110   2.535   5.521   2.321 -1.0745  0.1463  0.7467
 5368TIP3    H216111   2.505   5.437   2.198 -0.3934  1.1485 -0.1294
 5369TIP3   OH216112   1.159   4.847   2.895 -0.5828 -0.3203  1.0641
 5369TIP3    H116113   1.075   4.828   2.853  0.1351 -1.6748  0.2001
 5369TIP3    H216114   1.197   4.762   2.914  0.5535  0.2715  1.5677
 5370TIP3   OH216115   0.372   3.452   3.577 -0.1965  0.4363  0.2190
 5370TIP3    H116116   0.464   3.426   3.575  0.0046  1.0133  1.0972
 5370TIP3    H216117   0.369   3.534   3.527 -0.3891  0.0067 -0.4893
 5371TIP3   OH216118   1.339   3.815   1.505  0.1062 -0.3389 -0.4732
 5371TIP3    H116119   1.316   3.745   1.566  0.1544  2.1392  2.6124
 5371TIP3    H216120   1.255   3.843   1.467 -0.2824 -0.1941  0.4744
 5372TIP3   OH216121   2.281   0.966   3.500 -0.0802  0.4174 -1.0667
 5372TIP3    H116122   2.371   0.997   3.509  0.0497 -0.3625  0.9381
 5372TIP3    H216123   2.244   1.020   3.430  2.0085  0.5549 -2.1571
 5373TIP3   OH216124   0.872   3.365   2.483  0.0127 -0.6531 -0.0888
 5373TIP3    H116125   0.841   3.388   2.395 -0.4477 -0.8570  0.0191
 5373TIP3    H216126   0.811   3.407   2.543  1.1891  0.7333  0.1756
 5374TIP3   OH216127   4.289   2.890   4.671  0.3647  0.0195 -0.0878
 5374TIP3    H116128   4.284   2.983   4.647  1.6887  0.3698  0.9016
 5374TIP3    H216129   4.299   2.891   4.766 -0.2252 -1.1789  0.0004
 5375TIP3   OH216130   0.256   0.616   2.202  0.3735  0.0487  0.0661
 5375TIP3    H116131   0.264   0.691   2.143 -0.4837  0.7363  0.7941
 5375TIP3    H216132   0.227   0.654   2.285 -1.6601 -1.2342  0.0086
 5376TIP3   OH216133   4.374   2.182   4.652 -0.6378  0.0763 -0.0803
 5376TIP3    H116134   4.343   2.189   4.742 -3.9840 -2.3797 -0.8282
 5376TIP3    H216135   4.310   2.231   4.601  0.7272  0.7224 -1.2107
 5377TIP3   OH216136   4.986   5.947   4.169  0.7542 -0.8045 -0.0630
 5377TIP3    H116137   5.076   5.917   4.179  1.4350  1.3740  0.9079
 5377TIP3    H216138   4.994   6.038   4.141 -1.1089 -0.0084  1.7653
 5378TIP3   OH216139   4.785   2.365   4.243  0.4941  0.0060  0.0708
 5378TIP3    H116140   4.718   2.421   4.282  0.9813  2.0260 -1.7588
 5378TIP3    H216141   4.846   2.427   4.202  1.7612 -1.8595 -0.9786
 5379TIP3   OH216142   5.223   2.615   1.751  0.0366 -0.1906 -0.0434
 5379TIP3    H116143   5.242   2.677   1.680 -2.4016  1.5852  0.7238
 5379TIP3    H216144   5.240   2.529   1.713  0.0663  0.7729 -2.3737
 5380TIP3   OH216145   0.478   4.126   1.523  0.5329 -0.5139 -0.5433
 5380TIP3    H116146   0.451   4.198   1.465 -0.4561  0.1444  0.7057
 5380TIP3    H216147   0.401   4.108   1.576  1.7901 -0.2257  1.4629
 5381TIP3   OH216148   0.783   1.561   3.138 -0.1174 -0.3921 -0.3289
 5381TIP3    H116149   0.706   1.605   3.173 -0.1845 -0.8935  0.1821
 5381TIP3    H216150   0.806   1.610   3.059 -0.5810  0.1416 -0.1378
 5382TIP3   OH216151   1.965   1.966   0.719 -0.0028 -0.4335  0.4720
 5382TIP3    H116152   1.971   2.061   0.730 -1.3613 -0.3240  0.5118
 5382TIP3    H216153   1.883   1.943   0.762  0.9065 -1.8088  1.5201
 5383TIP3   OH216154   1.897   5.409   2.960 -0.6229 -0.3663  0.0292
 5383TIP3    H116155   1.973   5.404   3.017  2.2041  0.4577 -3.2748
 5383TIP3    H216156   1.889   5.502   2.939  0.0210 -0.8068 -2.6054
 5384TIP3   OH216157   1.953   2.753   4.293  0.0535  0.3025 -0.1948
 5384TIP3    H116158   1.913   2.749   4.206  1.6962  1.7254 -1.1019
 5384TIP3    H216159   1.975   2.663   4.314  1.3139  0.0986 -2.1417
 5385TIP3   OH216160   1.719   4.167   0.877 -0.8882  0.4014  0.2759
 5385TIP3    H116161   1.788   4.212   0.926  2.3039  0.8532 -3.9893
 5385TIP3    H216162   1.747   4.075   0.876 -3.1162 -0.3882  2.4318
 5386TIP3   OH216163   5.600   2.182   2.754  0.2338 -0.4382  0.2706
 5386TIP3    H116164   5.685   2.172   2.797 -0.0752 -0.4488  0.8869
 5386TIP3    H216165   5.562   2.260   2.794 -0.3260 -0.8143  0.4761
 5387TIP3   OH216166   0.926   0.875   2.866  0.5192 -0.4635 -0.4163
 5387TIP3    H116167   0.870   0.797   2.864 -0.5506  0.2587 -2.9518
 5387TIP3    H216168   0.999   0.854   2.808  0.6195  0.1364 -0.5172
 5388TIP3   OH216169   1.552   3.894   1.654 -0.0304 -0.3526 -0.0985
 5388TIP3    H116170   1.509   3.941   1.725  0.5918 -1.4535  1.0426
 5388TIP3    H216171   1.481   3.846   1.611 -0.4442  0.4909 -0.3864
 5389TIP3   OH216172   2.569   3.706   0.685 -0.3777 -0.8206 -0.1258
 5389TIP3    H116173   2.637   3.658   0.637 -0.9691 -0.8230 -0.9757
 5389TIP3    H216174   2.503   3.727   0.619 -0.3989  0.6769  0.3510
 5390TIP3   OH216175   3.975   5.288   0.106 -0.2828 -0.2219  0.5524
 5390TIP3    H116176   4.010   5.200   0.092 -0.3118 -0.0106 -0.9134
 5390TIP3    H216177   4.052   5.342   0.123  0.0496  0.0393 -1.6187
 5391TIP3   OH216178   0.437   3.536   2.807  0.0942 -0.4471  0.5631
 5391TIP3    H116179   0.350   3.497   2.799  0.1277 -0.3315 -0.5352
 5391TIP3    H216180   0.454   3.574   2.720  2.1571 -2.4100  0.0127
 5392TIP3   OH216181   3.015   0.395   2.061  0.5349  0.1145 -0.4549
 5392TIP3    H116182   3.030   0.390   1.967  1.3372 -0.2516 -0.3116
 5392TIP3    H216183   2.983   0.484   2.075 -0.9615 -0.2639 -1.2539
 5393TIP3   OH216184   5.447   4.604   3.608 -0.1082 -0.6170  0.5527
 5393TIP3    H116185   5.387   4.611   3.683 -1.6102  0.2852 -0.6720
 5393TIP3    H216186   5.523   4.558   3.643 -0.1803  0.8871  2.9834
 5394TIP3   OH216187   4.568   0.909   1.315 -0.3065  0.2837  0.0910
 5394TIP3    H116188   4.551   0.999   1.344 -1.8829  0.0988 -0.2022
 5394TIP3    H216189   4.647   0.884   1.363 -0.2705  1.5554  0.7568
 5395TIP3   OH216190   1.034   5.788   1.501 -0.6501  0.0563 -0.3649
 5395TIP3    H116191   0.983   5.870   1.498 -2.5558 -1.0518  0.2652
 5395TIP3    H216192   0.974   5.724   1.539  0.7750 -1.6738 -0.9121
 5396TIP3   OH216193   2.889   3.328   4.689  0.2511  0.1859  0.0738
 5396TIP3    H116194   2.889   3.419   4.719 -1.1252  0.2400 -0.0437
 5396TIP3    H216195   2.890   3.276   4.770  1.4116  0.2791  0.1398
 5397TIP3   OH216196   5.983   4.817   3.921  0.3447 -0.5198 -0.3258
 5397TIP3    H116197   5.936   4.783   3.997  0.0364  0.3433 -0.1250
 5397TIP3    H216198   6.064   4.766   3.918 -0.2535 -1.5001 -0.2303
 5398TIP3   OH216199   4.467   1.694   2.025 -0.2388  0.2650  0.0707
 5398TIP3    H116200   4.520   1.622   1.990  0.0418 -1.0139  2.8903
 5398TIP3    H216201   4.377   1.663   2.017 -0.1066 -0.5531  1.4839
 5399TIP3   OH216202   6.318   3.276   3.924 -0.2553 -0.5187  0.0876
 5399TIP3    H116203   6.238   3.280   3.871 -0.9409  0.0774  1.1262
 5399TIP3    H216204   6.389   3.298   3.863 -1.1109  1.0942 -0.3859
 5400TIP3   OH216205   1.346   4.441   1.723  0.0065  0.3969 -0.6525
 5400TIP3    H116206   1.265   4.391   1.710  0.5765 -0.8541  0.2861
 5400TIP3    H216207   1.402   4.413   1.651  0.1044  0.1286 -0.4770
 5401TIP3   OH216208   3.460   4.696   1.681 -0.7101 -0.7051 -0.4909
 5401TIP3    H116209   3.371   4.668   1.662 -1.2570  0.9391 -0.5729
 5401TIP3    H216210   3.515   4.644   1.622 -1.7930 -0.5052 -1.7233
 5402TIP3   OH216211   3.115   0.048   3.432  0.1467 -0.4168  0.4096
 5402TIP3    H116212   3.131  -0.046   3.436 -0.8777 -0.5882  0.5674
 5402TIP3    H216213   3.077   0.071   3.517  2.2397  0.5278  1.1811
 5403TIP3   OH216214   2.905   0.190   2.198 -0.3412 -0.1288 -0.0583
 5403TIP3    H116215   2.937   0.255   2.136  0.2260 -0.1512  0.2076
 5403TIP3    H216216   2.945   0.214   2.281 -1.2818  0.0385  0.3582
 5404TIP3   OH216217   2.195   4.823   1.470 -0.1023  0.7245  0.2464
 5404TIP3    H116218   2.150   4.906   1.451 -1.0508 -0.0171 -0.9560
 5404TIP3    H216219   2.286   4.839   1.447  0.2739  2.1617  2.4066
 5405TIP3   OH216220   1.350   2.965   3.710  0.7514  0.7840  0.5210
 5405TIP3    H116221   1.348   3.047   3.660  0.1954  0.1144 -0.6092
 5405TIP3    H216222   1.437   2.963   3.750  2.1333  0.3457 -2.2604
 5406TIP3   OH216223   4.356   3.772   2.702 -0.2344 -0.5484  0.8522
 5406TIP3    H116224   4.286   3.758   2.766  0.5483 -3.8355  1.1794
 5406TIP3    H216225   4.363   3.688   2.657  3.0772 -0.1336  0.3999
 5407TIP3   OH216226   4.955   0.078   3.524 -0.1916 -0.4738 -0.1449
 5407TIP3    H116227   4.884   0.116   3.576 -0.2562 -2.5227  1.4146
 5407TIP3    H216228   5.035   0.102   3.572 -0.1944 -1.7672  0.5380
 5408TIP3   OH216229   6.308   1.648   0.742 -0.2542 -0.1950 -0.1984
 5408TIP3    H116230   6.253   1.696   0.679  0.1568  0.5952  0.0390
 5408TIP3    H216231   6.395   1.650   0.703 -0.0190  0.2071  0.3435
 5409TIP3   OH216232   4.726   2.301   4.807 -0.1455  0.2113  0.6932
 5409TIP3    H116233   4.681   2.385   4.812  0.9652  0.7939  1.0396
 5409TIP3    H216234   4.699   2.265   4.722  0.9316  1.8373 -0.3892
 5410TIP3   OH216235   0.236   0.813   4.333  0.0952 -0.0544  0.5694
 5410TIP3    H116236   0.145   0.790   4.350 -0.4219  1.4437  0.0377
 5410TIP3    H216237   0.241   0.907   4.355  1.8509 -0.3991  1.9125
 5411TIP3   OH216238   3.110   2.471   1.147  0.0975  0.1417 -0.2153
 5411TIP3    H116239   3.047   2.527   1.193  0.1630 -0.0700  0.1371
 5411TIP3    H216240   3.194   2.491   1.190  0.1033 -0.3004 -0.0211
 5412TIP3   OH216241   0.951   0.690   1.500 -0.0458  0.1066 -0.2240
 5412TIP3    H116242   0.922   0.633   1.429  0.7203  1.5252 -1.7319
 5412TIP3    H216243   0.869   0.729   1.533 -0.5682 -1.6935  0.7642
 5413TIP3   OH216244   4.931   5.904   1.243  0.0630  0.5119  0.1152
 5413TIP3    H116245   4.960   5.968   1.179  1.4742  0.7067  0.9063
 5413TIP3    H216246   4.891   5.835   1.192 -0.5716  1.5426 -0.8278
 5414TIP3   OH216247   6.227   1.014   4.795 -0.6270  0.5768  0.2428
 5414TIP3    H116248   6.198   1.054   4.713  1.9148 -0.1631 -1.1243
 5414TIP3    H216249   6.271   0.934   4.769  2.6876  1.6331  1.9887
 5415TIP3   OH216250   5.170   1.071   4.548  0.4083  0.7534 -0.2298
 5415TIP3    H116251   5.090   1.123   4.541  0.4167  0.7047 -0.7608
 5415TIP3    H216252   5.239   1.129   4.518  0.8047  1.2964  1.6384
 5416TIP3   OH216253   1.386   5.593   0.766 -0.0642 -0.3864 -0.6248
 5416TIP3    H116254   1.480   5.585   0.784  0.2255  2.8654 -0.1274
 5416TIP3    H216255   1.375   5.561   0.677  1.1787 -2.3843 -0.1106
 5417TIP3   OH216256   1.256   4.697   2.634  0.1417  0.3939 -0.1758
 5417TIP3    H116257   1.316   4.752   2.685  0.5586 -0.0182 -0.2143
 5417TIP3    H216258   1.308   4.619   2.612 -0.1356  0.4170 -0.9447
 5418TIP3   OH216259   5.372   3.916   1.758  0.0588 -0.3598 -0.4777
 5418TIP3    H116260   5.351   4.004   1.788 -1.5419 -0.8630 -0.0640
 5418TIP3    H216261   5.288   3.874   1.742  0.7665 -1.9877 -0.1924
 5419TIP3   OH216262   5.660   0.104   4.330 -0.2193 -0.1658 -0.2406
 5419TIP3    H116263   5.644   0.114   4.424 -1.5638  1.2786 -0.5818
 5419TIP3    H216264   5.745   0.146   4.316 -0.8624  1.2992  0.0741
 5420TIP3   OH216265   4.083   5.700   3.896 -0.5607 -0.4168  0.4613
 5420TIP3    H116266   4.004   5.754   3.884 -0.3047  0.1183  1.1119
 5420TIP3    H216267   4.082   5.676   3.988 -1.5019 -2.8783 -0.1116
 5421TIP3   OH216268   5.978   2.554   0.243 -0.1518 -0.4248  0.1321
 5421TIP3    H116269   6.024   2.546   0.160  0.5987  1.7174  0.2809
 5421TIP3    H216270   6.023   2.492   0.301  1.7943  0.6926 -0.0791
 5422TIP3   OH216271   1.328   3.401   4.548 -0.2287 -0.1801  0.0111
 5422TIP3    H116272   1.419   3.425   4.529 -1.1718  1.7586 -2.7215
 5422TIP3    H216273   1.303   3.342   4.477 -1.9749  1.8970 -1.2326
 5423TIP3   OH216274   4.650   5.050   0.995  0.5195  0.1527  0.2363
 5423TIP3    H116275   4.650   5.024   1.087 -1.8307  0.6168  0.4342
 5423TIP3    H216276   4.660   4.968   0.947  0.5739 -0.2298  0.8849
 5424TIP3   OH216277   4.251   3.100   2.006  0.3270  0.1593 -0.3002
 5424TIP3    H116278   4.330   3.144   1.973 -0.2681  0.3031 -1.5890
 5424TIP3    H216279   4.227   3.149   2.085  0.7182  1.0065 -0.6987
 5425TIP3   OH216280   5.702   2.998   2.129 -0.1523 -0.0716  0.3832
 5425TIP3    H116281   5.663   3.023   2.213  1.1173  1.4182  0.5771
 5425TIP3    H216282   5.788   2.962   2.153  0.6110  1.2289 -0.3085
 5426TIP3   OH216283   4.203   0.854   4.249  0.6406 -0.1361 -0.0398
 5426TIP3    H116284   4.265   0.794   4.208 -0.5093 -2.7013  1.6603
 5426TIP3    H216285   4.118   0.829   4.212  0.0648  0.0617  1.0992
 5427TIP3   OH216286   0.135   2.992   4.313  0.0408  0.0986 -0.0489
 5427TIP3    H116287   0.144   2.968   4.221  0.0027 -0.5876  0.1188
 5427TIP3    H216288   0.214   2.957   4.355 -0.5166 -0.6769  0.3863
 5428TIP3   OH216289   0.479   0.706   4.680  0.0649  0.1469 -0.6600
 5428TIP3    H116290   0.571   0.699   4.704  0.0724  2.9438  0.4962
 5428TIP3    H216291   0.477   0.681   4.587  2.0676  0.5801 -0.8698
 5429TIP3   OH216292   5.820   2.289   3.341 -0.3976  0.2770 -0.0824
 5429TIP3    H116293   5.885   2.253   3.402 -0.0686  0.9085 -0.0583
 5429TIP3    H216294   5.739   2.291   3.392 -0.3876 -0.2945 -0.0388
 5430TIP3   OH216295   5.211   1.983   4.566  0.2912 -0.2638 -0.3086
 5430TIP3    H116296   5.191   1.910   4.625  1.2034 -0.6398 -0.4601
 5430TIP3    H216297   5.144   2.048   4.587  0.7052 -0.3078  1.2970
 5431TIP3   OH216298   5.446   1.961   3.491 -0.3351  0.1189  0.1558
 5431TIP3    H116299   5.351   1.960   3.487 -0.3434  1.6561 -0.7821
 5431TIP3    H216300   5.470   1.871   3.513 -1.9931 -0.2293  0.7052
 5432TIP3   OH216301   2.448   2.268   1.719 -0.1293  0.2387 -0.1452
 5432TIP3    H116302   2.403   2.185   1.728  0.2822  0.1583  1.5554
 5432TIP3    H216303   2.385   2.326   1.676 -0.3021 -1.0008 -1.6449
 5433TIP3   OH216304   4.940   2.816   3.009 -0.5812  0.1029  0.3380
 5433TIP3    H116305   4.975   2.731   2.985  0.1115  0.5130 -0.1464
 5433TIP3    H216306   4.858   2.797   3.055 -0.6779 -0.7984 -0.1925
 5434TIP3   OH216307   2.839   4.299   3.395  0.1641 -0.0470  0.4702
 5434TIP3    H116308   2.933   4.311   3.377  0.1904  1.2841  1.3576
 5434TIP3    H216309   2.836   4.222   3.452  0.8828  0.7570  1.6325
 5435TIP3   OH216310   1.989   4.322   3.824 -0.4359  0.0314  0.0192
 5435TIP3    H116311   2.001   4.236   3.784  0.3465  0.9385 -1.7745
 5435TIP3    H216312   2.034   4.383   3.766 -4.6745  2.3004 -1.3377
 5436TIP3   OH216313   6.185   2.221   1.836  0.2525 -0.2094  0.5615
 5436TIP3    H116314   6.186   2.126   1.842 -2.8273 -0.2632  2.4851
 5436TIP3    H216315   6.190   2.251   1.927 -0.5298  1.3677  0.1225
 5437TIP3   OH216316   3.589   0.260   3.492 -0.1234  0.2117  0.3354
 5437TIP3    H116317   3.647   0.297   3.425 -0.9792  0.5595 -0.2370
 5437TIP3    H216318   3.519   0.324   3.500  0.4008  0.5893  2.2130
 5438TIP3   OH216319   4.692   0.190   5.181  0.2077 -0.6539  0.9400
 5438TIP3    H116320   4.720   0.163   5.094  0.5298  0.7884  0.5622
 5438TIP3    H216321   4.615   0.245   5.166  1.2016  0.9392  1.3911
 5439TIP3   OH216322   0.200   1.520   4.274 -0.2340 -0.1909 -0.0708
 5439TIP3    H116323   0.141   1.467   4.327 -0.3693 -1.2578 -1.2385
 5439TIP3    H216324   0.266   1.459   4.243  0.6878  0.7056  0.0508
 5440TIP3   OH216325   1.953   2.487   1.054  0.0235  0.7168  0.2797
 5440TIP3    H116326   2.030   2.465   1.106  0.1179 -0.2220 -0.2154
 5440TIP3    H216327   1.986   2.495   0.964 -0.3908  0.6526  0.1146
 5441TIP3   OH216328   4.810   5.516   3.440 -0.0327  0.4752 -0.2857
 5441TIP3    H116329   4.860   5.436   3.460  0.4770  0.9478  0.4212
 5441TIP3    H216330   4.827   5.532   3.348  1.8101  1.0446  0.0988
 5442TIP3   OH216331   1.038   4.966   2.472  0.2301  0.2865  0.3946
 5442TIP3    H116332   0.993   4.962   2.556  0.2345 -1.3820  0.3388
 5442TIP3    H216333   0.987   4.909   2.415  0.4323  1.1248 -0.6510
 5443TIP3   OH216334   5.437   1.531   4.441  0.4861 -0.2932  0.0493
 5443TIP3    H116335   5.490   1.499   4.368  1.5233  0.8069  0.2905
 5443TIP3    H216336   5.488   1.509   4.519 -0.6616 -1.5554  0.4749
 5444TIP3   OH216337   1.496   0.272   3.144 -0.0406 -0.3821  0.3700
 5444TIP3    H116338   1.503   0.177   3.151 -0.4827 -0.6721 -2.2237
 5444TIP3    H216339   1.564   0.297   3.081 -0.4438  0.9116  0.4144
 5445TIP3   OH216340   1.130   1.459   2.015 -0.2839  0.4307  0.5933
 5445TIP3    H116341   1.062   1.496   1.959  0.0086 -0.1217 -0.1332
 5445TIP3    H216342   1.143   1.525   2.083 -1.7431  0.4156  0.9136
 5446TIP3   OH216343   4.632   0.523   0.718 -0.0135  0.0745  0.1026
 5446TIP3    H116344   4.644   0.613   0.747  0.5670  0.0713 -0.1264
 5446TIP3    H216345   4.628   0.472   0.800  1.0620  0.1357  0.2135
 5447TIP3   OH216346   1.022   5.556   4.079 -0.4556  0.3229  0.4152
 5447TIP3    H116347   0.998   5.474   4.037  0.7239  0.3223 -0.2952
 5447TIP3    H216348   0.975   5.623   4.029  0.8952  0.3203 -0.9470
 5448TIP3   OH216349   3.718   5.673   0.284 -0.0542  0.1702  0.1395
 5448TIP3    H116350   3.785   5.605   0.283  0.0646  0.2634  1.1623
 5448TIP3    H216351   3.670   5.660   0.201 -1.6244 -2.7756  1.3329
 5449TIP3   OH216352   5.690   1.439   1.134  0.5018 -0.0022  0.5244
 5449TIP3    H116353   5.768   1.494   1.122  0.3212 -0.1266 -1.6301
 5449TIP3    H216354   5.719   1.371   1.194  1.3678  1.2120  1.5530
 5450TIP3   OH216355   1.037   3.737   1.106  0.0799 -0.3918 -0.1490
 5450TIP3    H116356   0.980   3.698   1.173  0.0142 -0.4744 -0.2518
 5450TIP3    H216357   1.050   3.827   1.136  0.7999 -0.6801  0.4538
 5451TIP3   OH216358   6.074   1.592   3.115  0.0055  0.1453 -0.4125
 5451TIP3    H116359   6.169   1.596   3.126  0.3293  2.9185 -2.8832
 5451TIP3    H216360   6.038   1.643   3.188  0.3664 -0.8573  0.4886
 5452TIP3   OH216361   6.159   3.178   3.405  0.9890 -0.4419  0.6455
 5452TIP3    H116362   6.193   3.090   3.391  0.1866 -0.4330 -1.9144
 5452TIP3    H216363   6.226   3.236   3.368  0.4463 -0.1477  0.0978
 5453TIP3   OH216364   1.466   1.275   4.364 -0.1806  0.1298  0.2039
 5453TIP3    H116365   1.455   1.369   4.349 -0.7854 -0.0632 -0.6119
 5453TIP3    H216366   1.395   1.234   4.315 -0.7990 -0.6827  1.7168
 5454TIP3   OH216367   6.056   0.350   3.794 -0.1030 -0.1238 -0.1214
 5454TIP3    H116368   6.143   0.317   3.770  0.2356  0.2166  0.6049
 5454TIP3    H216369   6.021   0.387   3.713  0.9055  0.7702 -0.1627
 5455TIP3   OH216370   2.070   3.864   2.188 -0.0364  0.2157 -0.3291
 5455TIP3    H116371   2.083   3.770   2.202  1.2733  0.5129  0.7094
 5455TIP3    H216372   1.992   3.870   2.133  1.5303 -1.6074 -2.9800
 5456TIP3   OH216373   0.029   2.739   3.170 -0.3939 -0.3495  0.2700
 5456TIP3    H116374   0.002   2.830   3.167  0.6223 -0.0631 -0.8391
 5456TIP3    H216375   0.122   2.740   3.147 -0.7892 -1.8265 -1.7039
 5457TIP3   OH216376   4.067   3.605   1.041  0.4253  0.2201  0.2232
 5457TIP3    H116377   4.026   3.518   1.037  1.8775 -0.4429 -0.8675
 5457TIP3    H216378   4.153   3.589   1.079  1.0450  1.0387 -0.8137
 5458TIP3   OH216379   5.832   5.968   1.024  0.0889 -0.3345 -0.5668
 5458TIP3    H116380   5.868   5.887   0.988  1.3668 -0.1596  0.2483
 5458TIP3    H216381   5.903   6.033   1.014 -0.8153  0.6205 -0.9768
 5459TIP3   OH216382   3.976   4.626   2.926  0.4620  0.3980 -0.7037
 5459TIP3    H116383   3.993   4.720   2.932 -0.2530  0.5219 -0.5671
 5459TIP3    H216384   3.969   4.609   2.832 -0.1353  0.6215 -0.7051
 5460TIP3   OH216385   4.126   4.314   1.971  0.2988  0.1391  0.0010
 5460TIP3    H116386   4.140   4.319   2.066 -3.2276  1.7444  0.5979
 5460TIP3    H216387   4.178   4.387   1.936  1.2586 -0.1797  0.7076
 5461TIP3   OH216388   5.420   3.389   0.750 -0.2279 -0.3240  0.3912
 5461TIP3    H116389   5.514   3.399   0.736 -0.1410 -1.9047 -0.4441
 5461TIP3    H216390   5.414   3.335   0.829 -0.4595  0.3686  0.8505
 5462TIP3   OH216391   1.527   3.293   0.167 -0.3071 -0.0814  0.1848
 5462TIP3    H116392   1.485   3.334   0.091  0.5569  0.1283 -0.1896
 5462TIP3    H216393   1.459   3.292   0.234 -0.4401  1.7133  0.1128
 5463TIP3   OH216394   3.021   5.418   4.473  0.7599 -0.1074 -0.3201
 5463TIP3    H116395   3.068   5.491   4.433  0.6806  1.1386  1.7488
 5463TIP3    H216396   2.955   5.394   4.408  0.6732  1.7608 -0.9910
 5464TIP3   OH216397   3.389   2.431   2.950 -0.8038 -0.1399  0.1268
 5464TIP3    H116398   3.334   2.389   3.017  2.5627 -0.5684  2.9616
 5464TIP3    H216399   3.406   2.518   2.985  0.3633 -0.0747 -0.5761
 5465TIP3   OH216400   4.151   3.457   0.573  0.1135 -0.1412 -0.3524
 5465TIP3    H116401   4.137   3.500   0.657  0.1846 -0.3209 -0.2480
 5465TIP3    H216402   4.131   3.524   0.508 -0.2903 -0.1053 -0.1942
 5466TIP3   OH216403   1.986   1.001   3.919 -0.5641 -0.2445  0.0723
 5466TIP3    H116404   2.073   1.028   3.891 -0.3885  0.0769  0.9150
 5466TIP3    H216405   1.948   0.960   3.841 -0.5572  1.7324 -1.0504
 5467TIP3   OH216406   3.945   0.213   2.920  0.0281  0.1131  0.7626
 5467TIP3    H116407   3.934   0.298   2.877 -0.3213  1.1232  2.7588
 5467TIP3    H216408   4.010   0.168   2.866  0.3093  1.6730 -0.2743
 5468TIP3   OH216409   1.167   4.700   3.797 -1.1011  0.3458  0.2429
 5468TIP3    H116410   1.162   4.695   3.702  0.9774 -0.6802  0.1378
 5468TIP3    H216411   1.102   4.637   3.828 -0.7470 -0.4113 -0.5267
 5469TIP3   OH216412   3.032   0.546   1.318 -0.7244  0.6765 -0.6285
 5469TIP3    H116413   2.953   0.577   1.272 -0.8491 -0.0396 -0.9030
 5469TIP3    H216414   3.084   0.626   1.331 -1.5274  1.1714 -0.3685
 5470TIP3   OH216415   2.278   0.219   2.671 -0.5206 -0.1469  0.1136
 5470TIP3    H116416   2.291   0.252   2.582 -2.1408  2.1379  0.6276
 5470TIP3    H216417   2.209   0.153   2.662 -0.6400  0.0329 -0.3178
 5471TIP3   OH216418   2.507   5.103   1.409  0.2363 -0.1754  0.1510
 5471TIP3    H116419   2.491   5.011   1.431 -2.9523  0.2985  0.3799
 5471TIP3    H216420   2.567   5.133   1.477 -0.9549 -1.4257  1.8685
 5472TIP3   OH216421   5.292   2.896   3.911 -0.2079  0.3323 -0.0909
 5472TIP3    H116422   5.299   2.983   3.873 -2.0495 -0.1547 -1.7207
 5472TIP3    H216423   5.199   2.886   3.930 -0.2363 -1.7044 -1.0725
 5473TIP3   OH216424   1.893   0.871   0.907 -0.0908  0.2603 -0.2062
 5473TIP3    H116425   1.875   0.947   0.962 -1.2683 -0.7669  0.8911
 5473TIP3    H216426   1.907   0.908   0.820 -0.9511  1.7186  0.2263
 5474TIP3   OH216427   0.078   1.205   4.205  0.8026  0.1268 -0.0235
 5474TIP3    H116428   0.161   1.232   4.243 -0.1124  0.9538  1.4433
 5474TIP3    H216429   0.030   1.163   4.277 -0.0918 -0.2709 -0.8213
 5475TIP3   OH216430   5.782   5.745   5.138  0.0716 -0.0783 -0.5266
 5475TIP3    H116431   5.780   5.823   5.193  1.0245 -0.2875 -0.1839
 5475TIP3    H216432   5.765   5.672   5.198 -0.1897 -0.1984 -0.7402
 5476TIP3   OH216433   5.786   2.728   1.990 -0.0982  0.3246 -0.1835
 5476TIP3    H116434   5.749   2.805   2.034  1.2851  0.5890  0.5841
 5476TIP3    H216435   5.844   2.764   1.922 -1.7735 -0.0811 -1.9154
 5477TIP3   OH216436   5.418   2.367   0.958  0.2870 -0.2838  0.1420
 5477TIP3    H116437   5.476   2.329   1.024  0.4053 -0.8777 -0.2891
 5477TIP3    H216438   5.398   2.294   0.899 -0.1475  0.1372 -0.2397
 5478TIP3   OH216439   0.205   3.798   4.980  0.5867  0.2616 -0.1155
 5478TIP3    H116440   0.212   3.888   5.010  0.0554  0.3021 -0.1070
 5478TIP3    H216441   0.181   3.748   5.058 -1.2590  0.4340 -0.5404
 5479TIP3   OH216442   4.424   3.079   0.702 -0.4648 -0.0659 -0.1579
 5479TIP3    H116443   4.491   3.147   0.700  0.1455 -0.6314 -2.4145
 5479TIP3    H216444   4.473   2.998   0.717 -0.9678 -0.2188  0.7055
 5480TIP3   OH216445   0.423   0.169   3.839 -0.1220  0.4607  0.3594
 5480TIP3    H116446   0.476   0.204   3.767  0.6568  0.9804  1.1552
 5480TIP3    H216447   0.386   0.088   3.805  1.0755  0.1596 -0.2745
 5481TIP3   OH216448   0.881   3.856   2.761  0.4021  0.9092 -0.1371
 5481TIP3    H116449   0.892   3.810   2.844 -0.7301  0.5212 -0.1881
 5481TIP3    H216450   0.966   3.848   2.718  0.1042 -1.5942 -0.3768
 5482TIP3   OH216451   3.641   4.459   2.419 -0.0089 -0.2619  0.4152
 5482TIP3    H116452   3.665   4.525   2.354 -1.0041  0.1178  0.4109
 5482TIP3    H216453   3.654   4.502   2.504  1.7126 -0.9034  0.5071
 5483TIP3   OH216454   5.493   5.107   0.641  0.4239  0.3938 -0.0710
 5483TIP3    H116455   5.537   5.045   0.699 -0.8601  0.1106  0.6165
 5483TIP3    H216456   5.558   5.125   0.573  1.1708 -0.9458  0.2461
 5484TIP3   OH216457   5.064   5.225   0.086 -0.3187 -0.2883  1.0838
 5484TIP3    H116458   5.036   5.312   0.057  3.6092  0.3256 -1.5796
 5484TIP3    H216459   5.015   5.165   0.031  0.1917  0.5002 -0.2698
 5485TIP3   OH216460   0.976   2.002   1.791  0.0151  0.1042  0.1767
 5485TIP3    H116461   0.900   1.943   1.789  0.5199 -0.5502  0.2571
 5485TIP3    H216462   0.937   2.090   1.797 -0.7374 -0.2205  0.2058
 5486TIP3   OH216463   1.311   5.418   2.516 -0.5852  0.4620 -0.7033
 5486TIP3    H116464   1.374   5.485   2.491  1.0200 -0.8237 -0.2427
 5486TIP3    H216465   1.354   5.368   2.584 -2.0518 -0.5760 -0.4873
 5487TIP3   OH216466   6.129   3.659   4.374 -0.2138 -0.2622 -0.1551
 5487TIP3    H116467   6.055   3.628   4.321  0.5953  0.5206 -1.8266
 5487TIP3    H216468   6.090   3.681   4.459 -1.4115 -2.3886 -0.0929
 5488TIP3   OH216469   5.760   2.788   0.714  0.0493  0.0923 -0.4831
 5488TIP3    H116470   5.744   2.775   0.620  1.0506 -1.5310 -0.4796
 5488TIP3    H216471   5.754   2.699   0.750  0.2322  0.6332  0.9011
 5489TIP3   OH216472   3.306   1.455   3.109 -0.2848  0.4000 -0.2993
 5489TIP3    H116473   3.247   1.528   3.126  0.8872  1.3248 -0.0250
 5489TIP3    H216474   3.249   1.384   3.078 -1.3897  1.5986 -1.1340
 5490TIP3   OH216475   2.981   4.499   2.269  0.0449 -0.3510  0.4334
 5490TIP3    H116476   3.016   4.488   2.181 -1.4397 -0.6443 -0.1505
 5490TIP3    H216477   3.011   4.586   2.297 -0.1125  0.0762 -0.6819
 5491TIP3   OH216478   5.623   0.686   3.848 -0.2863  0.4404  0.3852
 5491TIP3    H116479   5.570   0.696   3.769  1.7145  0.7316 -0.9581
 5491TIP3    H216480   5.567   0.721   3.918 -3.2992 -2.3711 -0.2970
 5492TIP3   OH216481   4.536   0.424   1.451  0.3786  0.0958 -0.5217
 5492TIP3    H116482   4.547   0.507   1.498  0.4906 -0.4816  0.5015
 5492TIP3    H216483   4.588   0.435   1.371  1.5427  0.5144  0.2653
 5493TIP3   OH216484   1.261   0.640   0.412 -0.1120 -0.3488 -0.9772
 5493TIP3    H116485   1.310   0.698   0.471  0.9239 -2.3651  0.2730
 5493TIP3    H216486   1.195   0.599   0.469 -1.0560 -0.1629 -1.9124
 5494TIP3   OH216487   4.960   1.034   3.911 -0.1424 -0.7381  0.2701
 5494TIP3    H116488   4.958   0.948   3.868  0.2673 -1.1947  1.1416
 5494TIP3    H216489   5.024   1.024   3.982  1.2919  0.8190 -0.7149
 5495TIP3   OH216490   5.480   4.760   1.465 -0.0128 -0.3136  0.1098
 5495TIP3    H116491   5.429   4.801   1.395  0.5137 -1.2400 -0.8478
 5495TIP3    H216492   5.569   4.791   1.451 -0.0665  0.2371  0.9554
 5496TIP3   OH216493   2.894   2.623   2.074  0.6547 -0.0417  0.2300
 5496TIP3    H116494   2.973   2.662   2.111  0.5042  0.9740 -0.4618
 5496TIP3    H216495   2.884   2.666   1.988 -0.8640  0.1670  0.4766
 5497TIP3   OH216496   4.201   3.498   1.434  0.1706  0.3805  0.1903
 5497TIP3    H116497   4.259   3.460   1.500  1.4720  0.8665 -0.6313
 5497TIP3    H216498   4.235   3.464   1.351  0.7193  2.4429 -0.4928
 5498TIP3   OH216499   0.740   5.786   2.879 -0.6512  0.2434 -0.7099
 5498TIP3    H116500   0.775   5.715   2.933 -3.7724  0.3530  1.7480
 5498TIP3    H216501   0.765   5.866   2.927 -2.7676  0.3779  0.3045
 5499TIP3   OH216502   0.531   0.577   4.412 -0.8389  0.2221  0.0056
 5499TIP3    H116503   0.610   0.535   4.447 -1.0560  0.0507  0.2987
 5499TIP3    H216504   0.459   0.525   4.448 -1.0455 -0.8583 -1.8598
 5500TIP3   OH216505   5.376   0.818   2.273 -0.7169 -0.5183 -0.3040
 5500TIP3    H116506   5.405   0.908   2.264 -0.4070 -0.2963  2.1552
 5500TIP3    H216507   5.401   0.776   2.191  0.7737  1.1969 -0.7882
 5501TIP3   OH216508   1.221   3.207   3.006 -0.3559  0.2836  0.3817
 5501TIP3    H116509   1.309   3.245   3.011  0.3289 -0.0477 -4.4341
 5501TIP3    H216510   1.163   3.279   3.029  1.0888  1.2820  1.0751
 5502TIP3   OH216511   4.589   4.972   3.214 -0.3467 -0.1494  0.3200
 5502TIP3    H116512   4.534   4.904   3.176 -2.6400  0.7923  1.7615
 5502TIP3    H216513   4.641   4.927   3.281 -1.1743 -0.6594  0.6363
 5503TIP3   OH216514   1.422   3.608   0.563  0.1819  0.1558  0.1732
 5503TIP3    H116515   1.464   3.540   0.509  0.9321  1.3252 -0.7918
 5503TIP3    H216516   1.358   3.561   0.616  1.5322 -1.4801  0.4487
 5504TIP3   OH216517   6.260   3.511   3.272 -0.2218  0.1692 -0.0538
 5504TIP3    H116518   6.308   3.501   3.355  0.7264  1.6820 -0.3738
 5504TIP3    H216519   6.278   3.601   3.245 -1.0594 -0.0890 -1.5793
 5505TIP3   OH216520   5.195  -0.001   3.325  0.1463  0.2606 -0.1236
 5505TIP3    H116521   5.279  -0.007   3.370  0.1337  0.0325 -0.1276
 5505TIP3    H216522   5.133   0.025   3.393  0.2777  0.7618 -0.1917
 5506TIP3   OH216523   2.189   0.936   4.188 -0.1463 -0.0006 -0.3209
 5506TIP3    H116524   2.260   0.976   4.239 -0.7362  0.9047 -0.1783
 5506TIP3    H216525   2.125   0.909   4.253 -1.0496  1.4493 -0.5551
 5507TIP3   OH216526   0.262   3.912   0.379 -0.1583  0.4515 -0.1048
 5507TIP3    H116527   0.188   3.898   0.320  1.6481  0.8975 -2.6073
 5507TIP3    H216528   0.256   3.839   0.441 -1.4292 -0.8018 -1.6060
 5508TIP3   OH216529   1.336   2.212   1.442 -0.4184 -0.6600  0.5372
 5508TIP3    H116530   1.318   2.303   1.417  0.4079 -0.2798  1.2566
 5508TIP3    H216531   1.301   2.205   1.531 -0.7556 -1.1489  0.3695
 5509TIP3   OH216532   2.598   0.506   3.268 -0.1175 -0.2389 -0.0863
 5509TIP3    H116533   2.534   0.494   3.338 -1.3660 -0.7854 -1.2816
 5509TIP3    H216534   2.545   0.522   3.190  1.2318 -0.0954 -0.9964
 5510TIP3   OH216535   4.110   1.956   2.317 -0.5739 -0.4231 -0.7387
 5510TIP3    H116536   4.115   2.049   2.336 -0.2935 -0.3330 -1.2540
 5510TIP3    H216537   4.145   1.947   2.229  0.3799 -1.1548 -0.2966
 5511TIP3   OH216538   5.297   3.619   0.884  0.3069 -0.2711 -0.3533
 5511TIP3    H116539   5.289   3.647   0.793  1.0601 -0.5101 -0.4935
 5511TIP3    H216540   5.338   3.533   0.880 -0.5438 -0.7226  0.1640
 5512TIP3   OH216541   4.131   2.220   2.399 -0.2508 -0.3368  0.3551
 5512TIP3    H116542   4.102   2.289   2.339  0.9128  0.0465  0.2062
 5512TIP3    H216543   4.093   2.245   2.483 -1.3037 -0.4890 -0.0684
 5513TIP3   OH216544   6.251   1.899   0.296  0.3339 -0.2032  0.6933
 5513TIP3    H116545   6.163   1.900   0.335 -0.3094 -2.1544 -0.5173
 5513TIP3    H216546   6.290   1.817   0.326  0.4498 -0.9554 -1.3164
 5514TIP3   OH216547   3.739   5.196   3.441 -0.0606 -0.6698 -0.8746
 5514TIP3    H116548   3.806   5.133   3.415  0.2733 -0.7346  0.1057
 5514TIP3    H216549   3.700   5.158   3.520 -0.9280 -0.4013 -1.1654
 5515TIP3   OH216550   3.111   2.999   0.244  0.0730 -0.4686  0.3633
 5515TIP3    H116551   3.044   2.963   0.186  0.3328 -1.5082  0.6912
 5515TIP3    H216552   3.118   2.935   0.315  0.0545  0.5733  1.3340
 5516TIP3   OH216553   2.185   1.340   2.625  0.1480 -0.4600  0.3647
 5516TIP3    H116554   2.210   1.428   2.600 -1.1872 -0.3268 -0.6190
 5516TIP3    H216555   2.256   1.309   2.681  2.1816  0.0719 -1.7790
 5517TIP3   OH216556   4.551   3.273   3.912  0.5003  0.1829  0.1654
 5517TIP3    H116557   4.610   3.217   3.962  0.1863  0.0089  0.3464
 5517TIP3    H216558   4.473   3.282   3.967  0.7775  1.2930  0.3937
 5518TIP3   OH216559   0.657   2.874   4.899  0.6017 -0.0160  0.4264
 5518TIP3    H116560   0.750   2.866   4.875  0.7155  0.5527  0.6485
 5518TIP3    H216561   0.656   2.941   4.968 -0.0751  0.6896 -0.2401
 5519TIP3   OH216562   5.578   5.059   4.104 -0.2979  0.2476  0.2935
 5519TIP3    H116563   5.514   5.109   4.054  0.3881 -0.6124 -1.5247
 5519TIP3    H216564   5.562   4.968   4.078  0.7414 -0.1236  0.8983
 5520TIP3   OH216565   4.581   3.520   5.045 -0.0050 -0.4061  0.3706
 5520TIP3    H116566   4.502   3.530   4.993  0.5296  1.5141 -0.1794
 5520TIP3    H216567   4.555   3.544   5.134 -0.0464  0.2745  0.1803
 5521TIP3   OH216568   1.257   5.647   2.972  0.1034 -0.2988  0.4390
 5521TIP3    H116569   1.180   5.697   2.945  0.0381 -0.3658  0.5000
 5521TIP3    H216570   1.326   5.712   2.982  0.5997 -0.4480 -1.5874
 5522TIP3   OH216571  -0.009   4.440   3.031 -0.3880 -0.1418  0.1068
 5522TIP3    H116572   0.010   4.349   3.055 -0.4725 -0.1744  0.0484
 5522TIP3    H216573   0.033   4.451   2.945 -0.8843 -0.3018 -0.1583
 5523TIP3   OH216574   5.216   0.407   2.742  0.2185 -0.4841 -0.4563
 5523TIP3    H116575   5.185   0.483   2.693  2.3360 -0.2949 -1.5999
 5523TIP3    H216576   5.172   0.413   2.826 -1.3709  0.7482 -1.3196
 5524TIP3   OH216577   3.785   3.838   0.800  0.5086  0.7204  0.3602
 5524TIP3    H116578   3.835   3.790   0.733  0.5234  0.3197  0.6494
 5524TIP3    H216579   3.700   3.855   0.759 -0.7007 -2.3817  1.3147
 5525TIP3   OH216580   0.882   2.020   2.670  0.4414  0.5456  0.8074
 5525TIP3    H116581   0.803   1.979   2.705  0.5086 -0.0418  0.2911
 5525TIP3    H216582   0.954   1.971   2.709  0.5180 -0.0070 -0.0137
 5526TIP3   OH216583   2.896   4.027   3.490 -0.7827  0.1509 -0.4528
 5526TIP3    H116584   2.966   4.059   3.547 -0.9635 -0.1120 -0.0787
 5526TIP3    H216585   2.942   3.985   3.417 -0.5490  1.0162 -0.8072
 5527TIP3   OH216586   3.415   0.028   2.412 -0.3173 -0.2935 -0.0402
 5527TIP3    H116587   3.492  -0.023   2.385  0.5517  1.4390 -1.0346
 5527TIP3    H216588   3.451   0.102   2.460 -1.4718 -0.1453  0.6298
 5528TIP3   OH216589   2.904   2.616   1.290 -0.4794  0.4093  0.0430
 5528TIP3    H116590   2.926   2.695   1.241  0.5432  0.3212  0.3398
 5528TIP3    H216591   2.880   2.646   1.377  1.5233  0.3118  0.6761
 5529TIP3   OH216592   2.329   4.998   2.811 -0.7070 -0.0095  0.2752
 5529TIP3    H116593   2.297   4.908   2.811  0.4585 -0.4302  0.4027
 5529TIP3    H216594   2.406   4.997   2.868  0.2524  0.7178 -0.9682
 5530TIP3   OH216595   1.480   0.718   3.638  0.0412  0.2389 -0.1936
 5530TIP3    H116596   1.391   0.708   3.605  0.2269  1.5354 -1.2077
 5530TIP3    H216597   1.530   0.650   3.593 -0.0305  0.9435 -1.3972
 5531TIP3   OH216598   2.212   2.800   0.092  0.5266 -0.5913  0.4601
 5531TIP3    H116599   2.138   2.739   0.100  0.9136 -1.3269 -1.1167
 5531TIP3    H216600   2.181   2.881   0.132 -0.3728 -1.5129  1.7015
 5532TIP3   OH216601   5.829   3.800   2.716  0.2890  0.3274  0.9977
 5532TIP3    H116602   5.777   3.854   2.776 -0.9412 -0.3160  0.5628
 5532TIP3    H216603   5.789   3.815   2.630  0.4766 -0.6049  0.7347
 5533TIP3   OH216604   5.721   2.625   4.637  0.1685  0.0933 -0.5856
 5533TIP3    H116605   5.754   2.667   4.558  1.7802 -0.2345 -0.1243
 5533TIP3    H216606   5.740   2.689   4.707  1.7581 -0.9376 -0.0199
 5534TIP3   OH216607   2.921   3.296   3.229  0.0954 -0.0474  0.1605
 5534TIP3    H116608   2.843   3.318   3.280 -0.7534 -1.1872 -0.5771
 5534TIP3    H216609   2.931   3.368   3.167 -0.4604  0.0385  0.1683
 5535TIP3   OH216610   1.584   2.620   4.139 -0.5725  0.0509 -0.3713
 5535TIP3    H116611   1.574   2.622   4.234 -1.9937  0.9062 -0.5176
 5535TIP3    H216612   1.506   2.663   4.105  0.1507  0.2176 -1.9256
 5536TIP3   OH216613   0.787   3.633   1.674  0.1742 -0.5317 -0.1920
 5536TIP3    H116614   0.844   3.654   1.749  0.3537 -1.3022 -0.1056
 5536TIP3    H216615   0.823   3.552   1.638  0.5158  0.1981 -1.5554
 5537TIP3   OH216616   3.229   4.919   0.354 -0.0870  0.5513  0.6664
 5537TIP3    H116617   3.222   5.013   0.369 -0.2584  0.5189  0.7937
 5537TIP3    H216618   3.277   4.911   0.272  0.1178  0.7455  0.7671
 5538TIP3   OH216619   5.355   0.256   2.397  0.4167  0.1445 -0.2929
 5538TIP3    H116620   5.421   0.252   2.467  0.4457  1.6342 -0.2147
 5538TIP3    H216621   5.405   0.261   2.316  0.4202  1.2257 -0.2365
 5539TIP3   OH216622   1.095   5.028   3.790 -0.0998 -0.2528 -0.0998
 5539TIP3    H116623   1.178   5.064   3.820 -0.5356  2.1296 -1.4804
 5539TIP3    H216624   1.119   4.951   3.738  1.4891  1.4189 -1.9942
 5540TIP3   OH216625   2.250   2.598   0.320  0.0216  0.5614  0.4509
 5540TIP3    H116626   2.306   2.653   0.265 -2.0013  1.4992 -0.7855
 5540TIP3    H216627   2.227   2.524   0.264  0.6006 -0.2249  1.2189
 5541TIP3   OH216628   0.537   5.977   4.364 -0.3234 -0.2237 -0.9245
 5541TIP3    H116629   0.592   5.927   4.304 -0.0205 -2.0664  0.7707
 5541TIP3    H216630   0.481   5.912   4.405 -0.7557  0.9967  0.5348
 5542TIP3   OH216631   3.385   4.631   3.026 -0.0201 -0.2995 -0.3671
 5542TIP3    H116632   3.443   4.705   3.009 -0.3314  0.1069  0.2768
 5542TIP3    H216633   3.300   4.659   2.992 -0.2916 -0.0841  0.4524
 5543TIP3   OH216634   4.186   5.307   3.217 -0.0335  0.4461 -0.0421
 5543TIP3    H116635   4.226   5.370   3.277 -0.1573 -0.8087  1.4361
 5543TIP3    H216636   4.248   5.234   3.213 -0.2678  0.2799 -1.0615
 5544TIP3   OH216637   0.697   2.370   4.203 -0.3046  0.2086 -0.4472
 5544TIP3    H116638   0.633   2.378   4.133  0.9116  2.3509 -1.4307
 5544TIP3    H216639   0.779   2.350   4.158  0.0938 -0.7067  0.6164
 5545TIP3   OH216640   5.717   4.687   2.682  0.4406 -0.2145 -0.4877
 5545TIP3    H116641   5.798   4.739   2.685  1.2586 -1.4623 -0.3629
 5545TIP3    H216642   5.665   4.728   2.613  1.0672  0.7588 -0.3994
 5546TIP3   OH216643   5.929   2.323   2.624  0.0432 -0.2722  0.5672
 5546TIP3    H116644   6.023   2.318   2.641  0.1196  1.8125  0.9657
 5546TIP3    H216645   5.898   2.233   2.637  1.9159 -0.9471  0.7127
 5547TIP3   OH216646   2.110   0.013   1.803 -0.3023 -0.2290  0.6646
 5547TIP3    H116647   2.159  -0.038   1.867  0.2010  0.1860  0.6122
 5547TIP3    H216648   2.072   0.085   1.853 -1.4535 -0.9343  0.8391
 5548TIP3   OH216649   3.760   4.927   2.307 -0.0382  0.4173  0.1922
 5548TIP3    H116650   3.841   4.887   2.339  0.4064  0.3434 -0.9851
 5548TIP3    H216651   3.690   4.870   2.339  0.2613  1.0541  2.1277
 5549TIP3   OH216652   4.474   1.948   1.481  0.2127  0.5281  0.1187
 5549TIP3    H116653   4.482   1.885   1.552 -1.8627  0.6385  0.5246
 5549TIP3    H216654   4.499   2.032   1.520 -0.5161  0.5169  0.6432
 5550TIP3   OH216655   5.507   3.787   5.036 -0.1492  0.3296  0.0753
 5550TIP3    H116656   5.545   3.715   4.985  2.0355  0.6488  1.1280
 5550TIP3    H216657   5.434   3.747   5.083  0.2324 -0.8884 -0.3171
 5551TIP3   OH216658   1.573   5.846   5.110 -0.2306  0.2336  0.5995
 5551TIP3    H116659   1.485   5.810   5.105  0.6972 -2.4044  1.3111
 5551TIP3    H216660   1.569   5.929   5.062 -2.2906 -1.4325 -2.4094
 5552TIP3   OH216661   3.158   4.984   1.544 -0.1920 -0.1689 -0.4204
 5552TIP3    H116662   3.155   4.930   1.623  1.1479  0.2037 -0.0808
 5552TIP3    H216663   3.211   4.934   1.482 -1.5554 -0.6361 -1.2541
 5553TIP3   OH216664   1.929   0.313   2.782 -0.2544  0.4968 -0.0993
 5553TIP3    H116665   2.008   0.278   2.822 -1.7749 -0.1939  2.4867
 5553TIP3    H216666   1.913   0.255   2.707  0.9795 -0.0966  0.0674
 5554TIP3   OH216667   2.368   0.254   2.389  0.2296  0.1062 -0.2528
 5554TIP3    H116668   2.442   0.259   2.450 -0.2424  2.6761  0.2626
 5554TIP3    H216669   2.391   0.316   2.319 -1.3251  0.8329 -0.1568
 5555TIP3   OH216670   0.811   0.879   4.410 -0.5541  0.2787  0.0967
 5555TIP3    H116671   0.813   0.788   4.440 -0.8861  0.0604 -0.5296
 5555TIP3    H216672   0.884   0.921   4.456  0.9872 -0.8204 -1.2361
 5556TIP3   OH216673   5.972   3.597   1.907  0.2413  0.0708 -0.4428
 5556TIP3    H116674   5.887   3.563   1.935  0.5561 -1.4363 -1.1999
 5556TIP3    H216675   6.018   3.616   1.988 -0.6990  0.6328 -0.0169
 5557TIP3   OH216676   2.798   5.403   3.999  0.2934 -0.4589  0.0072
 5557TIP3    H116677   2.716   5.355   4.007  1.2272 -1.9762  1.1281
 5557TIP3    H216678   2.832   5.380   3.913 -0.3596  0.0282 -0.3827
 5558TIP3   OH216679   6.058   5.308   0.135  0.5407  0.3692 -0.6231
 5558TIP3    H116680   6.016   5.222   0.129 -0.2980  0.8234 -1.7290
 5558TIP3    H216681   6.106   5.306   0.217  2.3375 -1.9550 -1.6071
 5559TIP3   OH216682   3.797   1.118   2.382  0.0188 -0.3824  0.0616
 5559TIP3    H116683   3.808   1.143   2.290 -2.7408 -0.0750 -0.2631
 5559TIP3    H216684   3.882   1.081   2.407  1.1840  0.5174 -2.2698
 5560TIP3   OH216685   5.610   3.763   3.140 -0.6770 -0.6257 -0.2668
 5560TIP3    H116686   5.702   3.783   3.158 -1.0366  2.4511 -1.2896
 5560TIP3    H216687   5.577   3.724   3.221  0.7244  1.3470  1.3206
 5561TIP3   OH216688   4.145   4.313   0.474 -0.2340 -0.1100  0.4871
 5561TIP3    H116689   4.100   4.365   0.540 -0.1162  0.0080  0.4738
 5561TIP3    H216690   4.098   4.229   0.473 -0.1729 -0.1482  0.7916
 5562TIP3   OH216691   4.721   3.712   3.952 -0.1680 -0.2352  0.1777
 5562TIP3    H116692   4.665   3.657   4.007 -2.2420 -0.4190 -1.9678
 5562TIP3    H216693   4.710   3.801   3.987 -0.1549 -0.5593  1.0279
 5563TIP3   OH216694   3.851   0.947   1.760  0.4822  0.2762  0.3435
 5563TIP3    H116695   3.877   0.861   1.792  2.1727  0.1394 -1.2489
 5563TIP3    H216696   3.784   0.930   1.694  1.1212  0.1466 -0.2734
 5564TIP3   OH216697   2.922   3.444   3.554  0.2852  0.3379  0.3160
 5564TIP3    H116698   2.842   3.432   3.606 -0.7980  1.7929 -0.8916
 5564TIP3    H216699   2.942   3.357   3.520 -1.1012  0.0264  0.2411
 5565TIP3   OH216700   5.998   3.917   0.680  0.2522 -0.8289 -0.6119
 5565TIP3    H116701   6.021   3.998   0.636  1.9577  0.1981  1.8985
 5565TIP3    H216702   5.946   3.944   0.755  1.1730 -1.9676  0.4855
 5566TIP3   OH216703   1.306   0.260   3.847  0.2416 -0.3466 -0.1962
 5566TIP3    H116704   1.311   0.165   3.858 -1.6237 -0.4503  0.0713
 5566TIP3    H216705   1.276   0.293   3.932 -0.5094  0.3164 -0.6953
 5567TIP3   OH216706   4.630   3.975   3.994  0.5568 -0.1427 -0.1310
 5567TIP3    H116707   4.540   4.005   4.001  0.7806  0.7094 -0.7228
 5567TIP3    H216708   4.667   3.988   4.082  0.8906  2.2099 -0.5517
 5568TIP3   OH216709   3.387   3.823   0.272  0.8151 -0.4854 -0.1169
 5568TIP3    H116710   3.344   3.753   0.222 -0.0129 -1.6852  2.1495
 5568TIP3    H216711   3.318   3.858   0.328  1.6467  0.9938  0.0299
 5569TIP3   OH216712   3.570   5.351   4.106 -0.2871 -0.0405 -0.2117
 5569TIP3    H116713   3.635   5.415   4.135 -0.0085 -0.9600  1.2617
 5569TIP3    H216714   3.567   5.362   4.011  1.6627  0.3578 -0.2631
 5570TIP3   OH216715   3.182   5.289   1.990 -0.0271  0.1596 -0.5700
 5570TIP3    H116716   3.228   5.373   1.993 -2.0967  1.3763 -0.5056
 5570TIP3    H216717   3.117   5.300   1.920 -1.4291 -0.7704  0.5159
 5571TIP3   OH216718   0.932   2.415   0.332  0.1443  0.0649  0.5762
 5571TIP3    H116719   1.009   2.359   0.317  0.4852  0.4043  1.0305
 5571TIP3    H216720   0.897   2.431   0.245 -0.6477 -1.8048  0.4970
 5572TIP3   OH216721   3.373   4.962   2.931 -0.1802  0.2518 -0.7690
 5572TIP3    H116722   3.277   4.957   2.937 -0.1945  1.2803  0.0720
 5572TIP3    H216723   3.400   5.002   3.014  0.9585  0.2446 -1.1276
 5573TIP3   OH216724   3.846   1.370   1.544  0.2613  0.2739  0.1393
 5573TIP3    H116725   3.899   1.362   1.464 -0.2719  0.8079 -0.2747
 5573TIP3    H216726   3.881   1.446   1.589  2.5799 -1.6998  1.9911
 5574TIP3   OH216727   3.233   0.226   2.683  0.6056 -0.5616  0.1160
 5574TIP3    H116728   3.314   0.241   2.633  0.3054  0.0589 -0.2030
 5574TIP3    H216729   3.171   0.193   2.618 -0.3621  2.0217 -0.4240
 5575TIP3   OH216730   0.578   5.010   2.534  0.3531  0.2334 -0.4987
 5575TIP3    H116731   0.623   4.929   2.559  0.0564 -0.2213 -1.4153
 5575TIP3    H216732   0.485   4.992   2.550 -0.0147 -0.5581 -3.0815
 5576TIP3   OH216733   3.210   4.259   0.262 -0.2795  0.3495  0.0172
 5576TIP3    H116734   3.180   4.243   0.173 -1.6325 -2.5830  0.8691
 5576TIP3    H216735   3.268   4.185   0.282  0.4553  1.2399  1.4139
 5577TIP3   OH216736   1.534   2.623   1.190  0.7779  0.2051  0.6034
 5577TIP3    H116737   1.571   2.539   1.164  1.1891  1.0094 -1.6899
 5577TIP3    H216738   1.610   2.674   1.219  0.6745  0.1300  1.0145
 5578TIP3   OH216739   6.204   3.404   4.733  0.6099  0.8284  0.2331
 5578TIP3    H116740   6.242   3.412   4.645  0.1227  0.1223 -0.0507
 5578TIP3    H216741   6.251   3.469   4.785  1.6695  0.5158 -0.2943
 5579TIP3   OH216742   4.934   1.397   4.426 -0.0050  0.8553  0.0970
 5579TIP3    H116743   4.904   1.357   4.508 -0.6814  0.8433 -0.1521
 5579TIP3    H216744   5.015   1.350   4.406  0.2480  0.9570  0.8296
 5580TIP3   OH216745   1.165   5.498   2.293 -0.2324 -0.1987 -0.4012
 5580TIP3    H116746   1.075   5.493   2.323 -0.3251 -1.0647 -0.8035
 5580TIP3    H216747   1.218   5.484   2.372 -0.4425  0.3426 -0.1600
 5581TIP3   OH216748   0.611   0.785   3.099 -0.1211  0.3585  0.3880
 5581TIP3    H116749   0.535   0.834   3.130 -0.6436  1.2660 -2.1531
 5581TIP3    H216750   0.584   0.748   3.015  1.8966 -0.1870 -0.0821
 5582TIP3   OH216751   1.441   4.976   3.670  0.0442 -0.0537  0.7980
 5582TIP3    H116752   1.432   4.935   3.584 -0.3189 -0.7758  1.1655
 5582TIP3    H216753   1.424   5.069   3.655  0.9306 -0.0245 -0.0653
 5583TIP3   OH216754   1.289   5.030   0.601 -0.6560 -0.1909 -0.1688
 5583TIP3    H116755   1.255   5.035   0.512  0.5714  2.1817 -0.5984
 5583TIP3    H216756   1.352   4.959   0.599 -0.5539 -0.0854 -1.2439
 5584TIP3   OH216757   3.983   4.915   2.965 -0.0539 -0.0166 -0.0774
 5584TIP3    H116758   3.897   4.932   3.003  0.3959  0.1866  0.8605
 5584TIP3    H216759   3.979   4.955   2.878 -0.8356  0.1639  0.0358
 5585TIP3   OH216760   0.096   4.191   3.014  0.4602  0.3360 -0.7737
 5585TIP3    H116761   0.149   4.143   3.078 -3.4476  0.1186  2.6885
 5585TIP3    H216762   0.116   4.148   2.930  4.1399 -0.8968  0.5125
 5586TIP3   OH216763   4.001   2.119   4.075 -0.2948  0.0824  1.0919
 5586TIP3    H116764   3.986   2.085   3.987 -0.5285  1.3150  0.6363
 5586TIP3    H216765   4.014   2.041   4.129  1.1735 -0.6566 -0.2515
 5587TIP3   OH216766   2.498   2.523   2.766  0.0127  0.4924  0.1593
 5587TIP3    H116767   2.489   2.563   2.853 -1.5824  0.9213 -0.1782
 5587TIP3    H216768   2.455   2.584   2.707  0.8178  0.0574 -0.9080
 5588TIP3   OH216769   5.826   3.046   0.807  0.3116  0.3662  0.7010
 5588TIP3    H116770   5.921   3.056   0.804  0.4776 -1.1438 -1.2510
 5588TIP3    H216771   5.810   2.962   0.764 -1.9676  0.9763  0.2416
 5589TIP3   OH216772   3.790   3.405   3.810  0.0445  0.0346 -0.5811
 5589TIP3    H116773   3.749   3.319   3.807  2.0282 -0.9362 -1.5066
 5589TIP3    H216774   3.820   3.414   3.901 -2.7433  1.0956  0.3246
 5590TIP3   OH216775   3.901   3.196   3.510  0.1081 -0.6182  0.2712
 5590TIP3    H116776   3.958   3.124   3.539  1.3568  0.0924 -0.3570
 5590TIP3    H216777   3.949   3.275   3.532 -0.9083  0.0247  0.2386
 5591TIP3   OH216778   0.065   5.349   3.378  0.1640 -0.6453 -0.6777
 5591TIP3    H116779  -0.011   5.331   3.322  0.5801  1.0093 -1.8623
 5591TIP3    H216780   0.035   5.416   3.439  0.5822 -0.1263 -1.0250
 5592TIP3   OH216781   2.952   2.265   3.992 -0.1628  0.2215 -0.1617
 5592TIP3    H116782   2.966   2.345   4.043 -0.7717  0.1598  0.1080
 5592TIP3    H216783   2.908   2.205   4.053  0.3246 -0.3404 -0.3444
 5593TIP3   OH216784   4.956   1.754   0.505  0.0654  0.7956 -0.2013
 5593TIP3    H116785   4.953   1.735   0.411  0.1863 -0.3768  0.0125
 5593TIP3    H216786   4.872   1.724   0.539 -0.1874  1.6944 -0.0039
 5594TIP3   OH216787   4.788   3.485   0.569  0.0018 -0.3749  0.1993
 5594TIP3    H116788   4.847   3.409   0.572 -0.3660 -0.7417 -1.0854
 5594TIP3    H216789   4.834   3.548   0.512 -0.6925 -0.5376 -0.5525
 5595TIP3   OH216790   6.280   0.800   1.955  0.1990 -0.3862  0.2924
 5595TIP3    H116791   6.322   0.772   2.036 -0.7072 -1.4371  0.4276
 5595TIP3    H216792   6.252   0.719   1.913 -0.3050  0.2036 -0.5408
 5596TIP3   OH216793   2.041   2.893   3.675  0.2745 -0.1188  0.4719
 5596TIP3    H116794   2.000   2.874   3.590 -1.1338 -0.0272  1.1020
 5596TIP3    H216795   2.129   2.923   3.653 -0.1579  0.1712 -0.9821
 5597TIP3   OH216796   0.719   5.808   0.686 -0.1241  0.0442 -0.0684
 5597TIP3    H116797   0.813   5.806   0.700  0.2257  0.5413 -2.0024
 5597TIP3    H216798   0.709   5.808   0.591 -2.0589  0.4744  0.0883
 5598TIP3   OH216799   4.620   4.808   3.691  0.0338 -0.1429 -0.5396
 5598TIP3    H116800   4.621   4.775   3.781 -1.4483  0.9756 -0.0789
 5598TIP3    H216801   4.669   4.890   3.695  0.4359 -0.3632 -0.8735
 5599TIP3   OH216802   1.038   5.556   3.655 -0.1971 -0.2962  0.0645
 5599TIP3    H116803   0.949   5.561   3.690 -0.1984 -0.1006  0.0307
 5599TIP3    H216804   1.079   5.485   3.705  0.1103  0.6102  1.1347
 5600TIP3   OH216805   3.368   4.408   5.128  0.0155  0.2256 -0.1977
 5600TIP3    H116806   3.317   4.387   5.050  0.1321 -0.7094 -0.0266
 5600TIP3    H216807   3.438   4.465   5.097 -0.8988  1.2231 -0.4968
 5601TIP3   OH216808   3.109   0.791   1.424 -0.3206 -0.0866 -0.0093
 5601TIP3    H116809   3.017   0.778   1.445 -0.1456 -0.7377  0.3701
 5601TIP3    H216810   3.141   0.852   1.490 -0.1980 -0.7694  0.5689
 5602TIP3   OH216811   3.602   3.158   0.441 -0.4042 -0.2833 -0.3384
 5602TIP3    H116812   3.650   3.174   0.360  0.0234 -2.5004 -0.5880
 5602TIP3    H216813   3.625   3.231   0.498  1.5526 -0.1557 -1.2220
 5603TIP3   OH216814   5.392   0.268   1.688  0.0342  0.0448  0.1594
 5603TIP3    H116815   5.355   0.355   1.678  0.7812  0.3871  0.3390
 5603TIP3    H216816   5.483   0.277   1.661 -0.6322 -1.3959 -3.0372
 5604TIP3   OH216817   4.824   4.049   3.203 -0.5432 -0.0631 -0.4940
 5604TIP3    H116818   4.895   4.099   3.162 -0.6877  0.7994  0.2830
 5604TIP3    H216819   4.758   4.041   3.134 -0.5489  0.8992 -0.6169
 5605TIP3   OH216820   3.315   5.906   0.772 -0.0126 -0.2288  0.4726
 5605TIP3    H116821   3.326   5.993   0.736 -0.4047  0.2874  1.5577
 5605TIP3    H216822   3.230   5.877   0.738  0.2161 -0.2822 -0.0616
 5606TIP3   OH216823   0.490   1.681   4.030  0.0062  0.6327 -0.2773
 5606TIP3    H116824   0.533   1.762   4.005  2.3251 -0.8374 -1.3407
 5606TIP3    H216825   0.545   1.645   4.100  0.5750 -1.2540 -1.6097
 5607TIP3   OH216826   4.135   3.989   0.946  0.4439  0.4695 -0.0996
 5607TIP3    H116827   4.196   3.921   0.974  0.9034  1.1523  0.6258
 5607TIP3    H216828   4.064   3.985   1.010  1.0589  1.4391  0.6852
 5608TIP3   OH216829   1.551   1.073   0.624 -0.1735 -0.0478 -0.6628
 5608TIP3    H116830   1.639   1.056   0.591  0.0373 -0.5357  0.1168
 5608TIP3    H216831   1.565   1.123   0.705 -0.3307 -3.3277  1.6136
 5609TIP3   OH216832   3.014   3.667   2.209  0.3758  0.2727  0.2209
 5609TIP3    H116833   2.922   3.648   2.190  0.5733  1.3791 -2.3175
 5609TIP3    H216834   3.036   3.611   2.283 -1.4488 -2.5188 -1.1832
 5610TIP3   OH216835   2.176   2.783   5.095  0.2107  0.6022  0.5643
 5610TIP3    H116836   2.096   2.731   5.101  0.8378 -1.0105 -2.6715
 5610TIP3    H216837   2.247   2.720   5.112  0.8869  1.4678  1.0362
 5611TIP3   OH216838   1.841   4.441   0.488 -0.5538  0.0124 -0.2665
 5611TIP3    H116839   1.852   4.351   0.519 -0.6820 -0.1044 -0.5570
 5611TIP3    H216840   1.847   4.434   0.393  0.8738  0.5037 -0.2447
 5612TIP3   OH216841   4.318   4.212   1.245  0.0015  0.2043  0.2323
 5612TIP3    H116842   4.346   4.286   1.299  1.7953 -0.1779 -0.1282
 5612TIP3    H216843   4.279   4.151   1.308  0.3950  0.5669  0.8405
 5613TIP3   OH216844   4.864   2.826   4.015 -0.2389  0.0595 -0.7586
 5613TIP3    H116845   4.781   2.837   4.061 -0.0684 -1.3565 -0.0434
 5613TIP3    H216846   4.910   2.908   4.029 -0.6986  0.1159  0.5896
 5614TIP3   OH216847   0.808   3.468   3.730  0.5480  0.5344  1.1250
 5614TIP3    H116848   0.826   3.478   3.637  0.4877 -1.8403  0.8163
 5614TIP3    H216849   0.887   3.502   3.774  0.9688  0.7701  0.1986
 5615TIP3   OH216850   3.990   4.058   1.612  0.5956 -0.1504 -0.3140
 5615TIP3    H116851   4.055   4.113   1.568  0.0515  1.7687  1.1573
 5615TIP3    H216852   4.014   4.060   1.704 -0.2020 -1.3592 -0.0467
 5616TIP3   OH216853   5.422   5.094   1.330 -0.1690  0.6928  0.1634
 5616TIP3    H116854   5.439   5.084   1.424 -1.1326  0.0591  0.2861
 5616TIP3    H216855   5.502   5.131   1.295  0.1774  1.0271  1.2585
 5617TIP3   OH216856   2.070   3.136   1.765 -0.0999 -0.5106 -0.1099
 5617TIP3    H116857   2.105   3.184   1.691  1.3310 -1.9102 -0.4053
 5617TIP3    H216858   1.992   3.092   1.730 -0.2351 -0.0544 -0.3883
 5618TIP3   OH216859   5.491   3.687   2.464 -0.3468 -0.2783  0.0956
 5618TIP3    H116860   5.560   3.701   2.400 -0.8989  2.9407  0.0456
 5618TIP3    H216861   5.522   3.614   2.517  1.7014 -0.8181 -1.6998
 5619TIP3   OH216862   2.164   1.177   1.921 -0.0637  0.1969  0.1301
 5619TIP3    H116863   2.108   1.179   1.998 -0.0139 -0.4456  0.1882
 5619TIP3    H216864   2.249   1.208   1.953 -0.3274  0.9718  0.0874
 5620TIP3   OH216865   1.002   0.228   1.492  0.0344 -0.3220  0.6040
 5620TIP3    H116866   0.934   0.278   1.448  0.9510  0.6086  0.1990
 5620TIP3    H216867   1.070   0.216   1.425 -0.2186 -2.2627  0.6344
 5621TIP3   OH216868   2.124   3.847   3.480 -0.8548  0.0350 -0.7430
 5621TIP3    H116869   2.162   3.761   3.464 -0.6229 -0.0682  0.3380
 5621TIP3    H216870   2.187   3.892   3.535 -1.0389  0.8602 -1.1826
 5622TIP3   OH216871   5.202   2.264   1.641  0.3822  0.6798 -0.0056
 5622TIP3    H116872   5.297   2.260   1.628  0.1766  1.1549 -2.1865
 5622TIP3    H216873   5.173   2.173   1.630  0.6308  0.4045  1.4440
 5623TIP3   OH216874   1.009   2.809   1.686  0.2845 -0.0860 -0.1694
 5623TIP3    H116875   0.996   2.824   1.592  0.6686  1.6606  0.0142
 5623TIP3    H216876   1.084   2.749   1.691  0.4420  0.0334 -0.9899
 5624TIP3   OH216877   2.586   4.228   4.581 -0.0040  0.2196 -0.1095
 5624TIP3    H116878   2.555   4.194   4.665 -0.3203 -0.1193 -0.3623
 5624TIP3    H216879   2.507   4.263   4.539  0.0867  0.0316 -0.4359
 5625TIP3   OH216880   6.193   1.042   4.045  0.1289 -0.2159 -0.3031
 5625TIP3    H116881   6.282   1.060   4.076  0.1933 -0.1647 -0.5126
 5625TIP3    H216882   6.162   0.970   4.100 -0.0366  0.3676  0.3805
 5626TIP3   OH216883   4.232   4.663   1.986  0.3598 -0.4808  0.1758
 5626TIP3    H116884   4.298   4.732   2.000  1.0517 -1.2688  0.9805
 5626TIP3    H216885   4.162   4.684   2.048  0.3302 -0.2107  0.0505
 5627TIP3   OH216886   3.067   5.221   2.833  0.1121  0.5532  0.4953
 5627TIP3    H116887   3.067   5.191   2.742 -3.5947  0.5178  0.3228
 5627TIP3    H216888   3.130   5.293   2.835  0.3113  0.5381 -2.0981
 5628TIP3   OH216889   5.853   5.710   3.989 -0.0701 -0.5794 -0.4117
 5628TIP3    H116890   5.834   5.631   4.040  0.9388  0.1503  1.1821
 5628TIP3    H216891   5.865   5.679   3.899 -1.6886 -1.9478 -0.2016
 5629TIP3   OH216892   3.917   5.003   2.598  0.0242 -0.8841  0.3518
 5629TIP3    H116893   3.971   4.997   2.519 -2.4211 -1.5271 -1.3842
 5629TIP3    H216894   3.910   5.097   2.614 -0.0722 -0.7031 -0.6619
 5630TIP3   OH216895   3.792   1.643   0.893 -0.1427 -0.1407  0.0383
 5630TIP3    H116896   3.790   1.732   0.858  0.0889 -0.5894 -1.1477
 5630TIP3    H216897   3.756   1.651   0.981  0.6861  1.2624  0.2666
 5631TIP3   OH216898   0.296   3.034   2.483  0.1791 -0.0582  0.2583
 5631TIP3    H116899   0.343   3.114   2.460 -0.6683  1.5260  3.3751
 5631TIP3    H216900   0.205   3.052   2.462 -0.0493 -0.0656  1.1652
 5632TIP3   OH216901   4.297   3.914   1.298  0.1963 -0.0787  0.3347
 5632TIP3    H116902   4.242   3.873   1.366  0.1778  0.5292  0.6902
 5632TIP3    H216903   4.386   3.887   1.321  0.1384 -0.3246  0.2798
 5633TIP3   OH216904   3.057   4.604   4.021 -0.1624  0.0844 -0.3312
 5633TIP3    H116905   3.145   4.596   4.059 -0.1969  0.1532 -0.2353
 5633TIP3    H216906   3.071   4.602   3.927  0.0127  0.8191 -0.3243
 5634TIP3   OH216907   4.612   5.197   1.543  0.0791 -0.0066 -1.0700
 5634TIP3    H116908   4.546   5.153   1.597 -0.7006 -1.2527 -2.9008
 5634TIP3    H216909   4.687   5.137   1.543  0.0332 -0.0680 -1.4376
 5635TIP3   OH216910   0.525   0.302   2.172  0.5001 -0.2234  0.0182
 5635TIP3    H116911   0.507   0.373   2.110 -1.4419  0.6528  1.4751
 5635TIP3    H216912   0.594   0.251   2.130 -0.1047  0.8156 -2.4534
 5636TIP3   OH216913   4.737  -0.008   1.324  0.1944  0.2234  0.1649
 5636TIP3    H116914   4.826   0.018   1.347  0.4657 -2.0687  2.0535
 5636TIP3    H216915   4.681   0.049   1.377  0.4734  1.4594 -0.7992
 5637TIP3   OH216916   3.021   1.384   2.524  0.4613  0.1961  0.6426
 5637TIP3    H116917   3.061   1.320   2.464 -0.5779 -0.7145  0.8849
 5637TIP3    H216918   2.932   1.394   2.492  0.9775  2.6873 -0.2717
 5638TIP3   OH216919   1.415   0.453   2.218 -0.3834  0.2768  0.0032
 5638TIP3    H116920   1.499   0.477   2.255  0.0089 -0.3071 -0.4848
 5638TIP3    H216921   1.412   0.358   2.222 -1.0419  0.2909  0.0620
 5639TIP3   OH216922   2.643   4.156   3.029  0.0999  0.4571  0.0568
 5639TIP3    H116923   2.673   4.086   3.087  1.1034 -0.7841 -1.8514
 5639TIP3    H216924   2.573   4.115   2.978 -0.9743  1.6160  0.5468
 5640TIP3   OH216925   0.579   1.789   0.237 -0.4539  0.3726  0.0932
 5640TIP3    H116926   0.648   1.856   0.240  0.1259 -0.2431  1.1411
 5640TIP3    H216927   0.611   1.725   0.173 -0.5212  0.5729 -0.1436
 5641TIP3   OH216928   2.507   1.498   1.040  0.1939  0.1519 -0.0129
 5641TIP3    H116929   2.528   1.591   1.030 -1.2139  0.8156  2.3375
 5641TIP3    H216930   2.435   1.483   0.980 -0.6395  1.0322  0.7342
 5642TIP3   OH216931   0.662   2.122   1.893  0.6778 -0.3926 -0.1116
 5642TIP3    H116932   0.666   2.039   1.845 -3.3056  0.1820 -1.8552
 5642TIP3    H216933   0.730   2.176   1.852  0.8266 -1.6153 -1.5791
 5643TIP3   OH216934   2.299   5.872   3.223 -0.5576  0.2113  0.4301
 5643TIP3    H116935   2.349   5.917   3.291  0.2719 -0.0427  0.0053
 5643TIP3    H216936   2.310   5.926   3.145  0.0704 -0.4606  0.0292
 5644TIP3   OH216937   3.661   2.469   3.383  0.2526 -0.3674  0.0386
 5644TIP3    H116938   3.709   2.436   3.459  2.2005 -0.5258 -1.1926
 5644TIP3    H216939   3.667   2.399   3.319 -0.4119  0.1938 -0.6541
 5645TIP3   OH216940   4.331   2.589   4.902 -0.0489  0.3944  0.1502
 5645TIP3    H116941   4.281   2.534   4.842 -0.9356  1.1995  0.1373
 5645TIP3    H216942   4.283   2.671   4.906 -0.2738  0.2154  2.3047
 5646TIP3   OH216943   1.454   5.795   4.161  0.6142  0.1901 -0.2509
 5646TIP3    H116944   1.395   5.795   4.236  0.3520  0.8683 -0.4451
 5646TIP3    H216945   1.405   5.840   4.092  1.4865  1.0979 -0.3037
 5647TIP3   OH216946   4.576   2.904   2.269 -0.6231  0.1282 -0.2742
 5647TIP3    H116947   4.584   2.822   2.317  1.2875 -0.0669 -0.8382
 5647TIP3    H216948   4.494   2.896   2.220 -1.9155 -0.2295  1.8233
 5648TIP3   OH216949   4.938   4.421   4.273  0.5201  0.1239  0.0685
 5648TIP3    H116950   4.942   4.448   4.365  1.0330  1.8600 -0.4261
 5648TIP3    H216951   4.941   4.325   4.276 -1.2875  0.0612  1.9343
 5649TIP3   OH216952   2.805   2.658   2.351 -0.3157 -0.3654 -0.2203
 5649TIP3    H116953   2.845   2.605   2.282 -0.3988  0.7212 -1.1496
 5649TIP3    H216954   2.869   2.659   2.422  0.3700 -0.4082 -0.8312
 5650TIP3   OH216955   5.089   2.589   3.292  0.5689  0.1730  0.0447
 5650TIP3    H116956   5.168   2.600   3.344  0.1256  0.1732  0.7341
 5650TIP3    H216957   5.030   2.658   3.323 -0.3000 -0.8335  0.7069
 5651TIP3   OH216958   5.612   4.242   0.913  0.0709  0.5781  0.3912
 5651TIP3    H116959   5.620   4.257   1.007  0.5365  0.3955  0.3790
 5651TIP3    H216960   5.525   4.277   0.891 -0.7865 -0.9609  1.2045
 5652TIP3   OH216961   2.064   3.966   1.853  0.0635 -0.2248  0.1559
 5652TIP3    H116962   2.119   3.889   1.870 -2.0526 -2.3854 -2.0226
 5652TIP3    H216963   1.994   3.959   1.917 -0.2782 -0.2656 -0.2229
 5653TIP3   OH216964   6.186   5.455   1.557  0.2024  0.4704 -0.2236
 5653TIP3    H116965   6.180   5.437   1.651  1.9918 -0.1223 -0.1824
 5653TIP3    H216966   6.115   5.518   1.540 -2.0713 -1.6070  0.9153
 5654TIP3   OH216967   3.664   4.506   0.160 -0.5773  0.4320 -0.3898
 5654TIP3    H116968   3.620   4.579   0.115  0.7917  1.0419 -0.8083
 5654TIP3    H216969   3.652   4.524   0.253 -0.8230  0.8329 -0.4959
 5655TIP3   OH216970   1.244   4.609   0.258  0.1743  0.2058 -0.0665
 5655TIP3    H116971   1.252   4.697   0.220  0.6828  0.9815  1.7185
 5655TIP3    H216972   1.163   4.612   0.309  0.7267  0.0070  0.8553
 5656TIP3   OH216973   0.309   2.917   2.895 -1.0060 -0.5404  0.4054
 5656TIP3    H116974   0.323   2.845   2.833 -2.7510  0.0880 -0.8084
 5656TIP3    H216975   0.312   2.876   2.981  2.5447 -1.2854  0.0774
 5657TIP3   OH216976   4.293   2.703   3.632  0.7831  0.6164 -0.2878
 5657TIP3    H116977   4.353   2.668   3.698 -0.0379 -1.7165 -0.6682
 5657TIP3    H216978   4.210   2.713   3.679  0.9854  2.0862 -0.2065
 5658TIP3   OH216979   5.486   0.207   3.218  0.1402  0.4340 -0.0217
 5658TIP3    H116980   5.468   0.145   3.148 -1.8947  0.4138  0.4516
 5658TIP3    H216981   5.549   0.268   3.180  0.2622 -0.4650 -1.3337
 5659TIP3   OH216982   1.723   2.642   1.585 -0.3958 -0.6586 -1.0010
 5659TIP3    H116983   1.747   2.549   1.581  1.2418 -0.3464  0.5021
 5659TIP3    H216984   1.728   2.664   1.678 -0.5560  0.9874 -1.3552
 5660TIP3   OH216985   3.464   4.338   2.716 -0.2938 -0.2858  0.3258
 5660TIP3    H116986   3.418   4.269   2.667 -1.6508  0.3219  0.6978
 5660TIP3    H216987   3.494   4.399   2.648  0.1565 -0.7893  0.0645
 5661TIP3   OH216988   3.881   5.244   1.259 -0.1297  0.1913  0.1860
 5661TIP3    H116989   3.893   5.322   1.312  1.5362 -1.0866  1.8431
 5661TIP3    H216990   3.881   5.172   1.322 -2.5230 -1.1393 -1.1899
 5662TIP3   OH216991   1.668   2.141   5.042  0.5253  0.2859  0.1284
 5662TIP3    H116992   1.688   2.228   5.009  0.3751  0.2021 -0.1901
 5662TIP3    H216993   1.573   2.138   5.047  0.5096 -0.0024 -0.2663
 5663TIP3   OH216994   0.084   4.763   4.333  0.4344  0.2069 -0.0527
 5663TIP3    H116995   0.018   4.810   4.282  0.0756 -0.2621 -0.0305
 5663TIP3    H216996   0.167   4.804   4.309  0.0859  1.1407  0.2964
 5664TIP3   OH216997   4.199   0.124   1.709 -0.1443 -0.0244 -0.1461
 5664TIP3    H116998   4.116   0.090   1.742 -0.0261 -0.2373 -0.0633
 5664TIP3    H216999   4.216   0.072   1.630  0.7593 -1.1806  0.7770
 5665TIP3   OH217000   1.686   0.495   3.593  0.3398 -0.1499  0.3098
 5665TIP3    H117001   1.637   0.419   3.624  0.4710 -0.7263 -0.8341
 5665TIP3    H217002   1.769   0.493   3.641 -0.2858  0.1889  1.4317
 5666TIP3   OH217003   2.450   3.181   2.934 -0.0903 -0.1538 -0.0377
 5666TIP3    H117004   2.475   3.089   2.929 -0.3060 -0.2114 -0.0282
 5666TIP3    H217005   2.368   3.182   2.984  0.7054  0.1813  1.3275
 5667TIP3   OH217006   1.650   3.095   3.657 -1.0227 -0.1693 -0.3661
 5667TIP3    H117007   1.593   3.172   3.653  0.7369  1.5925  3.2604
 5667TIP3    H217008   1.634   3.058   3.743  0.1078 -2.3163 -1.0048
 5668TIP3   OH217009   0.496   3.851   4.137 -0.0554 -0.1888  0.2253
 5668TIP3    H117010   0.559   3.922   4.124 -1.1098  0.8029  0.3241
 5668TIP3    H217011   0.411   3.895   4.140 -0.7050 -1.4252  0.7104
 5669TIP3   OH217012   6.331   5.317   4.873 -0.5281  0.1146 -0.1377
 5669TIP3    H117013   6.342   5.233   4.830  1.0897  0.4650 -0.4707
 5669TIP3    H217014   6.324   5.380   4.801 -0.4455  0.4088  0.1080
 5670TIP3   OH217015   0.726   4.554   3.586  0.0338 -0.3060 -0.3610
 5670TIP3    H117016   0.679   4.472   3.600  2.5932 -2.1292 -1.5820
 5670TIP3    H217017   0.668   4.605   3.530 -0.6882 -2.3010 -1.5382
 5671TIP3   OH217018   3.148   2.585   4.708 -0.1299 -0.6649  0.4493
 5671TIP3    H117019   3.062   2.549   4.731 -0.1876 -2.1953 -1.8267
 5671TIP3    H217020   3.204   2.508   4.697  0.8537  0.1555 -0.5096
 5672TIP3   OH217021   3.415   5.638   2.982 -0.0609 -0.7260 -0.0023
 5672TIP3    H117022   3.388   5.676   3.066  0.6696  1.6043 -0.7436
 5672TIP3    H217023   3.511   5.640   2.986  0.1174  2.7808 -2.1650
 5673TIP3   OH217024   2.470   2.529   0.803  0.3458 -0.3744 -0.4205
 5673TIP3    H117025   2.484   2.618   0.836  2.1205 -0.7080 -0.2064
 5673TIP3    H217026   2.428   2.541   0.717  2.6039  0.7847 -1.4273
 5674TIP3   OH217027   6.103   4.586   4.119 -0.2542  0.1971 -0.5970
 5674TIP3    H117028   6.010   4.604   4.105 -0.0345  0.9073 -1.1847
 5674TIP3    H217029   6.123   4.629   4.203 -1.1240 -2.4620  1.0965
 5675TIP3   OH217030   3.397   4.252   3.741  0.1159 -0.1002  0.0453
 5675TIP3    H117031   3.492   4.268   3.744  0.1691 -0.5455  1.1070
 5675TIP3    H217032   3.380   4.195   3.816 -0.4331 -3.1003 -2.1777
 5676TIP3   OH217033   5.051   2.281   0.668 -0.3298 -0.0722 -0.2941
 5676TIP3    H117034   4.992   2.353   0.690  1.5410  1.6241 -0.4381
 5676TIP3    H217035   5.080   2.301   0.579  0.0908 -1.1204 -0.4056
 5677TIP3   OH217036   3.454   3.817   0.888  0.0070 -0.7767 -0.0459
 5677TIP3    H117037   3.418   3.757   0.823 -1.3925  0.8999 -0.8954
 5677TIP3    H217038   3.380   3.870   0.916  1.1328  0.3944  0.8526
 5678TIP3   OH217039   1.790   0.739   4.713  0.1130 -0.3669  0.5014
 5678TIP3    H117040   1.875   0.784   4.715  0.6362 -1.0612 -2.1648
 5678TIP3    H217041   1.726   0.808   4.698  0.5333 -0.1323 -0.2481
 5679TIP3   OH217042   1.320   4.501   4.530 -0.1383  0.0503  0.2251
 5679TIP3    H117043   1.415   4.499   4.518 -0.3107  0.8523 -1.7977
 5679TIP3    H217044   1.298   4.594   4.525 -1.0981 -0.1821 -0.1000
 5680TIP3   OH217045   5.877   5.703   4.527  0.2049  0.4746  0.3318
 5680TIP3    H117046   5.928   5.665   4.598 -0.2226 -0.0716  0.3532
 5680TIP3    H217047   5.933   5.773   4.491  1.1390 -0.3797  0.0734
 5681TIP3   OH217048   2.359   1.768   0.712  0.1065 -0.0670 -0.1868
 5681TIP3    H117049   2.305   1.795   0.786 -0.8251 -1.2565 -0.4124
 5681TIP3    H217050   2.322   1.816   0.637  0.8130  0.8490  0.0367
 5682TIP3   OH217051   1.825   3.652   5.050 -0.1457 -0.2614  0.4690
 5682TIP3    H117052   1.847   3.685   5.137 -1.7748  2.4049  0.0198
 5682TIP3    H217053   1.778   3.570   5.066  1.4811 -0.9788  1.9031
 5683TIP3   OH217054   5.842   0.985   4.321  0.2294  0.3023  0.2689
 5683TIP3    H117055   5.786   1.042   4.268  1.2453  1.5023  0.4395
 5683TIP3    H217056   5.828   1.014   4.411 -0.4744 -0.8355  0.5478
 5684TIP3   OH217057   2.152   2.206   1.370  0.2268 -0.2285 -0.5771
 5684TIP3    H117058   2.155   2.292   1.412  0.6276 -0.8373  0.6622
 5684TIP3    H217059   2.186   2.222   1.281 -1.1545  1.1758 -0.9050
 5685TIP3   OH217060   3.353   4.460   1.490  0.1635  0.8565  0.0623
 5685TIP3    H117061   3.389   4.375   1.512  1.1034  1.2697  0.1791
 5685TIP3    H217062   3.398   4.485   1.409  0.3992  1.5232  0.3848
 5686TIP3   OH217063   1.701   1.651   3.188 -0.1415 -0.0752 -0.2377
 5686TIP3    H117064   1.691   1.604   3.106  2.5182 -0.1232 -0.6240
 5686TIP3    H217065   1.624   1.708   3.193 -1.5481 -1.7537 -1.5561
 5687TIP3   OH217066   5.831   0.776   0.656 -0.3828 -0.5614  0.6662
 5687TIP3    H117067   5.813   0.867   0.632 -0.9262 -0.7043  0.5190
 5687TIP3    H217068   5.746   0.732   0.651  0.0329 -1.3032 -0.2626
 5688TIP3   OH217069   2.579   3.871   1.286 -0.0529 -0.3641 -0.7669
 5688TIP3    H117070   2.642   3.808   1.322 -0.5210  0.3854  1.5189
 5688TIP3    H217071   2.544   3.827   1.208  0.9990 -2.1419 -0.3072
 5689TIP3   OH217072   2.034   0.268   4.230 -0.0314 -0.8951  0.5982
 5689TIP3    H117073   2.060   0.361   4.232 -1.6305 -0.3910 -0.4033
 5689TIP3    H217074   2.117   0.220   4.233  0.9303  0.5993 -0.4942
 5690TIP3   OH217075   4.692   4.808   0.902 -0.2797  0.2238 -0.0955
 5690TIP3    H117076   4.634   4.756   0.846  0.6358 -0.2151 -0.6782
 5690TIP3    H217077   4.779   4.768   0.888  0.2696  1.2831  0.2288
 5691TIP3   OH217078   2.642   2.873   1.006  0.3716 -0.2665 -0.1660
 5691TIP3    H117079   2.648   2.865   0.911 -1.0635  0.1507 -0.3121
 5691TIP3    H217080   2.564   2.823   1.030 -0.8172  1.7305  0.4470
 5692TIP3   OH217081   2.521   3.037   2.100  0.1369  0.2860 -0.6376
 5692TIP3    H117082   2.530   3.121   2.143 -2.3797  0.7958 -0.9390
 5692TIP3    H217083   2.461   3.053   2.027 -0.1371 -1.6700 -0.9193
 5693TIP3   OH217084  -0.003   0.230   3.674  0.7416 -0.4410 -0.2024
 5693TIP3    H117085   0.070   0.291   3.679 -0.6556  1.2735  0.7325
 5693TIP3    H217086   0.001   0.181   3.756 -0.2628  1.0949  0.8336
 5694TIP3   OH217087   2.659   3.599   3.387 -0.3571 -0.2052  0.2931
 5694TIP3    H117088   2.668   3.591   3.482  3.4554  0.3557  0.1368
 5694TIP3    H217089   2.649   3.509   3.356  0.3749 -0.5951  1.1427
 5695TIP3   OH217090   1.477   3.166   1.580  0.2577  0.2891 -0.2386
 5695TIP3    H117091   1.453   3.130   1.495  1.5768 -1.5789  0.0930
 5695TIP3    H217092   1.507   3.255   1.562 -1.3094  0.6072 -1.4175
 5696TIP3   OH217093   3.296   0.677   0.523  0.1199 -0.4152 -0.7033
 5696TIP3    H117094   3.280   0.634   0.439  0.2755  1.4045 -1.7272
 5696TIP3    H217095   3.390   0.666   0.538  0.6106  1.4264 -2.1075
 5697TIP3   OH217096   4.790   0.183   4.325 -0.1223  0.2021 -0.0130
 5697TIP3    H117097   4.707   0.229   4.340  0.7151  2.3570 -1.4339
 5697TIP3    H217098   4.857   0.242   4.360  0.8897 -0.8490 -0.1279
 5698TIP3   OH217099   2.563   3.377   1.974 -0.0886  0.1797  0.7555
 5698TIP3    H117100   2.518   3.428   1.906  0.3266 -1.5945 -0.9420
 5698TIP3    H217101   2.492   3.333   2.021 -0.2941 -0.7351 -0.3622
 5699TIP3   OH217102   3.673   4.791   0.079  0.2221 -0.5706 -0.1152
 5699TIP3    H117103   3.643   4.798   0.170 -1.4276  3.3697 -0.7727
 5699TIP3    H217104   3.768   4.799   0.085  0.0764  0.5612  1.2829
 5700TIP3   OH217105   3.648   3.514   4.727 -0.0402 -0.1285 -0.0281
 5700TIP3    H117106   3.739   3.527   4.700  0.1419  0.1794  0.7236
 5700TIP3    H217107   3.652   3.506   4.822 -0.8377  0.2637  0.0482
 5701TIP3   OH217108   4.750   5.105   4.921 -0.0332  0.0517  0.8289
 5701TIP3    H117109   4.727   5.196   4.940  0.1882 -0.3598  3.3924
 5701TIP3    H217110   4.731   5.094   4.828  1.2865  3.1203  0.0825
 5702TIP3   OH217111   4.259   5.708   2.468 -0.3627  0.3286  0.4744
 5702TIP3    H117112   4.229   5.725   2.557 -1.5388  1.0409 -0.0289
 5702TIP3    H217113   4.291   5.618   2.470 -1.4355 -0.0611  1.3513
 5703TIP3   OH217114   1.081   0.202   0.598 -0.3191  0.1846 -0.4340
 5703TIP3    H117115   1.115   0.247   0.521  0.8444  0.3131  0.1381
 5703TIP3    H217116   1.005   0.255   0.625  1.9618  2.9398  1.2303
 5704TIP3   OH217117   1.931   3.225   0.930  0.3794 -0.3828  0.1727
 5704TIP3    H117118   1.940   3.133   0.905  0.5598  0.1171 -1.7342
 5704TIP3    H217119   2.004   3.269   0.887 -1.6381  1.1736 -1.8982
 5705TIP3   OH217120   0.205   0.088   4.079 -0.2988  0.0885  0.1382
 5705TIP3    H117121   0.192   0.183   4.082  1.4358  0.3598  0.1139
 5705TIP3    H217122   0.267   0.070   4.150  0.3507 -0.8408 -0.6427
 5706TIP3   OH217123   3.918   3.875   1.066  0.1425 -0.1527 -0.7838
 5706TIP3    H117124   3.865   3.874   0.986 -0.5433 -0.3544 -0.3326
 5706TIP3    H217125   3.958   3.789   1.070 -1.5937 -0.9604  0.2394
 5707TIP3   OH217126   3.973   2.668   1.073  0.2773 -0.0658 -0.1497
 5707TIP3    H117127   4.006   2.606   1.007 -0.5456  0.4356 -1.0536
 5707TIP3    H217128   3.891   2.629   1.103  0.3210  0.0381  0.1052
 5708TIP3   OH217129   1.999   1.109   1.698  0.4907  0.2472  0.0831
 5708TIP3    H117130   2.030   1.174   1.635 -1.1102  1.3272  0.3469
 5708TIP3    H217131   2.059   1.117   1.772  0.5272  1.2094 -0.0328
 5709TIP3   OH217132   2.895   2.492   4.803  0.3359 -0.1839  0.1320
 5709TIP3    H117133   2.801   2.508   4.794  0.8465  2.7836 -1.4003
 5709TIP3    H217134   2.923   2.552   4.873  1.1277 -1.0042  0.5446
 5710TIP3   OH217135   3.601   1.837   2.095 -0.0385 -0.1511  0.4749
 5710TIP3    H117136   3.648   1.884   2.164  1.7835  1.0512 -1.4334
 5710TIP3    H217137   3.670   1.788   2.050 -1.3021 -1.5075 -0.0355
 5711TIP3   OH217138   1.009   2.993   3.625 -0.9527 -0.0859  0.1282
 5711TIP3    H117139   0.992   2.922   3.563 -0.9550  0.4425 -0.4869
 5711TIP3    H217140   1.097   2.976   3.657 -1.6889 -1.5168  1.5559
 5712TIP3   OH217141   3.850   2.792   3.418 -0.3030 -0.0352  0.0015
 5712TIP3    H117142   3.810   2.860   3.472  0.4021 -0.2462  0.8020
 5712TIP3    H217143   3.944   2.805   3.427 -0.1656 -0.1170 -1.1406
 5713TIP3   OH217144   2.909   1.014   0.663 -0.2345  0.5326 -0.1226
 5713TIP3    H117145   2.859   1.094   0.679 -0.4663  1.2278 -3.5096
 5713TIP3    H217146   2.844   0.951   0.632  0.2974 -0.1701  0.1574
 5714TIP3   OH217147   6.248   2.684   2.936 -0.2583 -0.2173  0.2304
 5714TIP3    H117148   6.304   2.729   2.999 -0.0863  1.9081 -1.3250
 5714TIP3    H217149   6.192   2.629   2.990  0.7860  0.4519  2.1286
 5715TIP3   OH217150   1.584   5.612   1.385  0.3614 -0.3483 -0.7313
 5715TIP3    H117151   1.589   5.648   1.297  0.7803 -0.4668 -0.7606
 5715TIP3    H217152   1.672   5.625   1.421  0.2787 -0.5703 -0.4413
 5716TIP3   OH217153   4.732   5.323   4.646 -0.5096  0.4246 -0.1755
 5716TIP3    H117154   4.677   5.244   4.643 -0.0064  0.0397  0.4863
 5716TIP3    H217155   4.809   5.300   4.594  0.2097  0.0135  1.0259
 5717TIP3   OH217156   2.969   0.943   4.422 -0.0152  0.4458  0.2149
 5717TIP3    H117157   3.024   0.870   4.453 -0.2994 -0.0146 -0.3364
 5717TIP3    H217158   3.014   1.021   4.453  0.7312  0.0613  0.1441
 5718TIP3   OH217159   5.410   2.149   4.409 -0.0535 -0.2757 -0.4995
 5718TIP3    H117160   5.410   2.135   4.314 -1.7641  0.3903 -0.6410
 5718TIP3    H217161   5.364   2.074   4.445 -0.0787 -0.1510 -0.2683
 5719TIP3   OH217162   1.242   0.495   4.484 -0.7188 -0.0169  0.0694
 5719TIP3    H117163   1.211   0.558   4.549 -2.5722  1.1300 -1.7882
 5719TIP3    H217164   1.199   0.522   4.403  0.9099 -1.8268 -1.4847
 5720TIP3   OH217165   5.234   1.884   1.413  0.4047  0.0691 -0.2937
 5720TIP3    H117166   5.161   1.841   1.368  0.4710  0.3615 -0.6821
 5720TIP3    H217167   5.192   1.948   1.471  0.3035 -0.5514  0.3268
 5721TIP3   OH217168   1.964   0.680   1.793  0.0326 -0.2937 -0.2960
 5721TIP3    H117169   2.001   0.734   1.723  0.8681 -0.6905 -0.1745
 5721TIP3    H217170   1.909   0.740   1.843  0.5698  0.3414 -0.4412
 5722TIP3   OH217171   5.335   3.941   0.080 -0.4228  0.4791 -0.1669
 5722TIP3    H117172   5.384   3.902   0.153 -0.3348  0.3595 -0.2893
 5722TIP3    H217173   5.244   3.914   0.096 -0.4877  0.8923  0.1847
 5723TIP3   OH217174   0.133   0.382   3.180  0.3059 -0.2830 -0.8455
 5723TIP3    H117175   0.171   0.334   3.107  0.0748 -0.0948 -1.0869
 5723TIP3    H217176   0.208   0.416   3.228  0.4573 -0.4456 -0.9671
 5724TIP3   OH217177   1.080   5.319   3.078  0.2524 -0.1166 -0.1748
 5724TIP3    H117178   1.068   5.261   3.153  2.4825 -1.1150 -0.5005
 5724TIP3    H217179   1.084   5.261   3.002  3.9432  0.1577 -0.3668
 5725TIP3   OH217180   5.038   3.022   3.920 -0.0769  0.1116 -0.4761
 5725TIP3    H117181   4.966   3.047   3.863 -2.0946 -0.0330  1.8275
 5725TIP3    H217182   5.091   3.101   3.928 -2.2636  1.5790  0.8704
 5726TIP3   OH217183   0.643   5.311   4.285  0.1964 -0.3826 -0.6520
 5726TIP3    H117184   0.550   5.332   4.279  0.6722  1.7839 -1.2473
 5726TIP3    H217185   0.688   5.384   4.243  2.2346 -0.7980  0.6166
 5727TIP3   OH217186   0.964   4.669   2.612 -0.0808  0.0408 -0.1592
 5727TIP3    H117187   1.054   4.697   2.596 -0.1618 -0.1023 -0.8929
 5727TIP3    H217188   0.966   4.629   2.699  0.1516  1.8157  0.7044
 5728TIP3   OH217189   3.458   3.066   5.103  0.6817 -0.3214 -0.8222
 5728TIP3    H117190   3.510   2.997   5.062  0.0859 -1.1271 -0.2610
 5728TIP3    H217191   3.516   3.104   5.169  0.4372 -1.5264  0.1222
 5729TIP3   OH217192   4.531   1.894   3.070  0.3532 -0.1968 -0.2732
 5729TIP3    H117193   4.451   1.942   3.050 -0.1907 -1.8265 -2.4759
 5729TIP3    H217194   4.583   1.898   2.989  1.9515 -0.1980  0.7116
 5730TIP3   OH217195   1.582   1.269   0.828 -0.1157 -0.7382 -0.1839
 5730TIP3    H117196   1.605   1.354   0.865 -0.9438  0.0540 -1.3824
 5730TIP3    H217197   1.576   1.210   0.903 -0.7947  0.5577  0.8291
 5731TIP3   OH217198   3.524   0.405   2.871 -0.3334  0.5068 -0.1007
 5731TIP3    H117199   3.491   0.402   2.961  0.0312 -0.1003  0.0222
 5731TIP3    H217200   3.539   0.313   2.848  1.7649  0.7564  0.0459
 5732TIP3   OH217201   3.739   1.047   1.141  0.6239 -0.6095  0.0849
 5732TIP3    H117202   3.704   0.982   1.080  1.6257 -1.9592  0.8866
 5732TIP3    H217203   3.666   1.068   1.199 -0.1267  0.1255 -1.1072
 5733TIP3   OH217204   1.793   4.283   2.689 -0.3690  0.2551  0.1090
 5733TIP3    H117205   1.734   4.350   2.656 -0.4739 -0.4563 -1.2267
 5733TIP3    H217206   1.877   4.328   2.698 -0.4248  0.5734 -0.8133
 5734TIP3   OH217207   5.502   0.449   4.704 -0.0531  0.1312 -0.0744
 5734TIP3    H117208   5.459   0.495   4.776  0.2267  0.1175  0.1047
 5734TIP3    H217209   5.531   0.519   4.645 -1.1926  0.0935 -0.7012
 5735TIP3   OH217210   1.974   0.603   3.542  0.1903 -0.2161 -0.3145
 5735TIP3    H117211   2.012   0.655   3.613 -0.4820 -1.2197  0.8333
 5735TIP3    H217212   1.917   0.663   3.495 -1.2829 -0.0891  1.5392
 5736TIP3   OH217213   5.168   2.944   0.105 -0.1852 -0.5968  0.3063
 5736TIP3    H117214   5.260   2.925   0.121 -0.5728 -1.9823  0.9595
 5736TIP3    H217215   5.147   3.017   0.163  0.3851 -0.5624  0.4647
 5737TIP3   OH217216   6.172   1.157   0.303 -0.1879  0.3025  0.1905
 5737TIP3    H117217   6.166   1.252   0.298  1.5948  0.4751  0.6386
 5737TIP3    H217218   6.150   1.136   0.394 -0.7603  0.2555  0.0456
 5738TIP3   OH217219   2.845   0.521   2.387  0.2515  0.3942  0.4597
 5738TIP3    H117220   2.790   0.544   2.462  0.7889 -1.6706  1.5577
 5738TIP3    H217221   2.926   0.569   2.402  0.2177  0.2914  1.0116
 5739TIP3   OH217222   1.599   3.433   2.194  0.0058  0.7627  0.1456
 5739TIP3    H117223   1.509   3.448   2.167  0.3673  1.9949 -0.4585
 5739TIP3    H217224   1.607   3.478   2.278  0.2793  1.4154 -0.2206
 5740TIP3   OH217225   3.417   3.536   2.615  0.0457  0.1669  0.2472
 5740TIP3    H117226   3.393   3.598   2.546  2.1209  1.4754  0.5898
 5740TIP3    H217227   3.362   3.460   2.599 -2.4257  1.9570 -0.3683
 5741TIP3   OH217228   6.281   4.504   4.683 -0.5650  0.0161  0.4360
 5741TIP3    H117229   6.376   4.497   4.687 -0.6514 -0.6561  1.8942
 5741TIP3    H217230   6.250   4.415   4.668 -1.0483 -0.4968  3.6105
 5742TIP3   OH217231   1.103   5.827   2.831 -0.1156  0.1585 -0.1597
 5742TIP3    H117232   1.037   5.873   2.779 -1.9312 -0.4291  1.5002
 5742TIP3    H217233   1.164   5.792   2.767 -2.1860 -0.4527 -1.9185
 5743TIP3   OH217234   2.752   3.468   1.550  0.0384  0.5546 -0.4683
 5743TIP3    H117235   2.720   3.551   1.586  0.7080  0.9616 -0.7754
 5743TIP3    H217236   2.817   3.438   1.614  0.5762  0.8191 -0.8845
 5744TIP3   OH217237   6.336   1.325   0.154 -0.5673 -0.0674 -0.4911
 5744TIP3    H117238   6.273   1.349   0.086  0.0673  0.1310 -1.0247
 5744TIP3    H217239   6.338   1.230   0.152 -2.7293 -0.2231  1.2921
 5745TIP3   OH217240   0.165   4.975   4.755 -0.1739  0.6002  0.3501
 5745TIP3    H117241   0.103   4.923   4.807  2.2418 -1.6986  1.1293
 5745TIP3    H217242   0.211   5.029   4.819  0.9461 -0.2563  0.3041
 5746TIP3   OH217243   6.304   4.814   4.586  0.1184 -0.1091 -0.4257
 5746TIP3    H117244   6.359   4.795   4.510  0.1515 -0.1321 -0.3959
 5746TIP3    H217245   6.351   4.778   4.661  0.3791  0.4440 -0.3155
 5747TIP3   OH217246   5.339   2.438   2.818  0.0998  0.1517  0.2457
 5747TIP3    H117247   5.282   2.514   2.809 -0.3825 -0.2921 -0.6170
 5747TIP3    H217248   5.422   2.465   2.779 -0.5218 -0.2083 -1.4307
 5748TIP3   OH217249   2.272   5.912   1.383  0.5592  0.1039  0.2294
 5748TIP3    H117250   2.348   5.890   1.328  0.0233  0.1482 -0.5514
 5748TIP3    H217251   2.294   5.997   1.422 -0.2087  1.5097 -2.1892
 5749TIP3   OH217252   5.206   3.598   2.477 -0.0188  0.1007  0.1095
 5749TIP3    H117253   5.238   3.567   2.562 -1.1000 -0.4379  0.3356
 5749TIP3    H217254   5.284   3.597   2.420  0.6999  0.3992  1.0560
 5750TIP3   OH217255   3.102   4.491   2.031 -0.0365 -0.2155  0.7754
 5750TIP3    H117256   3.082   4.494   1.937 -1.1598  1.1188  1.0219
 5750TIP3    H217257   3.173   4.427   2.038  2.4875  2.0331 -1.4255
 5751TIP3   OH217258   1.257   2.272   2.113 -0.4710 -0.6090 -0.1491
 5751TIP3    H117259   1.222   2.209   2.175 -1.2546 -2.3003 -2.1649
 5751TIP3    H217260   1.348   2.246   2.100 -1.2295 -2.5985 -2.2702
 5752TIP3   OH217261   4.302   5.908   2.274  0.0365  1.0097  0.3805
 5752TIP3    H117262   4.289   5.822   2.316  0.6934  0.4589 -0.5032
 5752TIP3    H217263   4.307   5.888   2.181  1.3425  1.8845  0.2509
 5753TIP3   OH217264   2.409   3.338   0.638  0.0547 -0.0539 -0.0690
 5753TIP3    H117265   2.445   3.400   0.701  1.8329 -0.0329 -1.0626
 5753TIP3    H217266   2.444   3.253   0.665  0.1269 -0.1734 -0.5359
 5754TIP3   OH217267   5.281   3.699   0.566 -0.3480  0.3921  0.8313
 5754TIP3    H117268   5.268   3.793   0.553 -0.4665  0.3321  0.5087
 5754TIP3    H217269   5.357   3.678   0.512 -1.0952  0.0597 -0.1086
 5755TIP3   OH217270   0.462   3.617   0.337  0.4840  0.2342 -0.3575
 5755TIP3    H117271   0.393   3.681   0.319 -1.1061 -0.7546  1.7698
 5755TIP3    H217272   0.533   3.640   0.277 -1.5307  1.5298 -2.4088
 5756TIP3   OH217273   5.974   2.278   4.856  0.2481  0.0206 -0.1218
 5756TIP3    H117274   5.889   2.278   4.812 -1.1250  2.3217  2.2694
 5756TIP3    H217275   6.021   2.352   4.817  1.4746 -1.5524 -1.8043
 5757TIP3   OH217276   3.947   1.406   3.594  0.0721 -0.6640  0.4360
 5757TIP3    H117277   3.945   1.463   3.671  1.4186 -1.1986  0.8842
 5757TIP3    H217278   3.862   1.420   3.552 -0.0213  0.9063  1.0854
 5758TIP3   OH217279   4.056   1.031   2.128 -0.1680 -0.4303 -0.1678
 5758TIP3    H117280   3.979   0.975   2.136 -0.8544  0.5188  0.0522
 5758TIP3    H217281   4.130   0.974   2.149 -0.6572 -1.7121 -1.6987
 5759TIP3   OH217282   2.548   5.550   0.282 -0.2829 -1.2457 -0.0824
 5759TIP3    H117283   2.562   5.529   0.190 -0.0604 -1.0835 -0.0857
 5759TIP3    H217284   2.635   5.571   0.315 -0.3260 -1.5308  0.2224
 5760TIP3   OH217285   1.556   2.654   0.918 -0.3714 -0.5728  0.4098
 5760TIP3    H117286   1.633   2.708   0.931 -0.8106  0.0641  0.4090
 5760TIP3    H217287   1.530   2.627   1.006  0.1098 -1.1583  0.3755
 5761TIP3   OH217288   5.818   4.627   1.480 -0.0746  0.1635 -0.3095
 5761TIP3    H117289   5.777   4.557   1.429  0.6203 -0.3942 -0.1247
 5761TIP3    H217290   5.790   4.708   1.436 -2.4444 -0.0855  0.6098
 5762TIP3   OH217291   1.314   1.334   3.165 -0.1336  0.0876 -0.4161
 5762TIP3    H117292   1.295   1.274   3.237  2.6224  1.3983  1.6057
 5762TIP3    H217293   1.259   1.411   3.183 -0.1441  0.0353 -0.2205
 5763TIP3   OH217294   5.947   0.113   4.488 -0.2849  0.1783 -0.8840
 5763TIP3    H117295   5.956   0.164   4.408  0.3159  0.8607 -0.3966
 5763TIP3    H217296   5.987   0.168   4.556  2.4968 -1.8843 -0.6964
 5764TIP3   OH217297   1.508   1.136   5.052  0.3737  0.3698 -0.2120
 5764TIP3    H117298   1.500   1.107   5.142  1.2278  0.9639  0.0673
 5764TIP3    H217299   1.544   1.060   5.006 -1.1876 -0.3391 -0.3179
 5765TIP3   OH217300   1.443   2.529   1.597  0.3561 -0.4307 -0.0576
 5765TIP3    H117301   1.487   2.614   1.600  0.3512 -0.4449  0.8716
 5765TIP3    H217302   1.406   2.524   1.509 -0.4941  0.9819  0.1880
 5766TIP3   OH217303   6.286   3.131   2.808  0.5640  0.5401 -0.1380
 5766TIP3    H117304   6.376   3.164   2.817  0.6918  0.5962 -1.4149
 5766TIP3    H217305   6.234   3.209   2.791  0.4742  0.3618 -0.6749
 5767TIP3   OH217306   1.906   1.130   1.029 -0.5264  0.1834  0.2224
 5767TIP3    H117307   1.921   1.169   1.115  0.7025 -1.2350  0.6938
 5767TIP3    H217308   1.969   1.173   0.971 -0.5181  0.2752  0.3003
 5768TIP3   OH217309   1.156   4.857   4.848  0.5890  0.1118  0.2709
 5768TIP3    H117310   1.088   4.894   4.905  1.9164  1.8357  0.8130
 5768TIP3    H217311   1.112   4.846   4.764 -0.8335 -0.4885  1.0429
 5769TIP3   OH217312   3.108   2.454   1.879 -0.0957 -0.2971 -0.4773
 5769TIP3    H117313   3.019   2.418   1.884  0.9561 -2.9113  0.8205
 5769TIP3    H217314   3.115   2.512   1.955 -0.7515  0.1904 -0.7718
 5770TIP3   OH217315   2.778   0.597   1.230 -0.1674 -0.4496 -0.5117
 5770TIP3    H117316   2.708   0.587   1.165 -0.9727 -2.0991  0.5535
 5770TIP3    H217317   2.737   0.576   1.314  1.3655 -0.4627  0.2769
 5771TIP3   OH217318   2.616   0.746   2.078  0.5389  0.6224 -0.3912
 5771TIP3    H117319   2.521   0.738   2.075  0.3352  1.5013  2.0032
 5771TIP3    H217320   2.635   0.821   2.021 -0.2576  0.7326 -0.5282
 5772TIP3   OH217321   4.191   0.434   3.838  0.3698  0.0640  0.3910
 5772TIP3    H117322   4.281   0.444   3.807  0.4172 -1.8204 -0.2342
 5772TIP3    H217323   4.151   0.373   3.776 -1.7748  1.8851 -0.1408
 5773TIP3   OH217324   1.397   1.893   2.066 -0.1238  0.3975  0.3413
 5773TIP3    H117325   1.308   1.913   2.037  0.4997  1.9379 -0.6222
 5773TIP3    H217326   1.439   1.978   2.074  0.9122 -0.2265  2.0356
 5774TIP3   OH217327   5.549   3.997   1.565  0.3358 -0.2663  0.5128
 5774TIP3    H117328   5.475   3.938   1.578  0.3302  0.0115  1.9841
 5774TIP3    H217329   5.611   3.972   1.634 -0.2882  2.3401  2.1425
 5775TIP3   OH217330   4.930   1.355   2.974  0.0516  0.2083  0.1210
 5775TIP3    H117331   4.915   1.443   2.938  0.2960  0.0141 -0.4699
 5775TIP3    H217332   4.902   1.296   2.904  0.6065 -0.1777  0.2228
 5776TIP3   OH217333   1.234   2.716   3.712  0.0926 -0.1251 -0.5181
 5776TIP3    H117334   1.227   2.673   3.627  1.5106 -2.2135  0.3374
 5776TIP3    H217335   1.272   2.802   3.693 -1.2886  0.1847 -2.1237
 5777TIP3   OH217336   0.939   0.585   2.796  0.2700 -0.0576  0.2827
 5777TIP3    H117337   0.971   0.606   2.883  0.1004  0.4150  0.2311
 5777TIP3    H217338   1.010   0.533   2.757  0.7479  0.5293  0.3589
 5778TIP3   OH217339   5.507   5.172   1.886 -0.1605 -0.7082  0.2251
 5778TIP3    H117340   5.430   5.211   1.926 -0.6401 -1.1633 -0.2286
 5778TIP3    H217341   5.497   5.078   1.902 -0.6368 -0.9649 -1.3812
 5779TIP3   OH217342   1.566   5.324   0.681  0.5379  0.1254 -0.1857
 5779TIP3    H117343   1.587   5.389   0.747 -0.1851  0.5421 -0.3588
 5779TIP3    H217344   1.621   5.249   0.703  0.9659  0.5884  0.3440
 5780TIP3   OH217345   1.162   0.167   2.836  0.6086  0.3600 -0.3719
 5780TIP3    H117346   1.242   0.130   2.874  0.9386  1.5626  0.1684
 5780TIP3    H217347   1.154   0.124   2.751  2.8782  1.4855 -1.2642
 5781TIP3   OH217348   4.578   2.537   3.480 -0.0456  0.3061  0.6966
 5781TIP3    H117349   4.613   2.588   3.407  0.6007 -0.0243  0.7659
 5781TIP3    H217350   4.496   2.580   3.503  0.1519  0.9000  0.3065
 5782TIP3   OH217351   1.828   4.553   1.621  0.3228  0.1745  0.2179
 5782TIP3    H117352   1.852   4.569   1.712  0.0787  1.2611  0.1016
 5782TIP3    H217353   1.889   4.486   1.591 -1.3151 -2.2873  1.9726
 5783TIP3   OH217354   1.820   2.396   4.544 -0.6252  0.1472 -0.1270
 5783TIP3    H117355   1.877   2.419   4.471  0.6949 -1.7829  0.2338
 5783TIP3    H217356   1.822   2.473   4.601  0.9042  0.4655 -0.5638
 5784TIP3   OH217357   1.746   2.010   2.133  1.0943 -0.5565 -0.3137
 5784TIP3    H117358   1.750   1.917   2.113 -2.6643 -0.5654 -1.8271
 5784TIP3    H217359   1.787   2.053   2.057 -1.2557 -0.9705 -1.9198
 5785TIP3   OH217360   1.346   3.776   2.085 -0.5078 -0.0990  0.0095
 5785TIP3    H117361   1.407   3.818   2.025  0.9671  0.0890  1.5628
 5785TIP3    H217362   1.261   3.815   2.065  0.2832  1.3299 -0.6797
 5786TIP3   OH217363   4.931   0.328   4.766  0.2116 -0.1355  0.1759
 5786TIP3    H117364   4.966   0.414   4.789 -3.3419  1.4232  0.4860
 5786TIP3    H217365   4.938   0.277   4.847  0.4955  0.5834  0.6096
 5787TIP3   OH217366   0.088   1.487   0.993  0.2153 -0.8406 -0.5230
 5787TIP3    H117367   0.124   1.546   0.927 -1.2193 -0.5581 -1.1014
 5787TIP3    H217368   0.147   1.412   0.994  1.1358 -0.1436 -0.9850
 5788TIP3   OH217369   0.824   4.246   4.069  0.7107  0.5149  0.4723
 5788TIP3    H117370   0.808   4.265   4.162 -0.9655 -0.7451  0.4987
 5788TIP3    H217371   0.754   4.293   4.023 -0.4775 -1.4259  0.1666
 5789TIP3   OH217372   3.536   4.431   4.794 -0.1856  0.3092  0.2208
 5789TIP3    H117373   3.613   4.415   4.849  1.0063  1.4025 -1.0610
 5789TIP3    H217374   3.493   4.506   4.835  0.4573  0.8452 -0.0678
 5790TIP3   OH217375   6.044   4.216   0.086  0.3530  0.2635 -0.4475
 5790TIP3    H117376   6.083   4.131   0.103  0.7472  0.8781  2.1467
 5790TIP3    H217377   6.118   4.273   0.064  0.2548  0.2377 -0.8479
 5791TIP3   OH217378   3.491   3.176   2.820  0.5726 -0.0335  0.8320
 5791TIP3    H117379   3.551   3.107   2.847  0.4167  0.0814  1.5130
 5791TIP3    H217380   3.482   3.231   2.898 -0.6124 -0.1936  0.8284
 5792TIP3   OH217381   4.836   3.286   2.732 -0.0877 -0.1912  0.4653
 5792TIP3    H117382   4.899   3.241   2.788 -0.4277  0.2192  1.1982
 5792TIP3    H217383   4.760   3.302   2.789 -0.9253 -0.8157 -0.4447
 5793TIP3   OH217384   5.266   1.378   4.051  0.4516  0.5462 -0.5864
 5793TIP3    H117385   5.238   1.344   3.966  0.3252 -0.9733  0.0320
 5793TIP3    H217386   5.207   1.452   4.068 -0.2990  0.1256 -1.2885
 5794TIP3   OH217387   4.685   0.948   2.727  0.6782 -0.3621  0.4265
 5794TIP3    H117388   4.686   0.853   2.742  1.2990 -0.0847  2.3926
 5794TIP3    H217389   4.745   0.961   2.653 -1.5095 -1.7115 -1.7216
 5795TIP3   OH217390   3.649   0.527   2.379  0.6131 -0.5595 -0.1372
 5795TIP3    H117391   3.568   0.550   2.424 -0.4315 -2.6056 -0.8479
 5795TIP3    H217392   3.699   0.609   2.375 -1.3483  0.7184  0.4384
 5796TIP3   OH217393   0.309   0.875   2.889  0.1916 -0.7652 -0.1072
 5796TIP3    H117394   0.356   0.958   2.884  0.0608 -0.6685  0.2868
 5796TIP3    H217395   0.314   0.849   2.981  3.3073 -2.9790 -0.7201
 5797TIP3   OH217396   3.734   1.060   5.032  0.0552  0.1542 -0.1168
 5797TIP3    H117397   3.815   1.107   5.049  1.3223 -2.4102  1.6628
 5797TIP3    H217398   3.751   1.011   4.952 -0.3747  0.8830 -0.6596
 5798TIP3   OH217399   5.278   2.227   0.782 -0.6736 -0.1921  0.2753
 5798TIP3    H117400   5.331   2.185   0.715  0.6686  0.3675  0.9309
 5798TIP3    H217401   5.202   2.261   0.736  0.0282 -0.1608 -0.8993
 5799TIP3   OH217402   5.358   1.364   3.304 -0.1138 -0.0480 -0.0051
 5799TIP3    H117403   5.270   1.345   3.273  0.1005 -1.1309 -0.0163
 5799TIP3    H217404   5.415   1.334   3.233  0.3604 -1.9397  1.0985
 5800TIP3   OH217405   1.557   3.752   2.289 -0.2783 -0.2325 -0.5606
 5800TIP3    H117406   1.568   3.734   2.382 -0.1275  1.0332 -0.3189
 5800TIP3    H217407   1.463   3.769   2.279 -0.2717 -0.2338 -0.6270
 5801TIP3   OH217408   3.583   0.473   1.968 -0.1032  0.9416 -0.1644
 5801TIP3    H117409   3.596   0.424   1.887 -0.3736 -0.8481  0.8315
 5801TIP3    H217410   3.648   0.437   2.029 -1.9047  0.0327  1.3367
 5802TIP3   OH217411   4.010   0.046   4.369  0.2131 -0.2406  0.0852
 5802TIP3    H117412   4.065  -0.032   4.367  1.0950  0.3644  0.2277
 5802TIP3    H217413   4.039   0.098   4.295 -0.6314 -0.2068 -0.2348
 5803TIP3   OH217414   1.123   0.858   1.615  0.1151  0.0543  0.2568
 5803TIP3    H117415   1.168   0.847   1.531  1.1483  3.4822  0.1939
 5803TIP3    H217416   1.048   0.800   1.611  0.6018 -0.4975 -2.7032
 5804TIP3   OH217417   1.156   2.063   2.289  0.0174 -0.1976  0.4568
 5804TIP3    H117418   1.081   2.080   2.346 -0.6725  1.6327 -0.8679
 5804TIP3    H217419   1.117   2.033   2.207  0.6566  1.1809 -0.3947
 5805TIP3   OH217420   5.093   4.536   2.346 -0.4365  0.1837 -0.3005
 5805TIP3    H117421   5.147   4.459   2.363 -0.1139  0.6160  0.7470
 5805TIP3    H217422   5.141   4.586   2.280  0.1265  0.2314  0.1385
 5806TIP3   OH217423   2.303   4.266   5.125 -0.2447  0.3794  0.4812
 5806TIP3    H117424   2.380   4.290   5.073 -0.6629  2.3864  0.7075
 5806TIP3    H217425   2.267   4.349   5.154 -2.4295 -0.5175  0.5271
 5807TIP3   OH217426   0.631   1.375   0.549 -0.6149 -0.8578  0.1167
 5807TIP3    H117427   0.642   1.280   0.551 -2.1861 -1.0601  0.6743
 5807TIP3    H217428   0.720   1.409   0.552 -0.0058 -2.3058 -0.2757
 5808TIP3   OH217429   0.618   3.585   1.008 -0.1783  0.2100 -0.1645
 5808TIP3    H117430   0.694   3.574   0.951 -0.2859 -0.5722 -0.1673
 5808TIP3    H217431   0.546   3.609   0.949 -0.7079 -2.2520 -0.6606
 5809TIP3   OH217432   2.634   0.950   0.540 -0.4810 -0.2803  0.3132
 5809TIP3    H117433   2.574   1.019   0.568 -0.3361 -0.5907  1.4409
 5809TIP3    H217434   2.661   0.976   0.452  0.2497  1.5557  1.0332
 5810TIP3   OH217435   3.208   4.325   1.257 -0.1651  0.0822  0.2451
 5810TIP3    H117436   3.250   4.387   1.197  1.8607 -2.1405 -0.7918
 5810TIP3    H217437   3.147   4.276   1.202  1.1687 -1.4723  0.0747
 5811TIP3   OH217438   6.007   4.535   1.644 -0.0950  0.2306 -0.5695
 5811TIP3    H117439   6.007   4.582   1.727  0.6430  1.3309 -1.1745
 5811TIP3    H217440   5.940   4.578   1.592 -1.4580 -1.2747 -0.1271
 5812TIP3   OH217441   4.167   3.521   2.084  0.1303  0.2732 -0.0925
 5812TIP3    H117442   4.182   3.509   1.991 -1.7255  1.2380 -0.5693
 5812TIP3    H217443   4.173   3.433   2.122  0.7162 -0.1482 -1.1341
 5813TIP3   OH217444   2.066   3.105   3.320  0.3121  0.1756  0.1589
 5813TIP3    H117445   2.143   3.078   3.270  0.5074  0.5166  0.2701
 5813TIP3    H217446   2.044   3.028   3.373  0.2736 -0.0889 -0.2407
 5814TIP3   OH217447   2.963   5.833   2.148 -0.3209  0.0051 -0.1204
 5814TIP3    H117448   3.058   5.842   2.140 -0.3075  0.3897  0.4660
 5814TIP3    H217449   2.940   5.768   2.081  0.5965 -1.5098  0.9777
 5815TIP3   OH217450   3.782   2.188   1.031 -0.1907 -0.0371 -0.4838
 5815TIP3    H117451   3.751   2.152   1.115 -0.1096  0.4226 -0.2575
 5815TIP3    H217452   3.870   2.150   1.020 -0.1053  0.0891 -0.2453
 5816TIP3   OH217453   5.175   3.843   2.152 -0.1718  0.0254  0.1333
 5816TIP3    H117454   5.214   3.920   2.111 -1.1883  0.8913  0.7417
 5816TIP3    H217455   5.180   3.861   2.246 -0.9330 -0.3865  0.2633
 5817TIP3   OH217456   2.476   4.088   4.792 -0.0609  0.3508  0.2454
 5817TIP3    H117457   2.555   4.043   4.821  2.4466  2.8771 -2.1209
 5817TIP3    H217458   2.411   4.067   4.859  2.5024 -1.9874  2.2424
 5818TIP3   OH217459   4.451   1.765   1.020  0.8212 -0.6076 -0.0555
 5818TIP3    H117460   4.462   1.749   1.113 -2.0504 -0.2566  0.4446
 5818TIP3    H217461   4.375   1.712   0.996 -0.9198  2.2474 -1.2573
 5819TIP3   OH217462   2.399   4.369   2.900 -0.0236 -0.3081  0.3521
 5819TIP3    H117463   2.461   4.395   2.832  1.3645 -0.6698  1.4483
 5819TIP3    H217464   2.410   4.274   2.908  0.3182 -0.1852  1.5336
 5820TIP3   OH217465   2.193   1.558   0.546 -0.5240  0.2077  0.0532
 5820TIP3    H117466   2.244   1.507   0.483 -1.1406  0.1784 -0.4423
 5820TIP3    H217467   2.207   1.649   0.520 -1.6365  0.1530 -0.8366
 5821TIP3   OH217468   6.349   0.301   4.841  0.1158  0.1471  0.1764
 5821TIP3    H117469   6.277   0.326   4.783  0.9442  0.8806 -0.5685
 5821TIP3    H217470   6.337   0.208   4.856  0.5475 -0.3579 -2.1747
 5822TIP3   OH217471   3.646   4.204   2.505 -0.5985 -0.3349 -0.0014
 5822TIP3    H117472   3.739   4.185   2.491  0.3026  1.9724  2.1097
 5822TIP3    H217473   3.632   4.287   2.459 -0.8818  0.6592  1.8063
 5823TIP3   OH217474   0.607   4.496   4.538  0.4403  0.0402  0.1193
 5823TIP3    H117475   0.609   4.510   4.633  0.6220  0.3268  0.0758
 5823TIP3    H217476   0.693   4.525   4.508  1.1368 -1.9126  0.1024
 5824TIP3   OH217477   2.361   0.235   3.441  0.0128  0.3059 -0.0919
 5824TIP3    H117478   2.379   0.326   3.417  0.9360 -0.3263 -2.0271
 5824TIP3    H217479   2.268   0.235   3.466  0.3064  1.9776  1.1403
 5825TIP3   OH217480   1.485   3.902   3.637  0.1371  0.4280 -0.2019
 5825TIP3    H117481   1.532   3.922   3.719  0.9031  1.0799 -0.7766
 5825TIP3    H217482   1.393   3.898   3.663  0.0044  3.5257  0.2509
 5826TIP3   OH217483   0.508   3.649   3.918 -0.4181  0.2303  0.0925
 5826TIP3    H117484   0.413   3.650   3.933 -0.4948  1.3498 -0.3828
 5826TIP3    H217485   0.543   3.707   3.986 -0.2226  0.9719 -0.6354
 5827TIP3   OH217486   3.179   1.972   4.237 -0.2670 -0.5236  0.1800
 5827TIP3    H117487   3.201   1.979   4.330 -0.3972  1.0787  0.1257
 5827TIP3    H217488   3.244   2.027   4.193 -0.8580 -0.4022 -0.5563
 5828TIP3   OH217489   4.133   0.747   1.310  0.2587 -0.2450  0.2204
 5828TIP3    H117490   4.160   0.837   1.290  0.7182 -0.8051 -1.8676
 5828TIP3    H217491   4.215   0.700   1.327  0.3455 -0.9499 -1.8491
 5829TIP3   OH217492   2.505   2.795   4.600  0.0074 -0.5743  0.5554
 5829TIP3    H117493   2.441   2.866   4.598 -0.2125 -0.7510  1.0491
 5829TIP3    H217494   2.533   2.785   4.509 -0.7949 -0.6100  0.3066
 5830TIP3   OH217495   1.543   1.789   2.591 -0.7013  0.1331 -0.0529
 5830TIP3    H117496   1.557   1.878   2.562 -2.6584  0.2057 -0.9260
 5830TIP3    H217497   1.572   1.788   2.683  0.8589  1.2001 -0.5116
 5831TIP3   OH217498   3.736   4.676   3.327  0.1738  0.2663  0.5023
 5831TIP3    H117499   3.748   4.616   3.253 -1.2144  0.2223  0.2935
 5831TIP3    H217500   3.727   4.762   3.287  0.7403  0.4305  0.7167
 5832TIP3   OH217501   4.308   2.866   2.164 -0.5995  0.1305 -0.5300
 5832TIP3    H117502   4.295   2.937   2.101  0.3728 -0.2155 -1.1290
 5832TIP3    H217503   4.345   2.795   2.114 -2.6559 -1.2810 -0.1787
 5833TIP3   OH217504   5.644   1.696   0.547  0.8342  0.1117 -0.0506
 5833TIP3    H117505   5.694   1.677   0.626  0.0376 -1.4579  0.1191
 5833TIP3    H217506   5.572   1.632   0.548 -0.1255  1.1110 -1.2058
 5834TIP3   OH217507   1.812   5.518   2.683  0.1531  0.2339  0.3049
 5834TIP3    H117508   1.736   5.505   2.739  0.3049  3.0737  1.3573
 5834TIP3    H217509   1.866   5.581   2.731  2.0690  0.0226 -1.4386
 5835TIP3   OH217510   5.878   5.729   0.365  0.0099  0.1760  0.1007
 5835TIP3    H117511   5.865   5.645   0.409  0.9920 -0.8475 -1.4586
 5835TIP3    H217512   5.802   5.737   0.306  1.3506 -1.1503 -1.9546
 5836TIP3   OH217513   0.575   1.162   0.773  0.1575  0.7378 -0.5245
 5836TIP3    H117514   0.588   1.130   0.684  0.5058  1.4868 -0.7511
 5836TIP3    H217515   0.596   1.087   0.829 -3.0015 -0.7463 -1.0836
 5837TIP3   OH217516   1.866   2.975   1.654  0.7186  0.1273  0.1495
 5837TIP3    H117517   1.808   2.965   1.579  1.1888  1.3574 -0.3916
 5837TIP3    H217518   1.807   2.987   1.729  0.1982 -2.4269  0.2643
 5838TIP3   OH217519   4.414   0.502   2.642  0.4072 -0.4723 -0.0879
 5838TIP3    H117520   4.424   0.454   2.560  0.5804  0.8718 -0.8872
 5838TIP3    H217521   4.384   0.437   2.705  0.0332 -1.4790 -1.2767
 5839TIP3   OH217522   3.415   2.828   2.429  0.4911  0.2446  0.1785
 5839TIP3    H117523   3.505   2.858   2.444  1.7459 -2.9145 -0.1607
 5839TIP3    H217524   3.406   2.750   2.483 -2.2193  0.6268  0.4282
 5840TIP3   OH217525   3.648   2.390   2.889 -0.2221 -0.0175  0.0834
 5840TIP3    H117526   3.651   2.341   2.806 -1.6030  1.8771 -1.1567
 5840TIP3    H217527   3.557   2.418   2.897  0.3473  1.6453  1.1608
 5841TIP3   OH217528   5.899   0.627   0.250 -0.0727 -0.8741  0.1900
 5841TIP3    H117529   5.851   0.570   0.189 -1.3420 -0.4187  0.7246
 5841TIP3    H217530   5.974   0.659   0.199 -1.0556 -0.5678 -1.1299
 5842TIP3   OH217531   5.123   4.986   2.722  0.2910 -0.5329 -0.2951
 5842TIP3    H117532   5.134   4.893   2.742 -1.5928 -0.8195 -0.4080
 5842TIP3    H217533   5.036   4.992   2.682  0.7759  1.1485 -1.1814
 5843TIP3   OH217534   1.375   0.839   3.909  0.4416 -0.5092  0.2800
 5843TIP3    H117535   1.405   0.786   3.836 -0.5543 -3.9954  2.1487
 5843TIP3    H217536   1.452   0.849   3.965  0.4520 -0.7562  0.3129
 5844TIP3   OH217537   3.695   5.603   2.979 -0.3013 -0.1710 -0.4495
 5844TIP3    H117538   3.780   5.566   2.956  0.2377  0.1293  0.9667
 5844TIP3    H217539   3.712   5.657   3.057 -1.3642  1.7184 -1.4533
 5845TIP3   OH217540   5.316   4.188   1.836 -0.0177  0.6163  0.0406
 5845TIP3    H117541   5.326   4.283   1.826 -1.6967  1.0820  2.1064
 5845TIP3    H217542   5.230   4.169   1.799  0.4910 -0.2299 -0.7692
 5846TIP3   OH217543   0.273   5.336   5.188 -0.5393  0.0093 -0.1012
 5846TIP3    H117544   0.207   5.405   5.195  1.2579  1.9271 -0.9857
 5846TIP3    H217545   0.256   5.294   5.104 -0.1317  1.1114 -0.7594
 5847TIP3   OH217546   1.510   4.789   2.304 -0.1489 -0.3331  0.0510
 5847TIP3    H117547   1.430   4.818   2.348 -0.3472  1.2594 -1.2662
 5847TIP3    H217548   1.480   4.726   2.239 -0.3134  0.0730 -0.2712
 5848TIP3   OH217549   3.993   0.431   0.663 -0.0254  0.0938  0.3672
 5848TIP3    H117550   4.030   0.377   0.733  2.0388  0.4424 -0.3968
 5848TIP3    H217551   3.988   0.519   0.700 -0.3989 -0.0097  0.5695
 5849TIP3   OH217552   0.891   2.190   2.126 -0.5147  0.0185  0.4730
 5849TIP3    H117553   0.912   2.240   2.048  3.8005 -0.7874  0.9050
 5849TIP3    H217554   0.906   2.251   2.198  0.7218 -0.7013  0.8418
 5850TIP3   OH217555   1.431   2.593   2.889 -0.1407 -0.0839  0.3998
 5850TIP3    H117556   1.484   2.672   2.902 -0.3350  0.0719  0.2479
 5850TIP3    H217557   1.494   2.521   2.889  0.2165  0.2052 -1.0197
 5851TIP3   OH217558   2.352   5.273   4.018 -0.3956 -0.2007  0.5211
 5851TIP3    H117559   2.333   5.366   4.031  0.6289 -0.0585  1.0930
 5851TIP3    H217560   2.437   5.259   4.061  0.4021 -0.9795 -1.2254
 5852TIP3   OH217561   4.801   3.959   1.936  0.1938 -0.2767 -0.7026
 5852TIP3    H117562   4.832   4.032   1.989  3.7984 -0.2364 -2.5117
 5852TIP3    H217563   4.807   3.883   1.993  1.2000  0.1702 -0.1900
 5853TIP3   OH217564   3.738   1.449   1.171  0.6894 -0.4611 -0.6522
 5853TIP3    H117565   3.664   1.394   1.144 -0.9631  1.1550  0.3284
 5853TIP3    H217566   3.700   1.511   1.233  2.8169  0.6966 -0.4181
 5854TIP3   OH217567   4.343   1.189   0.447  0.5451 -0.5867 -0.3508
 5854TIP3    H117568   4.254   1.163   0.470  0.6370 -1.2257 -0.7182
 5854TIP3    H217569   4.332   1.268   0.395  0.1167 -1.3508 -1.4444
 5855TIP3   OH217570   0.778   1.649   4.582 -0.1235  0.1058 -0.2491
 5855TIP3    H117571   0.828   1.586   4.530 -1.1007  1.1119 -2.5291
 5855TIP3    H217572   0.722   1.595   4.637 -0.0872 -1.0450 -1.2948
 5856TIP3   OH217573   3.412   2.101   3.619 -0.2930 -0.0619 -0.1880
 5856TIP3    H117574   3.443   2.013   3.596 -0.4577 -0.7383  1.9666
 5856TIP3    H217575   3.488   2.142   3.661 -0.5244  0.4450 -0.2631
 5857TIP3   OH217576   4.862   3.379   2.446 -0.1970  0.2929  0.3582
 5857TIP3    H117577   4.815   3.401   2.526 -2.0894 -0.3005 -0.5244
 5857TIP3    H217578   4.818   3.300   2.414  0.1590  0.8163 -1.5305
 5858TIP3   OH217579   1.963   0.079   0.878  0.0116 -0.3529  0.2787
 5858TIP3    H117580   1.939  -0.014   0.875  1.3218 -0.7456  0.8487
 5858TIP3    H217581   1.999   0.097   0.791  1.3165 -0.8702  0.6809
 5859TIP3   OH217582   5.975   4.383   2.066 -0.2784  0.1950 -0.1709
 5859TIP3    H117583   5.888   4.395   2.029  0.0937  0.5117 -0.9728
 5859TIP3    H217584   5.960   4.350   2.154 -1.2222  0.9884 -0.0258
 5860TIP3   OH217585   3.981   3.059   1.283 -0.2148  0.0474  0.0896
 5860TIP3    H117586   3.903   3.006   1.267 -0.9689  0.9520  0.6162
 5860TIP3    H217587   3.949   3.150   1.278  0.6908  0.4234  0.8411
 5861TIP3   OH217588   0.165   4.129   4.220 -0.7246  0.1829 -0.1756
 5861TIP3    H117589   0.185   4.198   4.284  0.7712  0.1095 -0.5432
 5861TIP3    H217590   0.138   4.177   4.142  0.2060  0.3726 -0.3954
 5862TIP3   OH217591   1.194   1.852   1.535  0.2819  0.6607 -0.3608
 5862TIP3    H117592   1.129   1.793   1.498 -0.2140  0.5644  0.6459
 5862TIP3    H217593   1.180   1.935   1.489  1.3592 -0.1086 -2.1982
 5863TIP3   OH217594   0.079   1.718   0.366  0.7868 -0.2249 -0.5498
 5863TIP3    H117595   0.094   1.627   0.340 -1.2498 -1.5385  2.3623
 5863TIP3    H217596   0.121   1.726   0.452 -1.3228  0.6934  0.4846
 5864TIP3   OH217597   5.379   3.670   3.008  0.4656  0.0828 -0.5686
 5864TIP3    H117598   5.402   3.603   3.072 -1.8935  0.8297  1.2050
 5864TIP3    H217599   5.431   3.746   3.033 -0.8070  0.5247  0.8505
 5865TIP3   OH217600   1.968   1.264   4.535 -0.6183  0.0769  0.4049
 5865TIP3    H117601   2.006   1.176   4.526 -0.3117  0.2495 -0.0003
 5865TIP3    H217602   1.893   1.263   4.477 -0.4389  0.1810  0.1706
 5866TIP3   OH217603   6.060   3.385   0.854 -0.3583 -0.1349  0.2815
 5866TIP3    H117604   6.072   3.354   0.764 -1.4364  0.6570 -0.1645
 5866TIP3    H217605   6.131   3.448   0.867 -1.4096  1.3658 -0.8170
 5867TIP3   OH217606   3.041   2.483   3.389 -0.3116 -0.4947 -0.5269
 5867TIP3    H117607   3.009   2.415   3.330 -0.1034 -0.2400 -0.9415
 5867TIP3    H217608   2.986   2.476   3.467 -1.1864 -0.2394 -1.1123
 5868TIP3   OH217609   0.364   3.913   2.307 -0.7994  0.6090  0.4211
 5868TIP3    H117610   0.292   3.852   2.290 -0.4779  0.4913 -0.5916
 5868TIP3    H217611   0.387   3.897   2.398 -0.7132 -0.8145  0.1872
 5869TIP3   OH217612   0.114   4.746   3.430  0.9871 -0.5275  0.2919
 5869TIP3    H117613   0.048   4.718   3.493 -0.3651  0.4124 -0.6236
 5869TIP3    H217614   0.085   4.707   3.347  0.5549  1.2915 -0.4695
 5870TIP3   OH217615   5.449   4.801   1.891 -0.5741  0.4598 -0.3742
 5870TIP3    H117616   5.534   4.788   1.849 -1.5251 -1.9840 -1.6938
 5870TIP3    H217617   5.425   4.715   1.926 -2.0791  1.3223  0.8714
 5871TIP3   OH217618   3.426   3.777   2.057  0.2633 -0.1537 -0.4490
 5871TIP3    H117619   3.368   3.739   1.991 -0.4496  0.0228  0.0683
 5871TIP3    H217620   3.506   3.800   2.008  0.5373 -1.8617 -0.8715
 5872TIP3   OH217621   0.968   5.690   0.657 -0.4767 -0.4263 -0.2627
 5872TIP3    H117622   1.026   5.750   0.609 -1.6931  0.7786 -0.2766
 5872TIP3    H217623   1.012   5.605   0.652  1.4894  0.5041  0.0520
 5873TIP3   OH217624   4.640   4.298   4.279  0.4367  0.2621 -0.1643
 5873TIP3    H117625   4.587   4.301   4.358 -1.1719 -1.0706 -1.1278
 5873TIP3    H217626   4.715   4.243   4.302 -0.6264 -1.1144  0.1258
 5874TIP3   OH217627   6.353   1.539   4.652 -0.8563  0.0751 -0.4269
 5874TIP3    H117628   6.268   1.576   4.676  0.4018  2.0631  1.3880
 5874TIP3    H217629   6.390   1.510   4.736  0.6640  0.2470 -1.0118
 5875TIP3   OH217630   1.701   5.246   1.917 -0.3269  0.4239 -0.3211
 5875TIP3    H117631   1.672   5.248   1.826 -0.9520  1.8940 -0.1197
 5875TIP3    H217632   1.732   5.156   1.931 -0.0564  0.2252 -2.0228
 5876TIP3   OH217633   0.053   4.984   2.098 -0.4204  0.3913 -0.2520
 5876TIP3    H117634   0.086   4.981   2.188 -2.4274  2.3380  0.6541
 5876TIP3    H217635  -0.022   5.044   2.103 -2.0237 -1.2549 -2.7812
 5877TIP3   OH217636   2.262   0.837   2.562 -0.0809 -0.9022  1.0156
 5877TIP3    H117637   2.178   0.853   2.519 -0.2675  0.6722  1.8687
 5877TIP3    H217638   2.324   0.827   2.490 -0.3747  1.6581  0.2902
 5878TIP3   OH217639   2.168   3.701   2.419 -0.3755 -0.2761  0.1143
 5878TIP3    H117640   2.142   3.622   2.465 -1.1182 -0.1450 -0.0520
 5878TIP3    H217641   2.257   3.720   2.449 -1.0540  0.1666  1.9929
 5879TIP3   OH217642   3.270   4.179   2.584  0.0914  0.0533  0.5374
 5879TIP3    H117643   3.301   4.237   2.514  0.0683  1.3305  1.5518
 5879TIP3    H217644   3.258   4.094   2.541  1.5835  0.3977 -0.6731
 5880TIP3   OH217645   4.892   5.327   2.564 -0.1947 -0.0026 -0.2042
 5880TIP3    H117646   4.852   5.394   2.619 -0.1941  0.0796 -0.3033
 5880TIP3    H217647   4.983   5.325   2.592 -0.0220  0.5619 -0.7083
 5881TIP3   OH217648   3.314   1.735   5.000  0.0584  0.4062 -0.0404
 5881TIP3    H117649   3.234   1.709   5.046  0.4677 -0.3739  0.2388
 5881TIP3    H217650   3.346   1.811   5.049  1.7799 -1.7779  2.5298
 5882TIP3   OH217651   5.292   5.371   3.016  0.8312 -0.5475 -0.0688
 5882TIP3    H117652   5.217   5.347   3.070 -1.2361  0.0954 -2.4588
 5882TIP3    H217653   5.318   5.289   2.973 -1.3825 -0.1228 -2.4819
 5883TIP3   OH217654   0.138   0.733   2.418 -0.2598 -0.6284 -0.2261
 5883TIP3    H117655   0.089   0.679   2.480 -0.4722 -1.5058 -1.1367
 5883TIP3    H217656   0.208   0.771   2.471 -0.9479 -0.6463  0.7424
 5884TIP3   OH217657   3.349   5.133   4.970 -0.4391 -0.1718 -0.9544
 5884TIP3    H117658   3.337   5.185   4.890  1.3000  2.4618  0.3516
 5884TIP3    H217659   3.443   5.121   4.977 -0.6569 -1.5122  0.0471
 5885TIP3   OH217660   6.031   5.043   2.526  0.3077 -0.0690  0.5740
 5885TIP3    H117661   6.072   5.124   2.557 -1.9010  1.4393 -0.1758
 5885TIP3    H217662   6.079   5.022   2.446  1.0855  0.3153  0.9221
 5886TIP3   OH217663   6.048   1.277   3.723  0.8248 -0.6200  0.4809
 5886TIP3    H117664   6.071   1.187   3.747  0.7405 -0.6214  0.5576
 5886TIP3    H217665   6.125   1.329   3.744  0.6051 -0.5536  1.1460
 5887TIP3   OH217666   1.701   2.992   1.436 -0.0602  0.0802  0.2409
 5887TIP3    H117667   1.625   3.044   1.463  0.4024  0.7012  0.3660
 5887TIP3    H217668   1.728   3.030   1.353 -1.1164 -1.4470 -0.8738
 5888TIP3   OH217669   1.495   1.383   2.741  0.2074 -0.5469 -0.2685
 5888TIP3    H117670   1.439   1.455   2.709  0.0416  0.5130  2.2269
 5888TIP3    H217671   1.579   1.397   2.697  0.7217  2.2622  1.3788
 5889TIP3   OH217672   4.517   5.287   3.460 -0.2145  0.0207 -0.9145
 5889TIP3    H117673   4.512   5.359   3.523 -0.3224 -0.4939 -0.3339
 5889TIP3    H217674   4.431   5.246   3.462 -0.5704  0.6444 -2.1801
 5890TIP3   OH217675   0.874   0.879   3.653 -0.6381  0.1804  0.1593
 5890TIP3    H117676   0.930   0.804   3.631  0.6511  1.0537  0.3462
 5890TIP3    H217677   0.904   0.948   3.594 -1.2254  0.7982  0.5824
 5891TIP3   OH217678   4.551   2.739   1.044  0.2128 -0.2834 -0.2386
 5891TIP3    H117679   4.469   2.767   1.004 -0.3651  1.5207  1.9676
 5891TIP3    H217680   4.526   2.669   1.104  0.6342 -1.0861 -0.9751
 5892TIP3   OH217681   1.317   3.676   1.753  0.5372  0.7626  0.1863
 5892TIP3    H117682   1.244   3.641   1.701  1.3250  0.2174 -0.5739
 5892TIP3    H217683   1.293   3.657   1.844  0.6644 -1.2431 -0.1690
 5893TIP3   OH217684   3.688   0.919   0.636  0.6560  0.0750  0.9302
 5893TIP3    H117685   3.717   0.965   0.557 -2.3811  1.2155  0.3537
 5893TIP3    H217686   3.687   0.826   0.610 -0.8003  0.4735 -0.6206
 5894TIP3   OH217687   2.575   4.336   3.218  0.1362  0.1755  0.2666
 5894TIP3    H117688   2.594   4.296   3.133 -1.0144  0.4683 -0.1470
 5894TIP3    H217689   2.633   4.290   3.279  2.3675  1.2398 -0.9312
 5895TIP3   OH217690   0.081   5.473   1.482  0.3702  0.2010 -0.3422
 5895TIP3    H117691   0.090   5.384   1.516  0.9002  0.1181 -0.6949
 5895TIP3    H217692  -0.013   5.485   1.470  0.3849 -0.8382 -1.6858
 5896TIP3   OH217693   5.871   5.264   3.462  0.3837  0.1856  0.0792
 5896TIP3    H117694   5.920   5.345   3.452 -1.4875  1.5257  1.1350
 5896TIP3    H217695   5.855   5.257   3.556 -3.0147  0.8728 -0.3198
 5897TIP3   OH217696   1.083   2.860   0.531 -0.1550  0.3221 -0.1869
 5897TIP3    H117697   1.035   2.802   0.589 -1.8916  0.7470 -1.1310
 5897TIP3    H217698   1.158   2.890   0.583  0.0249 -1.6411  0.7649
 5898TIP3   OH217699   2.315   0.242   4.099 -0.3225 -0.0580  0.3033
 5898TIP3    H117700   2.347   0.329   4.073  4.1985 -1.5196  0.2011
 5898TIP3    H217701   2.309   0.193   4.017 -1.3139 -0.3495  0.5335
 5899TIP3   OH217702   5.394   4.308   2.601  0.0409 -0.0693 -0.7172
 5899TIP3    H117703   5.461   4.258   2.649 -0.6832  0.3524  0.7900
 5899TIP3    H217704   5.401   4.397   2.635 -0.3442  0.3125 -1.5921
 5900TIP3   OH217705   5.281   2.507   0.632  0.0126 -0.2279 -0.2683
 5900TIP3    H117706   5.370   2.480   0.653  0.3808  0.6241 -0.6685
 5900TIP3    H217707   5.242   2.531   0.716  0.6273  0.7158 -0.2332
 5901TIP3   OH217708   6.075   1.858   2.965 -0.5900  0.3711 -0.2827
 5901TIP3    H117709   5.995   1.859   3.018 -1.5033  1.4257 -1.5950
 5901TIP3    H217710   6.048   1.818   2.882  0.7152 -0.9354 -0.1169
 5902TIP3   OH217711   6.210   0.347   0.066 -0.3090 -0.2459  0.1406
 5902TIP3    H117712   6.254   0.431   0.047 -0.4755  0.7207  3.4751
 5902TIP3    H217713   6.119   0.362   0.041 -0.1707  0.2787 -0.0696
 5903TIP3   OH217714   0.641   1.309   1.616 -0.7172 -0.0635 -0.6433
 5903TIP3    H117715   0.628   1.395   1.657 -0.8031 -0.6217  0.5285
 5903TIP3    H217716   0.718   1.273   1.660 -0.4631 -0.4519 -1.3860
 5904TIP3   OH217717   2.579   5.643   3.991 -0.4142 -0.7160 -0.4759
 5904TIP3    H117718   2.656   5.597   4.025 -0.9535 -1.9462 -0.8815
 5904TIP3    H217719   2.614   5.725   3.956  0.5560 -0.7780  0.3193
 5905TIP3   OH217720   2.567   3.124   4.902  0.5291  0.2238 -0.5664
 5905TIP3    H117721   2.620   3.050   4.873  1.8376  1.1048 -0.5319
 5905TIP3    H217722   2.479   3.104   4.871  1.0880 -0.7840 -1.5938
 5906TIP3   OH217723   0.886   4.123   0.791 -0.2225 -0.1094  0.0479
 5906TIP3    H117724   0.801   4.091   0.760 -0.1049 -0.6460  0.2622
 5906TIP3    H217725   0.891   4.092   0.882 -0.2059  0.7346  0.3457
 5907TIP3   OH217726   5.547   1.103   3.050 -0.7618  0.3974  0.3910
 5907TIP3    H117727   5.506   1.189   3.040 -0.9715  0.4573  1.6588
 5907TIP3    H217728   5.638   1.122   3.072 -1.0966  0.3339  1.9199
 5908TIP3   OH217729   2.596   1.266   1.989  0.2193  0.2463  0.1808
 5908TIP3    H117730   2.652   1.219   2.052  1.2104  1.3015  0.1164
 5908TIP3    H217731   2.523   1.297   2.041 -0.1482 -0.8365  0.3452
 5909TIP3   OH217732   3.102   3.894   2.749  0.4084  0.1460 -0.3334
 5909TIP3    H117733   3.030   3.895   2.811  1.5544  3.3980  1.1857
 5909TIP3    H217734   3.177   3.864   2.800  1.1459  1.8676 -0.3168
 5910TIP3   OH217735   0.286   5.960   2.767  0.0543  0.6844 -0.5264
 5910TIP3    H117736   0.371   5.926   2.739  2.0922  2.1388  3.1494
 5910TIP3    H217737   0.285   6.050   2.735 -0.2044  0.6032 -0.7468
 5911TIP3   OH217738   0.598   2.587   1.438 -0.2433  0.4278  0.1205
 5911TIP3    H117739   0.583   2.605   1.531 -0.7637 -0.0221  0.1295
 5911TIP3    H217740   0.693   2.590   1.428 -0.1682  0.2368  0.7192
 5912TIP3   OH217741   5.768   0.745   2.752 -0.4781  0.2089 -0.4396
 5912TIP3    H117742   5.740   0.805   2.821  1.2889  0.8254 -0.2188
 5912TIP3    H217743   5.815   0.800   2.690  1.5091 -0.9673 -0.0517
 5913TIP3   OH217744   3.529   2.452   3.865  0.3943 -0.2285  0.3900
 5913TIP3    H117745   3.589   2.377   3.865  1.6577  0.7383 -0.6271
 5913TIP3    H217746   3.446   2.415   3.893  1.2250 -1.8129  0.9192
 5914TIP3   OH217747   3.019   0.745   2.363  0.1352  0.2091  0.0263
 5914TIP3    H117748   3.109   0.724   2.386  0.3583  1.8998  0.7967
 5914TIP3    H217749   3.012   0.724   2.270 -0.1478 -4.6739  0.8959
 5915TIP3   OH217750   5.072   3.404   2.878  0.0880  0.3573  0.2087
 5915TIP3    H117751   5.033   3.432   2.961 -0.8432  1.1521 -0.4676
 5915TIP3    H217752   5.159   3.444   2.878  0.8354 -1.1137  1.5620
 5916TIP3   OH217753   2.264   1.843   0.463 -0.5680 -0.1416 -0.3155
 5916TIP3    H117754   2.246   1.855   0.370  1.3577  0.2627 -0.6831
 5916TIP3    H217755   2.258   1.931   0.500 -0.5932 -0.1898 -0.2042
 5917TIP3   OH217756   0.354   0.446   4.540  0.2555  0.0094 -0.5647
 5917TIP3    H117757   0.324   0.370   4.590  0.7375 -0.2871 -0.7206
 5917TIP3    H217758   0.282   0.508   4.546  0.3253  0.0007  0.5420
 5918TIP3   OH217759   5.774   3.385   5.068 -0.5270 -0.1050 -0.1697
 5918TIP3    H117760   5.752   3.407   4.978  0.7414  0.1588 -0.4405
 5918TIP3    H217761   5.850   3.327   5.061 -1.9490 -2.1847  0.6528
 5919TIP3   OH217762   2.183   0.220   4.777  0.6084 -0.0206  0.0174
 5919TIP3    H117763   2.129   0.262   4.843  0.2001 -0.2061 -0.1924
 5919TIP3    H217764   2.194   0.286   4.708 -0.6372 -0.4771 -0.6482
 5920TIP3   OH217765   5.946   1.900   0.837  0.1721  0.0312 -0.0210
 5920TIP3    H117766   5.939   1.996   0.835 -3.9843 -0.0021  1.4393
 5920TIP3    H217767   5.997   1.881   0.916 -0.8380  1.1185  0.9404
 5921TIP3   OH217768   2.850   0.516   3.328  0.2690  0.0477 -0.1965
 5921TIP3    H117769   2.758   0.515   3.301  0.7488  0.4363 -1.9122
 5921TIP3    H217770   2.898   0.486   3.251  1.4686 -2.0164  1.2589
 5922TIP3   OH217771   3.943   2.443   4.483 -0.4933 -0.0475  0.9362
 5922TIP3    H117772   3.906   2.525   4.515 -0.0421  0.1506  0.9592
 5922TIP3    H217773   3.898   2.427   4.400  0.0843  0.7261  0.4538
 5923TIP3   OH217774   4.058   1.860   4.167  0.4499 -0.3079  0.2662
 5923TIP3    H117775   4.097   1.809   4.096  0.9055  0.2328  0.1269
 5923TIP3    H217776   4.114   1.842   4.243  1.1254  0.6572  0.0079
 5924TIP3   OH217777   1.662   4.059   2.605  0.3211 -0.0304 -0.1869
 5924TIP3    H117778   1.685   3.979   2.653  0.4206  0.1542  0.0760
 5924TIP3    H217779   1.674   4.129   2.669  0.3543  0.2071 -0.4539
 5925TIP3   OH217780   1.070   3.386   3.319  0.4073 -0.0354  0.3282
 5925TIP3    H117781   1.033   3.303   3.349 -0.0745 -0.0247 -0.2213
 5925TIP3    H217782   1.163   3.368   3.307 -0.0594 -1.2582 -2.2409
 5926TIP3   OH217783   1.582   4.479   1.565 -0.2283  0.4950  0.1239
 5926TIP3    H117784   1.597   4.468   1.472 -0.4342 -2.0484  0.3328
 5926TIP3    H217785   1.664   4.514   1.599  0.2728  0.2520 -0.8092
 5927TIP3   OH217786   0.904   1.165   0.102  0.4499 -0.6647  0.2264
 5927TIP3    H117787   0.945   1.150   0.187  1.7680  4.8393  0.9980
 5927TIP3    H217788   0.823   1.213   0.123 -0.4417 -1.2589 -1.6319
 5928TIP3   OH217789   3.227   1.287   3.850 -0.0659 -0.0676 -0.6968
 5928TIP3    H117790   3.236   1.275   3.944  1.4499 -0.3254 -0.8445
 5928TIP3    H217791   3.230   1.199   3.813  1.4614  0.1150 -1.1016
 5929TIP3   OH217792   5.008   2.004   2.871  0.6843 -0.1923  0.0997
 5929TIP3    H117793   4.926   2.024   2.916  0.8243  1.6369 -0.4135
 5929TIP3    H217794   5.076   2.042   2.927  1.1445 -1.1131  0.1840
 5930TIP3   OH217795   3.519   3.914   1.361 -0.3427 -0.8271  0.1029
 5930TIP3    H117796   3.526   3.977   1.289 -0.9602  0.3366  1.0109
 5930TIP3    H217797   3.596   3.858   1.352  0.3161  0.1567 -0.6581
 5931TIP3   OH217798   3.027   1.045   4.143  0.2275  0.2291  0.2271
 5931TIP3    H117799   3.060   0.956   4.133  0.7787  0.4741 -0.1959
 5931TIP3    H217800   3.034   1.064   4.236  2.5139  0.7362 -0.0024
 5932TIP3   OH217801   3.019   1.719   0.724  0.3106 -0.1857 -0.0856
 5932TIP3    H117802   3.061   1.763   0.649 -2.3570  1.4932 -0.7296
 5932TIP3    H217803   3.027   1.782   0.796 -0.8282  0.0670 -0.1612
 5933TIP3   OH217804   0.696   1.074   2.736 -0.2142 -0.2071 -0.4863
 5933TIP3    H117805   0.761   1.006   2.751  0.4399  0.6090  0.4219
 5933TIP3    H217806   0.720   1.145   2.795 -0.8635  0.8389 -1.4347
 5934TIP3   OH217807   3.223   5.498   2.563 -0.2420 -0.4532  0.3344
 5934TIP3    H117808   3.211   5.583   2.604 -0.3559  0.0831 -0.7764
 5934TIP3    H217809   3.165   5.499   2.487  1.9797 -0.2942 -1.4823
 5935TIP3   OH217810   2.341   1.662   1.997 -0.0347 -0.3471 -0.2992
 5935TIP3    H117811   2.335   1.663   1.901 -1.4005  0.3464 -0.2372
 5935TIP3    H217812   2.426   1.701   2.016  0.6622 -1.3346 -1.2363
 5936TIP3   OH217813   4.676   0.806   0.769  0.1017  0.0477  0.3214
 5936TIP3    H117814   4.762   0.848   0.766 -0.1483  1.1306  3.9617
 5936TIP3    H217815   4.618   0.871   0.807 -2.2681 -0.8965 -1.4149
 5937TIP3   OH217816   3.464   4.322   4.185 -0.8818  0.1893  0.0750
 5937TIP3    H117817   3.477   4.248   4.126 -0.8343  0.0808  0.2199
 5937TIP3    H217818   3.370   4.319   4.207 -1.4925  1.7704 -2.0256
 5938TIP3   OH217819   3.019   2.480   4.382  0.1556 -0.2341  0.0998
 5938TIP3    H117820   2.987   2.567   4.406 -2.6574 -1.1246 -0.1126
 5938TIP3    H217821   3.057   2.446   4.463  0.0382  0.6577  0.5437
 5939TIP3   OH217822   0.672   4.711   0.244  0.1768  0.0340 -0.1112
 5939TIP3    H117823   0.656   4.715   0.338 -0.5425  0.7405 -0.2591
 5939TIP3    H217824   0.760   4.674   0.236 -0.0120 -0.6422  0.8163
 5940TIP3   OH217825   1.959   0.852   2.778 -0.1186 -0.5967  0.1150
 5940TIP3    H117826   2.037   0.848   2.833  0.9028  0.4369 -1.1803
 5940TIP3    H217827   1.913   0.770   2.794  0.5545 -0.6528  1.8785
 5941TIP3   OH217828   5.573   4.179   2.767 -0.2019 -0.5138 -0.7238
 5941TIP3    H117829   5.630   4.116   2.723  0.2115 -0.8123  0.2292
 5941TIP3    H217830   5.621   4.205   2.846 -1.0079 -0.1173 -0.3532
 5942TIP3   OH217831   1.158   4.373   0.854  0.2426 -0.7730  0.2120
 5942TIP3    H117832   1.199   4.318   0.921  3.5076  2.6637  1.3621
 5942TIP3    H217833   1.071   4.391   0.888  1.2643 -0.3859  2.8988
 5943TIP3   OH217834   1.538   0.290   3.706 -0.4227 -0.1405  0.0986
 5943TIP3    H117835   1.453   0.315   3.741 -0.5664 -2.3551  1.5390
 5943TIP3    H217836   1.587   0.259   3.782  1.1870 -0.1811 -0.9195
 5944TIP3   OH217837   1.215   0.861   3.112 -0.1554 -0.0520 -0.2955
 5944TIP3    H117838   1.289   0.860   3.172 -0.1307 -0.6033 -0.3261
 5944TIP3    H217839   1.252   0.828   3.029 -0.3577 -0.0137 -0.4010
 5945TIP3   OH217840   3.445   2.989   1.143 -0.1862  0.2161  0.1824
 5945TIP3    H117841   3.458   3.016   1.052 -0.7833  0.4214  0.1584
 5945TIP3    H217842   3.350   2.982   1.153 -0.1206  0.1373  0.7753
 5946TIP3   OH217843   2.751   3.272   2.949 -0.0883 -1.0906 -0.7635
 5946TIP3    H117844   2.771   3.345   2.890  0.7657  0.4355  1.3268
 5946TIP3    H217845   2.661   3.287   2.976  0.2421 -0.5137  0.0415
 5947TIP3   OH217846   4.670   1.296   0.040  0.1180  0.1068  0.1837
 5947TIP3    H117847   4.678   1.278   0.133  0.7127  0.4033  0.1995
 5947TIP3    H217848   4.665   1.210  -0.002 -1.1333 -0.0137  0.5580
 5948TIP3   OH217849   3.766   3.222   1.408  0.2282 -0.5704  0.3566
 5948TIP3    H117850   3.689   3.173   1.379 -0.1224  0.4348 -0.5070
 5948TIP3    H217851   3.774   3.203   1.501 -1.6603  0.0467  0.6937
 5949TIP3   OH217852   5.143   5.579   1.399 -0.2970 -0.0111 -0.1001
 5949TIP3    H117853   5.213   5.626   1.353 -0.5197  0.8484  0.4183
 5949TIP3    H217854   5.112   5.641   1.465 -0.8617 -0.7569  0.3479
 5950TIP3   OH217855   4.467   0.348   5.132 -0.2580  0.0207  0.0963
 5950TIP3    H117856   4.395   0.357   5.195 -1.3140  1.3181 -1.2303
 5950TIP3    H217857   4.495   0.438   5.114 -1.1528 -0.1495 -2.5517
 5951TIP3   OH217858   5.007   4.952   4.583  0.4600  0.3673  0.6599
 5951TIP3    H117859   5.054   4.923   4.662  0.4432  1.2332  1.0031
 5951TIP3    H217860   5.074   4.951   4.514  0.6277  0.2042  0.8240
 5952TIP3   OH217861   0.637   2.056   1.006 -0.0525 -0.1207 -0.2954
 5952TIP3    H117862   0.562   2.009   0.968  0.6255 -1.3639 -0.1461
 5952TIP3    H217863   0.710   2.035   0.949  0.1280  1.4179 -0.6695
 5953TIP3   OH217864   3.591   1.304   1.462 -0.2574  0.2804 -0.3515
 5953TIP3    H117865   3.673   1.317   1.511  0.1700 -2.6264 -0.1647
 5953TIP3    H217866   3.523   1.339   1.520  0.4333 -1.3653  1.5319
 5954TIP3   OH217867   5.444   2.382   2.043 -0.1950 -0.3290  0.1224
 5954TIP3    H117868   5.484   2.451   2.096  0.0279  0.0057 -0.4703
 5954TIP3    H217869   5.507   2.368   1.972 -1.4820  0.7959 -1.3173
 5955TIP3   OH217870   3.232   3.029   1.391 -0.5650 -0.0764 -0.1784
 5955TIP3    H117871   3.247   2.940   1.358  0.7998  0.4315 -1.0267
 5955TIP3    H217872   3.141   3.048   1.368 -1.4121 -1.8099  1.4462
 5956TIP3   OH217873   3.779   2.490   1.090 -0.3786  0.3072 -0.2248
 5956TIP3    H117874   3.784   2.396   1.074  1.1915  0.3902 -0.4367
 5956TIP3    H217875   3.730   2.524   1.016 -0.1457 -0.2448 -0.6436
 5957TIP3   OH217876   3.328   0.739   3.359 -0.2718 -0.3272  0.6106
 5957TIP3    H117877   3.396   0.765   3.298  0.1673  0.4459  1.3996
 5957TIP3    H217878   3.253   0.795   3.337  0.3501  0.9729  1.6651
 5958TIP3   OH217879   3.334   5.182   4.020  0.4520  0.2479 -0.1682
 5958TIP3    H117880   3.398   5.226   4.077 -0.7806 -0.8373  2.1663
 5958TIP3    H217881   3.365   5.092   4.015 -0.7798 -0.2407  0.8309
 5959TIP3   OH217882   3.514   0.275   4.367 -0.2149  0.0313 -0.2282
 5959TIP3    H117883   3.471   0.227   4.296 -1.2643 -0.4729  0.7255
 5959TIP3    H217884   3.470   0.246   4.446  1.8432 -0.4552  0.8107
 5960TIP3   OH217885   5.050   0.974   3.258  0.2880 -0.2092  0.0606
 5960TIP3    H117886   5.123   0.977   3.196 -0.2106 -2.8638 -0.8020
 5960TIP3    H217887   4.972   0.988   3.204  0.0133  0.1377  0.5454
 5961TIP3   OH217888   5.345   3.298   3.428 -0.4653  0.1740 -0.6076
 5961TIP3    H117889   5.439   3.315   3.425 -0.1935 -0.5919  1.6261
 5961TIP3    H217890   5.312   3.357   3.497 -1.4655 -0.2424 -0.7078
 5962TIP3   OH217891   1.043   2.917   4.329 -0.5191 -0.2073 -0.0218
 5962TIP3    H117892   1.087   2.835   4.306 -0.7802 -1.2616  2.8318
 5962TIP3    H217893   1.082   2.942   4.413 -0.5786  2.5563 -0.7147
 5963TIP3   OH217894   5.468   1.356   3.019  0.5714 -0.1029  0.7376
 5963TIP3    H117895   5.430   1.406   2.947 -1.6870  0.3232  2.1186
 5963TIP3    H217896   5.526   1.418   3.063  1.5043 -0.1929 -0.3413
 5964TIP3   OH217897   1.755   2.416   2.640 -0.1823 -0.1889 -0.6017
 5964TIP3    H117898   1.683   2.362   2.607  1.2094 -2.8733  0.3616
 5964TIP3    H217899   1.809   2.433   2.563 -0.7078 -0.0812 -0.9493
 5965TIP3   OH217900   0.515   5.614   0.518  0.9070 -0.0698 -0.0976
 5965TIP3    H117901   0.585   5.677   0.501  1.1901  0.0375  1.3160
 5965TIP3    H217902   0.517   5.555   0.442 -0.3941  2.4493 -2.2444
 5966TIP3   OH217903   0.187   3.284   3.743 -0.4299 -0.2364  0.3078
 5966TIP3    H117904   0.241   3.354   3.705 -0.3063 -0.6274 -0.2569
 5966TIP3    H217905   0.250   3.228   3.789 -0.3121 -0.8171 -0.5415
 5967TIP3   OH217906   2.258   4.379   4.134  0.1988  0.2276 -0.4003
 5967TIP3    H117907   2.225   4.437   4.065 -1.1141 -0.2266 -0.1883
 5967TIP3    H217908   2.307   4.311   4.088  2.3115  1.8119 -0.6105
 5968TIP3   OH217909   5.196   5.237   3.270 -0.8646  0.2102  0.4780
 5968TIP3    H117910   5.242   5.176   3.328  1.0397  0.7513 -0.3743
 5968TIP3    H217911   5.105   5.208   3.272 -0.1231 -2.3673  0.4481
 5969TIP3   OH217912   4.788   5.748   3.774 -0.2903 -0.3179 -0.0344
 5969TIP3    H117913   4.771   5.654   3.775 -0.2572 -0.3270  0.9765
 5969TIP3    H217914   4.859   5.759   3.711  1.4238 -1.3158  1.5834
 5970TIP3   OH217915   6.362   3.425   5.082  0.4620  0.0597  0.4026
 5970TIP3    H117916   6.367   3.457   4.992 -0.3134 -1.8435 -0.3807
 5970TIP3    H217917   6.275   3.452   5.111  1.1819  1.7788  1.0799
 5971TIP3   OH217918   0.075   0.298   2.225  0.0941 -0.9165  0.2256
 5971TIP3    H117919   0.151   0.262   2.271  0.9046 -0.3621 -0.6255
 5971TIP3    H217920   0.076   0.253   2.140 -0.5664 -0.9380  0.2271
 5972TIP3   OH217921   3.228   5.706   3.224 -0.2579 -0.6275  0.0930
 5972TIP3    H117922   3.133   5.715   3.233 -0.2847  0.5613 -1.0239
 5972TIP3    H217923   3.263   5.790   3.254  0.3044 -0.4340 -1.0260
 5973TIP3   OH217924   3.910   5.820   2.159 -0.1816  0.2942 -0.0124
 5973TIP3    H117925   3.867   5.773   2.088  0.9626  0.2555 -0.7118
 5973TIP3    H217926   3.968   5.755   2.198  0.2010  0.6786  0.0691
 5974TIP3   OH217927   3.868   3.405   3.231  0.0363  0.1297  0.0506
 5974TIP3    H117928   3.865   3.419   3.136 -1.1944  0.9226  0.1853
 5974TIP3    H217929   3.828   3.319   3.243 -0.2222  0.2223 -0.1227
 5975TIP3   OH217930   4.957   4.164   2.036  0.3386 -0.3792 -0.0062
 5975TIP3    H117931   4.938   4.257   2.048  0.0019 -0.5899  1.3134
 5975TIP3    H217932   5.001   4.138   2.117  0.0501 -1.4608 -0.1757
 5976TIP3   OH217933   3.072   3.381   4.169 -0.2002 -0.8107  0.8327
 5976TIP3    H117934   3.160   3.417   4.176  0.2414 -1.6484 -0.1186
 5976TIP3    H217935   3.018   3.455   4.143  0.3984 -0.4834  0.4993
 5977TIP3   OH217936   2.331   5.644   4.117 -0.4882 -0.3292 -0.0563
 5977TIP3    H117937   2.261   5.649   4.053  1.0372 -1.6526 -1.9506
 5977TIP3    H217938   2.412   5.644   4.065  0.9675  1.2656  2.0150
 5978TIP3   OH217939   1.775   3.769   1.708  0.0029 -0.7020  0.1483
 5978TIP3    H117940   1.721   3.834   1.662 -0.2962 -0.5164  0.7495
 5978TIP3    H217941   1.826   3.821   1.771  0.5938 -0.9230 -0.1475
 5979TIP3   OH217942   4.683   1.713   0.364 -0.2042  0.1618  0.4271
 5979TIP3    H117943   4.634   1.795   0.358  0.3128  0.6433  2.1432
 5979TIP3    H217944   4.672   1.685   0.455 -0.3095 -1.6521 -0.1045
 5980TIP3   OH217945   5.105   3.263   2.604 -0.3573  0.1208 -0.4129
 5980TIP3    H117946   5.059   3.296   2.527  1.2466  0.5794 -1.2206
 5980TIP3    H217947   5.076   3.319   2.675 -2.4197 -0.7557 -0.4845
 5981TIP3   OH217948   1.761   2.909   3.047 -0.1597 -0.1973  0.1089
 5981TIP3    H117949   1.841   2.858   3.061 -0.6647 -1.0650 -0.1053
 5981TIP3    H217950   1.694   2.863   3.098 -0.8960 -0.4701 -1.0846
 5982TIP3   OH217951   5.033   0.007   0.133  0.0961 -0.1597 -0.4799
 5982TIP3    H117952   5.059   0.085   0.180 -1.0056 -0.2547  0.3157
 5982TIP3    H217953   5.112  -0.020   0.086  1.3142 -0.2131  1.4962
 5983TIP3   OH217954   1.413   5.785   1.759 -0.1972  0.2616 -0.1598
 5983TIP3    H117955   1.334   5.838   1.770 -2.1370 -2.6240  1.0916
 5983TIP3    H217956   1.388   5.716   1.697 -0.0369 -2.8417  2.8911
 5984TIP3   OH217957   2.023   3.791   1.478 -0.3577  0.0121 -0.7850
 5984TIP3    H117958   2.067   3.741   1.548 -1.1868 -0.4246 -0.5581
 5984TIP3    H217959   2.050   3.881   1.492 -0.3098 -0.1114 -0.0446
 5985TIP3   OH217960   5.920   5.059   0.835  0.7806 -0.2065 -0.4588
 5985TIP3    H117961   5.848   5.122   0.830  1.7606  0.8824 -1.4425
 5985TIP3    H217962   5.974   5.091   0.908  1.5987  0.4820 -1.3402
 5986TIP3   OH217963   4.192   1.930   4.672 -0.1671 -0.5421 -0.3779
 5986TIP3    H117964   4.271   1.876   4.676  0.1516 -0.1122 -0.8640
 5986TIP3    H217965   4.176   1.944   4.579  0.2171  0.8667 -0.2487
 5987TIP3   OH217966   1.772   3.211   3.962  0.0538  0.0301  0.0458
 5987TIP3    H117967   1.845   3.166   3.920 -0.6918 -0.5627 -0.6510
 5987TIP3    H217968   1.747   3.281   3.900 -0.7028 -0.5077 -0.2777
 5988TIP3   OH217969   0.420   5.473   2.359 -0.2349 -0.8248  0.2525
 5988TIP3    H117970   0.479   5.518   2.419 -0.6891 -0.3968  0.3813
 5988TIP3    H217971   0.337   5.469   2.405 -1.4002  1.9867 -1.3630
 5989TIP3   OH217972   5.813   4.940   0.513 -0.3151 -0.6062  0.3203
 5989TIP3    H117973   5.771   5.015   0.470 -2.5578 -1.1950  1.2914
 5989TIP3    H217974   5.885   4.978   0.564 -0.7984  0.7602  0.0295
 5990TIP3   OH217975   4.014   4.812   2.095 -0.0673  0.2679  0.0377
 5990TIP3    H117976   4.012   4.847   2.184  0.3993 -1.5719  0.8143
 5990TIP3    H217977   4.030   4.889   2.040  2.3007  1.1506  1.7521
 5991TIP3   OH217978   1.504   2.664   3.775 -0.2579  0.2288 -0.2878
 5991TIP3    H117979   1.584   2.615   3.791 -0.8309 -0.2283  1.3181
 5991TIP3    H217980   1.514   2.744   3.827  0.7870  2.0940 -3.0651
 5992TIP3   OH217981   3.776   2.898   3.669 -0.1032  0.5474  0.3628
 5992TIP3    H117982   3.858   2.914   3.715 -0.2116  0.6420  0.5237
 5992TIP3    H217983   3.759   2.804   3.683 -0.9299  0.8747  1.8449
 5993TIP3   OH217984   4.896   5.037   3.956  0.3219 -0.5566 -0.5502
 5993TIP3    H117985   4.942   5.105   4.006 -0.7732  0.0368 -0.3165
 5993TIP3    H217986   4.834   4.999   4.018 -0.7941 -0.0642 -1.3353
 5994TIP3   OH217987   2.421   5.712   0.624  0.6265 -0.6211 -0.1811
 5994TIP3    H117988   2.383   5.624   0.615  0.3132 -0.4715 -0.3533
 5994TIP3    H217989   2.354   5.762   0.671  1.0233 -0.6110  0.3741
 5995TIP3   OH217990   6.194   1.849   0.001 -0.2456 -0.4404 -0.3423
 5995TIP3    H117991   6.099   1.859  -0.002 -0.1258  0.7806 -0.6240
 5995TIP3    H217992   6.218   1.877   0.090 -0.1601 -0.9426 -0.2024
 5996TIP3   OH217993   2.198   3.522   2.609  0.2070  0.1041 -0.2164
 5996TIP3    H117994   2.229   3.599   2.657  1.7305 -1.1604  0.9283
 5996TIP3    H217995   2.203   3.451   2.672 -0.7918 -1.0202 -1.3699
 5997TIP3   OH217996   2.911   5.802   1.356  0.6853 -0.0870 -0.6032
 5997TIP3    H117997   2.886   5.825   1.445  1.5852 -1.0581 -0.0810
 5997TIP3    H217998   2.981   5.737   1.366  1.2319  0.2379 -2.0121
 5998TIP3   OH217999   2.689   1.903   0.931 -0.2022 -0.3194 -0.7171
 5998TIP3    H118000   2.624   1.858   0.985 -0.1137 -0.0756 -0.4064
 5998TIP3    H218001   2.747   1.947   0.994  0.9411 -1.4495 -0.9442
 5999TIP3   OH218002   2.861   4.146   0.926  0.1965  0.5570  0.0225
 5999TIP3    H118003   2.952   4.162   0.902 -0.1858  1.8527 -0.5988
 5999TIP3    H218004   2.860   4.053   0.950  1.6555  0.4915 -0.0391
 6000TIP3   OH218005   5.955   2.084   3.191 -0.2147  0.1525  0.0536
 6000TIP3    H118006   6.035   2.077   3.245 -0.2534  0.2744  0.1279
 6000TIP3    H218007   5.905   2.154   3.233 -1.1067 -0.9935  0.9757
 6001TIP3   OH218008   2.704   3.543   0.275  0.7600 -0.1130  0.0094
 6001TIP3    H118009   2.739   3.457   0.253  0.1008  0.2466 -2.8430
 6001TIP3    H218010   2.655   3.570   0.197 -1.2974  1.7190  1.7929
 6002TIP3   OH218011   1.755   2.699   2.194 -0.2312  0.6537 -0.0299
 6002TIP3    H118012   1.819   2.699   2.124 -0.3586  2.1660 -0.1784
 6002TIP3    H218013   1.718   2.788   2.194 -1.9775 -0.0203  0.3587
 6003TIP3   OH218014   2.211   4.940   5.075  0.3246  0.2336 -0.0606
 6003TIP3    H118015   2.130   4.897   5.102 -0.3484  1.2955 -0.3193
 6003TIP3    H218016   2.258   4.873   5.025 -0.5150 -0.3180 -0.1361
 6004TIP3   OH218017   0.202   5.740   4.859  0.0166  0.1315  0.2422
 6004TIP3    H118018   0.214   5.833   4.842 -3.0248  0.7059  0.6536
 6004TIP3    H218019   0.244   5.725   4.943 -1.0673  1.6227  1.0968
 6005TIP3   OH218020   3.671   1.716   3.222  0.1961 -0.3897  0.2124
 6005TIP3    H118021   3.651   1.623   3.213  2.0639 -0.7367 -0.7916
 6005TIP3    H218022   3.588   1.760   3.203 -1.3725 -1.8469  3.0501
 6006TIP3   OH218023   3.512   3.578   3.570 -0.5001  0.0553 -0.4232
 6006TIP3    H118024   3.532   3.606   3.660 -0.8229  0.1192 -0.3692
 6006TIP3    H218025   3.587   3.525   3.544 -1.1022 -1.2849  0.4618
 6007TIP3   OH218026   2.258   1.743   4.409  0.0322  0.3728  0.2573
 6007TIP3    H118027   2.190   1.712   4.349 -0.7783  0.4289  1.1240
 6007TIP3    H218028   2.225   1.826   4.443  1.7149  1.7544 -1.2499
 6008TIP3   OH218029   1.654   5.953   2.853  0.0002 -0.1296 -0.0072
 6008TIP3    H118030   1.678   6.045   2.865  1.2729 -0.1336 -1.9900
 6008TIP3    H218031   1.730   5.904   2.883 -0.3563 -0.5008  0.3006
 6009TIP3   OH218032   5.905   0.071   2.184  0.2026 -0.5021  0.1531
 6009TIP3    H118033   5.937  -0.006   2.137  1.4004  0.1916 -0.2270
 6009TIP3    H218034   5.945   0.064   2.270  1.2226  0.2283 -0.2353
 6010TIP3   OH218035   0.680   5.320   2.540  0.5937  0.6801  0.2106
 6010TIP3    H118036   0.630   5.401   2.530 -0.1190  0.3300  0.8577
 6010TIP3    H218037   0.715   5.325   2.629 -0.3903 -0.2280  0.6676
 6011TIP3   OH218038   3.515   5.083   2.391 -0.4000 -0.0218  0.1258
 6011TIP3    H118039   3.608   5.101   2.372 -0.6298  1.0869 -0.0271
 6011TIP3    H218040   3.511   4.988   2.402  0.6469 -0.1520 -0.4504
 6012TIP3   OH218041   0.371   1.677   5.090  0.0189  0.3291 -0.6417
 6012TIP3    H118042   0.398   1.752   5.145  1.3704  0.4071 -1.3846
 6012TIP3    H218043   0.276   1.686   5.085 -0.6115 -1.1423  3.8207
 6013TIP3   OH218044   1.735   1.994   2.458  0.1726 -0.2740 -0.2803
 6013TIP3    H118045   1.741   2.073   2.512 -3.0792 -0.6436  0.8971
 6013TIP3    H218046   1.739   2.026   2.368  0.4495  1.0371  0.1703
 6014TIP3   OH218047   1.095   4.676   0.838 -0.0045  0.2782  0.2050
 6014TIP3    H118048   1.097   4.751   0.897  0.8975 -0.4174  1.1064
 6014TIP3    H218049   1.164   4.618   0.871 -1.5413 -1.5433  0.3647
 6015TIP3   OH218050   3.228   4.365   4.899  0.2148 -0.5172 -0.4083
 6015TIP3    H118051   3.183   4.386   4.817  1.9208  0.4333 -1.1508
 6015TIP3    H218052   3.237   4.269   4.896 -2.8609 -0.9352  0.4321
 6016TIP3   OH218053   2.174   2.404   0.032 -0.2544 -0.4880 -0.8277
 6016TIP3    H118054   2.230   2.473  -0.004 -0.0035 -0.5586 -0.5751
 6016TIP3    H218055   2.085   2.436   0.018 -0.1606 -0.4824 -1.4443
 6017TIP3   OH218056   2.477   2.540   1.324 -0.2336 -0.3877  0.2473
 6017TIP3    H118057   2.395   2.504   1.288  0.6257 -1.3961 -0.8129
 6017TIP3    H218058   2.546   2.498   1.271  1.0477 -0.8113  2.1666
 6018TIP3   OH218059   0.690   2.526   3.293 -0.6165  0.6969 -0.2741
 6018TIP3    H118060   0.719   2.611   3.259  0.2659  0.0620 -1.1675
 6018TIP3    H218061   0.771   2.479   3.313 -0.9891 -0.6976 -1.7779
 6019TIP3   OH218062   1.866   4.820   2.209 -0.2944  0.1814  0.4413
 6019TIP3    H118063   1.784   4.784   2.176 -0.9998  0.8675  1.3766
 6019TIP3    H218064   1.932   4.754   2.188 -0.5187  0.8868 -2.9686
 6020TIP3   OH218065   1.515   2.133   2.159  0.2667 -0.7161 -0.0456
 6020TIP3    H118066   1.576   2.207   2.169 -1.1595  0.4224  0.7078
 6020TIP3    H218067   1.564   2.057   2.190  2.3383 -0.4252 -2.3593
 6021TIP3   OH218068   4.580   2.896   4.955 -0.8371  0.1990  0.8156
 6021TIP3    H118069   4.574   2.870   5.047 -0.9618 -0.8143  0.5318
 6021TIP3    H218070   4.573   2.992   4.957  1.2910  0.3984  2.0444
 6022TIP3   OH218071   5.144   3.649   1.393 -0.2125  0.2052 -0.3788
 6022TIP3    H118072   5.049   3.654   1.387 -0.2555  1.2375  0.7102
 6022TIP3    H218073   5.176   3.693   1.315 -0.6498  1.3244  0.0529
 6023TIP3   OH218074   6.348   5.604   2.526 -0.1030  0.1130  0.1494
 6023TIP3    H118075   6.369   5.683   2.576  0.8439  0.1399 -0.2600
 6023TIP3    H218076   6.325   5.636   2.439  1.8466 -0.1014 -0.5088
 6024TIP3   OH218077   2.216   4.205   2.664  0.4541  0.6607  0.0884
 6024TIP3    H118078   2.280   4.260   2.709  0.5499  1.3039 -0.8086
 6024TIP3    H218079   2.244   4.205   2.572 -1.1474  1.4456 -0.4370
 6025TIP3   OH218080   1.990   1.326   3.824  0.7501  0.1419  0.0429
 6025TIP3    H118081   2.065   1.306   3.880  0.6478  1.3124  0.6241
 6025TIP3    H218082   2.009   1.413   3.789 -0.3831  0.5032  0.2861
 6026TIP3   OH218083   3.761   4.051   3.726 -0.1652 -0.0628 -0.2699
 6026TIP3    H118084   3.717   4.126   3.686 -1.4637 -1.2314 -1.1433
 6026TIP3    H218085   3.805   4.007   3.654  1.4632  0.3901  0.4014
 6027TIP3   OH218086   0.608   3.139   3.341  0.4469  0.0111  0.0641
 6027TIP3    H118087   0.690   3.091   3.333 -0.1041 -1.4393  2.3231
 6027TIP3    H218088   0.634   3.230   3.355  1.6463 -0.3263  0.0857
 6028TIP3   OH218089   2.483   0.496   4.137 -0.3866  0.2954  0.6221
 6028TIP3    H118090   2.478   0.590   4.156  0.2417  0.5253 -0.2565
 6028TIP3    H218091   2.568   0.485   4.094 -1.4165 -0.2757 -1.3823
 6029TIP3   OH218092   0.235   2.706   2.683 -0.5225 -0.8284  0.9547
 6029TIP3    H118093   0.274   2.695   2.596 -1.9135  0.7168  0.0864
 6029TIP3    H218094   0.197   2.620   2.703  2.1278 -2.0243  1.3040
 6030TIP3   OH218095   0.850   5.047   2.993  0.1879 -0.0348 -0.6900
 6030TIP3    H118096   0.830   5.116   3.057 -1.4566 -1.0739 -0.0229
 6030TIP3    H218097   0.900   5.092   2.925  0.9579  1.3636  0.7267
 6031TIP3   OH218098   5.283   2.783   1.187  0.2475  0.1206 -0.0491
 6031TIP3    H118099   5.209   2.770   1.246 -0.3869  0.7690 -0.6793
 6031TIP3    H218100   5.274   2.714   1.122  0.3936 -0.0070  0.0655
 6032TIP3   OH218101   4.500   3.774   3.354  0.3033 -0.0019 -0.2213
 6032TIP3    H118102   4.446   3.794   3.278 -1.1711  0.2422  0.8479
 6032TIP3    H218103   4.554   3.700   3.326 -1.4330 -1.0534 -0.9721
 6033TIP3   OH218104   4.933   5.817   0.516 -0.0106  0.0899  0.1415
 6033TIP3    H118105   5.003   5.756   0.496 -0.2962 -0.9945  2.1279
 6033TIP3    H218106   4.977   5.891   0.557  0.2607  0.9251 -1.5948
 6034TIP3   OH218107   6.116   5.916   4.473 -0.4978  0.0458 -0.2835
 6034TIP3    H118108   6.064   5.933   4.395  0.2768  1.5084 -0.5125
 6034TIP3    H218109   6.128   6.002   4.514  1.5441 -0.2657 -0.1314
 6035TIP3   OH218110   6.171   4.508   0.908 -0.0361  0.6343 -0.2525
 6035TIP3    H118111   6.085   4.471   0.890  0.6636 -0.7020 -1.0195
 6035TIP3    H218112   6.194   4.474   0.995  0.3797 -0.3612 -0.7321
 6036TIP3   OH218113   5.672   0.735   3.480 -0.0170  0.8415 -0.4622
 6036TIP3    H118114   5.592   0.783   3.501 -1.1154 -0.5650 -1.2614
 6036TIP3    H218115   5.644   0.666   3.420  0.7225 -2.9675  3.0698
 6037TIP3   OH218116   5.860   5.539   2.067  0.9683 -0.1615 -0.0082
 6037TIP3    H118117   5.947   5.549   2.107  0.2679  1.6064  1.2133
 6037TIP3    H218118   5.847   5.621   2.020  1.1914 -1.6413 -2.8910
 6038TIP3   OH218119   2.490   4.892   4.038 -0.2979  0.3280 -0.8639
 6038TIP3    H118120   2.478   4.816   4.095 -0.5894  1.0371  0.0310
 6038TIP3    H218121   2.416   4.949   4.058 -0.8251  0.2693 -2.4899
 6039TIP3   OH218122   6.112   5.879   2.729 -0.5436 -0.1442 -0.0605
 6039TIP3    H118123   6.121   5.961   2.682 -1.0584 -0.3542 -0.5374
 6039TIP3    H218124   6.098   5.813   2.661 -4.1778 -0.0704  0.4086
 6040TIP3   OH218125   5.353   3.282   5.010 -0.0547 -0.3707 -0.5476
 6040TIP3    H118126   5.286   3.274   5.078  0.4362 -1.8756 -0.1772
 6040TIP3    H218127   5.332   3.212   4.948 -0.4334  0.9257 -1.9088
 6041TIP3   OH218128   3.034   4.971   1.175 -0.4075  0.2413  0.1052
 6041TIP3    H118129   2.964   4.908   1.163  0.7765 -0.9482 -0.7575
 6041TIP3    H218130   3.057   5.000   1.087  0.9909 -0.3036  0.2704
 6042TIP3   OH218131   5.431   3.547   1.780 -0.0856  0.2437  0.1418
 6042TIP3    H118132   5.347   3.579   1.810 -0.4073 -1.5659  1.3222
 6042TIP3    H218133   5.410   3.470   1.727  0.7989 -0.1203  0.3003
 6043TIP3   OH218134   2.572   3.835   0.337 -0.4913 -0.1039  0.2350
 6043TIP3    H118135   2.570   3.880   0.252 -1.8122  2.9241  1.7205
 6043TIP3    H218136   2.504   3.768   0.330  0.7096 -1.2092 -1.6767
 6044TIP3   OH218137   0.096   3.122   0.419 -0.1441  0.3818 -0.2507
 6044TIP3    H118138   0.131   3.101   0.332 -0.0172 -1.9074  0.2767
 6044TIP3    H218139   0.174   3.125   0.475 -0.4271 -1.0290  0.2610
 6045TIP3   OH218140   5.894   3.947   1.331 -0.7314  0.1152 -0.8411
 6045TIP3    H118141   5.842   3.964   1.253 -2.2094  0.8819  0.2584
 6045TIP3    H218142   5.849   3.875   1.375 -0.3721  0.2070 -0.3113
 6046TIP3   OH218143   1.534   5.413   2.113  0.1310 -0.2971 -0.3990
 6046TIP3    H118144   1.458   5.355   2.109 -0.7873  0.8882 -0.7881
 6046TIP3    H218145   1.586   5.391   2.036  0.5592 -1.5862  0.2324
 6047TIP3   OH218146   2.323   0.506   3.406 -0.5785  0.3746 -0.3991
 6047TIP3    H118147   2.336   0.585   3.354 -0.1033  0.1464 -0.6315
 6047TIP3    H218148   2.228   0.490   3.401 -0.8381  1.5149  0.5241
 6048TIP3   OH218149   5.729   3.399   0.189 -0.2528 -0.0478  0.3646
 6048TIP3    H118150   5.824   3.407   0.197  0.2249 -0.4133 -3.1935
 6048TIP3    H218151   5.698   3.489   0.191  0.2660  0.1307  0.7046
 6049TIP3   OH218152   2.237   0.345   2.891 -0.0083 -0.2645  0.1717
 6049TIP3    H118153   2.265   0.281   2.825 -0.5818 -0.5842  0.2353
 6049TIP3    H218154   2.217   0.424   2.840  1.2023  0.0462  0.1450
 6050TIP3   OH218155   3.064   4.189   1.531 -0.3684  0.5733 -0.0141
 6050TIP3    H118156   3.072   4.259   1.466 -0.3152  1.8668  1.3224
 6050TIP3    H218157   2.970   4.180   1.546 -0.6001 -1.6673 -2.2146
 6051TIP3   OH218158   1.401   2.489   3.237 -0.0006 -0.0154  0.0960
 6051TIP3    H118159   1.322   2.500   3.184  0.2118  0.2498 -0.1722
 6051TIP3    H218160   1.370   2.493   3.328 -0.3107 -0.0456 -0.0080
 6052TIP3   OH218161   3.304   3.333   3.107  0.4438 -0.1547 -0.5224
 6052TIP3    H118162   3.304   3.241   3.132  2.2611 -0.3409 -1.0151
 6052TIP3    H218163   3.331   3.379   3.187 -1.4979  0.1063  0.0348
 6053TIP3   OH218164   4.640   0.502   1.218  0.0534  0.5353  0.3234
 6053TIP3    H118165   4.586   0.581   1.209 -2.7339 -1.1274  1.1505
 6053TIP3    H218166   4.650   0.469   1.129  0.5846  1.3603  0.0592
 6054TIP3   OH218167   6.134   5.180   1.422  0.1803 -0.4119  0.0841
 6054TIP3    H118168   6.090   5.104   1.461 -1.2264  0.3930  0.1312
 6054TIP3    H218169   6.156   5.236   1.496 -0.4914  0.0850 -0.0789
 6055TIP3   OH218170   2.782   4.349   5.080 -0.4118  0.4042  0.5671
 6055TIP3    H118171   2.807   4.332   5.171 -0.4785  1.4579  0.7965
 6055TIP3    H218172   2.687   4.356   5.083 -0.4477  0.0058  0.3373
 6056TIP3   OH218173   0.565   3.710   4.654  0.3266  0.2740  0.5535
 6056TIP3    H118174   0.596   3.738   4.568 -1.7678  0.2117 -0.2682
 6056TIP3    H218175   0.586   3.617   4.658 -1.1603 -0.1507 -0.6829
 6057TIP3   OH218176   3.091   4.145   3.649  0.1149 -0.2898 -0.0455
 6057TIP3    H118177   3.036   4.223   3.649  0.5065 -0.0076 -0.9431
 6057TIP3    H218178   3.180   4.179   3.659  0.1225 -0.7749  2.0138
 6058TIP3   OH218179   4.204   1.915   3.544 -0.3247  0.5620 -0.3611
 6058TIP3    H118180   4.290   1.945   3.513  0.3981 -0.9883  0.0810
 6058TIP3    H218181   4.180   1.845   3.484  0.5029 -1.6114  1.7025
 6059TIP3   OH218182   6.365   2.248   4.690  0.5083  0.4635 -0.2460
 6059TIP3    H118183   6.293   2.269   4.632  0.2617  0.4656  0.0570
 6059TIP3    H218184   6.335   2.274   4.777  0.0284 -1.4419  0.2189
 6060TIP3   OH218185   1.079   2.622   1.202  0.2899  0.6202  0.1460
 6060TIP3    H118186   1.095   2.569   1.125  1.2638  0.2144  0.6130
 6060TIP3    H218187   1.134   2.700   1.190 -0.3148  1.0313 -0.0294
 6061TIP3   OH218188   3.312   3.280   2.530 -0.1494 -0.4517  0.0723
 6061TIP3    H118189   3.274   3.206   2.577 -0.0339 -0.8954 -0.5160
 6061TIP3    H218190   3.264   3.283   2.448 -0.0792  0.0620  0.0494
 6062TIP3   OH218191   6.160   2.379   4.094 -0.2520  0.1639 -0.3255
 6062TIP3    H118192   6.177   2.285   4.086  2.5770  0.6411 -0.9918
 6062TIP3    H218193   6.070   2.385   4.125 -0.9146 -2.7242 -1.4051
 6063TIP3   OH218194   1.152   0.924   4.832  0.3001 -0.7443 -0.3652
 6063TIP3    H118195   1.192   0.909   4.746  2.0276 -0.5524  0.3605
 6063TIP3    H218196   1.172   1.016   4.852 -1.1289 -0.4371 -0.2601
 6064TIP3   OH218197   4.104   3.814   4.656  0.0425 -0.2641  0.1667
 6064TIP3    H118198   4.027   3.765   4.685  0.2998 -0.2204  0.9478
 6064TIP3    H218199   4.095   3.900   4.697  0.2964 -0.1215 -0.0711
 6065TIP3   OH218200   3.216   2.626   0.210  0.0466 -0.6278  0.0200
 6065TIP3    H118201   3.190   2.568   0.282 -2.6025 -0.0940 -0.3940
 6065TIP3    H218202   3.167   2.707   0.227 -1.6169 -0.8775 -2.9457
 6066TIP3   OH218203   2.516   0.712   4.645  0.1114  0.3576 -0.2973
 6066TIP3    H118204   2.578   0.771   4.601  0.9395 -0.8149 -0.7543
 6066TIP3    H218205   2.541   0.625   4.615 -1.2342 -0.2174  0.1960
 6067TIP3   OH218206   0.834   1.615   0.141 -0.0682 -0.0248 -0.2913
 6067TIP3    H118207   0.903   1.549   0.143 -0.2752 -0.2370  0.2073
 6067TIP3    H218208   0.848   1.663   0.059  0.9543  0.2438  0.0257
 6068TIP3   OH218209   2.437   1.315   1.326  0.2912  0.2811  0.5378
 6068TIP3    H118210   2.422   1.263   1.247  0.7196  0.2049  0.5010
 6068TIP3    H218211   2.532   1.330   1.327  0.6477 -1.6425  2.2232
 6069TIP3   OH218212   4.579   4.009   0.300 -0.3243  0.1372  0.4188
 6069TIP3    H118213   4.534   3.969   0.226 -2.1900 -1.8946  2.4891
 6069TIP3    H218214   4.621   3.936   0.345  0.6781  1.2912  1.4255
 6070TIP3   OH218215   4.556   0.658   2.353  0.2887 -0.2609 -0.6171
 6070TIP3    H118216   4.568   0.589   2.418 -0.2772  0.9404  0.8305
 6070TIP3    H218217   4.645   0.691   2.335  0.6156 -1.6385 -1.6890
 6071TIP3   OH218218   1.359   5.872   0.857 -0.5038  0.5489 -0.5302
 6071TIP3    H118219   1.357   5.907   0.947 -2.9067  1.3282 -0.8058
 6071TIP3    H218220   1.359   5.777   0.868 -0.9240  0.6343  0.3219
 6072TIP3   OH218221   3.831   5.621   3.636  0.0747  0.1697 -0.4714
 6072TIP3    H118222   3.846   5.565   3.712  0.1848  0.1735 -0.4898
 6072TIP3    H218223   3.845   5.563   3.561 -0.6624  0.0009 -0.4886
 6073TIP3   OH218224   0.399   2.956   3.471  0.4985  0.1560  0.1342
 6073TIP3    H118225   0.313   2.985   3.440  1.1620  0.5920 -1.4281
 6073TIP3    H218226   0.461   3.017   3.429  1.6628 -1.0237  0.0674
 6074TIP3   OH218227   5.022   4.783   4.241 -0.1911 -0.1343 -0.3678
 6074TIP3    H118228   5.030   4.860   4.185 -0.0423 -0.4995 -0.8470
 6074TIP3    H218229   5.082   4.719   4.203  1.4728  0.2916  1.3829
 6075TIP3   OH218230   5.306   5.036   3.514  0.2968  0.4200  0.1316
 6075TIP3    H118231   5.351   5.020   3.597  1.2355  0.3408 -0.3758
 6075TIP3    H218232   5.352   4.982   3.450 -1.6288 -1.0242 -0.1275
 6076TIP3   OH218233   1.629   5.847   4.702 -0.2255 -0.1234  0.0786
 6076TIP3    H118234   1.703   5.826   4.760  0.7702  1.4417 -0.5457
 6076TIP3    H218235   1.669   5.895   4.630 -1.8860  0.9248 -0.1953
 6077TIP3   OH218236   1.592   3.069   0.720 -0.1478  0.3725  0.4273
 6077TIP3    H118237   1.650   3.046   0.793  1.4974  1.7102 -0.3911
 6077TIP3    H218238   1.574   3.163   0.732 -0.1074  0.5395 -0.6986
 6078TIP3   OH218239   0.591   5.278   3.838 -0.4930 -0.2428  0.3833
 6078TIP3    H118240   0.541   5.296   3.757 -0.3069 -1.6221 -0.0583
 6078TIP3    H218241   0.652   5.209   3.813  0.5023  0.2603  1.3731
 6079TIP3   OH218242   3.129   3.142   4.039 -0.1818 -0.1439 -0.4491
 6079TIP3    H118243   3.180   3.108   4.112  2.7127  1.4847 -1.5732
 6079TIP3    H218244   3.096   3.227   4.070 -1.4635 -0.7457 -0.0823
 6080TIP3   OH218245   3.306   2.177   1.678  0.3083  0.2253  0.2826
 6080TIP3    H118246   3.273   2.217   1.597  0.5731 -0.1784 -0.0278
 6080TIP3    H218247   3.372   2.114   1.649 -2.0395 -2.5206  0.5018
 6081TIP3   OH218248   6.077   4.733   4.377 -0.0429 -0.3342 -0.0751
 6081TIP3    H118249   6.134   4.804   4.408 -1.6599  1.4276 -0.8922
 6081TIP3    H218250   6.074   4.671   4.449  2.2361 -0.1061  0.2862
 6082TIP3   OH218251   0.194   2.227   4.119 -0.6547  0.0339 -0.6836
 6082TIP3    H118252   0.257   2.229   4.047 -0.3864 -1.7152 -0.5505
 6082TIP3    H218253   0.182   2.134   4.137 -2.3684  0.3752  0.1106
 6083TIP3   OH218254   4.873   2.796   3.748  0.1161 -0.1221 -0.4384
 6083TIP3    H118255   4.873   2.810   3.843  1.4940 -2.4711  0.0105
 6083TIP3    H218256   4.964   2.811   3.722 -0.4826  1.7599 -1.6902
 6084TIP3   OH218257   1.277   5.156   3.243 -0.1561 -0.4816 -0.5133
 6084TIP3    H118258   1.262   5.158   3.338 -0.4135 -0.9176 -0.5439
 6084TIP3    H218259   1.203   5.108   3.208 -0.6290  0.5977 -1.0521
 6085TIP3   OH218260   5.680   5.114   1.199  0.6545 -0.2001 -0.3338
 6085TIP3    H118261   5.746   5.162   1.149  0.2038  0.7691 -0.0206
 6085TIP3    H218262   5.726   5.087   1.279  0.9819 -0.5211 -0.6286
 6086TIP3   OH218263   0.683   3.843   3.436 -0.2960  0.1969  0.5597
 6086TIP3    H118264   0.650   3.800   3.515 -0.2326 -0.1730  0.3866
 6086TIP3    H218265   0.606   3.853   3.380 -0.3531  0.5196  0.6969
 6087TIP3   OH218266   3.292   5.124   3.494  0.5962 -0.0635  0.0662
 6087TIP3    H118267   3.352   5.184   3.450  1.3158  0.6221  1.8884
 6087TIP3    H218268   3.241   5.084   3.423  0.8215  1.9017 -1.2698
 6088TIP3   OH218269   2.421   5.324   2.740 -0.0220 -0.6192 -0.3694
 6088TIP3    H118270   2.456   5.293   2.656  1.9723  1.0526 -0.2537
 6088TIP3    H218271   2.363   5.254   2.770 -0.5716 -1.3974 -2.9820
 6089TIP3   OH218272   2.238   2.376   3.017  0.2158 -0.7102 -0.6149
 6089TIP3    H118273   2.284   2.408   3.094 -2.7749  1.3975  0.4867
 6089TIP3    H218274   2.281   2.419   2.943  0.9422 -0.0204  0.1910
 6090TIP3   OH218275   3.739   5.159   4.433 -0.5960  0.4000  0.5383
 6090TIP3    H118276   3.776   5.160   4.345  1.3527 -2.1510  1.2092
 6090TIP3    H218277   3.758   5.247   4.468  0.4775  0.7622 -0.8550
 6091TIP3   OH218278   5.082   0.486   1.133 -0.1178  0.0680 -0.3607
 6091TIP3    H118279   5.003   0.437   1.156 -0.6970  1.4883  0.8421
 6091TIP3    H218280   5.097   0.465   1.041 -0.8376 -1.6390 -0.1288
 6092TIP3   OH218281   2.625   2.078   2.773 -0.5055 -0.1057 -0.2467
 6092TIP3    H118282   2.672   2.123   2.702  0.0655 -0.8958 -0.3788
 6092TIP3    H218283   2.586   2.001   2.732  1.0301 -1.3642  0.5442
 6093TIP3   OH218284   4.365   5.429   2.498  0.5130  0.5370 -0.2044
 6093TIP3    H118285   4.289   5.372   2.511  1.2714 -0.6487 -0.7082
 6093TIP3    H218286   4.375   5.433   2.403  0.4594  1.5480 -0.1698
 6094TIP3   OH218287   6.248   3.683   2.418  0.0568 -1.0325  0.1046
 6094TIP3    H118288   6.190   3.759   2.415  1.5503  0.1380 -0.6529
 6094TIP3    H218289   6.241   3.644   2.331  0.3689 -0.9021  0.0187
 6095TIP3   OH218290   1.671   0.408   3.962 -0.2511  0.9064 -0.3594
 6095TIP3    H118291   1.687   0.315   3.945  0.2025  0.9782 -0.3461
 6095TIP3    H218292   1.729   0.454   3.901 -1.5043  1.1996 -1.3611
 6096TIP3   OH218293   3.911   0.539   3.474  0.2353 -0.0286 -0.3111
 6096TIP3    H118294   3.931   0.557   3.566  3.3118 -1.9771 -0.4506
 6096TIP3    H218295   3.880   0.622   3.439  2.5809  1.8223  1.6457
 6097TIP3   OH218296   5.765   2.579   3.797  0.2969  0.4103  0.2358
 6097TIP3    H118297   5.747   2.565   3.890 -0.0211  2.2545  0.4978
 6097TIP3    H218298   5.818   2.659   3.795 -1.3570  1.5577 -1.2553
 6098TIP3   OH218299   0.354   1.299   4.274  0.3282  0.0164  0.5964
 6098TIP3    H118300   0.315   1.284   4.361 -2.8945  1.6821 -0.3867
 6098TIP3    H218301   0.414   1.226   4.263 -1.3741 -1.9712  3.0375
 6099TIP3   OH218302   5.276   4.166   0.563 -0.4602 -0.1815  0.1532
 6099TIP3    H118303   5.187   4.163   0.600 -0.8302  0.7711 -0.6152
 6099TIP3    H218304   5.300   4.074   0.552 -0.9746 -0.4659  1.2459
 6100TIP3   OH218305   5.974   1.721   2.687  0.1415 -0.3365  0.0750
 6100TIP3    H118306   6.033   1.646   2.686 -0.3096 -0.6967 -0.4868
 6100TIP3    H218307   5.958   1.740   2.594 -1.2793 -0.7825  0.2037
 6101TIP3   OH218308   6.230   5.187   0.877  0.0264 -0.1610  0.1474
 6101TIP3    H118309   6.325   5.181   0.865 -0.1073 -0.3276 -0.8772
 6101TIP3    H218310   6.204   5.098   0.901 -0.0574 -0.4780 -1.0509
 6102TIP3   OH218311   4.065   3.780   5.083 -0.3314  0.0443 -0.0968
 6102TIP3    H118312   4.137   3.831   5.120  0.4750 -0.5089 -0.8820
 6102TIP3    H218313   3.993   3.793   5.145  0.5080  0.3961  0.8407
 6103TIP3   OH218314   2.224   2.218   4.300 -0.0998  0.7540 -0.2585
 6103TIP3    H118315   2.138   2.250   4.274 -1.1471 -1.5915  0.0275
 6103TIP3    H218316   2.243   2.147   4.238  0.7766  0.0359  0.7849
 6104TIP3   OH218317   2.514   4.399   2.037  0.0756 -0.3816  0.1155
 6104TIP3    H118318   2.492   4.324   2.093 -0.2768 -0.0493  0.4269
 6104TIP3    H218319   2.595   4.373   1.993  0.2621 -0.7169  0.6500
 6105TIP3   OH218320   3.836   1.726   2.027 -0.0171  0.1575 -0.2733
 6105TIP3    H118321   3.844   1.640   1.987 -0.5196  0.3482 -0.7858
 6105TIP3    H218322   3.880   1.717   2.112 -0.2435 -0.6533 -0.2382
 6106TIP3   OH218323   0.216   4.350   4.047  0.3620  0.4469 -0.1663
 6106TIP3    H118324   0.202   4.394   3.963  2.2713  0.4032 -0.5608
 6106TIP3    H218325   0.253   4.418   4.103 -0.1179  0.2630  0.3772
 6107TIP3   OH218326   4.183   3.121   4.281 -0.8557 -0.0476 -0.0506
 6107TIP3    H118327   4.258   3.112   4.222 -0.6440 -0.7526  0.3155
 6107TIP3    H218328   4.154   3.211   4.269  0.9632  0.7090  0.9023
 6108TIP3   OH218329   1.789   1.248   4.310  0.0976 -0.0210  0.5216
 6108TIP3    H118330   1.707   1.293   4.332  0.7003  0.7486  1.3036
 6108TIP3    H218331   1.798   1.257   4.216 -1.2691 -1.1039  0.2598
 6109TIP3   OH218332   2.605   4.180   0.845 -0.0040 -0.2686 -0.6367
 6109TIP3    H118333   2.608   4.260   0.792 -1.5044 -0.0180 -0.3816
 6109TIP3    H218334   2.697   4.160   0.863  0.4415  0.8008 -1.5874
 6110TIP3   OH218335   3.352   5.589   0.206 -0.1112 -0.4829  0.0427
 6110TIP3    H118336   3.413   5.517   0.224  0.3050 -0.1703 -0.0837
 6110TIP3    H218337   3.311   5.566   0.122  2.3954  0.9412 -1.7100
 6111TIP3   OH218338   3.533   1.855   5.176  0.1332  0.2461 -0.1435
 6111TIP3    H118339   3.530   1.786   5.109 -1.4805 -0.0093  0.1392
 6111TIP3    H218340   3.566   1.810   5.254  0.2121  0.0809 -0.2702
 6112TIP3   OH218341   2.271   3.591   1.477  0.1867  0.1103 -0.1667
 6112TIP3    H118342   2.256   3.681   1.451 -1.0047 -0.0659 -0.1281
 6112TIP3    H218343   2.362   3.573   1.452  0.2270  1.1091 -0.7528
 6113TIP3   OH218344   1.591   5.356   2.559  0.2231  0.0868  0.2990
 6113TIP3    H118345   1.591   5.382   2.651 -0.8122  1.6423 -0.0981
 6113TIP3    H218346   1.570   5.262   2.561 -3.0309  0.6936  1.5717
 6114TIP3   OH218347   3.026   0.132   2.460  0.2011  0.0784  0.1466
 6114TIP3    H118348   2.981   0.082   2.528  0.0818 -0.5187 -0.3572
 6114TIP3    H218349   3.078   0.066   2.413  1.9303  0.8035  0.9649
 6115TIP3   OH218350   0.554   1.140   4.208 -0.0644  0.7720 -0.1668
 6115TIP3    H118351   0.597   1.165   4.126  1.7207 -0.9563  0.1597
 6115TIP3    H218352   0.510   1.058   4.188  1.6437 -0.4833  0.8804
 6116TIP3   OH218353   4.477   5.635   3.869 -0.4584  0.0039  0.0151
 6116TIP3    H118354   4.418   5.710   3.858 -0.1112  0.3866  0.7055
 6116TIP3    H218355   4.560   5.674   3.897 -0.1886 -0.6147  0.0794
 6117TIP3   OH218356   1.162   1.405   1.329 -0.2407 -0.0681  0.2681
 6117TIP3    H118357   1.109   1.325   1.332  1.6941 -1.4580 -0.6216
 6117TIP3    H218358   1.102   1.471   1.294 -1.9808 -1.0210  1.2998
 6118TIP3   OH218359   1.691   3.390   2.595  0.1825 -0.5773  0.1270
 6118TIP3    H118360   1.660   3.458   2.536 -1.0787 -1.5332 -0.3646
 6118TIP3    H218361   1.786   3.398   2.593  0.0621  1.3695  0.3578
 6119TIP3   OH218362   5.266   1.231   0.048 -0.0472  0.1039  0.3163
 6119TIP3    H118363   5.350   1.235   0.095  1.2374  0.6555 -1.8854
 6119TIP3    H218364   5.200   1.233   0.117  1.7133  1.4243  2.0644
 6120TIP3   OH218365   5.673   4.685   3.448  0.3767  0.2619  0.0628
 6120TIP3    H118366   5.592   4.667   3.496 -0.4272  1.4878 -0.7472
 6120TIP3    H218367   5.738   4.703   3.517 -0.6198  1.4930  0.7438
 6121TIP3   OH218368   2.915   3.711   3.512 -0.2389  0.7083 -0.3429
 6121TIP3    H118369   2.904   3.617   3.515  0.8382  0.5921  0.7578
 6121TIP3    H218370   2.924   3.731   3.418  0.9756 -0.4758 -0.5026
 6122TIP3   OH218371   5.938   4.640   1.168  0.1992  0.1574  0.1754
 6122TIP3    H118372   5.858   4.647   1.220 -0.5370 -0.9110 -0.7716
 6122TIP3    H218373   5.908   4.616   1.080  1.6122 -1.6415  0.1265
 6123TIP3   OH218374   1.604   3.417   4.474  0.3226  0.0762 -0.1229
 6123TIP3    H118375   1.635   3.487   4.417  1.9790 -0.2282  0.3580
 6123TIP3    H218376   1.615   3.451   4.562  0.3352 -0.4803  0.0958
 6124TIP3   OH218377  -0.005   0.511   4.208  0.2969 -0.3835 -0.5078
 6124TIP3    H118378   0.061   0.444   4.190 -0.6678 -1.1561 -1.3336
 6124TIP3    H218379  -0.015   0.558   4.125  0.6660  0.5194 -0.0479
 6125TIP3   OH218380   4.539   1.028   0.552  0.1542  0.4383 -0.2012
 6125TIP3    H118381   4.617   1.031   0.495 -1.1353  0.0903 -2.0797
 6125TIP3    H218382   4.473   1.077   0.504 -1.0431  0.0147  0.9666
 6126TIP3   OH218383   1.848   5.490   1.231  0.3965 -0.0676 -0.1311
 6126TIP3    H118384   1.757   5.463   1.219  0.4774 -0.7038  0.5882
 6126TIP3    H218385   1.865   5.475   1.324  1.2798 -0.0793 -0.2881
 6127TIP3   OH218386   4.055   3.574   2.543  0.0692  0.3690 -0.0458
 6127TIP3    H118387   4.106   3.549   2.466  0.6811  1.1037  0.1075
 6127TIP3    H218388   3.964   3.573   2.512  0.1851 -0.6742 -0.3963
 6128TIP3   OH218389   4.684   0.708   1.957  0.5327  0.4007  0.4361
 6128TIP3    H118390   4.618   0.696   2.026 -1.5440  1.5259 -1.2387
 6128TIP3    H218391   4.676   0.630   1.903  2.0099 -0.3787  1.2825
 6129TIP3   OH218392   2.771   1.113   2.278 -0.1910  0.4439 -0.0540
 6129TIP3    H118393   2.795   1.101   2.186 -3.6860  2.0405 -1.3428
 6129TIP3    H218394   2.726   1.033   2.302  1.7979 -0.4990  0.7846
 6130TIP3   OH218395   3.639   5.358   3.124  0.0433 -0.8302 -0.5683
 6130TIP3    H118396   3.734   5.359   3.129  0.0188  1.2287  0.6838
 6130TIP3    H218397   3.617   5.426   3.060 -0.6082 -0.2590  0.2447
 6131TIP3   OH218398   4.380   4.661   0.884 -0.1046  0.1228 -0.5393
 6131TIP3    H118399   4.396   4.581   0.934 -1.3391  0.1431 -0.0793
 6131TIP3    H218400   4.431   4.650   0.803  1.0417 -0.3929  0.2203
 6132TIP3   OH218401   5.737   3.693   0.922 -0.0621  0.3089  0.6004
 6132TIP3    H118402   5.672   3.637   0.964 -1.0858  0.8254 -0.2608
 6132TIP3    H218403   5.698   3.717   0.838  2.9162 -2.7092 -1.9400
 6133TIP3   OH218404   5.288   5.309   1.979 -0.6043 -0.6548 -0.8110
 6133TIP3    H118405   5.328   5.362   2.048 -2.1692  2.0200 -1.8205
 6133TIP3    H218406   5.196   5.301   2.005 -0.4733 -2.8302 -0.7893
 6134TIP3   OH218407   0.153   3.669   2.962 -0.4083 -0.1236 -0.2305
 6134TIP3    H118408   0.141   3.741   2.899 -0.8883  0.9800  1.0780
 6134TIP3    H218409   0.145   3.590   2.909 -1.3259  0.7648 -1.4830
 6135TIP3   OH218410   2.179   5.087   1.416 -0.1245 -0.2902 -0.1323
 6135TIP3    H118411   2.187   5.171   1.370 -0.2033 -0.7195 -0.9522
 6135TIP3    H218412   2.219   5.103   1.501  2.0357 -0.0740 -1.1189
 6136TIP3   OH218413   4.453   2.003   3.447  0.5781 -0.4682  0.0122
 6136TIP3    H118414   4.488   2.057   3.518  0.5739 -1.0282  0.4463
 6136TIP3    H218415   4.416   2.066   3.385  2.0214  0.1111 -0.2866
 6137TIP3   OH218416   1.608   0.645   3.362 -0.9037 -0.2673 -0.2017
 6137TIP3    H118417   1.666   0.624   3.436 -1.9514  0.6722  0.9282
 6137TIP3    H218418   1.546   0.573   3.358 -1.1781 -0.0570  0.1973
 6138TIP3   OH218419   4.035   3.973   2.344  0.0747 -1.0332 -0.1295
 6138TIP3    H118420   4.001   3.933   2.264  1.3366 -2.0714 -0.1891
 6138TIP3    H218421   4.117   3.926   2.361 -0.0062 -0.6178  1.5974
 6139TIP3   OH218422   0.152   4.564   0.659  0.2424 -0.3535  0.5995
 6139TIP3    H118423   0.180   4.476   0.636  0.2895  0.1044 -1.2539
 6139TIP3    H218424   0.164   4.615   0.579  1.1312  1.5719  1.8896
 6140TIP3   OH218425   0.837   1.875   4.319 -0.0453 -0.1192 -0.1152
 6140TIP3    H118426   0.887   1.957   4.317  1.3398 -0.9293  0.0917
 6140TIP3    H218427   0.833   1.847   4.228 -0.4198  0.1140 -0.1722
 6141TIP3   OH218428   2.081   0.542   4.182 -0.4475 -0.1129 -0.0870
 6141TIP3    H118429   2.085   0.605   4.110 -0.3086 -0.3658 -0.3042
 6141TIP3    H218430   2.135   0.580   4.251 -0.0413 -0.1822 -0.3656
 6142TIP3   OH218431   0.712   2.687   2.096 -0.2182 -0.3790  0.4178
 6142TIP3    H118432   0.773   2.637   2.043  1.3631  3.0017 -1.2294
 6142TIP3    H218433   0.763   2.714   2.172 -1.3603 -1.9767  1.8358
 6143TIP3   OH218434   4.779   2.412   0.048 -0.5421  0.8139  0.4602
 6143TIP3    H118435   4.786   2.332   0.100  0.8736  0.3555 -0.3758
 6143TIP3    H218436   4.708   2.393  -0.014  0.0144  0.0403  0.0358
 6144TIP3   OH218437   0.295   0.468   3.402  0.4290 -0.2441 -0.2051
 6144TIP3    H118438   0.252   0.472   3.487  0.1028  1.3045 -0.4196
 6144TIP3    H218439   0.366   0.532   3.407  1.6575 -1.5307 -0.4527
 6145TIP3   OH218440   3.844   0.809   4.571 -0.0085  0.8051  0.0511
 6145TIP3    H118441   3.823   0.762   4.490  0.9943 -0.2659  0.4005
 6145TIP3    H218442   3.850   0.741   4.638 -2.0856  1.7866  1.3324
 6146TIP3   OH218443   5.027  -0.010   2.597  0.0833  0.2667  0.4959
 6146TIP3    H118444   5.065   0.073   2.569  0.2603  0.1026  0.2401
 6146TIP3    H218445   4.944  -0.016   2.549 -0.2621  0.6131  1.0351
 6147TIP3   OH218446   0.743   4.134   2.141 -0.0007 -0.1942  0.4104
 6147TIP3    H118447   0.800   4.086   2.081  0.0362 -0.1494  0.4090
 6147TIP3    H218448   0.664   4.081   2.148 -0.3822  0.2583 -0.3999
 6148TIP3   OH218449   4.418   4.541   1.640 -0.3941  0.3787 -0.1218
 6148TIP3    H118450   4.337   4.578   1.675 -0.6537 -0.7204  0.4889
 6148TIP3    H218451   4.446   4.478   1.706  0.1559 -0.3446 -1.0192
 6149TIP3   OH218452   4.415   5.640   2.721 -0.1536 -0.4954 -0.3881
 6149TIP3    H118453   4.435   5.580   2.649 -0.0555 -0.0314 -0.7562
 6149TIP3    H218454   4.474   5.614   2.791  0.2342 -0.5241 -0.7160
 6150TIP3   OH218455   1.166   5.267   4.164  0.2719  0.2572  0.5120
 6150TIP3    H118456   1.211   5.184   4.181 -1.4792 -0.3875  2.4451
 6150TIP3    H218457   1.117   5.253   4.084  1.5270  0.1310 -0.2527
 6151TIP3   OH218458   2.795   3.594   2.026  0.3773  0.2569 -0.3879
 6151TIP3    H118459   2.707   3.573   2.056  1.4454 -0.7650  2.3116
 6151TIP3    H218460   2.793   3.688   2.008 -1.1326  0.3354  0.0881
 6152TIP3   OH218461   0.018   6.003   2.767 -0.2341  0.3068 -0.1234
 6152TIP3    H118462  -0.042   5.931   2.746  0.0392 -0.1266  0.5563
 6152TIP3    H218463   0.103   5.961   2.780 -0.2003  0.6614  0.9107
 6153TIP3   OH218464   0.921   2.608   1.927  0.5561  0.3532 -0.0886
 6153TIP3    H118465   0.971   2.672   1.876 -1.2907  0.8726 -1.3263
 6153TIP3    H218466   0.980   2.533   1.935  1.9164  1.3325 -0.5797
 6154TIP3   OH218467   3.324   0.538   1.162  0.0943  0.0387  0.2363
 6154TIP3    H118468   3.400   0.515   1.216 -0.1333 -0.7710  0.2339
 6154TIP3    H218469   3.277   0.455   1.152 -1.7810  0.8665  1.7717
 6155TIP3   OH218470   4.252   0.995   1.362  0.1547 -0.2585  0.2694
 6155TIP3    H118471   4.284   1.032   1.279  0.6853 -1.2509  0.0236
 6155TIP3    H218472   4.273   1.063   1.427  0.1376  0.3418 -0.3320
 6156TIP3   OH218473   6.273   2.725   4.670  0.2861 -0.4336 -0.2699
 6156TIP3    H118474   6.265   2.746   4.576 -0.2665 -1.3577 -0.4441
 6156TIP3    H218475   6.209   2.782   4.712  0.8754  0.3295 -0.3997
 6157TIP3   OH218476   5.261   5.643   1.940  0.0531  0.2579 -0.4794
 6157TIP3    H118477   5.258   5.566   1.996  3.5346 -0.7906 -1.4779
 6157TIP3    H218478   5.281   5.716   1.999  0.9902 -0.3727  0.0073
 6158TIP3   OH218479   4.355   1.489   1.217  0.3530  0.4113  0.5803
 6158TIP3    H118480   4.344   1.484   1.122  0.4473  1.0506  0.5340
 6158TIP3    H218481   4.448   1.508   1.230 -0.0113  2.2373  0.7271
 6159TIP3   OH218482   0.142   3.784   1.274  0.1428  0.2193  0.3315
 6159TIP3    H118483   0.191   3.787   1.356  1.0622 -0.0012 -0.1892
 6159TIP3    H218484   0.080   3.856   1.280  0.2257  0.2246  1.2021
 6160TIP3   OH218485   2.698   3.022   1.735  0.5772  0.4153 -0.4027
 6160TIP3    H118486   2.649   3.099   1.706  1.5855  1.5006  0.6683
 6160TIP3    H218487   2.786   3.034   1.699  0.7551 -0.2313 -0.2089
 6161TIP3   OH218488   5.768   5.777   3.657 -0.3920  0.2182 -0.1092
 6161TIP3    H118489   5.748   5.786   3.563 -1.2935  0.0973  0.0637
 6161TIP3    H218490   5.709   5.710   3.688  1.5117 -1.4619  0.0883
 6162TIP3   OH218491   4.895   1.332   0.644  0.6745  0.0258 -1.1372
 6162TIP3    H118492   4.834   1.404   0.629  0.1538 -0.5579 -1.8952
 6162TIP3    H218493   4.909   1.294   0.558  2.2216  0.2186 -0.9989
 6163TIP3   OH218494   4.448   0.008   2.926 -0.4295  0.3924  0.5866
 6163TIP3    H118495   4.541  -0.016   2.928 -0.2247  1.2419  2.3925
 6163TIP3    H218496   4.434   0.039   2.836  1.0615  0.3973  0.3284
 6164TIP3   OH218497   3.277   4.975   0.726 -0.8119 -0.1216 -0.5518
 6164TIP3    H118498   3.288   4.965   0.820 -0.7659 -2.3149 -0.7242
 6164TIP3    H218499   3.227   5.056   0.715 -1.4695 -0.2216  1.4068
 6165TIP3   OH218500   3.486   2.989   0.839  0.3337  0.1344 -0.3230
 6165TIP3    H118501   3.393   2.979   0.856  0.0214 -0.1694 -2.0354
 6165TIP3    H218502   3.507   2.921   0.775  1.5185  0.7820 -0.6608
 6166TIP3   OH218503   5.249   2.962   4.647  1.0635  0.1503  0.5493
 6166TIP3    H118504   5.319   2.903   4.676 -0.1879 -2.0516 -0.6097
 6166TIP3    H218505   5.169   2.912   4.660 -0.1655  1.9564  0.2639
 6167TIP3   OH218506   1.325   4.309   1.968 -0.0085  0.8475  0.0254
 6167TIP3    H118507   1.317   4.354   1.884 -0.4572 -1.3930 -1.1872
 6167TIP3    H218508   1.236   4.280   1.988  0.8231 -3.2697 -1.4735
 6168TIP3   OH218509   3.540   1.103   2.069  0.1072  0.2621  0.0229
 6168TIP3    H118510   3.512   1.030   2.124  0.0406  0.5910  0.4275
 6168TIP3    H218511   3.573   1.168   2.130 -0.9504  1.0755 -0.2468
 6169TIP3   OH218512   6.144   5.444   3.669  0.0594  0.0420  0.5110
 6169TIP3    H118513   6.209   5.476   3.607  1.0356  0.4434  1.6986
 6169TIP3    H218514   6.183   5.364   3.705 -1.3280 -1.2588 -0.7248
 6170TIP3   OH218515   5.627   5.611   2.246 -0.0679 -0.4038 -0.2693
 6170TIP3    H118516   5.701   5.577   2.196  0.0451  0.6523 -0.8611
 6170TIP3    H218517   5.635   5.706   2.239 -0.8046 -0.2537  0.6724
 6171TIP3   OH218518   0.014   2.028   2.631  0.1309  0.0063  0.2871
 6171TIP3    H118519   0.079   2.071   2.686  0.0073  2.0194 -1.0262
 6171TIP3    H218520   0.065   1.971   2.574  0.2818 -1.8716  2.1842
 6172TIP3   OH218521   1.729   0.663   5.131 -0.1798 -0.4601  0.2954
 6172TIP3    H118522   1.776   0.612   5.197  0.6381  1.1027  0.9689
 6172TIP3    H218523   1.755   0.624   5.048  0.3036 -1.2311  0.7899
 6173TIP3   OH218524   0.749   1.179   4.775  0.6264 -0.2282  0.2609
 6173TIP3    H118525   0.760   1.095   4.819  0.6869 -0.1672  0.3619
 6173TIP3    H218526   0.795   1.169   4.692  0.9049 -0.1896  0.4091
 6174TIP3   OH218527   5.026   3.710   2.917 -0.6506  0.4319  0.1414
 6174TIP3    H118528   5.116   3.741   2.910 -0.3528 -0.3481  0.4155
 6174TIP3    H218529   5.003   3.683   2.829  0.2572 -1.6867  0.5025
 6175TIP3   OH218530   4.002   3.975   0.349 -0.2340  0.2910  0.0114
 6175TIP3    H118531   3.956   3.991   0.266 -1.1178 -0.0602  0.4204
 6175TIP3    H218532   3.957   4.031   0.412 -0.3771 -0.3581  0.5019
 6176TIP3   OH218533   1.993   4.103   3.385 -0.4012  0.1164  0.5583
 6176TIP3    H118534   2.009   4.015   3.351 -0.6548  0.6297 -0.9363
 6176TIP3    H218535   1.971   4.089   3.477  0.0293 -1.3357  0.4699
 6177TIP3   OH218536   2.325   4.582   2.102 -0.2108 -0.2174 -0.3395
 6177TIP3    H118537   2.397   4.522   2.085  0.3661  1.2264 -4.0035
 6177TIP3    H218538   2.363   4.649   2.159  0.0720 -1.5556  1.1123
 6178TIP3   OH218539   4.417   4.078   2.218  0.1807 -0.5886 -0.0142
 6178TIP3    H118540   4.377   4.032   2.292  1.1527  0.7457  1.4178
 6178TIP3    H218541   4.509   4.052   2.220  0.6311  0.9505  0.4980
 6179TIP3   OH218542   1.164   0.502   3.764 -0.0323 -0.0641 -0.2018
 6179TIP3    H118543   1.194   0.415   3.789  0.8188  0.1736 -0.3650
 6179TIP3    H218544   1.181   0.556   3.841  0.1281  0.1151 -0.3632
 6180TIP3   OH218545   4.431   0.826   3.504 -0.3123 -0.3374  0.2366
 6180TIP3    H118546   4.356   0.807   3.560 -0.9040  0.2552 -0.3393
 6180TIP3    H218547   4.404   0.901   3.452 -0.5156 -2.0450 -2.2651
 6181TIP3   OH218548   0.896   5.473   2.402  0.2499 -0.4791 -0.3249
 6181TIP3    H118549   0.847   5.414   2.459 -0.8338  1.8771  1.3579
 6181TIP3    H218550   0.846   5.478   2.321 -0.0531 -1.2423 -0.1851
 6182TIP3   OH218551   5.935   3.994   3.480  0.1129  0.0644 -0.6060
 6182TIP3    H118552   5.979   3.910   3.467  0.5644  0.4114 -1.3773
 6182TIP3    H218553   5.945   4.039   3.397  1.6548  1.7209  0.4147
 6183TIP3   OH218554   2.450   1.181   3.398 -0.1140  0.0638  0.1593
 6183TIP3    H118555   2.484   1.105   3.351  0.5167  0.2339  0.3331
 6183TIP3    H218556   2.394   1.225   3.334  1.2700  0.6616 -0.6817
 6184TIP3   OH218557   6.295   5.236   5.152  0.3920 -0.1785 -0.0576
 6184TIP3    H118558   6.284   5.258   5.059  2.2607  0.0911 -0.2345
 6184TIP3    H218559   6.294   5.321   5.197  1.1458 -0.1916 -0.0164
 6185TIP3   OH218560   0.850   3.491   4.135  0.5350  0.2790  0.5637
 6185TIP3    H118561   0.768   3.523   4.173  0.0375  1.6367 -1.4918
 6185TIP3    H218562   0.828   3.405   4.100 -0.6131  1.3916 -1.6322
 6186TIP3   OH218563   4.013   4.280   3.890 -0.1725 -0.1254  0.1788
 6186TIP3    H118564   4.072   4.271   3.815 -1.0414  0.5938 -0.6240
 6186TIP3    H218565   4.037   4.209   3.949  2.2383  0.7818  0.4078
 6187TIP3   OH218566   4.918   4.845   1.962  0.8011 -0.0394  0.8461
 6187TIP3    H118567   5.005   4.835   1.923  0.0408  0.6760 -1.1529
 6187TIP3    H218568   4.899   4.938   1.954 -1.4781 -0.6057 -1.9146
 6188TIP3   OH218569   3.991   1.596   3.808  0.1337 -0.3543 -0.2883
 6188TIP3    H118570   4.019   1.523   3.863 -0.9385  0.7404  1.8240
 6188TIP3    H218571   4.073   1.637   3.780  0.7231 -0.7441  0.7989
 6189TIP3   OH218572   5.769   5.299   2.629  0.2606 -0.2178  0.0492
 6189TIP3    H118573   5.768   5.224   2.570  0.3591 -0.1565 -0.0300
 6189TIP3    H218574   5.704   5.359   2.593 -0.2622 -0.5285  0.4562
 6190TIP3   OH218575   4.107   1.363   3.887  0.4858 -0.7990 -0.5690
 6190TIP3    H118576   4.131   1.327   3.801  0.6531 -2.8716  0.2931
 6190TIP3    H218577   4.164   1.318   3.949 -1.0236 -0.8651  0.8475
 6191TIP3   OH218578   3.005   5.140   4.962 -0.0580  0.3606 -0.2547
 6191TIP3    H118579   2.982   5.062   4.911  1.1471  1.0095 -1.8754
 6191TIP3    H218580   3.021   5.208   4.897 -0.7136  1.8938  1.1070
 6192TIP3   OH218581   1.909   0.994   4.946 -0.1212  0.2049  0.0699
 6192TIP3    H118582   1.873   1.062   5.004  0.0800  0.8297 -0.5303
 6192TIP3    H218583   1.953   0.934   5.005  0.0288  0.8042  0.5790
 6193TIP3   OH218584   1.150   1.731   4.248  0.2470 -0.2621 -0.0881
 6193TIP3    H118585   1.131   1.668   4.178  0.3519  1.0575 -1.3522
 6193TIP3    H218586   1.221   1.785   4.213 -0.8515  1.5307  0.3146
 6194TIP3   OH218587   1.824   2.112   3.319  0.0679 -0.1833 -0.1548
 6194TIP3    H118588   1.803   2.190   3.268  0.8804  0.2287  0.1142
 6194TIP3    H218589   1.910   2.131   3.356  0.3531 -1.2796 -0.2219
 6195TIP3   OH218590   2.471   1.201   4.039 -0.3236  0.1475 -0.4724
 6195TIP3    H118591   2.419   1.211   3.959 -0.9537  0.2549 -0.0574
 6195TIP3    H218592   2.525   1.281   4.042  0.1414 -0.1376 -1.0972
 6196TIP3   OH218593   1.528   1.240   3.030 -0.3863  0.1034  0.6870
 6196TIP3    H118594   1.463   1.280   3.088 -2.3393 -0.5606 -0.9057
 6196TIP3    H218595   1.478   1.217   2.951  1.7460 -0.7502 -0.4932
 6197TIP3   OH218596   6.289   0.849   0.686  0.2057 -0.3961  0.0341
 6197TIP3    H118597   6.279   0.786   0.615  0.2165  0.1244 -0.4310
 6197TIP3    H218598   6.316   0.796   0.761 -1.3721 -1.1763  0.0818
 6198TIP3   OH218599   3.063   1.905   0.964 -0.0105 -0.8399  0.1819
 6198TIP3    H118600   3.155   1.896   0.990 -0.3116 -1.0195  1.2194
 6198TIP3    H218601   3.014   1.883   1.042 -0.9298  1.0375  0.1965
 6199TIP3   OH218602   5.182   3.557   3.327  0.6241 -0.5723 -0.0679
 6199TIP3    H118603   5.219   3.527   3.410 -0.5549 -1.7500  0.0710
 6199TIP3    H218604   5.221   3.643   3.313 -1.5225  1.2150  3.3726
 6200TIP3   OH218605   1.860   0.412   2.412  0.2956 -0.4043 -0.2703
 6200TIP3    H118606   1.809   0.331   2.407 -0.5445  0.1473 -0.6704
 6200TIP3    H218607   1.873   0.438   2.321  0.8842 -0.2701 -0.1573
 6201TIP3   OH218608   2.934   2.745   4.370  0.7656  0.2144  0.0047
 6201TIP3    H118609   2.992   2.751   4.294  1.2035 -2.2531  0.0549
 6201TIP3    H218610   2.988   2.776   4.443  1.0519  0.5836 -0.3524
 6202TIP3   OH218611   2.515   3.381   2.447 -0.2116  0.2047  0.0753
 6202TIP3    H118612   2.453   3.451   2.467  0.1871  0.1405  1.6176
 6202TIP3    H218613   2.500   3.316   2.515 -0.7563 -1.3706 -1.4693
 6203TIP3   OH218614   5.862   0.252   0.380  0.0102 -0.0446  0.5180
 6203TIP3    H118615   5.869   0.193   0.455  1.3848  0.1454  0.5700
 6203TIP3    H218616   5.926   0.220   0.317  1.6577  1.9961  1.0231
 6204TIP3   OH218617   1.475   2.545   0.050 -0.0801  0.5819  0.0380
 6204TIP3    H118618   1.510   2.457   0.037 -0.6835  0.1915  0.9740
 6204TIP3    H218619   1.515   2.597  -0.020  2.8220  0.3009  1.3447
 6205TIP3   OH218620   5.340   4.030   3.094 -0.2406  0.3558 -0.0532
 6205TIP3    H118621   5.392   4.111   3.095  1.1000 -0.4733  0.3620
 6205TIP3    H218622   5.318   4.018   3.001  0.6262  0.5620 -0.3033
 6206TIP3   OH218623   0.229   3.687   1.547  0.2921  0.1594  0.1051
 6206TIP3    H118624   0.289   3.736   1.604  0.1579  2.4476 -1.5405
 6206TIP3    H218625   0.285   3.646   1.482  0.2381  1.1439 -0.6017
 6207TIP3   OH218626   2.320   5.032   3.292 -0.5851  0.5295  0.2337
 6207TIP3    H118627   2.375   4.959   3.262 -1.9358 -0.1708 -0.6224
 6207TIP3    H218628   2.372   5.074   3.361  1.1994  0.1544 -0.8036
 6208TIP3   OH218629   6.109   0.215   2.529  0.0636  0.9443  0.4256
 6208TIP3    H118630   6.183   0.161   2.502 -0.1283  0.7178  0.3514
 6208TIP3    H218631   6.132   0.303   2.501  0.7682  1.0583  1.3045
 6209TIP3   OH218632   6.208   4.242   2.421  0.4031 -0.0789  0.1006
 6209TIP3    H118633   6.117   4.264   2.402 -0.1826 -1.3337  1.2650
 6209TIP3    H218634   6.229   4.290   2.501  0.1095 -1.2824  0.9248
 6210TIP3   OH218635   1.530   4.680   0.310 -1.0474  0.0161 -0.6072
 6210TIP3    H118636   1.573   4.683   0.224 -0.0213 -0.6134 -0.1296
 6210TIP3    H218637   1.447   4.636   0.293 -0.6787 -0.4622 -1.2136
 6211TIP3   OH218638   2.744   0.591   4.057  0.2441  0.4328 -0.2809
 6211TIP3    H118639   2.792   0.629   4.131 -3.2990  0.7798  2.0982
 6211TIP3    H218640   2.713   0.667   4.008 -2.2234  0.5790  1.3295
 6212TIP3   OH218641   1.888   1.629   0.275  0.3520  1.2632 -0.5486
 6212TIP3    H118642   1.843   1.565   0.330  0.9725  0.2926 -1.1400
 6212TIP3    H218643   1.896   1.707   0.331 -0.9094  1.0347 -0.0105
 6213TIP3   OH218644   1.197   3.448   3.954  0.5090 -0.2905  0.3492
 6213TIP3    H118645   1.125   3.503   3.922 -1.2109 -2.0619  0.9937
 6213TIP3    H218646   1.160   3.400   4.028  2.0761 -1.9850  0.1155
 6214TIP3   OH218647   2.790   1.325   3.198 -0.1253 -0.2520  0.2456
 6214TIP3    H118648   2.765   1.414   3.174  0.9061 -0.3510 -1.3534
 6214TIP3    H218649   2.789   1.276   3.116 -2.7904 -2.3346  1.3487
 6215TIP3   OH218650   5.183   3.371   4.232 -0.4241 -0.0784 -0.3172
 6215TIP3    H118651   5.127   3.296   4.211 -1.4484  1.1557 -2.2865
 6215TIP3    H218652   5.201   3.412   4.147 -0.9404  2.6126  0.7914
 6216TIP3   OH218653   6.008   3.362   0.176 -0.6479 -0.3554  0.1831
 6216TIP3    H118654   6.012   3.285   0.119 -1.0304 -1.2295  1.3239
 6216TIP3    H218655   6.059   3.428   0.129  0.4534 -1.5675 -0.3997
 6217TIP3   OH218656   3.320   2.950   4.709 -0.0628  0.7063  0.2270
 6217TIP3    H118657   3.408   2.946   4.672  0.3174  2.3654  0.8348
 6217TIP3    H218658   3.327   2.908   4.794 -0.3599 -0.9419 -0.5335
 6218TIP3   OH218659   2.645   2.008   1.537 -0.6316  0.4620 -0.2348
 6218TIP3    H118660   2.621   1.968   1.621  0.8398 -0.1334 -0.0638
 6218TIP3    H218661   2.584   1.970   1.474 -0.7586 -0.2827  0.3259
 6219TIP3   OH218662   3.571   3.291   0.718  0.1584 -0.1979  0.7855
 6219TIP3    H118663   3.494   3.236   0.725 -0.1157  0.2165  1.0663
 6219TIP3    H218664   3.637   3.248   0.773  0.0855 -0.4790  0.6513
 6220TIP3   OH218665   5.561   3.706   1.595  0.3225 -0.2412  0.2348
 6220TIP3    H118666   5.638   3.746   1.634  1.9312 -2.2655 -0.7159
 6220TIP3    H218667   5.510   3.674   1.670  2.0797 -1.7663  0.8572
 6221TIP3   OH218668   2.850   1.901   0.035 -0.2397  0.0046 -0.2317
 6221TIP3    H118669   2.838   1.859   0.120 -0.0353 -0.9682 -0.6743
 6221TIP3    H218670   2.781   1.863  -0.020  0.8573 -0.8802 -1.0453
 6222TIP3   OH218671   6.253   5.783   0.958 -0.0801 -0.7289 -0.2790
 6222TIP3    H118672   6.299   5.699   0.954  1.7586  0.1306  1.2419
 6222TIP3    H218673   6.197   5.776   1.035 -0.6755 -0.8783 -0.7135
 6223TIP3   OH218674   5.251   1.680   4.005  0.0499 -0.2750 -0.1522
 6223TIP3    H118675   5.273   1.757   3.953 -1.1455 -0.0558 -0.3480
 6223TIP3    H218676   5.336   1.647   4.035  0.8962 -1.0147 -3.0876
 6224TIP3   OH218677   3.896   1.219   3.168 -0.2951  0.3620 -0.1504
 6224TIP3    H118678   3.839   1.216   3.245  0.7224 -0.4413  0.6062
 6224TIP3    H218679   3.958   1.290   3.186 -0.8880  1.0773 -0.8617
 6225TIP3   OH218680   5.740   0.385   4.433 -0.0429  0.0588  0.0702
 6225TIP3    H118681   5.704   0.425   4.354  0.9212 -1.4510 -1.1907
 6225TIP3    H218682   5.762   0.459   4.489 -1.9409  1.1206 -0.4990
 6226TIP3   OH218683   0.967   3.616   1.908 -0.0524 -0.0323  0.6123
 6226TIP3    H118684   1.038   3.564   1.871  0.6083  1.4487 -0.2858
 6226TIP3    H218685   1.002   3.648   1.991 -0.0636 -0.1544  0.6642
 6227TIP3   OH218686   0.266   4.419   1.549 -0.2075  0.3519 -0.3946
 6227TIP3    H118687   0.302   4.356   1.486  0.7007 -0.0231  0.4553
 6227TIP3    H218688   0.276   4.375   1.634  1.2737  1.9692  0.3265
 6228TIP3   OH218689   5.755   4.061   2.202 -0.5434 -0.2741  0.2597
 6228TIP3    H118690   5.826   3.997   2.202  0.2316  0.5079 -1.6525
 6228TIP3    H218691   5.776   4.120   2.275 -1.6117 -2.4432  2.4580
 6229TIP3   OH218692   2.296   1.906   0.189  0.1851 -0.0964  0.3941
 6229TIP3    H118693   2.301   1.991   0.144  0.8529 -0.5524 -0.4201
 6229TIP3    H218694   2.282   1.842   0.119  2.8523 -1.0030  0.5503
 6230TIP3   OH218695   5.405   0.832   3.585  0.0561  0.6175  0.0461
 6230TIP3    H118696   5.356   0.904   3.545  0.4650  1.7369  1.4676
 6230TIP3    H218697   5.355   0.754   3.564  0.0983  1.1539 -2.3562
 6231TIP3   OH218698   3.688   1.768   1.121 -0.3009 -0.2003 -0.0831
 6231TIP3    H118699   3.647   1.843   1.079  0.1710 -0.2025 -0.5533
 6231TIP3    H218700   3.775   1.799   1.147 -0.4592 -0.2978  0.5981
 6232TIP3   OH218701   4.297   3.804   1.040 -0.2787  0.3032 -0.2869
 6232TIP3    H118702   4.316   3.711   1.053  3.2962  0.8150 -0.8636
 6232TIP3    H218703   4.301   3.841   1.128  0.0366  0.1614 -0.2397
 6233TIP3   OH218704   1.414   0.149   1.164 -0.4059 -0.6588 -0.5051
 6233TIP3    H118705   1.430   0.067   1.116 -0.4083 -0.3938 -0.9643
 6233TIP3    H218706   1.468   0.214   1.118 -1.2494 -0.1693 -0.8306
 6234TIP3   OH218707   2.430   5.859   3.734  0.0686 -0.0987 -0.7068
 6234TIP3    H118708   2.367   5.888   3.668 -0.0160  0.4634 -0.3856
 6234TIP3    H218709   2.400   5.900   3.815 -0.6235 -1.8352 -0.0271
 6235TIP3   OH218710   5.164   0.331   0.882 -0.1258  0.0974 -0.1649
 6235TIP3    H118711   5.129   0.252   0.922  0.3655 -0.4964 -0.8721
 6235TIP3    H218712   5.257   0.331   0.904 -0.2160  0.7453  0.2475
 6236TIP3   OH218713   5.874   4.884   1.800 -0.0983  0.2076  0.7810
 6236TIP3    H118714   5.784   4.859   1.821  0.0778 -0.8383  0.3583
 6236TIP3    H218715   5.928   4.828   1.856  0.3010  1.8129  2.0834
 6237TIP3   OH218716   3.401   1.744   2.516 -0.2652  0.5849 -0.1495
 6237TIP3    H118717   3.338   1.677   2.542 -0.1647 -0.0294 -1.4261
 6237TIP3    H218718   3.466   1.744   2.587  0.4489 -1.6352 -0.7017
 6238TIP3   OH218719   3.028   5.580   0.622 -0.5817 -0.5888 -0.1947
 6238TIP3    H118720   3.034   5.484   0.622  0.6822 -0.5498 -2.1351
 6238TIP3    H218721   3.094   5.609   0.560 -2.0519  1.4824 -0.9039
 6239TIP3   OH218722   2.463   2.134   2.110  0.2877  0.5326  0.2771
 6239TIP3    H118723   2.391   2.071   2.103  1.5816 -0.8616 -1.3291
 6239TIP3    H218724   2.468   2.154   2.204 -2.0924  0.6256  0.4425
 6240TIP3   OH218725   1.729   5.130   5.050  0.5843 -0.0746 -0.3671
 6240TIP3    H118726   1.646   5.086   5.028  0.2772  0.1107  0.3841
 6240TIP3    H218727   1.732   5.205   4.992 -0.4732  0.7062  0.5439
 6241TIP3   OH218728   2.301   0.067   2.041  0.3577  0.0526 -0.0180
 6241TIP3    H118729   2.282   0.128   2.113  3.0397  0.1055  0.7699
 6241TIP3    H218730   2.262  -0.016   2.069 -0.4893  0.6021  0.4695
 6242TIP3   OH218731   2.093   5.936   3.021  0.3092  0.6489  0.2098
 6242TIP3    H118732   2.090   6.032   3.019  2.4311  0.7917  1.1356
 6242TIP3    H218733   2.181   5.914   2.990 -0.7680 -1.1444 -1.8663
 6243TIP3   OH218734   5.513   1.397   4.707  1.0660 -1.0594 -0.2198
 6243TIP3    H118735   5.590   1.379   4.654  2.0509  1.4691  0.1649
 6243TIP3    H218736   5.548   1.408   4.796  0.5256  1.2648 -0.2241
 6244TIP3   OH218737   0.003   4.501   4.403  0.2392  0.0872  0.0399
 6244TIP3    H118738  -0.028   4.536   4.487  1.0660 -0.1012  0.4384
 6244TIP3    H218739   0.056   4.571   4.365 -2.1118  1.1207 -1.5195
 6245TIP3   OH218740   4.684   5.210   3.247 -0.0344 -0.2142  0.1462
 6245TIP3    H118741   4.636   5.130   3.227 -0.0552 -0.7262  2.0107
 6245TIP3    H218742   4.640   5.245   3.325  1.2822  0.4500  0.6161
 6246TIP3   OH218743   6.198   0.105   2.070 -0.2772  0.1400  0.3120
 6246TIP3    H118744   6.174   0.064   2.153 -1.2354 -1.0061 -0.5088
 6246TIP3    H218745   6.291   0.085   2.059 -0.5409 -1.1455  0.3146
 6247TIP3   OH218746   5.832   0.029   4.740  0.4619  0.6702 -0.0084
 6247TIP3    H118747   5.786   0.083   4.804  0.6382  0.3758  0.3774
 6247TIP3    H218748   5.830   0.080   4.659 -0.5652  0.6466 -0.0128
 6248TIP3   OH218749   5.338   5.908   2.047 -0.0162  0.2892 -0.0869
 6248TIP3    H118750   5.425   5.876   2.023  0.3457  0.5101  0.8711
 6248TIP3    H218751   5.337   5.999   2.018  0.5697  0.6781  1.0527
 6249TIP3   OH218752   2.717   3.973   4.532 -0.0437 -0.4514 -0.1889
 6249TIP3    H118753   2.663   3.902   4.567 -1.4358  0.0977 -1.1172
 6249TIP3    H218754   2.658   4.048   4.530  0.7275  0.1500 -1.3224
 6250TIP3   OH218755   2.402   4.934   0.547  0.5414  0.7827 -0.3272
 6250TIP3    H118756   2.344   4.923   0.472  2.5236  0.5134 -1.9070
 6250TIP3    H218757   2.488   4.950   0.508  1.8439 -0.4431  1.8664
 6251TIP3   OH218758   5.774   2.679   0.134 -0.1743  0.2040 -0.0819
 6251TIP3    H118759   5.844   2.621   0.164 -0.0129  0.4799  0.0842
 6251TIP3    H218760   5.819   2.744   0.080 -0.0290  1.3686  1.3562
 6252TIP3   OH218761   5.960   3.152   4.013  0.3971  0.1857  0.4322
 6252TIP3    H118762   5.996   3.167   3.925  0.6434 -1.1891  0.2773
 6252TIP3    H218763   5.875   3.194   4.012  0.9273  1.2828 -0.0408
 6253TIP3   OH218764   0.157   4.887   2.332 -0.0210 -0.0907  0.5000
 6253TIP3    H118765   0.242   4.876   2.289 -0.6460  1.5954 -1.3149
 6253TIP3    H218766   0.177   4.936   2.412  0.6649  0.8796 -0.2448
 6254TIP3   OH218767   5.525   3.419   5.195 -0.3221  0.0250 -0.1690
 6254TIP3    H118768   5.467   3.386   5.127  0.7563  0.2440 -1.2169
 6254TIP3    H218769   5.613   3.405   5.161  0.2265  2.7318 -0.1053
 6255TIP3   OH218770   1.703   0.664   2.308 -0.2564 -0.1925 -0.3297
 6255TIP3    H118771   1.767   0.595   2.292  0.2665  0.1328  0.3105
 6255TIP3    H218772   1.706   0.679   2.403  1.4255  2.3619 -0.6670
 6256TIP3   OH218773   4.084   3.715   0.432 -0.1642  0.1207 -0.2215
 6256TIP3    H118774   4.028   3.779   0.389 -0.3554  0.3734  0.4016
 6256TIP3    H218775   4.132   3.764   0.499  1.5590  0.1208 -1.3851
 6257TIP3   OH218776   5.460   0.485   2.945  0.2518 -0.2275 -0.3432
 6257TIP3    H118777   5.444   0.575   2.916  0.1658 -0.5961 -1.4698
 6257TIP3    H218778   5.375   0.455   2.976  0.3484  0.1736  0.3430
 6258TIP3   OH218779   2.347   4.135   1.376  0.5405  0.1031  0.8027
 6258TIP3    H118780   2.288   4.061   1.393  0.1167  0.3120  0.2583
 6258TIP3    H218781   2.312   4.206   1.431  0.3185  0.2106  0.5226
 6259TIP3   OH218782   0.418   2.188   2.831  0.2286 -0.1422 -0.1910
 6259TIP3    H118783   0.434   2.175   2.925 -1.7627 -2.2400 -0.0334
 6259TIP3    H218784   0.370   2.271   2.826  3.8116  2.1733  0.0735
 6260TIP3   OH218785   4.193   5.466   2.911  0.7707 -0.0784  0.1256
 6260TIP3    H118786   4.249   5.523   2.962  0.8317 -0.3174  0.3270
 6260TIP3    H218787   4.247   5.389   2.892  1.2070  0.5796 -1.4497
 6261TIP3   OH218788   5.111   4.059   4.854  0.2978  0.0315 -0.9445
 6261TIP3    H118789   5.124   3.974   4.896 -1.2750  0.6975  1.0902
 6261TIP3    H218790   5.169   4.118   4.902  0.3884  0.3427 -1.4396
 6262TIP3   OH218791   5.254   1.044   3.042  0.0322  0.5619 -0.0038
 6262TIP3    H118792   5.348   1.026   3.047 -0.2489 -0.8028  0.6500
 6262TIP3    H218793   5.217   0.968   2.997 -1.1111 -0.3062  2.2677
 6263TIP3   OH218794   1.822   2.391   5.035 -0.6804 -0.4684  0.1236
 6263TIP3    H118795   1.885   2.336   4.989  0.6018  0.4284  0.7471
 6263TIP3    H218796   1.827   2.362   5.126 -0.5478  0.1699  0.3228
 6264TIP3   OH218797   3.718   3.460   3.465 -0.2250  0.2289 -0.4239
 6264TIP3    H118798   3.790   3.458   3.528  0.2313  0.4720 -0.9206
 6264TIP3    H218799   3.762   3.468   3.380 -0.8314  0.0311 -0.7589
 6265TIP3   OH218800   2.286   0.567   3.816  0.5804 -0.3880  0.2556
 6265TIP3    H118801   2.238   0.484   3.812  0.1122 -0.0944 -0.2250
 6265TIP3    H218802   2.247   0.614   3.890  0.2820 -0.2492  0.0121
 6266TIP3   OH218803   5.682   1.300   4.504  0.4051 -0.1649 -0.1614
 6266TIP3    H118804   5.777   1.290   4.516  0.9447  1.7171 -2.2037
 6266TIP3    H218805   5.669   1.289   4.409 -1.7564 -2.3855  0.2872
 6267TIP3   OH218806   3.594   4.139   4.363 -0.0013  0.4043  0.6022
 6267TIP3    H118807   3.516   4.195   4.365 -0.4676 -0.2552  1.7625
 6267TIP3    H218808   3.654   4.184   4.304 -0.3060  2.2243  1.6097
 6268TIP3   OH218809   5.629   0.919   1.955 -0.3446  0.2125  0.0568
 6268TIP3    H118810   5.707   0.865   1.966  0.0804  0.9240  0.6394
 6268TIP3    H218811   5.573   0.869   1.896  0.9842  0.1508 -1.2131
 6269TIP3   OH218812   4.760   2.770   3.481  0.2312 -0.0180  0.0954
 6269TIP3    H118813   4.670   2.741   3.494  0.0208  0.9490  0.9673
 6269TIP3    H218814   4.805   2.746   3.562  0.7863 -0.5403 -0.3521
 6270TIP3   OH218815   0.590   3.486   4.254  0.3162  0.1608 -0.7831
 6270TIP3    H118816   0.523   3.462   4.191  0.3944 -0.5068 -0.6187
 6270TIP3    H218817   0.542   3.523   4.328  0.2006  0.5948 -1.0724
 6271TIP3   OH218818   4.857   1.203   5.109  0.4212  0.0430  0.3847
 6271TIP3    H118819   4.773   1.241   5.136  1.4971  2.6488  0.3739
 6271TIP3    H218820   4.841   1.109   5.106 -2.5783  0.4627  0.0611
 6272TIP3   OH218821   5.529   5.171   3.755  0.2227 -0.4651 -0.5470
 6272TIP3    H118822   5.538   5.078   3.732 -0.0262 -0.6083 -0.0734
 6272TIP3    H218823   5.452   5.175   3.811  0.0312  0.0856 -0.8370
 6273TIP3   OH218824   1.885   4.227   0.056  0.3243 -0.4301 -0.6150
 6273TIP3    H118825   1.806   4.174   0.063 -0.0150 -0.0657 -1.5673
 6273TIP3    H218826   1.940   4.181  -0.007  0.5168 -0.2390 -0.5884
 6274TIP3   OH218827   5.537   5.591   0.184 -0.3869  0.0015  0.1016
 6274TIP3    H118828   5.605   5.653   0.212  0.2142 -0.0654 -1.1340
 6274TIP3    H218829   5.462   5.646   0.160 -0.4838  0.1287  0.6832
 6275TIP3   OH218830   3.920   5.590   0.702  0.5302 -0.2412  0.2132
 6275TIP3    H118831   3.980   5.665   0.698  0.3656  0.0948  2.5631
 6275TIP3    H218832   3.974   5.517   0.731  0.3466 -0.6622 -0.4724
 6276TIP3   OH218833   3.198   4.792   1.319 -0.1635  0.4337  0.0858
 6276TIP3    H118834   3.287   4.796   1.284 -0.0952 -1.5246 -0.1118
 6276TIP3    H218835   3.144   4.837   1.254  0.3633 -0.6354 -1.1361
 6277TIP3   OH218836   4.787   1.754   2.450 -0.6537  0.5867  0.3172
 6277TIP3    H118837   4.804   1.816   2.520  0.7817  1.1907 -0.5309
 6277TIP3    H218838   4.738   1.804   2.384  0.1149  0.7076 -0.1716
 6278TIP3   OH218839   0.400   2.007   2.588 -0.3812 -0.3358 -0.0660
 6278TIP3    H118840   0.418   1.925   2.540 -2.0713 -1.5363  1.2308
 6278TIP3    H218841   0.435   1.991   2.675 -0.0843  0.6328 -0.0017
 6279TIP3   OH218842   2.127   3.377   1.949 -0.1797 -0.5800 -1.0381
 6279TIP3    H118843   2.051   3.435   1.941  0.4744  0.1456 -2.3781
 6279TIP3    H218844   2.109   3.305   1.888 -0.3032 -0.9953 -0.5119
 6280TIP3   OH218845   1.399   4.906   3.042  0.4742  0.0325  0.1274
 6280TIP3    H118846   1.452   4.877   2.968 -0.9852 -0.7562 -0.6589
 6280TIP3    H218847   1.404   5.001   3.040  0.2058  0.0290 -1.1879
 6281TIP3   OH218848   2.251   3.367   4.413 -0.2857 -0.4316  0.4288
 6281TIP3    H118849   2.258   3.370   4.317 -2.8154  0.3025  0.2061
 6281TIP3    H218850   2.306   3.439   4.443 -0.8268  0.4238 -0.5852
 6282TIP3   OH218851   3.611   3.774   2.253 -0.3341  0.7437 -0.2767
 6282TIP3    H118852   3.587   3.862   2.282 -2.2111  0.1865  0.0177
 6282TIP3    H218853   3.550   3.756   2.181 -0.1117 -0.3951 -0.1895
 6283TIP3   OH218854   0.045   4.381   5.156  0.3230  0.0133  0.3145
 6283TIP3    H118855  -0.029   4.367   5.096 -2.2261  1.8696  2.7489
 6283TIP3    H218856   0.054   4.297   5.202 -0.5216 -0.1490  0.2169
 6284TIP3   OH218857   2.973   5.111   2.229  0.3635  0.4259 -0.2866
 6284TIP3    H118858   3.018   5.190   2.200 -0.9505  1.2092 -0.3114
 6284TIP3    H218859   2.930   5.077   2.151  2.2468 -1.3074 -0.6507
 6285TIP3   OH218860   1.640   2.323   0.076  0.0369 -0.4781  0.2452
 6285TIP3    H118861   1.661   2.273  -0.002 -0.7066 -0.9867  0.3655
 6285TIP3    H218862   1.724   2.337   0.119  0.7204  1.2664 -1.4833
 6286TIP3   OH218863   0.741   2.012   1.532  0.3054 -1.0616  0.3735
 6286TIP3    H118864   0.800   2.085   1.512 -0.7938 -0.0592  0.5900
 6286TIP3    H218865   0.681   2.009   1.458  0.5659 -1.9991  0.2006
 6287TIP3   OH218866   2.253   3.133   4.581  0.8124  0.0430 -0.0681
 6287TIP3    H118867   2.225   3.210   4.531 -1.0475 -0.5436  0.0144
 6287TIP3    H218868   2.303   3.081   4.518  0.9838  0.6969 -0.4883
 6288TIP3   OH218869   1.606   1.797   4.648  0.0318  0.4980 -0.0779
 6288TIP3    H118870   1.611   1.839   4.734 -0.2491  0.5487 -0.0867
 6288TIP3    H218871   1.690   1.819   4.606  0.1507  0.5114  0.1643
 6289TIP3   OH218872   5.705   1.436   1.946 -0.1558  0.2729  0.3125
 6289TIP3    H118873   5.661   1.354   1.966 -0.2507  0.1591 -0.3696
 6289TIP3    H218874   5.781   1.411   1.894 -0.0612  0.5966  0.2911
 6290TIP3   OH218875   2.684   3.701   2.992  0.4601  0.5972 -0.1510
 6290TIP3    H118876   2.705   3.629   2.933  0.8264  0.4309  0.1695
 6290TIP3    H218877   2.625   3.757   2.943  0.7655  0.4660 -0.6762
 6291TIP3   OH218878   1.606   1.470   1.965 -0.0095  0.0155 -0.2153
 6291TIP3    H118879   1.604   1.539   2.032 -0.9842  0.3146 -0.5297
 6291TIP3    H218880   1.697   1.465   1.938  0.3543  0.0683  0.9541
 6292TIP3   OH218881   0.977   0.761   4.133 -0.4914  0.5021 -0.3558
 6292TIP3    H118882   0.928   0.784   4.054  2.1756 -2.3214 -3.1705
 6292TIP3    H218883   1.032   0.838   4.150 -0.4224  0.8255 -1.8838
 6293TIP3   OH218884   1.500   3.465   2.816  0.0387  0.2247 -0.0838
 6293TIP3    H118885   1.489   3.404   2.889 -0.6591  1.2841  0.7434
 6293TIP3    H218886   1.585   3.444   2.779  0.2949 -0.5040  0.8801
 6294TIP3   OH218887   3.598   4.118   3.526 -0.4181  0.4506  0.9892
 6294TIP3    H118888   3.552   4.050   3.477  0.9446  1.2177 -1.5419
 6294TIP3    H218889   3.528   4.177   3.556 -1.3421 -0.2877  0.3479
 6295TIP3   OH218890   0.950   3.598   4.931 -0.3251 -0.1029 -0.0441
 6295TIP3    H118891   1.022   3.658   4.908  0.5488 -0.7998  0.7618
 6295TIP3    H218892   0.892   3.650   4.985 -0.5441  0.5293 -0.8675
 6296TIP3   OH218893   5.691   4.462   3.692  0.0680  0.4161  0.3597
 6296TIP3    H118894   5.714   4.392   3.753 -0.2681 -0.9624 -1.0309
 6296TIP3    H218895   5.773   4.482   3.647 -0.2440 -0.5729 -0.6904
 6297TIP3   OH218896   4.691   2.461   2.184 -0.0139  0.1815 -0.0725
 6297TIP3    H118897   4.669   2.502   2.267 -0.1283  1.6717 -0.8118
 6297TIP3    H218898   4.742   2.383   2.209 -0.1774  0.5064  1.3755
 6298TIP3   OH218899   0.304   1.714   0.204 -0.0234 -0.0299 -0.5841
 6298TIP3    H118900   0.377   1.774   0.195 -0.1405  0.3968  1.0490
 6298TIP3    H218901   0.244   1.758   0.264 -0.6101 -1.3142 -0.1921
 6299TIP3   OH218902   2.774   5.864   2.358  0.6571 -0.3431  0.6931
 6299TIP3    H118903   2.841   5.853   2.290  0.3778 -1.5917  0.5906
 6299TIP3    H218904   2.765   5.778   2.397 -0.6792 -0.1339  0.9049
 6300TIP3   OH218905   4.490   0.862   0.140  0.5984 -0.4584  0.3005
 6300TIP3    H118906   4.403   0.901   0.137  1.0331  0.6391  1.2369
 6300TIP3    H218907   4.474   0.768   0.150 -0.4682 -0.6120 -2.1872
 6301TIP3   OH218908   0.077   0.802   1.148 -0.2583  0.0853  0.2304
 6301TIP3    H118909   0.092   0.897   1.143 -1.3933  0.1969 -1.7581
 6301TIP3    H218910   0.022   0.791   1.226  0.6336  0.9284  1.0084
 6302TIP3   OH218911   0.923   4.386   1.080 -0.1461  0.0198  0.1359
 6302TIP3    H118912   0.872   4.394   0.999 -0.1006 -0.2961  0.0753
 6302TIP3    H218913   0.903   4.466   1.129 -1.3470 -0.4638  0.4703
 6303TIP3   OH218914   3.782   4.890   3.527  0.2596 -0.3303 -0.5477
 6303TIP3    H118915   3.711   4.879   3.590  0.9607 -0.4650  0.2504
 6303TIP3    H218916   3.757   4.836   3.452 -0.0949 -1.0327  0.0635
 6304TIP3   OH218917   4.296   4.523   3.023  0.5755  0.5657 -0.2599
 6304TIP3    H118918   4.223   4.518   2.961  0.3947  0.0327 -0.0114
 6304TIP3    H218919   4.323   4.432   3.036  0.0385  0.5668  1.1043
 6305TIP3   OH218920   2.645   0.015   2.603  0.0975 -0.6362 -0.2851
 6305TIP3    H118921   2.663   0.103   2.569  0.7893  0.4697  2.6373
 6305TIP3    H218922   2.727  -0.010   2.647 -0.6017 -2.0894  0.2287
 6306TIP3   OH218923   4.144   4.483   5.006  0.4676  0.1526  0.6015
 6306TIP3    H118924   4.077   4.482   5.075 -0.4731 -0.5165 -0.2918
 6306TIP3    H218925   4.129   4.566   4.960  1.0231  0.5473  1.1177
 6307TIP3   OH218926   3.208   0.206   3.860 -0.1920  0.0076 -0.2297
 6307TIP3    H118927   3.279   0.181   3.801 -1.5111  0.6516 -2.2041
 6307TIP3    H218928   3.168   0.123   3.886  1.1646 -0.3524  0.8076
 6308TIP3   OH218929   4.626   1.471   1.142  0.3263  0.3201 -0.2179
 6308TIP3    H118930   4.707   1.522   1.141  1.5495 -1.4892  0.7830
 6308TIP3    H218931   4.653   1.383   1.113 -1.5083 -0.0246 -0.9732
 6309TIP3   OH218932   3.103   1.381   3.335  0.1890  0.2551 -0.0308
 6309TIP3    H118933   3.066   1.377   3.247 -0.8547  0.1524  0.4081
 6309TIP3    H218934   3.047   1.442   3.383  0.3947 -0.1370  0.7323
 6310TIP3   OH218935   0.963   2.111   4.369  0.7841 -0.2128  0.1688
 6310TIP3    H118936   0.950   2.175   4.298  0.6784 -0.0389  0.3422
 6310TIP3    H218937   0.910   2.146   4.442  2.8486  0.9805  1.1973
 6311TIP3   OH218938   4.313   0.271   0.131  0.0800 -0.7274  0.3730
 6311TIP3    H118939   4.408   0.269   0.125  0.1431 -0.1215  1.0359
 6311TIP3    H218940   4.284   0.300   0.044  0.5543  0.0966  0.4823
 6312TIP3   OH218941   2.234   0.027   4.261 -0.0047 -0.7308 -0.5110
 6312TIP3    H118942   2.275   0.071   4.336 -0.3393  1.0035 -1.3008
 6312TIP3    H218943   2.272   0.070   4.185 -1.6028 -0.6745 -1.3016
 6313TIP3   OH218944   5.989   3.437   3.523 -0.9066  0.6824 -0.5236
 6313TIP3    H118945   6.015   3.364   3.467 -0.7358 -0.8856  1.4870
 6313TIP3    H218946   5.896   3.452   3.502 -0.9023  0.0040 -1.0514
 6314TIP3   OH218947   4.086   1.448   4.559 -0.1753 -0.1888 -0.1328
 6314TIP3    H118948   4.161   1.394   4.533 -0.3810 -0.9271  0.7194
 6314TIP3    H218949   4.111   1.483   4.645 -1.2037 -1.2782  0.6376
 6315TIP3   OH218950   3.494   5.050   0.990  0.2176 -0.3049 -0.3398
 6315TIP3    H118951   3.563   5.099   0.944 -1.8399  1.1891 -2.0689
 6315TIP3    H218952   3.418   5.109   0.988 -0.5785 -0.9601  3.4255
 6316TIP3   OH218953   1.266   3.535   1.127  0.0550  0.0238  0.4726
 6316TIP3    H118954   1.342   3.558   1.073  0.7996  0.4720  1.6412
 6316TIP3    H218955   1.211   3.614   1.126 -0.7732 -0.5493 -0.9507
 6317TIP3   OH218956   2.061   2.050   0.336  0.3913  0.6068 -0.5651
 6317TIP3    H118957   2.060   2.018   0.246 -1.8023  0.0891 -0.3989
 6317TIP3    H218958   2.124   2.123   0.335  0.9485  0.1449 -2.3167
 6318TIP3   OH218959   4.161   5.980   4.207  0.1353  0.6428  0.0895
 6318TIP3    H118960   4.205   5.904   4.170 -1.0133 -0.1271  0.2681
 6318TIP3    H218961   4.195   6.054   4.157 -0.0410 -0.1816 -1.2895
 6319TIP3   OH218962   3.578   2.775   2.777  0.1467 -0.1807  0.6984
 6319TIP3    H118963   3.663   2.740   2.804  0.6040  0.9771  0.8045
 6319TIP3    H218964   3.598   2.839   2.709 -0.4938  1.0693  1.6180
 6320TIP3   OH218965   0.494   0.477   3.633  0.0840  0.2157  0.0427
 6320TIP3    H118966   0.553   0.522   3.572  0.8215 -0.6861  0.0740
 6320TIP3    H218967   0.508   0.520   3.717 -0.0512  0.6622 -0.1586
 6321TIP3   OH218968   4.548   4.901   5.033  0.2083 -0.1263 -0.2009
 6321TIP3    H118969   4.546   4.963   5.105  1.4335 -1.1357  0.7394
 6321TIP3    H218970   4.631   4.918   4.988 -0.2110  0.0122 -0.9339
 6322TIP3   OH218971   2.159   0.907   1.020  0.2849  0.5554 -0.2812
 6322TIP3    H118972   2.081   0.852   1.011 -0.5379  1.3535  1.6196
 6322TIP3    H218973   2.187   0.923   0.929 -0.2813 -1.7644 -0.9260
 6323TIP3   OH218974   3.822   3.407   0.627 -0.4090 -0.0192 -0.4640
 6323TIP3    H118975   3.755   3.378   0.689 -1.3947 -0.4159 -1.6680
 6323TIP3    H218976   3.889   3.338   0.629  0.0646  0.4525  0.8567
 6324TIP3   OH218977   2.737   2.010   4.822 -0.0787 -0.3780 -0.1512
 6324TIP3    H118978   2.661   1.970   4.780  0.5815 -2.9019  0.9045
 6324TIP3    H218979   2.784   2.053   4.749 -1.1107 -1.0633 -1.2594
 6325TIP3   OH218980   2.314   5.559   2.902 -0.7162  0.1475  0.2845
 6325TIP3    H118981   2.319   5.472   2.863 -2.0635 -0.5789  1.6426
 6325TIP3    H218982   2.339   5.618   2.831  0.7153 -1.3400 -0.5372
 6326TIP3   OH218983   6.178   4.383   1.162  0.3560  0.7771  0.2646
 6326TIP3    H118984   6.099   4.336   1.189  0.0012  1.2578  0.0881
 6326TIP3    H218985   6.249   4.338   1.207 -0.0193  0.3457  0.4399
 6327TIP3   OH218986   3.947   5.425   0.362 -0.1714 -0.5907  0.3916
 6327TIP3    H118987   3.931   5.342   0.319  0.7621 -1.0055  0.8102
 6327TIP3    H218988   3.981   5.402   0.448  3.1258  0.1183 -0.5519
 6328TIP3   OH218989   6.262   4.991   3.666 -0.2576 -0.4053 -0.5824
 6328TIP3    H118990   6.355   4.985   3.689 -0.3814  0.0296  0.0345
 6328TIP3    H218991   6.246   4.913   3.612  1.0729  0.8411 -2.8973
 6329TIP3   OH218992   3.655   4.889   1.367  0.5075  0.3026 -0.4145
 6329TIP3    H118993   3.747   4.917   1.375  0.1103  1.3605  0.9956
 6329TIP3    H218994   3.614   4.923   1.447 -1.3799  0.9321 -1.5999
 6330TIP3   OH218995   2.843   4.394   1.450 -0.2625 -0.0867 -0.3212
 6330TIP3    H118996   2.794   4.404   1.368  0.5808  1.7709 -0.6515
 6330TIP3    H218997   2.911   4.462   1.446 -0.2459  0.1098  1.9500
 6331TIP3   OH218998   3.436   0.135   0.772 -0.0384 -0.1544 -0.1275
 6331TIP3    H118999   3.455   0.049   0.810 -1.5607 -1.0041 -1.2144
 6331TIP3    H219000   3.510   0.189   0.800  1.1084 -1.8674  0.3479
 6332TIP3   OH219001   2.346   4.100   2.959  0.1171 -0.0223 -0.0298
 6332TIP3    H119002   2.265   4.062   2.925 -0.1288  0.6583 -0.2178
 6332TIP3    H219003   2.328   4.117   3.051 -0.8846  2.5200 -0.6242
 6333TIP3   OH219004   5.250   4.625   3.398  0.4574 -0.0034  0.1318
 6333TIP3    H119005   5.174   4.607   3.453  0.3460 -0.8440 -0.2944
 6333TIP3    H219006   5.325   4.616   3.458  0.3250 -0.7271  0.1975
 6334TIP3   OH219007   5.743   1.188   1.329 -0.1510 -0.3717 -0.0775
 6334TIP3    H119008   5.698   1.236   1.400 -1.2686 -3.3037  1.3711
 6334TIP3    H219009   5.830   1.170   1.364  1.3559  2.8332 -1.7597
 6335TIP3   OH219010   4.221   0.955   0.369 -0.1175 -0.3396  0.2934
 6335TIP3    H119011   4.164   0.890   0.409 -1.1436 -0.6405 -1.5494
 6335TIP3    H219012   4.202   0.950   0.275 -0.6950  3.0533  0.1016
 6336TIP3   OH219013   6.100   2.297   0.345 -0.2307  0.0713  0.3113
 6336TIP3    H119014   6.127   2.269   0.258  0.2767 -1.3526  0.8999
 6336TIP3    H219015   6.181   2.322   0.389 -0.1542 -1.5550  1.1596
 6337TIP3   OH219016   0.615   1.454   4.711  0.0843 -0.1621 -0.2034
 6337TIP3    H119017   0.672   1.378   4.706 -0.2260 -0.4295  0.2543
 6337TIP3    H219018   0.571   1.446   4.795  0.2524  0.6691 -0.0236
 6338TIP3   OH219019   0.563   4.352   2.191 -0.4680 -0.0527  0.1126
 6338TIP3    H119020   0.624   4.283   2.163 -0.3987  0.0012  0.1313
 6338TIP3    H219021   0.497   4.306   2.242  0.1671  0.0430  1.0438
 6339TIP3   OH219022   0.846   1.555   0.718 -0.2505  0.6643  0.5594
 6339TIP3    H119023   0.912   1.516   0.776 -0.1823  0.2479  0.2044
 6339TIP3    H219024   0.776   1.581   0.778 -0.5063 -0.4386  0.7642
 6340TIP3   OH219025   5.654   2.038   5.097  0.4966 -0.1647 -0.1738
 6340TIP3    H119026   5.729   1.988   5.065 -0.1098 -1.7926  0.8551
 6340TIP3    H219027   5.591   2.036   5.025 -0.0664 -2.0934  0.3371
 6341TIP3   OH219028   1.224   1.171   4.923  0.0013  0.0793  0.1349
 6341TIP3    H119029   1.299   1.127   4.961  0.3765 -0.3571 -1.0514
 6341TIP3    H219030   1.227   1.260   4.958  2.8330  1.0138 -2.1222
 6342TIP3   OH219031   1.714   2.309   2.235 -0.4145  0.0548  0.2259
 6342TIP3    H119032   1.780   2.240   2.231  0.3515  0.6965  1.2912
 6342TIP3    H219033   1.758   2.382   2.278 -1.5050  0.8777 -0.0108
 6343TIP3   OH219034   1.534   4.847   0.679 -0.0494 -0.1651  0.5016
 6343TIP3    H119035   1.493   4.804   0.754  0.1917 -0.0230  0.7152
 6343TIP3    H219036   1.597   4.783   0.646  1.2762  0.5133  1.6371
 6344TIP3   OH219037   3.594   5.590   2.598  0.1012 -0.0587 -0.0858
 6344TIP3    H119038   3.554   5.621   2.516 -1.1595 -0.6240  0.2930
 6344TIP3    H219039   3.538   5.518   2.626  0.7350 -0.1126  1.0921
 6345TIP3   OH219040   5.445   2.647   0.969  0.2427  0.5116 -0.1063
 6345TIP3    H119041   5.525   2.662   0.919 -0.6172  1.1904 -1.3418
 6345TIP3    H219042   5.432   2.553   0.968  1.7872  0.2320  1.3915
 6346TIP3   OH219043   0.434   1.217   0.184 -0.3702  0.0294  0.2158
 6346TIP3    H119044   0.387   1.285   0.136 -0.9334  0.5645  1.4685
 6346TIP3    H219045   0.380   1.201   0.261  0.5563 -0.7196  0.7326
 6347TIP3   OH219046   3.089   0.902   0.222  0.8095 -0.5396  0.1011
 6347TIP3    H119047   3.149   0.841   0.180 -0.0711 -1.8277  0.6489
 6347TIP3    H219048   3.064   0.859   0.304 -0.5861  0.1073  0.0549
 6348TIP3   OH219049   5.748   2.379   4.754  0.0742  0.1143 -0.1077
 6348TIP3    H119050   5.754   2.466   4.714  0.2575  0.6985  1.1176
 6348TIP3    H219051   5.657   2.353   4.742 -0.2108  0.8877  0.3105
 6349TIP3   OH219052   0.295   3.838   4.562  0.6539 -0.1023  0.0729
 6349TIP3    H119053   0.354   3.867   4.492  0.9069 -0.8255 -0.0276
 6349TIP3    H219054   0.354   3.815   4.634  0.5915 -1.6102 -0.3070
 6350TIP3   OH219055   0.915   2.320   1.100  0.1193 -0.2539  0.1141
 6350TIP3    H119056   0.836   2.341   1.049 -0.5947 -1.5038  0.6483
 6350TIP3    H219057   0.982   2.378   1.065 -0.4773 -0.6932 -1.8934
 6351TIP3   OH219058   4.494   4.286   4.499 -0.2555 -0.0042 -0.6787
 6351TIP3    H119059   4.443   4.324   4.571  1.5032 -1.2571  1.3516
 6351TIP3    H219060   4.538   4.211   4.539  1.8738  0.0589 -2.7306
 6352TIP3   OH219061   4.877   3.759   3.168  0.3691 -0.4640  0.2705
 6352TIP3    H119062   4.893   3.715   3.084  2.8113  0.9115 -0.0613
 6352TIP3    H219063   4.832   3.840   3.144  0.4091 -0.4127  0.3717
 6353TIP3   OH219064   4.774   1.788   4.207  0.8526 -0.5353 -0.2514
 6353TIP3    H119065   4.741   1.823   4.124  0.0303 -0.6812  0.0069
 6353TIP3    H219066   4.849   1.843   4.228  0.9466 -0.3723 -0.9942
 6354TIP3   OH219067   5.740   3.532   4.582  0.2764  0.1767  0.1993
 6354TIP3    H119068   5.671   3.468   4.596 -1.3089  1.7347 -0.0842
 6354TIP3    H219069   5.791   3.497   4.510 -0.2970 -0.9649  0.3305
 6355TIP3   OH219070   0.306   3.239   1.375 -0.1741 -0.6219 -0.4059
 6355TIP3    H119071   0.294   3.221   1.282 -1.1409  1.8649 -0.8559
 6355TIP3    H219072   0.270   3.327   1.387  2.0754  0.1157  1.8655
 6356TIP3   OH219073   0.380   3.678   3.121  0.1517  0.4832 -0.0976
 6356TIP3    H119074   0.308   3.680   3.058  0.2731 -0.4344 -0.2728
 6356TIP3    H219075   0.458   3.660   3.068  0.7571  2.7350 -0.1071
 6357TIP3   OH219076   1.029   5.243   5.138 -0.5067  0.4528  0.0960
 6357TIP3    H119077   1.032   5.338   5.124  0.6754  0.4750  0.3829
 6357TIP3    H219078   0.969   5.232   5.211 -0.2662  1.0274  0.3889
 6358TIP3   OH219079   1.490   0.090   4.582  0.0150 -0.4528 -0.4733
 6358TIP3    H119080   1.452   0.003   4.587  1.0077 -0.8650  0.2633
 6358TIP3    H219081   1.497   0.108   4.489 -0.8729 -0.8400 -0.6277
 6359TIP3   OH219082   1.160   2.956   4.580 -0.2774  0.1849 -0.3627
 6359TIP3    H119083   1.243   3.003   4.580 -0.3118  0.2459 -0.2445
 6359TIP3    H219084   1.185   2.864   4.590 -0.2108  0.1775 -0.5975
 6360TIP3   OH219085   1.752   1.337   3.201  0.1008  0.1364  0.0877
 6360TIP3    H119086   1.820   1.285   3.160 -0.4226 -0.3061 -0.2344
 6360TIP3    H219087   1.670   1.305   3.162 -0.3558  0.1289  1.0158
 6361TIP3   OH219088   0.950   0.481   1.131  0.0785 -0.1616  0.4783
 6361TIP3    H119089   0.894   0.440   1.065  1.3126 -1.0434 -0.0515
 6361TIP3    H219090   0.951   0.419   1.203 -0.5692  0.4065  0.9904
 6362TIP3   OH219091   3.419  -0.004   1.108  0.1381 -0.1351  0.0571
 6362TIP3    H119092   3.503   0.039   1.123 -0.7010  1.2114  1.0562
 6362TIP3    H219093   3.370   0.009   1.190 -1.0567 -0.8854 -0.5103
 6363TIP3   OH219094   2.905   3.995   5.088 -0.0671 -0.5492 -0.4022
 6363TIP3    H119095   2.942   4.061   5.147 -0.8139  1.3155 -1.8912
 6363TIP3    H219096   2.862   3.932   5.146 -1.3893  1.5732  1.0822
 6364TIP3   OH219097   3.338   3.588   5.111 -0.0881 -0.0356  0.7836
 6364TIP3    H119098   3.382   3.659   5.064  0.5015 -1.0607 -0.2799
 6364TIP3    H219099   3.385   3.581   5.194 -1.1140  1.7761  1.5843
 6365TIP3   OH219100   3.336   3.359   0.224  0.7989  0.0065  0.1537
 6365TIP3    H119101   3.337   3.267   0.198 -1.9029 -0.0569 -0.0637
 6365TIP3    H219102   3.401   3.366   0.294 -0.3177 -2.5540  1.5597
 6366TIP3   OH219103   3.774   5.232   4.806  0.0081 -0.1190  0.6805
 6366TIP3    H119104   3.836   5.176   4.760 -0.9496 -0.6733  0.0119
 6366TIP3    H219105   3.780   5.316   4.760 -0.4765 -0.4827 -0.0828
 6367TIP3   OH219106   4.698   2.583   4.988  0.1896  0.0088  0.3123
 6367TIP3    H119107   4.691   2.644   5.061 -0.6244  0.1789  0.1043
 6367TIP3    H219108   4.679   2.636   4.911  2.4852  0.1843 -0.2194
 6368TIP3   OH219109   1.220   3.437   2.414  0.2673  0.0229 -0.2281
 6368TIP3    H119110   1.257   3.471   2.496  0.1760 -0.0699 -0.1481
 6368TIP3    H219111   1.280   3.468   2.346  0.5677 -0.2402 -0.0858
 6369TIP3   OH219112   3.610   2.170   3.433 -0.6170  0.1475 -0.2455
 6369TIP3    H119113   3.663   2.225   3.491 -0.4417 -1.1685  0.9103
 6369TIP3    H219114   3.520   2.192   3.455 -0.5559  0.4464 -0.2824
 6370TIP3   OH219115   4.214   0.570   3.275 -0.2590  0.6024 -0.7323
 6370TIP3    H119116   4.175   0.575   3.187 -0.2070 -0.8523 -0.8680
 6370TIP3    H219117   4.300   0.531   3.260 -0.9889 -1.4721  0.1241
 6371TIP3   OH219118   6.053   0.632   2.197 -0.3878  0.2444  0.3558
 6371TIP3    H119119   6.127   0.692   2.184  0.6723 -1.2375 -0.8699
 6371TIP3    H219120   6.089   0.545   2.176 -1.7158 -0.9326  2.5421
 6372TIP3   OH219121   4.980   2.356   2.199 -0.3774  0.3685 -0.0753
 6372TIP3    H119122   5.030   2.400   2.129  0.7916 -0.5890  0.1212
 6372TIP3    H219123   5.031   2.372   2.278 -0.0152 -1.1626  0.0290
 6373TIP3   OH219124   1.648   0.738   1.235 -0.0426 -0.3035 -0.0045
 6373TIP3    H119125   1.687   0.658   1.200 -0.5032 -0.6580  0.2757
 6373TIP3    H219126   1.563   0.744   1.192 -1.1229 -1.3640  1.8425
 6374TIP3   OH219127   3.672   2.531   2.182 -0.6316 -0.3306 -0.4858
 6374TIP3    H119128   3.587   2.516   2.141 -0.8700  0.3979 -0.2762
 6374TIP3    H219129   3.660   2.509   2.274 -0.4801 -0.6158 -0.5328
 6375TIP3   OH219130   2.973   3.987   4.614  0.6487 -0.2995 -0.4898
 6375TIP3    H119131   2.879   3.983   4.593  0.6953  0.6178 -0.9349
 6375TIP3    H219132   3.009   3.905   4.581 -0.1295 -1.0426  0.4308
 6376TIP3   OH219133   2.069   4.363   3.438  0.3009 -0.4559  0.2055
 6376TIP3    H119134   1.998   4.420   3.410  2.1143  0.9717 -1.8488
 6376TIP3    H219135   2.039   4.274   3.419 -0.5164  0.1803 -1.7156
 6377TIP3   OH219136   1.075   1.899   2.064  0.1812 -0.6968 -0.0205
 6377TIP3    H119137   0.999   1.874   2.117 -0.8904  1.0629 -0.6390
 6377TIP3    H219138   1.039   1.917   1.977  0.7217  2.9094  0.3437
 6378TIP3   OH219139   2.814   3.732   3.222  0.2107 -0.0226  0.0159
 6378TIP3    H119140   2.749   3.714   3.290 -0.1269  3.4178  0.7685
 6378TIP3    H219141   2.770   3.711   3.140 -1.1560  0.3611  0.6293
 6379TIP3   OH219142   4.715   1.726   1.781  0.2900 -0.0301  0.2176
 6379TIP3    H119143   4.643   1.774   1.739  0.4926  0.6393  0.6091
 6379TIP3    H219144   4.673   1.652   1.825 -0.3921  1.1767  1.6968
 6380TIP3   OH219145   5.724   4.769   2.966 -0.4525 -0.0258  0.2167
 6380TIP3    H119146   5.816   4.766   2.993 -0.5225  1.5330  0.7559
 6380TIP3    H219147   5.724   4.733   2.878  0.7050  0.0780  0.1557
 6381TIP3   OH219148   2.989   5.478   2.335  0.3445  0.1975  0.3764
 6381TIP3    H119149   3.062   5.536   2.311 -0.7989  0.7878 -1.9837
 6381TIP3    H219150   2.953   5.449   2.251 -0.2490 -2.5736  1.4763
 6382TIP3   OH219151   2.368   3.682   2.954  0.0284 -0.5788  0.5354
 6382TIP3    H119152   2.358   3.741   3.029  1.3897  0.6749 -0.1945
 6382TIP3    H219153   2.313   3.720   2.886  0.0140 -0.8057  0.4195
 6383TIP3   OH219154   0.784   5.499   2.157 -0.3169 -0.1262  0.1123
 6383TIP3    H119155   0.715   5.530   2.097  0.0729  1.6891  0.5488
 6383TIP3    H219156   0.796   5.407   2.133 -3.0016 -0.5750  0.1403
 6384TIP3   OH219157   5.945   4.765   0.349 -0.8900  0.6393 -0.5440
 6384TIP3    H119158   5.882   4.741   0.281 -1.4410  1.5228 -0.3716
 6384TIP3    H219159   5.909   4.845   0.388 -0.6085  0.1404  0.8157
 6385TIP3   OH219160   2.488   1.397   4.356  0.3751 -0.0010  0.3707
 6385TIP3    H119161   2.434   1.426   4.429  0.2438 -0.1140  0.3198
 6385TIP3    H219162   2.496   1.474   4.300  0.2213  0.0037  0.3530
 6386TIP3   OH219163   3.967   1.989   1.034 -0.2195  0.2204 -0.3758
 6386TIP3    H119164   4.039   1.974   0.972 -0.9548 -1.5181 -0.8753
 6386TIP3    H219165   3.980   1.922   1.102 -1.0434  0.2457 -0.1841
 6387TIP3   OH219166   1.586   4.620   3.360  0.0761  0.2126 -0.2350
 6387TIP3    H119167   1.613   4.710   3.340 -1.0467  0.2246 -1.9416
 6387TIP3    H219168   1.586   4.576   3.275 -0.6619 -1.0577  0.3948
 6388TIP3   OH219169   4.099   5.170   1.100 -0.7958 -0.3770  0.0401
 6388TIP3    H119170   4.063   5.230   1.166 -2.1304 -0.7659 -0.2992
 6388TIP3    H219171   4.116   5.089   1.147  0.2265 -0.0074  0.3263
 6389TIP3   OH219172   0.482   1.087   2.523  0.4447  0.1649  0.2227
 6389TIP3    H119173   0.540   1.088   2.598 -0.6671  1.3471  1.1152
 6389TIP3    H219174   0.488   1.175   2.486  0.0480 -0.0277 -0.3337
 6390TIP3   OH219175   5.481   0.327   2.164 -0.6197  0.4317 -0.4902
 6390TIP3    H119176   5.423   0.309   2.090  0.2573 -0.1901 -1.0443
 6390TIP3    H219177   5.564   0.287   2.140 -0.4449 -0.2114  1.0537
 6391TIP3   OH219178   1.958   5.714   4.100 -0.4420 -0.2642  0.5568
 6391TIP3    H119179   1.973   5.747   4.012 -2.0225 -3.0495 -0.8981
 6391TIP3    H219180   1.863   5.721   4.113 -0.6871 -2.7350  0.6589
 6392TIP3   OH219181   0.143   1.461   0.296 -0.1740  0.1942 -0.1142
 6392TIP3    H119182   0.098   1.425   0.220  0.9586  0.6996 -1.0631
 6392TIP3    H219183   0.225   1.497   0.260  0.5859  0.0514  1.4122
 6393TIP3   OH219184   1.852   3.055   0.196  0.2495 -0.1187  0.2220
 6393TIP3    H119185   1.778   3.077   0.252  2.0097  0.2676  2.5749
 6393TIP3    H219186   1.828   3.089   0.110 -1.6570  1.3547  1.2534
 6394TIP3   OH219187   3.803   3.837   4.458 -0.1603  0.8617  0.2849
 6394TIP3    H119188   3.846   3.870   4.537 -0.0063  0.4048  0.3932
 6394TIP3    H219189   3.841   3.890   4.387 -1.0224  1.9556  0.6149
 6395TIP3   OH219190   3.521   1.425   0.569 -0.1864 -0.4153 -0.0392
 6395TIP3    H119191   3.541   1.515   0.542 -0.7029  0.2108  1.5757
 6395TIP3    H219192   3.606   1.388   0.592  0.0149 -0.3184 -0.5941
 6396TIP3   OH219193   6.065   5.476   2.405  0.3389  0.3361 -0.1116
 6396TIP3    H119194   6.047   5.424   2.484  2.1050  0.7897  0.6283
 6396TIP3    H219195   6.137   5.430   2.362  1.0681  1.4520 -0.1157
 6397TIP3   OH219196   4.433   4.385   1.392 -0.3056 -0.1821  0.0417
 6397TIP3    H119197   4.440   4.476   1.364 -1.1528  0.2025  0.9866
 6397TIP3    H219198   4.454   4.387   1.485  3.2314 -1.5448 -0.5989
 6398TIP3   OH219199   2.015   5.344   0.444  0.7908  0.4314 -0.0478
 6398TIP3    H119200   1.925   5.319   0.425  1.1090  0.2333 -1.3752
 6398TIP3    H219201   2.023   5.335   0.539 -0.7738  1.1024  0.1838
 6399TIP3   OH219202   3.342   4.546   3.952  0.4110 -0.2750  0.1973
 6399TIP3    H119203   3.328   4.539   3.857  1.6249  1.4797 -0.1478
 6399TIP3    H219204   3.430   4.511   3.966 -0.6323 -2.8311  1.0946
 6400TIP3   OH219205   1.250   1.249   1.868  0.0576  0.0861 -0.0347
 6400TIP3    H119206   1.201   1.328   1.892  1.3982  0.4756  1.5801
 6400TIP3    H219207   1.257   1.254   1.772  0.4016  2.1026  0.0455
 6401TIP3   OH219208   2.076   0.545   3.226  1.1869  0.2592  0.0839
 6401TIP3    H119209   2.019   0.468   3.225  2.3284 -0.5954 -1.0143
 6401TIP3    H219210   2.015   0.619   3.222  0.0043 -0.4902  2.3821
 6402TIP3   OH219211   1.065   3.333   2.193 -0.1918 -0.0501  0.2329
 6402TIP3    H119212   1.082   3.325   2.287 -0.1367 -0.6234  0.1775
 6402TIP3    H219213   1.008   3.260   2.173 -2.0914  1.3567  0.2435
 6403TIP3   OH219214   1.093   0.183   5.116  0.1380  0.0094 -0.4133
 6403TIP3    H119215   1.120   0.138   5.197  2.3959 -1.2508 -1.7607
 6403TIP3    H219216   1.143   0.265   5.117  1.8114 -0.9421 -1.4460
 6404TIP3   OH219217   2.364   3.912   5.000 -0.3350 -0.4562  0.1273
 6404TIP3    H119218   2.444   3.903   5.051 -0.7656  0.2594  0.9608
 6404TIP3    H219219   2.295   3.879   5.058 -0.7151 -0.5759 -0.3833
 6405TIP3   OH219220   2.343   3.409   1.112  0.6829 -0.3108 -0.2693
 6405TIP3    H119221   2.352   3.469   1.039  0.5450 -2.8791 -2.5520
 6405TIP3    H219222   2.433   3.382   1.133  0.7621  0.7315  0.8777
 6406TIP3   OH219223   0.814   5.064   0.450 -0.1859  0.3723 -0.3884
 6406TIP3    H119224   0.896   5.018   0.431 -0.9885 -0.3790 -2.2504
 6406TIP3    H219225   0.775   5.014   0.522  1.0646  0.8817  0.6841
 6407TIP3   OH219226   5.397   0.988   1.179 -0.4359  0.3048  0.1569
 6407TIP3    H119227   5.430   1.041   1.106 -0.6047  1.1015  0.6424
 6407TIP3    H219228   5.368   0.906   1.138  0.1353  0.4531 -0.5664
 6408TIP3   OH219229   1.042   2.392   2.921 -0.1145  0.2188 -0.1426
 6408TIP3    H119230   0.954   2.369   2.892  0.3818 -0.9113 -0.8376
 6408TIP3    H219231   1.050   2.352   3.007  0.1101 -0.6951 -0.5770
 6409TIP3   OH219232   1.647   1.129   1.761 -0.5510 -0.4743 -0.2586
 6409TIP3    H119233   1.700   1.153   1.686  1.8375 -0.8543  1.2173
 6409TIP3    H219234   1.620   1.213   1.799  1.0156 -0.2044  0.3064
 6410TIP3   OH219235   0.942   0.051   3.615 -0.0526 -0.2853  0.0409
 6410TIP3    H119236   0.913  -0.008   3.545  1.2415 -0.7395 -0.1241
 6410TIP3    H219237   1.021   0.010   3.650 -0.0993  0.4816  1.0779
 6411TIP3   OH219238   5.258   5.662   3.809 -0.2075 -0.0307  0.4915
 6411TIP3    H119239   5.195   5.590   3.819 -0.1083 -0.2316 -0.3250
 6411TIP3    H219240   5.207   5.740   3.833 -0.6145 -0.2531  0.3721
 6412TIP3   OH219241   2.632   3.885   0.950 -0.2285 -0.7048  0.1312
 6412TIP3    H119242   2.650   3.816   0.886  1.2800 -0.7293  0.5572
 6412TIP3    H219243   2.718   3.908   0.985 -0.9521 -0.1418  1.5896
 6413TIP3   OH219244   2.817   3.602   4.378  0.0712  0.3860 -0.1072
 6413TIP3    H119245   2.764   3.539   4.426  1.0365  0.2968  0.8882
 6413TIP3    H219246   2.852   3.553   4.304  3.3661 -1.3385  2.2862
 6414TIP3   OH219247   3.278   3.127   4.263 -0.5031 -0.1740 -0.0038
 6414TIP3    H119248   3.314   3.093   4.344 -1.0273 -1.9624 -0.4772
 6414TIP3    H219249   3.243   3.213   4.286  1.4991  0.4096  1.0796
 6415TIP3   OH219250   3.042   3.797   1.749 -0.4261  0.3925 -0.6022
 6415TIP3    H119251   3.083   3.768   1.831 -1.8553  0.9466  0.3640
 6415TIP3    H219252   2.981   3.726   1.727 -0.2989  0.4063 -0.9995
 6416TIP3   OH219253   1.156   4.492   5.195  0.1762 -0.2245 -0.3776
 6416TIP3    H119254   1.095   4.428   5.231 -0.2983  0.0913 -0.6004
 6416TIP3    H219255   1.120   4.512   5.108 -0.0514  0.8223 -0.0543
 6417TIP3   OH219256   2.452   4.839   1.376  0.9936 -0.1978 -0.2166
 6417TIP3    H119257   2.475   4.752   1.411 -0.8266 -0.9078 -0.6752
 6417TIP3    H219258   2.490   4.839   1.287  0.9901 -0.5315 -0.2218
 6418TIP3   OH219259   5.142   4.334   4.055 -0.2572  0.0130  0.0570
 6418TIP3    H119260   5.124   4.418   4.096 -1.2084  1.2645 -2.6919
 6418TIP3    H219261   5.233   4.340   4.026 -0.0151 -0.3401  0.7041
 6419TIP3   OH219262   2.016   0.243   2.097  0.4064 -0.2641 -0.0592
 6419TIP3    H119263   1.921   0.233   2.086  0.5163 -1.9646  0.3393
 6419TIP3    H219264   2.039   0.313   2.035 -1.2795  1.1452  0.8041
 6420TIP3   OH219265   2.616   1.462   4.057 -0.6102  0.0845 -0.0086
 6420TIP3    H119266   2.678   1.489   3.989 -0.3870  0.4657  0.3405
 6420TIP3    H219267   2.569   1.543   4.079 -1.4083 -0.2517 -0.4490
 6421TIP3   OH219268   2.702   4.961   1.058  0.1018  0.5036 -0.5670
 6421TIP3    H119269   2.751   4.947   0.977  1.6488  2.1008  0.0312
 6421TIP3    H219270   2.669   4.874   1.081  1.0137 -0.2769 -2.0393
 6422TIP3   OH219271   4.976   2.111   4.648 -0.0746  0.4213  0.2806
 6422TIP3    H119272   4.981   2.205   4.630 -3.2899  0.8214  0.8767
 6422TIP3    H219273   4.944   2.106   4.738  3.6240 -1.4199  1.7101
 6423TIP3   OH219274   4.645   1.905   2.809 -0.1322 -0.0333  0.0724
 6423TIP3    H119275   4.721   1.906   2.751 -0.6244  1.7311 -0.6079
 6423TIP3    H219276   4.620   1.813   2.815  0.3858 -0.3477 -1.9194
 6424TIP3   OH219277   6.067   5.900   5.026  0.0433  0.1031  0.3660
 6424TIP3    H119278   6.130   5.890   4.955 -0.2728 -1.1480  0.2377
 6424TIP3    H219279   5.986   5.860   4.992 -0.5014  0.7064  0.9286
 6425TIP3   OH219280   6.328   4.775   2.518  0.1317 -0.4729 -0.5198
 6425TIP3    H119281   6.257   4.839   2.528  1.3110  0.8307 -0.1952
 6425TIP3    H219282   6.371   4.799   2.437 -0.3513 -1.8645 -1.2206
 6426TIP3   OH219283   4.820   3.942   4.937 -0.1115  0.2520  0.4197
 6426TIP3    H119284   4.818   3.974   5.027 -0.3714 -1.0579  0.8927
 6426TIP3    H219285   4.866   4.011   4.889 -1.5866  1.8463  1.1809
 6427TIP3   OH219286   5.652   4.875   0.758  0.3800  0.4802 -0.9298
 6427TIP3    H119287   5.603   4.806   0.804 -1.5251  1.2842 -1.6690
 6427TIP3    H219288   5.735   4.880   0.806 -1.8267  2.0542  3.2866
 6428TIP3   OH219289   6.046   3.822   3.301  0.0387  0.1344 -0.5395
 6428TIP3    H119290   6.128   3.789   3.339  1.1428  0.3373 -2.5760
 6428TIP3    H219291   6.069   3.842   3.210 -1.8468  1.8885 -0.6867
 6429TIP3   OH219292   0.753   5.742   0.426  0.5139 -0.2669 -0.6399
 6429TIP3    H119293   0.794   5.667   0.383 -0.8078 -0.8482 -0.9262
 6429TIP3    H219294   0.751   5.810   0.359 -0.1142 -0.6483 -1.0105
 6430TIP3   OH219295   6.083   3.958   4.397 -0.2878 -0.1911  0.3973
 6430TIP3    H119296   6.098   3.966   4.491 -0.1974 -0.4384  0.4025
 6430TIP3    H219297   6.170   3.946   4.360 -0.3027  0.0990  0.2609
 6431TIP3   OH219298   5.693   2.753   4.317  0.1838 -0.4269  0.8015
 6431TIP3    H119299   5.772   2.785   4.360  0.0610  0.0263  0.7026
 6431TIP3    H219300   5.654   2.832   4.279 -1.1147 -0.3868  2.1387
 6432TIP3   OH219301   2.952   2.267   3.719  0.0022  0.1963 -0.2071
 6432TIP3    H119302   2.953   2.250   3.813  1.9651 -1.7070 -0.5073
 6432TIP3    H219303   3.026   2.326   3.703  0.9339 -1.1002 -0.7911
 6433TIP3   OH219304   2.924   3.308   2.334 -0.1048 -0.1520  0.0298
 6433TIP3    H119305   2.965   3.294   2.248 -1.7635  2.7305 -1.3703
 6433TIP3    H219306   2.982   3.371   2.378 -0.6989  0.5686 -0.1881
 6434TIP3   OH219307   0.839   2.345   4.885  0.3742 -0.3467 -0.4878
 6434TIP3    H119308   0.859   2.428   4.928  1.9456 -1.2098  0.5793
 6434TIP3    H219309   0.883   2.351   4.800 -0.6693  0.4189 -0.9900
 6435TIP3   OH219310   0.515   4.345   4.952 -0.1517 -0.2013 -0.3777
 6435TIP3    H119311   0.568   4.388   4.884  0.8210  0.4292  0.7477
 6435TIP3    H219312   0.568   4.349   5.031 -0.9046 -1.6813  0.2590
 6436TIP3   OH219313   2.318   0.746   3.280  0.1519 -0.0176  0.3465
 6436TIP3    H119314   2.226   0.772   3.276  0.1949  0.0286 -1.1521
 6436TIP3    H219315   2.351   0.784   3.361 -0.7122  1.4895  0.0280
 6437TIP3   OH219316   5.169   2.494   2.398  0.4100 -0.3178 -0.2032
 6437TIP3    H119317   5.254   2.454   2.416  1.0098  0.0609 -2.0089
 6437TIP3    H219318   5.144   2.536   2.481  1.7702 -0.7828  0.4679
 6438TIP3   OH219319   4.500   2.287   3.400  0.1808 -0.3068 -0.2803
 6438TIP3    H119320   4.579   2.232   3.406  0.5445  0.3599  1.5054
 6438TIP3    H219321   4.524   2.368   3.445 -1.7209 -0.3292  0.8504
 6439TIP3   OH219322   4.433   4.345   2.145 -0.7647 -0.0302  0.4194
 6439TIP3    H119323   4.404   4.256   2.165  0.7692 -1.0583 -1.4483
 6439TIP3    H219324   4.529   4.338   2.143 -0.6495  1.4536 -0.6099
 6440TIP3   OH219325   6.196   3.127   1.261  0.0276 -0.1403  0.0483
 6440TIP3    H119326   6.152   3.070   1.198  0.3246  0.4387 -0.7062
 6440TIP3    H219327   6.163   3.215   1.240  1.5067  0.3135 -0.5447
 6441TIP3   OH219328   1.465   4.722   1.242  0.2258  0.1062  0.7064
 6441TIP3    H119329   1.515   4.692   1.318 -1.4287  0.6476  2.0653
 6441TIP3    H219330   1.400   4.654   1.227 -0.5906  0.8297  0.9021
 6442TIP3   OH219331   4.919   4.725   2.194 -0.1202  0.2011  0.7514
 6442TIP3    H119332   4.840   4.750   2.241 -0.5953  2.6763 -1.1843
 6442TIP3    H219333   4.915   4.772   2.111  2.2686 -1.4072 -0.4339
 6443TIP3   OH219334   5.059   2.670   0.185  0.0141  0.1438  0.0057
 6443TIP3    H119335   5.111   2.739   0.144  1.3307  0.3621  1.9080
 6443TIP3    H219336   5.068   2.686   0.279 -2.0487 -0.9142  0.4454
 6444TIP3   OH219337   0.574   5.339   0.948 -0.3940 -0.2821  0.9765
 6444TIP3    H119338   0.650   5.351   0.892 -1.6684 -1.0681 -1.0514
 6444TIP3    H219339   0.579   5.410   1.012  1.4169  0.3279  0.2135
 6445TIP3   OH219340   1.832   1.530   4.433 -0.0298  0.2917  0.1172
 6445TIP3    H119341   1.785   1.475   4.496  1.6615 -0.2127  0.9927
 6445TIP3    H219342   1.779   1.525   4.353  0.3406 -3.2060 -0.1020
 6446TIP3   OH219343   3.926   4.333   2.761  0.4573 -0.3055 -0.1171
 6446TIP3    H119344   3.843   4.332   2.807 -1.0125  0.0603 -2.5641
 6446TIP3    H219345   3.991   4.354   2.828 -1.7576  2.3801  1.3879
 6447TIP3   OH219346   5.950   3.540   2.715 -0.3429 -0.1831  0.1423
 6447TIP3    H119347   5.940   3.635   2.706 -0.0733 -0.2307 -0.8031
 6447TIP3    H219348   5.924   3.505   2.630 -1.4451 -1.0495  0.8161
 6448TIP3   OH219349   1.007   1.418   0.057  0.4785  0.0759 -0.6554
 6448TIP3    H119350   0.954   1.346   0.092 -0.5246  0.7509 -0.7366
 6448TIP3    H219351   1.081   1.375   0.015  0.2263 -0.8772 -0.1430
 6449TIP3   OH219352   1.805   4.721   3.174  0.2930 -0.2315 -0.2376
 6449TIP3    H119353   1.831   4.750   3.086  0.9156 -0.5853 -0.1733
 6449TIP3    H219354   1.727   4.774   3.194  1.5664  1.6357  0.0124
 6450TIP3   OH219355   5.696   4.756   1.251  0.3214 -0.1873 -0.0421
 6450TIP3    H119356   5.663   4.823   1.192 -0.0099 -0.2718  0.0469
 6450TIP3    H219357   5.632   4.685   1.245  1.3841 -1.0882 -1.2071
 6451TIP3   OH219358   4.957   0.675   4.667  0.0767 -0.5532 -0.0519
 6451TIP3    H119359   4.990   0.743   4.607  1.6217 -1.5452 -0.3661
 6451TIP3    H219360   4.897   0.624   4.613 -0.5970  0.1521  0.0072
 6452TIP3   OH219361   5.435   2.457   2.443 -0.1419 -0.0034 -0.0745
 6452TIP3    H119362   5.470   2.481   2.528  0.0493 -2.8871  0.7644
 6452TIP3    H219363   5.492   2.502   2.380  1.1567  0.3496  1.3070
 6453TIP3   OH219364   5.434   1.456   0.756  0.8368  0.2272 -1.0295
 6453TIP3    H119365   5.460   1.543   0.787  1.9290 -0.2656 -0.4933
 6453TIP3    H219366   5.340   1.463   0.740  0.3013  0.6901  1.8152
 6454TIP3   OH219367   5.817   4.550   0.900  0.0295  0.3134 -0.2178
 6454TIP3    H119368   5.725   4.570   0.919  0.0877 -0.3198  0.7759
 6454TIP3    H219369   5.824   4.560   0.805 -1.0209  0.5557 -0.2829
 6455TIP3   OH219370   5.527   0.963   0.889  0.4688 -0.6109  0.0074
 6455TIP3    H119371   5.567   1.027   0.949 -0.4113 -0.7634  0.7853
 6455TIP3    H219372   5.520   1.010   0.806 -0.3338  0.4144  0.6070
 6456TIP3   OH219373   0.566   2.764   0.191 -0.3556  0.3739  0.2234
 6456TIP3    H119374   0.572   2.847   0.238 -1.9320  1.0956 -0.7881
 6456TIP3    H219375   0.621   2.776   0.113 -0.8745  0.5995 -0.1076
 6457TIP3   OH219376   4.630   2.208   2.820  0.5665 -0.1921  0.7080
 6457TIP3    H119377   4.693   2.255   2.875  0.5049 -0.5269  1.0675
 6457TIP3    H219378   4.648   2.115   2.837  0.6974 -0.2972 -0.0071
 6458TIP3   OH219379   5.600   5.388   3.498  0.4158  0.5829 -0.8188
 6458TIP3    H119380   5.689   5.354   3.505  0.1965  0.0798 -0.4586
 6458TIP3    H219381   5.544   5.316   3.525  0.0073  1.7927  1.8257
 6459TIP3   OH219382   4.610   1.491   1.884 -0.4079 -0.3285 -0.5221
 6459TIP3    H119383   4.674   1.432   1.844 -0.6093 -0.0858 -1.2227
 6459TIP3    H219384   4.525   1.451   1.865 -0.4809 -0.5337  0.2105
 6460TIP3   OH219385   1.002   3.222   2.689 -0.3349 -0.0008  0.1636
 6460TIP3    H119386   0.965   3.137   2.667  1.8825 -0.4297 -2.4554
 6460TIP3    H219387   0.964   3.282   2.625  0.5925  0.2768 -0.1415
 6461TIP3   OH219388   1.631   5.075   0.773  0.7518 -0.1345  0.3257
 6461TIP3    H119389   1.712   5.023   0.768  2.1124  1.9963 -1.8768
 6461TIP3    H219390   1.566   5.023   0.726  0.8904 -1.6807  1.7484
 6462TIP3   OH219391   5.314   3.443   3.990  0.0907 -0.1181  0.4185
 6462TIP3    H119392   5.385   3.383   4.012  0.9342  0.5987 -0.2627
 6462TIP3    H219393   5.338   3.479   3.905 -1.5703 -0.5514 -0.2724
 6463TIP3   OH219394   5.987   1.682   4.233 -0.2607  0.2732 -0.3633
 6463TIP3    H119395   6.006   1.629   4.156 -0.5328  0.1690 -0.3597
 6463TIP3    H219396   5.892   1.681   4.240 -0.2048 -0.7378  0.6731
 6464TIP3   OH219397   6.122   1.889   3.786 -0.3892  0.8298  0.1574
 6464TIP3    H119398   6.199   1.898   3.842 -0.0614  1.0256 -0.3176
 6464TIP3    H219399   6.047   1.899   3.845 -0.0465  1.6952  0.4532
 6465TIP3   OH219400   5.046   0.269   0.288 -0.3249  0.3480  0.1914
 6465TIP3    H119401   5.053   0.364   0.299  1.4322  0.3380 -0.5402
 6465TIP3    H219402   5.111   0.233   0.348  0.1293 -0.3015 -0.6654
 6466TIP3   OH219403   4.289   0.255   2.473 -0.1619 -0.7181 -0.3441
 6466TIP3    H119404   4.215   0.203   2.441 -0.8079  0.2741 -0.5151
 6466TIP3    H219405   4.362   0.230   2.416 -0.7639 -0.5399 -1.2125
 6467TIP3   OH219406   3.154   2.755   4.195 -0.2344 -0.1848  0.1671
 6467TIP3    H119407   3.204   2.741   4.115 -0.1675 -0.1186  0.1974
 6467TIP3    H219408   3.220   2.775   4.261 -0.1107 -1.8876  0.6193
 6468TIP3   OH219409   1.766   3.873   1.418  0.3332  0.2656  0.1142
 6468TIP3    H119410   1.803   3.954   1.383  0.3562 -0.4747 -1.6672
 6468TIP3    H219411   1.837   3.833   1.468  0.8089  0.5954 -0.2942
 6469TIP3   OH219412   3.723   1.739   0.195 -0.6089 -0.0255  0.7313
 6469TIP3    H119413   3.642   1.779   0.226 -1.6207 -2.2800  1.2255
 6469TIP3    H219414   3.752   1.795   0.123 -1.8313  1.6157  1.4612
 6470TIP3   OH219415   3.924   4.227   2.415  0.5926  0.0652 -0.3080
 6470TIP3    H119416   3.988   4.275   2.467  2.1640 -2.1635 -0.0199
 6470TIP3    H219417   3.965   4.142   2.398 -0.8976 -0.2647 -3.0317
 6471TIP3   OH219418   4.124   0.158   1.138  0.1720  0.2540  0.1745
 6471TIP3    H119419   4.073   0.239   1.135  1.3467  1.0187 -2.2194
 6471TIP3    H219420   4.215   0.187   1.146  0.5413 -0.9086  0.5031
 6472TIP3   OH219421   0.456   1.863   2.952 -0.4929 -0.0004  0.4065
 6472TIP3    H119422   0.506   1.931   2.997  0.4539  2.7878 -4.2198
 6472TIP3    H219423   0.365   1.886   2.968 -0.2243  0.4922  1.3366
 6473TIP3   OH219424   3.019   4.207   0.043  0.1462  0.1782 -0.2713
 6473TIP3    H119425   3.032   4.231  -0.049  3.0685  2.7629  0.6535
 6473TIP3    H219426   2.996   4.289   0.085 -0.1908 -0.7842  1.4924
 6474TIP3   OH219427   3.347   1.669   2.084 -0.2235 -0.3124 -0.3412
 6474TIP3    H119428   3.357   1.616   2.005  0.4660  0.2404 -0.6370
 6474TIP3    H219429   3.403   1.745   2.069  0.9783 -0.8400  1.2475
 6475TIP3   OH219430   3.185   3.085   5.160  0.2602 -0.2933 -0.1847
 6475TIP3    H119431   3.254   3.062   5.098 -1.0239 -0.9547 -1.4596
 6475TIP3    H219432   3.183   3.180   5.161  1.0455 -0.2728 -0.2879
 6476TIP3   OH219433   2.625   0.088   1.358 -0.4207 -0.5520  0.0110
 6476TIP3    H119434   2.645   0.158   1.297  0.4789 -0.8673 -0.0638
 6476TIP3    H219435   2.533   0.067   1.341 -0.5678  0.3018 -0.2687
 6477TIP3   OH219436   1.078   3.523   2.889  0.0409  0.1883 -0.3177
 6477TIP3    H119437   1.106   3.496   2.801  0.9811 -0.0613  0.0503
 6477TIP3    H219438   1.116   3.610   2.900 -0.3061  0.3344 -0.2568
 6478TIP3   OH219439   0.193   4.396   2.814  0.5968 -0.2518 -0.3019
 6478TIP3    H119440   0.161   4.349   2.737 -2.6454  0.4480  0.4510
 6478TIP3    H219441   0.174   4.337   2.888 -0.7497  0.9160  0.3433
 6479TIP3   OH219442   4.032   2.001   3.802 -0.5241  0.1984 -0.0429
 6479TIP3    H119443   4.093   1.994   3.729 -0.0686 -1.5700  0.4778
 6479TIP3    H219444   3.946   1.983   3.763 -0.5058  0.9406 -0.4429
 6480TIP3   OH219445   3.885   5.476   1.915 -0.6917  0.1806 -0.1210
 6480TIP3    H119446   3.791   5.465   1.903 -0.7180 -0.7073  0.7146
 6480TIP3    H219447   3.902   5.567   1.891 -1.4731 -0.1044 -1.8995
 6481TIP3   OH219448   1.853   4.385   1.966  0.2103  0.2392  0.6484
 6481TIP3    H119449   1.876   4.470   1.929 -2.0216  0.7621  0.3307
 6481TIP3    H219450   1.874   4.323   1.896 -0.7557  0.8519 -0.2062
 6482TIP3   OH219451   4.581   2.413   2.598  0.5317  0.2662  0.2968
 6482TIP3    H119452   4.487   2.429   2.602  0.3916 -0.0244 -1.2417
 6482TIP3    H219453   4.601   2.365   2.678 -0.4389  1.1834  1.1104
 6483TIP3   OH219454   2.252   3.806   2.724 -0.2078 -0.0617  0.5147
 6483TIP3    H119455   2.223   3.895   2.741 -0.1651 -0.4022  2.5633
 6483TIP3    H219456   2.310   3.813   2.648  0.3430  1.7572  1.0691
 6484TIP3   OH219457   0.844   5.773   4.376 -0.3385  0.0197  0.0612
 6484TIP3    H119458   0.934   5.787   4.406 -0.5756 -0.3125  0.9492
 6484TIP3    H219459   0.824   5.851   4.323  0.7097 -0.2401 -0.7563
 6485TIP3   OH219460   4.020   0.041   1.895  0.4820 -0.4829 -0.4538
 6485TIP3    H119461   4.109   0.044   1.928  0.7039 -1.1743 -0.9665
 6485TIP3    H219462   3.973  -0.015   1.957  0.0971  0.8210  0.4804
 6486TIP3   OH219463   0.643   5.725   1.875  0.1008  0.3512  0.6609
 6486TIP3    H119464   0.572   5.684   1.925 -1.0277  1.0327 -0.3320
 6486TIP3    H219465   0.657   5.666   1.801  0.6648  0.1629  0.9109
 6487TIP3   OH219466   4.131   2.875   1.136  1.0843 -0.1012 -0.3841
 6487TIP3    H119467   4.082   2.793   1.131  1.2782 -0.3569  1.3183
 6487TIP3    H219468   4.079   2.930   1.195  2.7783 -0.3913  1.5029
 6488TIP3   OH219469   1.739   0.477   1.114 -0.7836  0.5679 -0.4239
 6488TIP3    H119470   1.809   0.434   1.064 -0.0287  2.3827 -1.0340
 6488TIP3    H219471   1.669   0.491   1.050 -1.1903 -0.0860 -0.1299
 6489TIP3   OH219472   3.494   0.315   5.148  0.0197  0.0386  0.1741
 6489TIP3    H119473   3.417   0.370   5.139  1.1628  1.4466 -1.6547
 6489TIP3    H219474   3.532   0.340   5.233 -0.2051  1.1224 -0.0390
 6490TIP3   OH219475   3.710   2.285   1.455 -0.0102  0.7045 -0.7455
 6490TIP3    H119476   3.679   2.259   1.369 -0.6127 -1.3534  0.0390
 6490TIP3    H219477   3.630   2.308   1.504  0.2019  0.6212 -0.3536
 6491TIP3   OH219478   3.354   3.689   1.317 -0.0584  0.0527 -0.1942
 6491TIP3    H119479   3.391   3.772   1.350  1.5446 -1.0004  0.8134
 6491TIP3    H219480   3.281   3.671   1.376  1.2854 -0.5765  1.3606
 6492TIP3   OH219481   4.329   3.870   3.156 -0.3087 -0.1436  0.0491
 6492TIP3    H119482   4.312   3.835   3.069  0.5831 -0.9087  0.1540
 6492TIP3    H219483   4.256   3.928   3.174 -1.5639 -1.5201 -0.3874
 6493TIP3   OH219484   4.069   2.335   3.732  0.5778  0.3262 -0.3201
 6493TIP3    H119485   4.162   2.352   3.716  2.1469 -1.3920  5.0410
 6493TIP3    H219486   4.047   2.266   3.670  3.5674 -0.7407 -0.3865
 6494TIP3   OH219487   0.416   1.095   4.953 -0.2597 -0.5960 -0.3070
 6494TIP3    H119488   0.432   1.058   4.866 -0.3229 -1.2391 -0.0532
 6494TIP3    H219489   0.494   1.071   5.003 -0.0039  0.1993 -0.3223
 6495TIP3   OH219490   1.720   1.638   3.606  0.1802 -0.0871 -0.7187
 6495TIP3    H119491   1.682   1.571   3.549  0.2145 -2.8309  2.1664
 6495TIP3    H219492   1.670   1.717   3.587 -2.2227 -1.7690 -1.9869
 6496TIP3   OH219493   1.068   2.441   0.673 -0.0493 -0.1156 -0.4527
 6496TIP3    H119494   1.004   2.378   0.637 -1.1642 -0.7714  2.4077
 6496TIP3    H219495   1.148   2.390   0.684 -0.1691 -0.3263 -0.5475
 6497TIP3   OH219496   1.500   5.112   4.169  0.1808 -0.9593  0.3351
 6497TIP3    H119497   1.490   5.136   4.261 -0.6622 -0.2756  0.0763
 6497TIP3    H219498   1.594   5.121   4.152  0.6516 -2.8810  1.5902
 6498TIP3   OH219499   5.412   5.595   1.727 -0.8677  0.0177 -0.1737
 6498TIP3    H119500   5.375   5.560   1.808  0.8473 -0.5123  0.4093
 6498TIP3    H219501   5.392   5.688   1.730 -2.6126 -0.3167 -0.1607
 6499TIP3   OH219502   2.495   2.134   3.717 -0.4486 -0.1586 -0.5444
 6499TIP3    H119503   2.452   2.052   3.695 -0.0853 -0.4782 -0.0764
 6499TIP3    H219504   2.587   2.121   3.692 -0.3070 -0.0448 -0.0988
 6500TIP3   OH219505   0.699   4.459   4.787 -0.6541  0.0402  0.5443
 6500TIP3    H119506   0.747   4.534   4.819 -0.5919  0.0965  0.3228
 6500TIP3    H219507   0.765   4.403   4.745 -0.9274  0.6701 -0.7959
 6501TIP3   OH219508   2.122   0.900   0.095  0.2517 -0.2612 -0.1579
 6501TIP3    H119509   2.132   0.860   0.182 -2.4727  1.2264  0.9470
 6501TIP3    H219510   2.176   0.979   0.099 -1.2422  0.7698  0.9347
 6502TIP3   OH219511   1.368   5.207   2.016 -0.0815  0.1631 -0.3943
 6502TIP3    H119512   1.347   5.116   2.033  0.8891  0.1768  1.0820
 6502TIP3    H219513   1.422   5.205   1.937  0.6465 -0.6353  0.1115
 6503TIP3   OH219514   0.970   3.625   3.891 -0.1332 -0.3028 -0.2302
 6503TIP3    H119515   0.931   3.615   3.977  0.1798  0.2905 -0.0117
 6503TIP3    H219516   0.990   3.719   3.885  1.8417 -0.6739 -0.0739
 6504TIP3   OH219517   4.725   4.180   1.808  0.0274  0.6346 -0.5422
 6504TIP3    H119518   4.749   4.099   1.852 -1.3090 -0.5485 -1.8347
 6504TIP3    H219519   4.804   4.233   1.810  0.5234 -0.0874  1.6103
 6505TIP3   OH219520   3.088   1.692   4.649  0.0433  0.9376  0.3256
 6505TIP3    H119521   3.060   1.619   4.594  1.3759  0.0034  0.8514
 6505TIP3    H219522   3.007   1.727   4.685 -0.6101 -0.3811  0.1955
 6506TIP3   OH219523   4.783   5.787   0.233  0.1373  0.2821 -0.9413
 6506TIP3    H119524   4.758   5.868   0.189  2.3804  1.3643 -0.4097
 6506TIP3    H219525   4.806   5.814   0.322 -1.7336 -1.4329  0.1543
 6507TIP3   OH219526   3.403   4.717   0.814  0.2389  0.1482  0.0006
 6507TIP3    H119527   3.387   4.742   0.723 -0.5552 -1.3096 -0.2872
 6507TIP3    H219528   3.478   4.770   0.840  1.0273 -0.0073 -1.7706
 6508TIP3   OH219529   3.886   4.455   0.481  0.4869 -0.3228  0.3198
 6508TIP3    H119530   3.865   4.373   0.524  1.0996  0.0528  1.3571
 6508TIP3    H219531   3.804   4.505   0.483  0.0202 -1.0291 -0.6253
 6509TIP3   OH219532   1.204   1.128   3.651  0.9850  0.1867  0.5087
 6509TIP3    H119533   1.208   1.093   3.740 -0.2100 -0.4006  0.3489
 6509TIP3    H219534   1.112   1.117   3.625  1.2715  0.5605 -0.7165
 6510TIP3   OH219535   3.119   3.379   5.141  0.5165 -0.1511 -0.1027
 6510TIP3    H119536   3.196   3.432   5.123 -0.9229  1.6635 -1.3066
 6510TIP3    H219537   3.064   3.433   5.197  0.3543 -1.6572  1.2627
 6511TIP3   OH219538   3.360   0.468   2.168  0.5342  0.0124  0.2399
 6511TIP3    H119539   3.433   0.495   2.112  1.3062 -0.2554  1.0913
 6511TIP3    H219540   3.320   0.394   2.121  2.0122 -1.1033  0.6523
 6512TIP3   OH219541   6.356   3.023   3.123 -0.7533  0.5105 -0.3211
 6512TIP3    H119542   6.262   3.037   3.116 -0.9494  0.1641  1.1871
 6512TIP3    H219543   6.395   3.095   3.073 -1.8176  0.8877 -0.6312
 6513TIP3   OH219544   1.699   4.063   2.336 -0.0455 -0.1007 -0.5083
 6513TIP3    H119545   1.663   3.980   2.307  3.2438 -2.0931  0.6103
 6513TIP3    H219546   1.696   4.060   2.431  1.0691  0.5596 -0.4217
 6514TIP3   OH219547   3.845   2.028   2.656 -0.1646 -0.2239 -0.5470
 6514TIP3    H119548   3.858   1.968   2.583  0.9888 -0.6024 -0.0553
 6514TIP3    H219549   3.842   1.972   2.733 -1.2208  0.1840 -0.2722
 6515TIP3   OH219550   1.968   0.173   4.578 -0.1112 -0.4348  0.0542
 6515TIP3    H119551   2.040   0.226   4.544  0.4262 -0.3027  1.3473
 6515TIP3    H219552   1.889   0.217   4.546  0.3213  1.0642  0.9126
 6516TIP3   OH219553   4.260   3.067   2.346  0.0693  0.0706 -0.4502
 6516TIP3    H119554   4.197   3.046   2.416  0.2692  0.4782 -0.1495
 6516TIP3    H219555   4.264   2.987   2.294 -0.3503 -0.1185 -0.2027
 6517TIP3   OH219556   4.124   0.331   2.127  0.0958  0.4191  0.0610
 6517TIP3    H119557   4.218   0.346   2.117 -0.0399  1.4143  0.2132
 6517TIP3    H219558   4.083   0.403   2.079 -0.6093 -0.7627 -1.1686
 6518TIP3   OH219559   1.424   1.352   3.760  0.1004  0.4090 -0.1712
 6518TIP3    H119560   1.393   1.429   3.713 -0.4027 -0.4416 -1.2695
 6518TIP3    H219561   1.365   1.281   3.734 -0.3072 -0.0761  1.8888
 6519TIP3   OH219562   1.392   0.318   0.825  0.1357  0.3424 -1.1724
 6519TIP3    H119563   1.396   0.347   0.734  0.5990  0.3298 -1.1594
 6519TIP3    H219564   1.303   0.339   0.854  0.0355  0.4803 -1.5823
 6520TIP3   OH219565   3.630   5.398   1.757 -0.2218 -0.1464 -0.2339
 6520TIP3    H119566   3.629   5.342   1.835 -0.6209 -0.4707 -0.4647
 6520TIP3    H219567   3.555   5.368   1.706 -0.8381  1.0398 -0.0597
 6521TIP3   OH219568   0.807   0.491   0.408 -0.0608  0.1028 -0.4376
 6521TIP3    H119569   0.781   0.567   0.356 -1.2077 -0.0210 -0.0739
 6521TIP3    H219570   0.728   0.437   0.412  0.4876 -0.6759  0.0566
 6522TIP3   OH219571   6.100   1.010   3.791 -0.3362 -0.4234 -0.6232
 6522TIP3    H119572   6.129   1.025   3.881  0.7280 -0.5684 -0.9257
 6522TIP3    H219573   6.064   0.921   3.792  2.2154 -1.5483 -0.9008
 6523TIP3   OH219574   4.715   3.180   2.344  0.2499  0.4649 -0.0499
 6523TIP3    H119575   4.699   3.087   2.325  1.0939  0.2622  0.2113
 6523TIP3    H219576   4.645   3.226   2.297 -0.4629 -0.3296  0.1999
 6524TIP3   OH219577   0.797   4.703   4.871  0.0728  0.2420 -0.0661
 6524TIP3    H119578   0.804   4.763   4.946  0.6375 -1.5020  1.3374
 6524TIP3    H219579   0.883   4.708   4.828  0.0579  0.5554 -0.0630
 6525TIP3   OH219580   6.122   1.089   0.573 -0.1110 -0.2758  0.0989
 6525TIP3    H119581   6.123   1.160   0.637  0.4301 -0.2065  0.0235
 6525TIP3    H219582   6.159   1.014   0.620  0.7756 -0.0856 -0.2801
 6526TIP3   OH219583   0.226   4.538   4.642 -0.2801  0.7144 -0.0909
 6526TIP3    H119584   0.271   4.576   4.566  0.9198 -0.7298 -0.1478
 6526TIP3    H219585   0.227   4.608   4.707  3.0626  0.4979  0.2990
 6527TIP3   OH219586   2.890   0.000   4.159 -0.4693 -0.6018  0.6403
 6527TIP3    H119587   2.915   0.078   4.209 -0.4604 -0.3067  0.1888
 6527TIP3    H219588   2.816   0.030   4.105  2.0346  0.3000 -2.5592
 6528TIP3   OH219589   2.838   3.789   0.311  0.4067 -0.3361 -0.5943
 6528TIP3    H119590   2.812   3.708   0.267  0.9024 -1.0547  0.4076
 6528TIP3    H219591   2.756   3.823   0.347 -0.1391  0.6303 -2.5826
 6529TIP3   OH219592   4.627   5.807   4.078  0.6111 -0.7691  0.2567
 6529TIP3    H119593   4.717   5.807   4.112  0.6479 -1.4043  0.1744
 6529TIP3    H219594   4.609   5.899   4.057  0.7292 -0.4156  1.6159
 6530TIP3   OH219595   0.426   5.516   0.118 -0.0958  0.8148  0.5592
 6530TIP3    H119596   0.433   5.476   0.032 -0.4655  2.2164 -0.1500
 6530TIP3    H219597   0.336   5.549   0.122  0.3891  2.1677  0.8229
 6531TIP3   OH219598   0.474   0.263   2.629  0.4213  0.1540  0.2833
 6531TIP3    H119599   0.519   0.331   2.680  0.3905  0.0992  0.3840
 6531TIP3    H219600   0.545   0.213   2.589  0.4272  1.1938 -1.0550
 6532TIP3   OH219601   2.220   5.602   4.507 -0.2534  0.2952  0.4283
 6532TIP3    H119602   2.299   5.638   4.467 -0.5481  0.4540 -0.0068
 6532TIP3    H219603   2.253   5.555   4.584  0.0265  2.4669  1.7078
 6533TIP3   OH219604   2.271   0.206   0.669  0.5438 -0.1012  0.0475
 6533TIP3    H119605   2.181   0.206   0.636  0.1929  0.7101  0.9622
 6533TIP3    H219606   2.286   0.115   0.696  0.6776 -0.6841 -1.8205
 6534TIP3   OH219607   4.859   2.484   2.642 -0.4829  0.0330  0.4315
 6534TIP3    H119608   4.930   2.425   2.667  0.4874  0.6182 -0.8666
 6534TIP3    H219609   4.796   2.428   2.596 -0.0470 -0.1791  0.0926
 6535TIP3   OH219610   2.878   5.812   5.162 -0.4854  0.5595 -0.1838
 6535TIP3    H119611   2.957   5.781   5.117  0.1971  1.1359  0.6071
 6535TIP3    H219612   2.811   5.810   5.094  0.0222 -0.6272 -0.6940
 6536TIP3   OH219613   6.053   0.975   1.649  0.8230  0.6166  0.3780
 6536TIP3    H119614   5.960   0.993   1.633  0.1895 -1.4879  1.3684
 6536TIP3    H219615   6.085   0.942   1.565  0.2316 -0.2306  0.4709
 6537TIP3   OH219616   4.030   3.724   3.226 -0.2957 -0.3749  0.4111
 6537TIP3    H119617   4.041   3.663   3.299  0.3664  0.0967  0.7237
 6537TIP3    H219618   3.937   3.718   3.203 -0.4387 -0.7857  1.0697
 6538TIP3   OH219619   0.571   3.416   1.214  0.4463 -0.5130 -1.0260
 6538TIP3    H119620   0.573   3.462   1.131 -0.9865  0.1366 -0.7303
 6538TIP3    H219621   0.613   3.332   1.196 -0.8098 -0.8327 -2.7031
 6539TIP3   OH219622   6.279   2.449   2.464 -0.0429  0.2364  0.1122
 6539TIP3    H119623   6.286   2.545   2.465  0.1010  0.2229  0.4424
 6539TIP3    H219624   6.354   2.420   2.411  0.1379  0.2879  0.3373
 6540TIP3   OH219625   6.343   4.033   1.285 -0.4608 -0.1455 -0.2130
 6540TIP3    H119626   6.273   3.987   1.239  0.1084 -1.5702  0.2836
 6540TIP3    H219627   6.305   4.058   1.369 -0.2427 -1.3561  0.2576
 6541TIP3   OH219628   1.841   4.450   0.220 -0.1464  0.3004 -0.2353
 6541TIP3    H119629   1.854   4.365   0.179 -2.4532 -0.9573  1.3682
 6541TIP3    H219630   1.762   4.485   0.178 -1.1283  0.0846  1.3455
 6542TIP3   OH219631   4.074   1.562   2.659 -0.3707  0.1574  0.1749
 6542TIP3    H119632   4.116   1.486   2.618 -0.1021  0.1741  0.4121
 6542TIP3    H219633   4.101   1.558   2.751  1.1848  1.5503 -0.1604
 6543TIP3   OH219634   1.024   0.563   0.531  0.1554  0.0579 -0.1004
 6543TIP3    H119635   0.980   0.629   0.585  1.5632  0.3798  0.6787
 6543TIP3    H219636   0.953   0.526   0.477 -0.7851  1.7121 -0.0765
 6544TIP3   OH219637   4.787   4.089   2.320 -0.7480  0.0567  0.5820
 6544TIP3    H119638   4.881   4.084   2.334 -0.5192 -0.4943 -0.9792
 6544TIP3    H219639   4.749   4.034   2.389 -0.1217  1.9974  2.5950
 6545TIP3   OH219640   5.253   4.527   3.099  0.0847  0.1107 -0.5294
 6545TIP3    H119641   5.159   4.513   3.102  0.0283  0.6614  0.5989
 6545TIP3    H219642   5.278   4.547   3.189  1.4142 -0.8306 -0.6566
 6546TIP3   OH219643   0.796   5.737   3.724  0.0180 -0.0075  0.5629
 6546TIP3    H119644   0.703   5.757   3.729 -0.2861 -0.9737 -0.7957
 6546TIP3    H219645   0.838   5.818   3.696 -0.5081  0.1989  0.3843
 6547TIP3   OH219646   0.916   4.531   3.361  0.3890  0.3048 -0.5225
 6547TIP3    H119647   0.980   4.590   3.400 -1.1144  1.8198 -0.2242
 6547TIP3    H219648   0.857   4.508   3.432 -0.6902  0.7362 -1.2514
 6548TIP3   OH219649   3.885   0.626   3.093 -0.3920 -0.1724  0.0117
 6548TIP3    H119650   3.936   0.671   3.025 -0.4959 -0.9279 -0.5809
 6548TIP3    H219651   3.910   0.669   3.174 -0.3010  0.7911 -0.5099
 6549TIP3   OH219652   0.127   5.573   4.155  0.1909  0.3796 -0.5946
 6549TIP3    H119653   0.057   5.603   4.214 -0.3695  1.0874 -1.5823
 6549TIP3    H219654   0.101   5.484   4.131 -1.6392  1.4025 -2.7249
 6550TIP3   OH219655   1.533   4.032   3.396  0.6557 -0.2371 -0.2746
 6550TIP3    H119656   1.451   4.027   3.347  1.9981  0.4006 -2.7297
 6550TIP3    H219657   1.515   3.986   3.478 -3.0948  2.5678  0.7133
 6551TIP3   OH219658   6.216   3.105   5.006  0.1091 -0.2187  0.3677
 6551TIP3    H119659   6.286   3.145   4.955 -0.4791  0.0860 -0.2087
 6551TIP3    H219660   6.250   3.104   5.096  0.5130  0.7078  0.2417
 6552TIP3   OH219661   5.080   1.136   1.081  0.3592 -0.0118  0.2464
 6552TIP3    H119662   5.027   1.188   1.020  0.3875  1.5416  1.4793
 6552TIP3    H219663   5.164   1.125   1.037 -0.2946 -0.7407 -0.8676
 6553TIP3   OH219664   2.114   5.406   0.124 -0.2837 -0.0504 -0.5814
 6553TIP3    H119665   2.182   5.428   0.060  0.8668 -1.1447  0.2108
 6553TIP3    H219666   2.138   5.456   0.203 -1.1894  0.6083 -0.7023
 6554TIP3   OH219667   3.432   1.830   3.166 -0.4430  0.1183  0.1766
 6554TIP3    H119668   3.400   1.805   3.079 -1.1127 -0.7696  0.6563
 6554TIP3    H219669   3.385   1.772   3.226  2.0252 -1.2306  0.9434
 6555TIP3   OH219670   1.315   4.085   4.795  0.0796 -0.1612 -0.2913
 6555TIP3    H119671   1.314   4.111   4.703 -0.4468 -1.0226 -0.5409
 6555TIP3    H219672   1.263   4.153   4.839 -0.2069 -0.0876 -0.7307
 6556TIP3   OH219673   2.406   4.370   1.694  0.1902  0.4065 -0.5849
 6556TIP3    H119674   2.485   4.330   1.729  0.4473  1.1436 -0.3115
 6556TIP3    H219675   2.334   4.327   1.740  0.3930 -0.7106 -1.2817
 6557TIP3   OH219676  -0.033   4.765   0.059  0.3694 -0.5733  0.1760
 6557TIP3    H119677  -0.014   4.835   0.122 -1.2846 -0.5293  0.6941
 6557TIP3    H219678   0.048   4.754   0.010  1.2906  0.3432  1.4039
 6558TIP3   OH219679   4.510   3.913   0.042  0.1093 -0.0668 -0.1672
 6558TIP3    H119680   4.528   3.821   0.022 -0.9779  0.1583 -2.4587
 6558TIP3    H219681   4.453   3.942  -0.028 -0.8596  1.9629  1.3666
 6559TIP3   OH219682   0.021   0.092   2.928 -0.0856 -0.2015  0.1240
 6559TIP3    H119683   0.090   0.139   2.881  0.2157 -1.2741 -0.5426
 6559TIP3    H219684   0.061   0.067   3.011 -0.4054  1.1138  0.6989
 6560TIP3   OH219685   2.470   2.934   0.497  0.0101  0.0999  0.0515
 6560TIP3    H119686   2.532   3.003   0.473 -0.8983  0.5567 -1.0676
 6560TIP3    H219687   2.385   2.976   0.492 -0.3899 -0.3512  2.1720
 6561TIP3   OH219688   6.380   3.622   1.971  0.0160  0.1436  0.0333
 6561TIP3    H119689   6.319   3.676   1.922 -0.0324  0.3411  0.3082
 6561TIP3    H219690   6.339   3.536   1.976  0.8460 -0.4172 -1.8759
 6562TIP3   OH219691   6.172   0.388   2.140  0.1074 -0.3007 -0.1686
 6562TIP3    H119692   6.236   0.366   2.208 -0.3784 -0.3484  0.2864
 6562TIP3    H219693   6.150   0.304   2.100  0.6707 -0.2252 -0.6381
 6563TIP3   OH219694   4.827   3.751   1.734  0.3513  0.2458 -0.3021
 6563TIP3    H119695   4.905   3.720   1.689  0.4079  0.4791 -0.3663
 6563TIP3    H219696   4.841   3.845   1.745  0.4854  0.1408  0.4864
 6564TIP3   OH219697   4.363   5.632   0.358  0.5898  0.2530 -0.0656
 6564TIP3    H119698   4.271   5.608   0.349  0.6144  0.0789  0.1319
 6564TIP3    H219699   4.410   5.568   0.305  0.4935  1.2511 -1.4009
 6565TIP3   OH219700   5.538   4.899   1.061 -0.0044  0.1899 -0.4014
 6565TIP3    H119701   5.583   4.978   1.092  0.9109  0.3843 -2.0925
 6565TIP3    H219702   5.452   4.929   1.035 -0.4556  0.1914  0.9877
 6566TIP3   OH219703   4.101   0.369   4.087  0.5966  0.5789 -0.6106
 6566TIP3    H119704   4.113   0.382   3.993 -1.9373 -0.2700 -1.1391
 6566TIP3    H219705   4.008   0.384   4.101  1.0174  1.2763  1.8998
 6567TIP3   OH219706   1.816   1.862   0.435  0.5613  0.1780  0.3074
 6567TIP3    H119707   1.747   1.913   0.477  0.0730 -0.1775 -0.0536
 6567TIP3    H219708   1.883   1.927   0.412 -0.4446  0.8222 -0.9461
 6568TIP3   OH219709   0.705   3.029   2.887 -0.2867  0.3006 -0.0539
 6568TIP3    H119710   0.699   3.088   2.962 -0.0685  0.3346 -0.0602
 6568TIP3    H219711   0.624   3.043   2.839  0.3845  1.7178 -0.8538
 6569TIP3   OH219712   0.078   0.526   4.546  0.0027  0.2595 -0.2229
 6569TIP3    H119713   0.028   0.513   4.627 -0.4338 -0.5011 -0.6025
 6569TIP3    H219714   0.012   0.522   4.477  0.5096 -0.2061 -0.6913
 6570TIP3   OH219715   6.307   0.666   0.913  0.1654 -0.0310  0.5839
 6570TIP3    H119716   6.329   0.573   0.917  1.7619  0.3623  2.0786
 6570TIP3    H219717   6.362   0.707   0.980 -2.0793  1.7111  1.5084
 6571TIP3   OH219718   4.558   3.905   4.895 -0.1842 -0.0644 -0.8465
 6571TIP3    H119719   4.550   3.837   4.828  3.9862  0.0437 -1.7174
 6571TIP3    H219720   4.652   3.912   4.911 -0.6988  3.0143  1.8865
 6572TIP3   OH219721   5.970   5.259   0.525 -0.3974  0.3556 -0.1615
 6572TIP3    H119722   6.042   5.268   0.463 -1.0670  1.9735 -0.7599
 6572TIP3    H219723   6.011   5.228   0.606  0.9724  1.3012 -0.4645
 6573TIP3   OH219724   3.539   0.785   0.860 -0.8100 -0.5692 -0.1700
 6573TIP3    H119725   3.454   0.793   0.816 -1.1259 -1.6777  0.1911
 6573TIP3    H219726   3.600   0.834   0.805 -1.2951 -1.4911 -1.5834
 6574TIP3   OH219727   1.804   2.698   4.655 -0.2289  0.3195  0.1267
 6574TIP3    H119728   1.781   2.743   4.736  0.4326  1.1892 -0.1516
 6574TIP3    H219729   1.785   2.761   4.586 -0.1694 -0.1718 -0.3482
 6575TIP3   OH219730   2.523   0.414   0.758 -0.2544  0.1731  0.1869
 6575TIP3    H119731   2.614   0.437   0.740 -0.1354 -0.5562 -0.1692
 6575TIP3    H219732   2.486   0.494   0.796  0.9211  0.0256  1.7525
 6576TIP3   OH219733   5.039   5.024   2.142  0.1771 -0.2582  0.0196
 6576TIP3    H119734   5.057   5.019   2.236 -0.0330  3.3586  0.3969
 6576TIP3    H219735   5.098   4.960   2.103  2.3545  0.1297  2.4116
 6577TIP3   OH219736   3.870   2.179   3.227  0.6685  0.4738 -0.7464
 6577TIP3    H119737   3.797   2.210   3.174  0.7451  0.3000 -0.9517
 6577TIP3    H219738   3.833   2.171   3.315  0.3731  0.1485 -0.8982
 6578TIP3   OH219739   2.689   5.769   1.116  0.2013  0.3144 -0.2167
 6578TIP3    H119740   2.637   5.826   1.173  0.6994  0.3825  0.1714
 6578TIP3    H219741   2.708   5.692   1.170  0.3122  0.1898 -0.4322
 6579TIP3   OH219742   4.350   3.684   2.285  0.2447 -0.2072  0.3181
 6579TIP3    H119743   4.298   3.637   2.219  0.9911  1.0722 -1.2278
 6579TIP3    H219744   4.438   3.689   2.248  0.6263  0.7779  1.3045
 6580TIP3   OH219745   0.754   4.400   0.459  0.1657 -0.2719 -0.5611
 6580TIP3    H119746   0.785   4.318   0.421  0.8071 -0.5520  0.5229
 6580TIP3    H219747   0.798   4.469   0.408  0.2544 -0.6107 -0.9455
 6581TIP3   OH219748   5.781   2.381   2.418  0.6201 -0.2203  0.3388
 6581TIP3    H119749   5.855   2.368   2.477  0.6785  0.1734  0.3560
 6581TIP3    H219750   5.765   2.295   2.379  0.0535 -0.6682  1.5356
 6582TIP3   OH219751   3.802   3.626   2.418 -0.7329  0.1416  0.7288
 6582TIP3    H119752   3.725   3.670   2.384 -0.3311  0.1890 -0.1339
 6582TIP3    H219753   3.787   3.533   2.402  0.5134  0.3169 -1.8772
 6583TIP3   OH219754   3.983   3.127   1.904  0.0390 -0.8350 -0.1647
 6583TIP3    H119755   4.070   3.117   1.941 -0.0798 -1.8279 -0.1428
 6583TIP3    H219756   3.937   3.183   1.967  0.1006 -1.8060  0.7735
 6584TIP3   OH219757   0.277   0.279   4.796 -0.0667  0.0541  0.1749
 6584TIP3    H119758   0.188   0.307   4.820 -0.5046 -0.5300 -0.7007
 6584TIP3    H219759   0.277   0.185   4.811  0.5457  0.1163  0.5680
 6585TIP3   OH219760   0.627   5.725   0.176 -0.3334 -0.2025 -0.6211
 6585TIP3    H119761   0.715   5.730   0.138  0.3395  1.7292  1.0460
 6585TIP3    H219762   0.599   5.635   0.157  2.1981 -1.0715 -0.7561
 6586TIP3   OH219763   4.072   0.423   2.545 -0.3696  0.1218  1.0283
 6586TIP3    H119764   3.992   0.381   2.514  0.5654 -0.1675 -1.1428
 6586TIP3    H219765   4.139   0.355   2.539  0.6188  1.1370  0.0422
 6587TIP3   OH219766   3.107   1.811   3.406  0.5564 -0.2648  0.7491
 6587TIP3    H119767   3.049   1.766   3.468 -2.8057 -0.5907 -2.2712
 6587TIP3    H219768   3.099   1.904   3.429  0.3539 -0.4589  1.5177
 6588TIP3   OH219769   0.021   2.913   2.131 -0.0859 -0.1817 -0.1084
 6588TIP3    H119770   0.113   2.923   2.156  0.5400 -2.3503 -1.3057
 6588TIP3    H219771  -0.028   2.954   2.203  1.7636 -0.1650  1.2218
 6589TIP3   OH219772   3.286   5.131   1.288 -0.2039  0.0967  0.4551
 6589TIP3    H119773   3.246   5.150   1.203 -1.7889  0.9595  1.3297
 6589TIP3    H219774   3.287   5.036   1.293  0.0947  0.0310 -0.6030
 6590TIP3   OH219775   3.104   0.574   3.167  0.1260  0.1223  0.0153
 6590TIP3    H119776   3.053   0.654   3.173 -0.4730  0.2842 -3.9898
 6590TIP3    H219777   3.191   0.603   3.138  0.7075 -0.5390  1.0441
 6591TIP3   OH219778   5.153   0.613   3.220  0.2494  0.2011 -0.6164
 6591TIP3    H119779   5.145   0.518   3.207  0.7200  0.2226 -1.1229
 6591TIP3    H219780   5.229   0.638   3.167 -0.7730  1.1119 -1.6947
 6592TIP3   OH219781   0.254   5.867   1.235 -0.3539 -0.6821 -0.0489
 6592TIP3    H119782   0.194   5.919   1.181  0.8846  0.2802 -0.5319
 6592TIP3    H219783   0.341   5.887   1.202  0.3953 -0.7260  1.7481
 6593TIP3   OH219784   2.568   2.296   0.038  0.2948 -0.7268 -0.2941
 6593TIP3    H119785   2.505   2.351   0.084 -0.4097 -1.3180 -0.5343
 6593TIP3    H219786   2.607   2.241   0.107 -1.4112 -2.2533 -0.4617
 6594TIP3   OH219787   3.554   4.200   2.161  0.6098  0.1017  0.2750
 6594TIP3    H119788   3.538   4.162   2.074  1.4912 -0.2030  0.2334
 6594TIP3    H219789   3.647   4.223   2.160  0.7350 -0.3103  1.2903
 6595TIP3   OH219790   1.228   3.533   0.272  0.4445  0.0078 -0.2414
 6595TIP3    H119791   1.220   3.490   0.186  2.1005 -2.0730  0.5619
 6595TIP3    H219792   1.154   3.499   0.323  0.9011 -0.7605 -0.0765
 6596TIP3   OH219793   1.553   2.455   1.978  0.2102  0.2465  0.0711
 6596TIP3    H119794   1.497   2.522   2.017  1.5442  0.9439  0.8581
 6596TIP3    H219795   1.596   2.413   2.053  1.4700  0.3987 -0.5427
 6597TIP3   OH219796   3.932   3.210   4.140  0.2837 -0.0982 -0.0039
 6597TIP3    H119797   3.868   3.151   4.178 -1.7009  1.0804 -1.3429
 6597TIP3    H219798   3.937   3.284   4.202 -2.9906  1.8504 -1.7967
 6598TIP3   OH219799   2.728   2.180   2.061  0.6886 -0.3500  0.0670
 6598TIP3    H119800   2.638   2.148   2.052  0.2143  0.4955  1.3777
 6598TIP3    H219801   2.777   2.103   2.091 -0.1814 -0.2172  1.9895
 6599TIP3   OH219802   1.673   0.177   2.410  0.0686  0.2809  0.2232
 6599TIP3    H119803   1.669   0.177   2.315 -0.3334  1.9486  0.2012
 6599TIP3    H219804   1.583   0.198   2.437 -0.4867 -2.6908  1.0936
 6600TIP3   OH219805   6.124   2.243   0.052 -0.1422 -0.3072  0.3993
 6600TIP3    H119806   6.068   2.205  -0.016  0.6039 -3.9359  1.5562
 6600TIP3    H219807   6.208   2.257   0.008 -0.2377 -0.6909  0.0805
 6601TIP3   OH219808   4.099   5.832   0.714  0.5068 -0.1259 -0.7547
 6601TIP3    H119809   4.032   5.864   0.774 -0.6180 -1.4221 -1.2548
 6601TIP3    H219810   4.121   5.907   0.660  1.0756  0.8952  0.8329
 6602TIP3   OH219811   4.973   5.123   5.083  0.5595  0.0883 -0.4255
 6602TIP3    H119812   4.997   5.038   5.122 -1.3254 -0.0027  0.6829
 6602TIP3    H219813   4.899   5.102   5.025  1.8846  0.5870 -2.3800
 6603TIP3   OH219814   1.564   5.973   1.463  0.4793 -0.4111 -0.7399
 6603TIP3    H119815   1.487   5.936   1.507  0.7832  0.7853  0.9091
 6603TIP3    H219816   1.529   6.013   1.384 -0.5500 -0.2688 -0.2379
 6604TIP3   OH219817   0.668   4.793   1.064 -0.5806 -0.1052 -0.2183
 6604TIP3    H119818   0.649   4.887   1.055  0.6236  0.5544  2.8416
 6604TIP3    H219819   0.586   4.754   1.094 -1.0174 -0.0358 -1.2693
 6605TIP3   OH219820   1.534   5.407   3.933 -0.3793  0.4348 -0.1326
 6605TIP3    H119821   1.604   5.471   3.942 -1.0568  1.2342 -0.4809
 6605TIP3    H219822   1.473   5.428   4.003 -1.4359  1.2585 -1.2696
 6606TIP3   OH219823   3.755   1.918   0.760  0.1985  0.2964 -0.6247
 6606TIP3    H119824   3.763   1.889   0.669  1.6354  0.4406 -0.5562
 6606TIP3    H219825   3.828   1.978   0.773  1.2582 -1.2600  1.2077
 6607TIP3   OH219826   3.346   1.756   4.723 -0.3981 -0.0517  0.2237
 6607TIP3    H119827   3.263   1.755   4.676 -0.2102  2.4307 -0.2923
 6607TIP3    H219828   3.322   1.757   4.815 -0.9796  0.6775  0.0739
 6608TIP3   OH219829   4.977   1.275   2.385  0.5277  0.4192 -0.1307
 6608TIP3    H119830   5.056   1.229   2.355 -1.2269 -2.1675 -1.0759
 6608TIP3    H219831   4.967   1.347   2.322  0.6658 -0.8856 -1.7122
 6609TIP3   OH219832   4.033   1.053   4.664  0.5580 -0.3663  0.2579
 6609TIP3    H119833   3.960   0.998   4.634  1.0604 -0.5986 -0.5537
 6609TIP3    H219834   4.069   1.006   4.740  0.4275 -0.7061  0.1088
 6610TIP3   OH219835   2.317   1.459   0.320 -0.0986 -0.0611  0.3831
 6610TIP3    H119836   2.387   1.521   0.341  0.5030 -0.2546 -0.9163
 6610TIP3    H219837   2.278   1.494   0.240  0.0836 -1.2006 -0.2253
 6611TIP3   OH219838   0.445   5.395   3.585 -0.4644 -0.6346  0.0457
 6611TIP3    H119839   0.365   5.345   3.602 -0.8854 -0.0385 -0.1687
 6611TIP3    H219840   0.416   5.474   3.540 -0.0721  0.8687  2.2478
 6612TIP3   OH219841   4.808   0.993   0.488 -0.4788 -0.5142  0.1829
 6612TIP3    H119842   4.828   0.900   0.477 -1.5437 -0.8391  0.8195
 6612TIP3    H219843   4.874   1.038   0.437  0.0875 -1.6249 -0.0958
 6613TIP3   OH219844   2.993   0.663   4.699  0.3405  0.0992 -0.1688
 6613TIP3    H119845   2.974   0.756   4.689 -1.4880 -0.4078 -1.9635
 6613TIP3    H219846   2.985   0.627   4.611  1.2038 -1.7476  0.4513
 6614TIP3   OH219847   2.969   4.953   3.744 -0.1794 -0.8294 -0.3562
 6614TIP3    H119848   2.881   4.939   3.781  0.4146 -1.0525  1.0189
 6614TIP3    H219849   2.999   5.035   3.785  0.8992 -1.6239  0.5003
 6615TIP3   OH219850   2.023   1.199   2.154 -0.2811  0.5688 -0.0807
 6615TIP3    H119851   2.065   1.267   2.206 -1.0788  0.5757  0.5641
 6615TIP3    H219852   2.007   1.128   2.216  0.2371 -0.0856 -0.6731
 6616TIP3   OH219853   1.361   4.797   3.462  0.0255  0.2396 -0.8980
 6616TIP3    H119854   1.424   4.797   3.390 -1.8961 -0.1523 -2.6778
 6616TIP3    H219855   1.388   4.723   3.517  1.2118  0.1884 -1.5107
 6617TIP3   OH219856   5.103   2.987   4.309 -0.3819 -0.5517  0.0350
 6617TIP3    H119857   5.153   2.906   4.318  1.8865  0.8294  1.0485
 6617TIP3    H219858   5.062   3.000   4.395 -0.3761 -0.4213  0.0190
 6618TIP3   OH219859   0.435   4.069   2.573 -0.0741  0.1108 -0.1888
 6618TIP3    H119860   0.383   4.083   2.652  0.1790 -0.3689  0.0649
 6618TIP3    H219861   0.512   4.126   2.585 -1.3547  2.2364 -1.3799
 6619TIP3   OH219862   1.753   3.897   0.841  0.7120 -0.0202  0.0322
 6619TIP3    H119863   1.725   3.850   0.762 -0.8444  0.1783  0.4163
 6619TIP3    H219864   1.763   3.829   0.907  1.1821 -0.0944 -0.1115
 6620TIP3   OH219865   3.607   4.793   4.185  0.1145  0.0184 -0.1476
 6620TIP3    H119866   3.639   4.731   4.120  1.7217  0.0208  0.5940
 6620TIP3    H219867   3.583   4.739   4.261  0.3862  0.2037  0.0708
 6621TIP3   OH219868   4.131   4.532   4.007  0.2400  0.3916 -0.1230
 6621TIP3    H119869   4.113   4.502   4.096 -0.9976  1.8046  0.1397
 6621TIP3    H219870   4.093   4.465   3.951  0.2943 -0.0899  0.4071
 6622TIP3   OH219871   4.786   4.534   1.439 -0.0049  0.8827 -0.0591
 6622TIP3    H119872   4.806   4.485   1.518 -0.1345  1.0933  0.1055
 6622TIP3    H219873   4.861   4.519   1.382 -0.2638  0.0968 -0.2044
 6623TIP3   OH219874   3.722   3.164   0.900 -0.2313  0.1960 -0.3297
 6623TIP3    H119875   3.751   3.176   0.991 -1.6116  1.6853 -0.0547
 6623TIP3    H219876   3.665   3.087   0.903 -0.4865  0.3991  0.1219
 6624TIP3   OH219877   6.259   4.666   0.394 -1.0172  0.2199 -0.1046
 6624TIP3    H119878   6.289   4.756   0.407 -3.4694  1.0459  0.2885
 6624TIP3    H219879   6.165   4.669   0.407 -1.0666 -2.6317  1.0117
 6625TIP3   OH219880   5.931   2.920   0.228 -0.4738 -0.2696 -0.4614
 6625TIP3    H119881   6.013   2.908   0.275  0.1592  1.9268 -0.9125
 6625TIP3    H219882   5.956   2.970   0.149 -2.6191  3.6517  1.0873
 6626TIP3   OH219883   6.009   5.495   3.287  0.0641 -0.2191  0.5407
 6626TIP3    H119884   5.950   5.553   3.336  2.2131  0.6675  2.2642
 6626TIP3    H219885   6.060   5.555   3.231  1.0224 -0.6516  0.9359
 6627TIP3   OH219886   0.226   4.058   5.071 -0.0198 -0.4807  0.1225
 6627TIP3    H119887   0.203   4.037   5.162  0.1124 -0.9728  0.0437
 6627TIP3    H219888   0.154   4.114   5.041 -0.8210 -1.4859  0.0840
 6628TIP3   OH219889   0.557   4.197   1.900  0.6979 -0.1930  0.4428
 6628TIP3    H119890   0.565   4.131   1.831  1.2787  0.9126 -0.5694
 6628TIP3    H219891   0.542   4.146   1.980 -2.5091 -1.4600 -0.8027
 6629TIP3   OH219892   1.271   3.132   2.043 -0.3692 -0.2275 -0.2128
 6629TIP3    H119893   1.306   3.043   2.045  1.7624  0.5616  1.3500
 6629TIP3    H219894   1.197   3.129   2.102 -0.7408 -1.0987 -0.6927
 6630TIP3   OH219895   1.037   3.390   0.423  0.1819  0.3513  0.2080
 6630TIP3    H119896   1.033   3.297   0.445  1.3337  0.6342  1.8069
 6630TIP3    H219897   0.967   3.403   0.359 -0.6572 -1.4056  0.7121
 6631TIP3   OH219898   0.433   4.951   0.807 -0.1740 -0.1558 -0.4428
 6631TIP3    H119899   0.440   4.991   0.894 -2.4734  0.0811 -0.2976
 6631TIP3    H219900   0.395   4.864   0.825  0.5235 -0.6122 -1.1275
 6632TIP3   OH219901   2.321   2.175   3.342 -0.0662 -0.8086 -0.0675
 6632TIP3    H119902   2.297   2.267   3.329 -0.5030 -0.6893  1.3636
 6632TIP3    H219903   2.266   2.127   3.280  0.7456 -0.0714 -1.4008
 6633TIP3   OH219904   2.860   2.368   1.898  0.8718 -0.2937 -0.1336
 6633TIP3    H119905   2.820   2.289   1.934  0.4639 -1.0155 -2.0880
 6633TIP3    H219906   2.793   2.406   1.842  1.5047  0.7542 -0.1965
 6634TIP3   OH219907   2.619   1.114   1.653 -0.3135 -0.3116 -0.0393
 6634TIP3    H119908   2.544   1.171   1.639  0.0031  0.3919  1.0113
 6634TIP3    H219909   2.694   1.173   1.655  0.1379 -0.8803  0.0849
 6635TIP3   OH219910   3.060   0.233   0.033 -0.4348 -0.2251  0.2464
 6635TIP3    H119911   3.054   0.309   0.090 -0.8764 -1.8231  2.4702
 6635TIP3    H219912   3.034   0.159   0.088  0.5424 -2.0913 -1.6220
 6636TIP3   OH219913   5.382   4.229   5.013  0.1448 -0.3846  0.6495
 6636TIP3    H119914   5.467   4.220   4.970  0.1964  3.0505 -0.2060
 6636TIP3    H219915   5.401   4.228   5.106  1.0897 -0.0275  0.4640
 6637TIP3   OH219916   6.163   5.291   3.236 -0.0375 -0.0800 -0.4421
 6637TIP3    H119917   6.094   5.348   3.271 -0.4529 -0.2743 -0.9289
 6637TIP3    H219918   6.180   5.326   3.148 -2.1167 -2.1833 -1.8055
 6638TIP3   OH219919   2.307   0.659   5.171  0.1247 -0.0933  0.4696
 6638TIP3    H119920   2.245   0.677   5.101  0.8546 -1.9160 -0.7155
 6638TIP3    H219921   2.258   0.675   5.251 -0.7309  2.0456 -0.3980
 6639TIP3   OH219922   3.219   0.770   1.862 -0.0842  0.0472  0.1232
 6639TIP3    H119923   3.242   0.701   1.800  0.7397 -1.0467  1.5916
 6639TIP3    H219924   3.300   0.818   1.876 -0.4236  0.7106 -0.1330
 6640TIP3   OH219925   4.049   2.159   3.513 -0.2714  0.6566  0.4022
 6640TIP3    H119926   4.100   2.181   3.435 -0.0390  0.8778  0.6135
 6640TIP3    H219927   4.086   2.077   3.545  0.1633  0.9718  0.7296
 6641TIP3   OH219928   5.322   5.539   4.717  0.2470  0.3363  0.6321
 6641TIP3    H119929   5.410   5.538   4.680 -0.1001  0.3754 -0.2201
 6641TIP3    H219930   5.272   5.595   4.658 -0.6932 -0.8365  0.2751
 6642TIP3   OH219931   1.973   5.537   0.687  0.0053  0.7584 -0.1132
 6642TIP3    H119932   1.891   5.572   0.652 -0.6654  0.1238  0.7721
 6642TIP3    H219933   2.003   5.602   0.750 -0.4011  0.4963  0.3594
 6643TIP3   OH219934   5.406   2.815   0.151 -0.5345  0.3100  0.3062
 6643TIP3    H119935   5.442   2.787   0.235 -0.2961  3.1448  1.2489
 6643TIP3    H219936   5.462   2.888   0.124 -1.0876 -0.0337 -1.9506
 6644TIP3   OH219937   1.966   3.108   4.195 -1.0743 -0.1684  0.2179
 6644TIP3    H119938   1.931   3.031   4.150  0.7216 -0.1899 -1.2944
 6644TIP3    H219939   2.032   3.142   4.135 -2.2235  2.9562  0.5280
 6645TIP3   OH219940   3.698   5.851   4.426 -0.3602 -0.3154  0.2474
 6645TIP3    H119941   3.758   5.842   4.352 -0.3113  0.7361  0.1488
 6645TIP3    H219942   3.711   5.940   4.457 -1.7923 -0.1000  0.2963
   6.35438   5.99096   5.18833   0.00000   0.00000  -2.11814   0.00000  -2.11814  -2.99548
